<LesHouchesEvents version="3.0">
<header>
<!--
#*********************************************************************
#                                                                    *
#                        MadGraph5_aMC@NLO                           *
#                                                                    *
#                           Going Beyond                             *
#                                                                    *
#                   http://madgraph.hep.uiuc.edu                     *
#                   http://madgraph.phys.ucl.ac.be                   *
#                   http://amcatnlo.cern.ch                          *
#                                                                    *
#                     The MadGraph5_aMC@NLO team                     *
#                                                                    *
#....................................................................*
#                                                                    *
# This file contains all the information necessary to reproduce      *
# the events generated:                                              *
#                                                                    *
# 1. software version                                                *
# 2. proc_card          : code generation info including model       *
# 3. param_card         : model primary parameters in the LH format  *
# 4. run_card           : running parameters (collider and cuts)     *
# 5. pythia_card        : present only if pythia has been run        *
# 6. pgs_card           : present only if pgs has been run           *
# 7. delphes_cards      : present only if delphes has been run       *
#                                                                    *
#                                                                    *
#*********************************************************************
-->
<MGVersion>
#5.2.2.3
</MGVersion>
<MG5ProcCard>
#************************************************************
#*                     MadGraph5_aMC@NLO                    *
#*                                                          *
#*                *                       *                 *
#*                  *        * *        *                   *
#*                    * * * * 5 * * * *                     *
#*                  *        * *        *                   *
#*                *                       *                 *
#*                                                          *
#*                                                          *
#*         VERSION 2.2.3                 2015-02-10         *
#*                                                          *
#*    The MadGraph5_aMC@NLO Development Team - Find us at   *
#*    https://server06.fynu.ucl.ac.be/projects/madgraph     *
#*                                                          *
#************************************************************
#*                                                          *
#*               Command File for MadGraph5_aMC@NLO         *
#*                                                          *
#*     run as ./bin/mg5_aMC  filename                       *
#*                                                          *
#************************************************************
set group_subprocesses Auto
set ignore_six_quark_processes False
set loop_optimized_output True
set gauge unitary
set complex_mass_scheme False
import model sm
define p = g u c d s u~ c~ d~ s~
define j = g u c d s u~ c~ d~ s~
define l+ = e+ mu+
define l- = e- mu-
define vl = ve vm vt
define vl~ = ve~ vm~ vt~
import model Zprime_UFO
generate p p > zph, zph > j j
add process p p > zph, zph > b b~
output Dijet_signal
</MG5ProcCard>
<MGProcCard>
#*********************************************************************
#                        MadGraph/MadEvent                           *
#                   http://madgraph.hep.uiuc.edu                     *
#                                                                    *
#                          proc_card.dat                             *
#*********************************************************************
#                                                                    *
#            This Files is generated by MADGRAPH 5                   *
#                                                                    *
# WARNING: This Files is generated for MADEVENT (compatibility issue)*
#          This files is NOT a valid MG4 proc_card.dat               *
#          Running this in MG4 will NEVER reproduce the result of MG5*
#                                                                    *
#*********************************************************************
#*********************************************************************
# Process(es) requested : mg2 input                                  *
#*********************************************************************
# Begin PROCESS # This is TAG. Do not modify this line
p p > zph , zph > j j           #Process
# Be carefull the coupling are here in MG5 convention
          
end_coup           # End the couplings input

done               # this tells MG there are no more procs
# End PROCESS  # This is TAG. Do not modify this line
#*********************************************************************
# Model information                                                  *
#*********************************************************************
# Begin MODEL  # This is TAG. Do not modify this line
Zprime_UFO
# End   MODEL  # This is TAG. Do not modify this line
#*********************************************************************
# Start multiparticle definitions                                    *
#*********************************************************************
# Begin MULTIPARTICLES # This is TAG. Do not modify this line

# End  MULTIPARTICLES # This is TAG. Do not modify this line
</MGProcCard>
<MGRunCard>
#*********************************************************************
#                       MadGraph5_aMC@NLO                            *
#                                                                    *
#                     run_card.dat MadEvent                          *
#                                                                    *
#  This file is used to set the parameters of the run.               *
#                                                                    *
#  Some notation/conventions:                                        *
#                                                                    *
#   Lines starting with a '# ' are info or comments                  *
#                                                                    *
#   mind the format:   value    = variable     ! comment             *
#*********************************************************************
#
#*******************                                                 
# Running parameters
#*******************                                                 
#                                                                    
#*********************************************************************
# Tag name for the run (one word)                                    *
#*********************************************************************
  tag_1     = run_tag ! name of the run 
#*********************************************************************
# Run to generate the grid pack                                      *
#*********************************************************************
  .false.     = gridpack  !True = setting up the grid pack
#*********************************************************************
# Number of events and rnd seed                                      *
# Warning: Do not generate more than 1M events in a single run       *
# If you want to run Pythia, avoid more than 50k events in a run.    *
#*********************************************************************
  2000 = nevents ! Number of unweighted events requested 
 732 = iseed   ! rnd seed (0=assigned automatically=default))
#*********************************************************************
# Collider type and energy                                           *
# lpp: 0=No PDF, 1=proton, -1=antiproton, 2=photon from proton,      *
#                                         3=photon from electron     *
#*********************************************************************
        1     = lpp1    ! beam 1 type 
        1     = lpp2    ! beam 2 type
     4000     = ebeam1  ! beam 1 total energy in GeV
     4000     = ebeam2  ! beam 2 total energy in GeV
#*********************************************************************
# Beam polarization from -100 (left-handed) to 100 (right-handed)    *
#*********************************************************************
        0     = polbeam1 ! beam polarization for beam 1
        0     = polbeam2 ! beam polarization for beam 2
#*********************************************************************
# PDF CHOICE: this automatically fixes also alpha_s and its evol.    *
#*********************************************************************
 'nn23lo1'    = pdlabel     ! PDF set                                     
 230000    = lhaid     ! if pdlabel=lhapdf, this is the lhapdf number
#*********************************************************************
# Renormalization and factorization scales                           *
#*********************************************************************
 F        = fixed_ren_scale  ! if .true. use fixed ren scale
 F        = fixed_fac_scale  ! if .true. use fixed fac scale
 91.1880  = scale            ! fixed ren scale
 91.1880  = dsqrt_q2fact1    ! fixed fact scale for pdf1
 91.1880  = dsqrt_q2fact2    ! fixed fact scale for pdf2
 1        = scalefact        ! scale factor for event-by-event scales
#*********************************************************************
# Matching - Warning! ickkw > 1 is still beta
#*********************************************************************
 0        = ickkw            ! 0 no matching, 1 MLM, 2 CKKW matching
 1        = highestmult      ! for ickkw=2, highest mult group
 1        = ktscheme         ! for ickkw=1, 1 Durham kT, 2 Pythia pTE
 1        = alpsfact         ! scale factor for QCD emission vx
 F        = chcluster        ! cluster only according to channel diag
 T        = pdfwgt           ! for ickkw=1, perform pdf reweighting
 5        = asrwgtflavor     ! highest quark flavor for a_s reweight
 T        = clusinfo         ! include clustering tag in output
 3.0      = lhe_version       ! Change the way clustering information pass to shower.        
#*********************************************************************
#**********************************************************
#
#**********************************************************
# Automatic ptj and mjj cuts if xqcut > 0
# (turn off for VBF and single top processes)
#**********************************************************
   T  = auto_ptj_mjj  ! Automatic setting of ptj and mjj
#**********************************************************
#                                                                    
#**********************************
# BW cutoff (M+/-bwcutoff*Gamma)
#**********************************
  15  = bwcutoff      ! (M+/-bwcutoff*Gamma)
#**********************************************************
# Apply pt/E/eta/dr/mij cuts on decay products or not
# (note that etmiss/ptll/ptheavy/ht/sorted cuts always apply)
#**********************************************************
   T  = cut_decays    ! Cut decay products 
#*************************************************************
# Number of helicities to sum per event (0 = all helicities)
# 0 gives more stable result, but longer run time (needed for
# long decay chains e.g.).
# Use >=2 if most helicities contribute, e.g. pure QCD.
#*************************************************************
   0  = nhel          ! Number of helicities used per event
#*******************                                                 
# Standard Cuts
#*******************                                                 
#                                                                    
#*********************************************************************
# Minimum and maximum pt's (for max, -1 means no cut)                *
#*********************************************************************
 20  = ptj       ! minimum pt for the jets 
  0  = ptb       ! minimum pt for the b 
 10  = pta       ! minimum pt for the photons 
 10  = ptl       ! minimum pt for the charged leptons 
  0  = misset    ! minimum missing Et (sum of neutrino's momenta)
  0  = ptheavy   ! minimum pt for one heavy final state
 1.0 = ptonium   ! minimum pt for the quarkonium states
 -1  = ptjmax    ! maximum pt for the jets
 -1  = ptbmax    ! maximum pt for the b
 -1  = ptamax    ! maximum pt for the photons
 -1  = ptlmax    ! maximum pt for the charged leptons
 -1  = missetmax ! maximum missing Et (sum of neutrino's momenta)
#*********************************************************************
# Minimum and maximum E's (in the center of mass frame)              *
#*********************************************************************
  0  = ej     ! minimum E for the jets 
  0  = eb     ! minimum E for the b 
  0  = ea     ! minimum E for the photons 
  0  = el     ! minimum E for the charged leptons 
 -1   = ejmax ! maximum E for the jets
 -1   = ebmax ! maximum E for the b
 -1   = eamax ! maximum E for the photons
 -1   = elmax ! maximum E for the charged leptons
#*********************************************************************
# Maximum and minimum absolute rapidity (for max, -1 means no cut)   *
#*********************************************************************
   5  = etaj    ! max rap for the jets 
  -1  = etab    ! max rap for the b
 2.5  = etaa    ! max rap for the photons 
 2.5  = etal    ! max rap for the charged leptons 
 0.6  = etaonium ! max rap for the quarkonium states
   0  = etajmin ! min rap for the jets
   0  = etabmin ! min rap for the b
   0  = etaamin ! min rap for the photons
   0  = etalmin ! main rap for the charged leptons
#*********************************************************************
# Minimum and maximum DeltaR distance                                *
#*********************************************************************
 0.4 = drjj    ! min distance between jets 
 0   = drbb    ! min distance between b's 
 0.4 = drll    ! min distance between leptons 
 0.4 = draa    ! min distance between gammas 
 0   = drbj    ! min distance between b and jet 
 0.4 = draj    ! min distance between gamma and jet 
 0.4 = drjl    ! min distance between jet and lepton 
 0   = drab    ! min distance between gamma and b 
 0   = drbl    ! min distance between b and lepton 
 0.4 = dral    ! min distance between gamma and lepton 
 -1  = drjjmax ! max distance between jets
 -1  = drbbmax ! max distance between b's
 -1  = drllmax ! max distance between leptons
 -1  = draamax ! max distance between gammas
 -1  = drbjmax ! max distance between b and jet
 -1  = drajmax ! max distance between gamma and jet
 -1  = drjlmax ! max distance between jet and lepton
 -1  = drabmax ! max distance between gamma and b
 -1  = drblmax ! max distance between b and lepton
 -1  = dralmax ! maxdistance between gamma and lepton
#*********************************************************************
# Minimum and maximum invariant mass for pairs                       *
# WARNING: for four lepton final state mmll cut require to have      *
#          different lepton masses for each flavor!                  *           
#*********************************************************************
 0   = mmjj    ! min invariant mass of a jet pair 
 0   = mmbb    ! min invariant mass of a b pair 
 0   = mmaa    ! min invariant mass of gamma gamma pair
 0   = mmll    ! min invariant mass of l+l- (same flavour) lepton pair
 -1  = mmjjmax ! max invariant mass of a jet pair
 -1  = mmbbmax ! max invariant mass of a b pair
 -1  = mmaamax ! max invariant mass of gamma gamma pair
 -1  = mmllmax ! max invariant mass of l+l- (same flavour) lepton pair
#*********************************************************************
# Minimum and maximum invariant mass for all letpons                 *
#*********************************************************************
 0   = mmnl    ! min invariant mass for all letpons (l+- and vl) 
 -1  = mmnlmax ! max invariant mass for all letpons (l+- and vl) 
#*********************************************************************
# Minimum and maximum pt for 4-momenta sum of leptons                *
#*********************************************************************
 0   = ptllmin  ! Minimum pt for 4-momenta sum of leptons(l and vl)
 -1  = ptllmax  ! Maximum pt for 4-momenta sum of leptons(l and vl)
#*********************************************************************
# Inclusive cuts                                                     *
#*********************************************************************
 0  = xptj ! minimum pt for at least one jet  
 0  = xptb ! minimum pt for at least one b 
 0  = xpta ! minimum pt for at least one photon 
 0  = xptl ! minimum pt for at least one charged lepton 
#*********************************************************************
# Control the pt's of the jets sorted by pt                          *
#*********************************************************************
 0   = ptj1min ! minimum pt for the leading jet in pt
 0   = ptj2min ! minimum pt for the second jet in pt
 0   = ptj3min ! minimum pt for the third jet in pt
 0   = ptj4min ! minimum pt for the fourth jet in pt
 -1  = ptj1max ! maximum pt for the leading jet in pt 
 -1  = ptj2max ! maximum pt for the second jet in pt
 -1  = ptj3max ! maximum pt for the third jet in pt
 -1  = ptj4max ! maximum pt for the fourth jet in pt
 0   = cutuse  ! reject event if fails any (0) / all (1) jet pt cuts
#*********************************************************************
# Control the pt's of leptons sorted by pt                           *
#*********************************************************************
 0   = ptl1min ! minimum pt for the leading lepton in pt
 0   = ptl2min ! minimum pt for the second lepton in pt
 0   = ptl3min ! minimum pt for the third lepton in pt
 0   = ptl4min ! minimum pt for the fourth lepton in pt
 -1  = ptl1max ! maximum pt for the leading lepton in pt 
 -1  = ptl2max ! maximum pt for the second lepton in pt
 -1  = ptl3max ! maximum pt for the third lepton in pt
 -1  = ptl4max ! maximum pt for the fourth lepton in pt
#*********************************************************************
# Control the Ht(k)=Sum of k leading jets                            *
#*********************************************************************
 0   = htjmin ! minimum jet HT=Sum(jet pt)
 -1  = htjmax ! maximum jet HT=Sum(jet pt)
 0   = ihtmin  !inclusive Ht for all partons (including b)
 -1  = ihtmax  !inclusive Ht for all partons (including b)
 0   = ht2min ! minimum Ht for the two leading jets
 0   = ht3min ! minimum Ht for the three leading jets
 0   = ht4min ! minimum Ht for the four leading jets
 -1  = ht2max ! maximum Ht for the two leading jets
 -1  = ht3max ! maximum Ht for the three leading jets
 -1  = ht4max ! maximum Ht for the four leading jets
#***********************************************************************
# Photon-isolation cuts, according to hep-ph/9801442                   *
# When ptgmin=0, all the other parameters are ignored                  *
# When ptgmin>0, pta and draj are not going to be used                 *
#***********************************************************************
   0 = ptgmin ! Min photon transverse momentum
 0.4 = R0gamma ! Radius of isolation code
 1.0 = xn ! n parameter of eq.(3.4) in hep-ph/9801442
 1.0 = epsgamma ! epsilon_gamma parameter of eq.(3.4) in hep-ph/9801442
 .true. = isoEM ! isolate photons from EM energy (photons and leptons)
#*********************************************************************
# WBF cuts                                                           *
#*********************************************************************
 0   = xetamin ! minimum rapidity for two jets in the WBF case  
 0   = deltaeta ! minimum rapidity for two jets in the WBF case 
#*********************************************************************
# KT DURHAM CUT                                                      *
#*********************************************************************
 -1    =  ktdurham        
 0.4  =  dparameter 
#*********************************************************************
# maximal pdg code for quark to be considered as a light jet         *
# (otherwise b cuts are applied)                                     *
#*********************************************************************
 4 = maxjetflavor    ! Maximum jet pdg code
#*********************************************************************
# Jet measure cuts                                                   *
#*********************************************************************
 0   = xqcut   ! minimum kt jet measure between partons
#*********************************************************************
#
#*********************************************************************
# Store info for systematics studies                                 *
# WARNING: If use_syst is T, matched Pythia output is                *
#          meaningful ONLY if plotted taking matchscale              *
#          reweighting into account!                                 *
#*********************************************************************
   F  = use_syst      ! Enable systematics studies
#
#**************************************
# Parameter of the systematics study
#  will be used by SysCalc (if installed)
#**************************************                                  
#
0.5 1 2 = sys_scalefact  # factorization/renormalization scale factor
0.5 1 2 = sys_alpsfact  # \alpha_s emission scale factors
30 50 = sys_matchscale # variation of merging scale
# PDF sets and number of members (0 or none for all members).
CT10nlo.LHgrid = sys_pdf # matching scales
# MSTW2008nlo68cl.LHgrid 1  = sys_pdf
</MGRunCard>
<slha>
######################################################################
## PARAM_CARD AUTOMATICALY GENERATED BY MG5 FOLLOWING UFO MODEL   ####
######################################################################
##                                                                  ##
##  Width set on Auto will be computed following the information    ##
##        present in the decay.py files of the model.               ##
##        See  arXiv:1402.1178 for more details.                    ##
##                                                                  ##
######################################################################

###################################
## INFORMATION FOR CKMBLOCK
###################################
Block ckmblock 
    1 2.277360e-01 # cabi 

###################################
## INFORMATION FOR FRBLOCK
###################################
Block frblock 
    1 2.000000e-01 # gz 

###################################
## INFORMATION FOR MASS
###################################
Block mass 
    1 5.040000e-03 # MD 
    2 2.550000e-03 # MU 
    3 1.010000e-01 # MS 
    4 1.270000e+00 # MC 
    5 4.700000e+00 # MB 
    6 1.720000e+02 # MT 
   11 5.110000e-04 # Me 
   13 1.056600e-01 # MM 
   15 1.777000e+00 # MTA 
   23 9.118760e+01 # MZ 
   25 1.200000e+02 # MH 
  10030 3.100000e+03 # MZph 
  10031 3.000000e+02 # MZpl 
## Dependent parameters, given by model restrictions.
## Those values should be edited following the 
## analytical expression. MG5 ignores those values 
## but they are important for interfacing the output of MG5
## to external program such as Pythia.
  12 0.000000 # ve : 0.0 
  14 0.000000 # vm : 0.0 
  16 0.000000 # vt : 0.0 
  21 0.000000 # g : 0.0 
  22 0.000000 # a : 0.0 
  24 79.824360 # w+ : cmath.sqrt(MZ__exp__2/2. + cmath.sqrt(MZ__exp__4/4. - (aEW*cmath.pi*MZ__exp__2)/(Gf*sqrt__2))) 

###################################
## INFORMATION FOR SMINPUTS
###################################
Block sminputs 
    1 1.279000e+02 # aEWM1 
    2 1.166370e-05 # Gf 
    3 1.184000e-01 # aS 

###################################
## INFORMATION FOR YUKAWA
###################################
Block yukawa 
    1 5.040000e-03 # ymdo 
    2 2.550000e-03 # ymup 
    3 1.010000e-01 # yms 
    4 1.270000e+00 # ymc 
    5 4.700000e+00 # ymb 
    6 1.720000e+02 # ymt 
   11 5.110000e-04 # yme 
   13 1.056600e-01 # ymm 
   15 1.777000e+00 # ymtau 

###################################
## INFORMATION FOR DECAY
###################################
DECAY   6 1.508336e+00 # WT 
DECAY  23 2.495200e+00 # WZ 
DECAY  24 2.085000e+00 # WW 
DECAY  25 5.753088e-03 # WH 
## Dependent parameters, given by model restrictions.
## Those values should be edited following the 
## analytical expression. MG5 ignores those values 
## but they are important for interfacing the output of MG5
## to external program such as Pythia.
DECAY  1 0.000000 # d : 0.0 
DECAY  2 0.000000 # u : 0.0 
DECAY  3 0.000000 # s : 0.0 
DECAY  4 0.000000 # c : 0.0 
DECAY  5 0.000000 # b : 0.0 
DECAY  11 0.000000 # e- : 0.0 
DECAY  12 0.000000 # ve : 0.0 
DECAY  13 0.000000 # mu- : 0.0 
DECAY  14 0.000000 # vm : 0.0 
DECAY  15 0.000000 # ta- : 0.0 
DECAY  16 0.000000 # vt : 0.0 
DECAY  21 0.000000 # g : 0.0 
DECAY  22 0.000000 # a : 0.0 
DECAY  10030 0.308725 # zph : (gz__exp__2*MZph*(5 + cmath.sqrt(1 - (4*MT__exp__2)/MZph__exp__2)))/(144.*cmath.pi) 
DECAY  10031 0.132629 # zpl : (5*gz__exp__2*MZpl)/(144.*cmath.pi) 
#===========================================================
# QUANTUM NUMBERS OF NEW STATE(S) (NON SM PDG CODE)
#===========================================================

Block QNUMBERS 10030  # zph 
        1 0  # 3 times electric charge
        2 3  # number of spin states (2S+1)
        3 1  # colour rep (1: singlet, 3: triplet, 8: octet)
        4 0  # Particle/Antiparticle distinction (0=own anti)
Block QNUMBERS 10031  # zpl 
        1 0  # 3 times electric charge
        2 3  # number of spin states (2S+1)
        3 1  # colour rep (1: singlet, 3: triplet, 8: octet)
        4 0  # Particle/Antiparticle distinction (0=own anti)
</slha>
## END BANNER##
<MGGenerationInfo>
#  Number of Events        :         3912
#  Integrated weight (pb)  :  0.34444E-04
#  Max wgt                 :  0.13989E-07
#  Average wgt             :  0.88047E-08
</MGGenerationInfo>
</header>
<init>
     2212     2212  0.40000000000E+04  0.40000000000E+04 0 0  247000  247000 2   1
  0.34451197412E-04  0.70788788922E-07  0.13989310000E-07   0
</init>
<event>
 5   0  0.1329777E-07  0.3100962E+04  0.7818609E-02  0.8215474E-01
        2   -1    0    0  501    0  0.00000000000E+00  0.00000000000E+00  0.22627545915E+04  0.22627545915E+04  0.25500000920E-02 0.  1.
       -2   -1    0    0    0  501  0.00000000000E+00  0.00000000000E+00 -0.10624180119E+04  0.10624180119E+04  0.25500000920E-02 0. -1.
    10030    2    1    2    0    0  0.00000000000E+00  0.00000000000E+00  0.12003365796E+04  0.33251726034E+04  0.31009619375E+04 0.  0.
        1    1    3    3  502    0 -0.40623370668E+03 -0.39582165304E+03  0.21475178307E+04  0.22211558789E+04  0.50400001928E-02 0.  1.
       -1    1    3    3    0  502  0.40623370668E+03  0.39582165304E+03 -0.94718125107E+03  0.11040167245E+04  0.50400001928E-02 0. -1.
</event>
<event>
 5   0  0.1329777E-07  0.3099700E+04  0.7818609E-02  0.8215820E-01
       -2   -1    0    0    0  501  0.00000000000E+00  0.00000000000E+00  0.11062648406E+04  0.11062648406E+04  0.25500000920E-02 0. -1.
        2   -1    0    0  501    0  0.00000000000E+00  0.00000000000E+00 -0.21713016679E+04  0.21713016679E+04  0.25500000920E-02 0.  1.
    10030    2    1    2    0    0  0.00000000000E+00  0.00000000000E+00 -0.10650368273E+04  0.32775665085E+04  0.30996997878E+04 0.  0.
        1    1    3    3  502    0  0.45327449448E+03 -0.32874615900E+03 -0.20606101242E+04  0.21353327348E+04  0.50400001928E-02 0.  1.
       -1    1    3    3    0  502 -0.45327449448E+03  0.32874615900E+03  0.99557329690E+03  0.11422337738E+04  0.50400001928E-02 0. -1.
</event>
<event>
 5   0  0.1398931E-07  0.3094779E+04  0.7818609E-02  0.8217172E-01
        2   -1    0    0  501    0  0.00000000000E+00  0.00000000000E+00  0.21292797234E+04  0.21292797234E+04  0.25500000920E-02 0. -1.
       -2   -1    0    0    0  501  0.00000000000E+00  0.00000000000E+00 -0.11245182602E+04  0.11245182603E+04  0.25500000920E-02 0.  1.
    10030    2    1    2    0    0  0.00000000000E+00  0.00000000000E+00  0.10047614631E+04  0.32537979836E+04  0.30947787838E+04 0.  0.
        3    1    3    3  502    0  0.95078657562E+03 -0.49779578674E+03 -0.66962523680E+03  0.12649876385E+04  0.10100000352E+00 0.  1.
       -3    1    3    3    0  502 -0.95078657562E+03  0.49779578674E+03  0.16743866999E+04  0.19888103451E+04  0.10100000352E+00 0. -1.
</event>
<event>
 5   0  0.1329777E-07  0.3099796E+04  0.7818609E-02  0.8215794E-01
        2   -1    0    0  501    0  0.00000000000E+00  0.00000000000E+00  0.18199031812E+04  0.18199031812E+04  0.25500000920E-02 0. -1.
       -2   -1    0    0    0  501  0.00000000000E+00  0.00000000000E+00 -0.13199511060E+04  0.13199511060E+04  0.25500000920E-02 0.  1.
    10030    2    1    2    0    0  0.00000000000E+00  0.00000000000E+00  0.49995207520E+03  0.31398542872E+04  0.30997956170E+04 0.  0.
        1    1    3    3  502    0  0.42498932653E+03  0.72011946502E+03  0.15718290097E+04  0.17804028778E+04  0.50400001928E-02 0. -1.
       -1    1    3    3    0  502 -0.42498932653E+03 -0.72011946502E+03 -0.10718769345E+04  0.13594514093E+04  0.50400001928E-02 0.  1.
</event>
<event>
 5   0  0.1398931E-07  0.3101922E+04  0.7818609E-02  0.8215211E-01
       -2   -1    0    0    0  501  0.00000000000E+00  0.00000000000E+00  0.10991715644E+04  0.10991715645E+04  0.25500000920E-02 0.  1.
        2   -1    0    0  501    0  0.00000000000E+00  0.00000000000E+00 -0.21884486749E+04  0.21884486749E+04  0.25500000920E-02 0. -1.
    10030    2    1    2    0    0  0.00000000000E+00  0.00000000000E+00 -0.10892771105E+04  0.32876202394E+04  0.31019223419E+04 0.  0.
        3    1    3    3  502    0  0.46326803569E+03 -0.10077497868E+04  0.60437662065E+03  0.12631104526E+04  0.10100000352E+00 0.  1.
       -3    1    3    3    0  502 -0.46326803569E+03  0.10077497868E+04 -0.16936537311E+04  0.20245097868E+04  0.10100000352E+00 0. -1.
</event>
<event>
 5   0  0.4470354E-08  0.3099999E+04  0.7818609E-02  0.8215738E-01
        1   -1    0    0  501    0  0.00000000000E+00  0.00000000000E+00  0.25567479396E+04  0.25567479396E+04  0.50400001928E-02 0.  1.
       -1   -1    0    0    0  501  0.00000000000E+00  0.00000000000E+00 -0.93966990450E+03  0.93966990451E+03  0.50400001928E-02 0. -1.
    10030    2    1    2    0    0  0.00000000000E+00  0.00000000000E+00  0.16170780351E+04  0.34964178441E+04  0.30999994144E+04 0.  0.
        1    1    3    3  502    0  0.11703930847E+04  0.55407568147E+03 -0.15226336507E+03  0.13038420019E+04  0.50400001928E-02 0. -1.
       -1    1    3    3    0  502 -0.11703930847E+04 -0.55407568147E+03  0.17693414002E+04  0.21925758422E+04  0.50400001928E-02 0.  1.
</event>
<event>
 5   0  0.4436241E-08  0.3099564E+04  0.7818609E-02  0.8215858E-01
        1   -1    0    0  501    0  0.00000000000E+00  0.00000000000E+00  0.84826022010E+03  0.84826022011E+03  0.50400001928E-02 0. -1.
       -1   -1    0    0    0  501  0.00000000000E+00  0.00000000000E+00 -0.28314711041E+04  0.28314711042E+04  0.50400001928E-02 0.  1.
    10030    2    1    2    0    0  0.00000000000E+00  0.00000000000E+00 -0.19832108840E+04  0.36797313243E+04  0.30995640352E+04 0.  0.
        3    1    3    3  502    0 -0.12657700198E+04 -0.86319759525E+03 -0.71435330856E+03  0.16904391415E+04  0.10100000352E+00 0. -1.
       -3    1    3    3    0  502  0.12657700198E+04  0.86319759525E+03 -0.12688575755E+04  0.19892921828E+04  0.10100000352E+00 0.  1.
</event>
<event>
 5   0  0.1329777E-07  0.3099201E+04  0.7818609E-02  0.8215957E-01
       -2   -1    0    0    0  501  0.00000000000E+00  0.00000000000E+00  0.17610152030E+04  0.17610152030E+04  0.25500000920E-02 0.  1.
        2   -1    0    0  501    0  0.00000000000E+00  0.00000000000E+00 -0.13635669863E+04  0.13635669863E+04  0.25500000920E-02 0. -1.
    10030    2    1    2    0    0  0.00000000000E+00  0.00000000000E+00  0.39744821667E+03  0.31245821893E+04  0.30992013121E+04 0.  0.
        1    1    3    3  502    0  0.34323518068E+03  0.24623562749E+02  0.17220065078E+04  0.17560532800E+04  0.50400001928E-02 0.  1.
       -1    1    3    3    0  502 -0.34323518068E+03 -0.24623562749E+02 -0.13245582912E+04  0.13685289094E+04  0.50400001928E-02 0. -1.
</event>
<event>
 5   0  0.4517409E-08  0.3102641E+04  0.7818609E-02  0.8215013E-01
        1   -1    0    0  501    0  0.00000000000E+00  0.00000000000E+00  0.16522795559E+04  0.16522795560E+04  0.50400001928E-02 0.  1.
       -1   -1    0    0    0  501  0.00000000000E+00  0.00000000000E+00 -0.14565305775E+04  0.14565305775E+04  0.50400001928E-02 0. -1.
    10030    2    1    2    0    0  0.00000000000E+00  0.00000000000E+00  0.19574897843E+03  0.31088101335E+04  0.31026412592E+04 0.  0.
        2    1    3    3  502    0 -0.16337354104E+03  0.15402644712E+04  0.11156813745E+02  0.15489448116E+04  0.25500000920E-02 0. -1.
       -2    1    3    3    0  502  0.16337354104E+03 -0.15402644712E+04  0.18459216469E+03  0.15598653218E+04  0.25500000920E-02 0.  1.
</event>
<event>
 5   0  0.1329777E-07  0.3100781E+04  0.7818609E-02  0.8215524E-01
       -2   -1    0    0    0  501  0.00000000000E+00  0.00000000000E+00  0.17210973241E+04  0.17210973241E+04  0.25500000920E-02 0.  1.
        2   -1    0    0  501    0  0.00000000000E+00  0.00000000000E+00 -0.13966154299E+04  0.13966154299E+04  0.25500000920E-02 0. -1.
    10030    2    1    2    0    0  0.00000000000E+00  0.00000000000E+00  0.32448189419E+03  0.31177127540E+04  0.31007812430E+04 0.  0.
        1    1    3    3  502    0 -0.61387996923E+03  0.14043017967E+04 -0.73128992609E+02  0.15343598021E+04  0.50400001928E-02 0.  1.
       -1    1    3    3    0  502  0.61387996923E+03 -0.14043017967E+04  0.39761088680E+03  0.15833529519E+04  0.50400001928E-02 0. -1.
</event>
<event>
 5   0  0.4517409E-08  0.3099983E+04  0.7818609E-02  0.8215743E-01
       -1   -1    0    0    0  501  0.00000000000E+00  0.00000000000E+00  0.11872723292E+04  0.11872723292E+04  0.50400001928E-02 0.  1.
        1   -1    0    0  501    0  0.00000000000E+00  0.00000000000E+00 -0.20235239193E+04  0.20235239193E+04  0.50400001928E-02 0. -1.
    10030    2    1    2    0    0  0.00000000000E+00  0.00000000000E+00 -0.83625159014E+03  0.32107962485E+04  0.30999831979E+04 0.  0.
        2    1    3    3  502    0 -0.70420717939E+03  0.67897736596E+03 -0.16634168213E+04  0.19297340585E+04  0.25500000920E-02 0. -1.
       -2    1    3    3    0  502  0.70420717939E+03 -0.67897736596E+03  0.82716523117E+03  0.12810621900E+04  0.25500000920E-02 0.  1.
</event>
<event>
 5   0  0.1318916E-07  0.3099656E+04  0.7818609E-02  0.8215832E-01
        2   -1    0    0  501    0  0.00000000000E+00  0.00000000000E+00  0.27139150241E+04  0.27139150241E+04  0.25500000920E-02 0.  1.
       -2   -1    0    0    0  501  0.00000000000E+00  0.00000000000E+00 -0.88505598535E+03  0.88505598535E+03  0.25500000920E-02 0. -1.
    10030    2    1    2    0    0  0.00000000000E+00  0.00000000000E+00  0.18288590388E+04  0.35989710095E+04  0.30996559395E+04 0.  0.
        5    1    3    3  502    0 -0.15198207308E+04  0.13902584502E+03  0.12276249385E+04  0.19586394050E+04  0.46999998093E+01 0. -1.
       -5    1    3    3    0  502  0.15198207308E+04 -0.13902584502E+03  0.60123410026E+03  0.16403316045E+04  0.46999998093E+01 0.  1.
</event>
<event>
 5   0  0.4838602E-08  0.3111442E+04  0.7818609E-02  0.8212605E-01
       -1   -1    0    0    0  501  0.00000000000E+00  0.00000000000E+00  0.15974498556E+04  0.15974498556E+04  0.50400001928E-02 0.  1.
        1   -1    0    0  501    0  0.00000000000E+00  0.00000000000E+00 -0.15150820911E+04  0.15150820911E+04  0.50400001928E-02 0. -1.
    10030    2    1    2    0    0  0.00000000000E+00  0.00000000000E+00  0.82367764448E+02  0.31125319467E+04  0.31114418958E+04 0.  0.
        5    1    3    3  502    0  0.71469519445E+03 -0.52921711183E+03 -0.12357372081E+04  0.15224744694E+04  0.46999998093E+01 0. -1.
       -5    1    3    3    0  502 -0.71469519445E+03  0.52921711183E+03  0.13181049726E+04  0.15900574773E+04  0.46999998093E+01 0.  1.
</event>
<event>
 5   0  0.4470354E-08  0.3100747E+04  0.7818609E-02  0.8215533E-01
        1   -1    0    0  501    0  0.00000000000E+00  0.00000000000E+00  0.22511883207E+04  0.22511883207E+04  0.50400001928E-02 0. -1.
       -1   -1    0    0    0  501  0.00000000000E+00  0.00000000000E+00 -0.10677286725E+04  0.10677286725E+04  0.50400001928E-02 0.  1.
    10030    2    1    2    0    0  0.00000000000E+00  0.00000000000E+00  0.11834596482E+04  0.33189169933E+04  0.31007472115E+04 0.  0.
        1    1    3    3  502    0 -0.10548102226E+04  0.49540124452E+03  0.16862283143E+04  0.20497348431E+04  0.50400001928E-02 0. -1.
       -1    1    3    3    0  502  0.10548102226E+04 -0.49540124452E+03 -0.50276866609E+03  0.12691821502E+04  0.50400001928E-02 0.  1.
</event>
<event>
 5   0  0.4436241E-08  0.3100040E+04  0.7818609E-02  0.8215727E-01
        1   -1    0    0  501    0  0.00000000000E+00  0.00000000000E+00  0.20939410878E+04  0.20939410878E+04  0.50400001928E-02 0.  1.
       -1   -1    0    0    0  501  0.00000000000E+00  0.00000000000E+00 -0.11473878356E+04  0.11473878356E+04  0.50400001928E-02 0. -1.
    10030    2    1    2    0    0  0.00000000000E+00  0.00000000000E+00  0.94655325223E+03  0.32413289235E+04  0.31000403434E+04 0.  0.
        3    1    3    3  502    0  0.28746512722E+03 -0.15187258292E+04  0.59430261564E+03  0.16560072322E+04  0.10100000352E+00 0.  1.
       -3    1    3    3    0  502 -0.28746512722E+03  0.15187258292E+04  0.35225063659E+03  0.15853216913E+04  0.10100000352E+00 0. -1.
</event>
<event>
 5   0  0.4436241E-08  0.3098817E+04  0.7818609E-02  0.8216063E-01
        1   -1    0    0  501    0  0.00000000000E+00  0.00000000000E+00  0.23363259436E+04  0.23363259436E+04  0.50400001928E-02 0. -1.
       -1   -1    0    0    0  501  0.00000000000E+00  0.00000000000E+00 -0.10275394308E+04  0.10275394308E+04  0.50400001928E-02 0.  1.
    10030    2    1    2    0    0  0.00000000000E+00  0.00000000000E+00  0.13087865128E+04  0.33638653744E+04  0.30988172133E+04 0.  0.
        3    1    3    3  502    0  0.59379685501E+03  0.64153241153E+03 -0.73428545205E+03  0.11416364024E+04  0.10100000352E+00 0.  1.
       -3    1    3    3    0  502 -0.59379685501E+03 -0.64153241153E+03  0.20430719649E+04  0.22222289720E+04  0.10100000352E+00 0. -1.
</event>
<event>
 5   0  0.1329777E-07  0.3101748E+04  0.7818609E-02  0.8215258E-01
       -2   -1    0    0    0  501  0.00000000000E+00  0.00000000000E+00  0.12920283267E+04  0.12920283267E+04  0.25500000920E-02 0. -1.
        2   -1    0    0  501    0  0.00000000000E+00  0.00000000000E+00 -0.18615765953E+04  0.18615765953E+04  0.25500000920E-02 0.  1.
    10030    2    1    2    0    0  0.00000000000E+00  0.00000000000E+00 -0.56954826869E+03  0.31536049220E+04  0.31017476967E+04 0.  0.
        1    1    3    3  502    0 -0.96621998167E+03  0.10641422011E+04 -0.87694624943E+03  0.16837501007E+04  0.50400001928E-02 0.  1.
       -1    1    3    3    0  502  0.96621998167E+03 -0.10641422011E+04  0.30739798074E+03  0.14698548213E+04  0.50400001928E-02 0. -1.
</event>
<event>
 5   0  0.4450600E-08  0.3099958E+04  0.7818609E-02  0.8215749E-01
        1   -1    0    0  501    0  0.00000000000E+00  0.00000000000E+00  0.19337014916E+04  0.19337014916E+04  0.50400001928E-02 0. -1.
       -1   -1    0    0    0  501  0.00000000000E+00  0.00000000000E+00 -0.12424024298E+04  0.12424024298E+04  0.50400001928E-02 0.  1.
    10030    2    1    2    0    0  0.00000000000E+00  0.00000000000E+00  0.69129906178E+03  0.31761039214E+04  0.30999583427E+04 0.  0.
        4    1    3    3  502    0  0.13245744663E+04 -0.12315544188E+03  0.11606567524E+04  0.17654434257E+04  0.12699999809E+01 0. -1.
       -4    1    3    3    0  502 -0.13245744663E+04  0.12315544188E+03 -0.46935769061E+03  0.14106604957E+04  0.12699999809E+01 0.  1.
</event>
<event>
 5   0  0.4470354E-08  0.3100097E+04  0.7818609E-02  0.8215711E-01
       -1   -1    0    0    0  501  0.00000000000E+00  0.00000000000E+00  0.19121496696E+04  0.19121496696E+04  0.50400001928E-02 0. -1.
        1   -1    0    0  501    0  0.00000000000E+00  0.00000000000E+00 -0.12565183143E+04  0.12565183143E+04  0.50400001928E-02 0.  1.
    10030    2    1    2    0    0  0.00000000000E+00  0.00000000000E+00  0.65563135532E+03  0.31686679839E+04  0.31000974691E+04 0.  0.
        1    1    3    3  502    0  0.14582490697E+04  0.78069752478E+02  0.85898895459E+03  0.16942394340E+04  0.50400001928E-02 0. -1.
       -1    1    3    3    0  502 -0.14582490697E+04 -0.78069752478E+02 -0.20335759927E+03  0.14744285499E+04  0.50400001928E-02 0.  1.
</event>
<event>
 5   0  0.1377237E-07  0.3100161E+04  0.7818609E-02  0.8215694E-01
       -2   -1    0    0    0  501  0.00000000000E+00  0.00000000000E+00  0.13970506228E+04  0.13970506228E+04  0.25500000920E-02 0. -1.
        2   -1    0    0  501    0  0.00000000000E+00  0.00000000000E+00 -0.17198731054E+04  0.17198731054E+04  0.25500000920E-02 0.  1.
    10030    2    1    2    0    0  0.00000000000E+00  0.00000000000E+00 -0.32282248254E+03  0.31169237282E+04  0.31001611526E+04 0.  0.
        2    1    3    3  502    0  0.14858176142E+04  0.40802735998E+03  0.86467001397E+01  0.15408488162E+04  0.25500000920E-02 0.  1.
       -2    1    3    3    0  502 -0.14858176142E+04 -0.40802735998E+03 -0.33146918268E+03  0.15760749120E+04  0.25500000920E-02 0. -1.
</event>
<event>
 5   0  0.4436241E-08  0.3097778E+04  0.7818609E-02  0.8216348E-01
        1   -1    0    0  501    0  0.00000000000E+00  0.00000000000E+00  0.22652793657E+04  0.22652793657E+04  0.50400001928E-02 0. -1.
       -1   -1    0    0    0  501  0.00000000000E+00  0.00000000000E+00 -0.10590555819E+04  0.10590555819E+04  0.50400001928E-02 0.  1.
    10030    2    1    2    0    0  0.00000000000E+00  0.00000000000E+00  0.12062237838E+04  0.33243349476E+04  0.30977777563E+04 0.  0.
        3    1    3    3  502    0 -0.84821242844E+03 -0.12916419232E+04  0.48927066119E+03  0.16208605651E+04  0.10100000352E+00 0.  1.
       -3    1    3    3    0  502  0.84821242844E+03  0.12916419232E+04  0.71695312258E+03  0.17034743825E+04  0.10100000352E+00 0. -1.
</event>
<event>
 5   0  0.1398931E-07  0.3096409E+04  0.7818609E-02  0.8216724E-01
        2   -1    0    0  501    0  0.00000000000E+00  0.00000000000E+00  0.92180082097E+03  0.92180082097E+03  0.25500000920E-02 0.  1.
       -2   -1    0    0    0  501  0.00000000000E+00  0.00000000000E+00 -0.26002768337E+04  0.26002768337E+04  0.25500000920E-02 0. -1.
    10030    2    1    2    0    0  0.00000000000E+00  0.00000000000E+00 -0.16784760127E+04  0.35220776547E+04  0.30964090944E+04 0.  0.
        3    1    3    3  502    0  0.24682723378E+03  0.22767615040E+03 -0.25583552183E+04  0.25802987319E+04  0.10100000352E+00 0. -1.
       -3    1    3    3    0  502 -0.24682723378E+03 -0.22767615040E+03  0.87987920555E+03  0.94177892276E+03  0.10100000352E+00 0.  1.
</event>
<event>
 5   0  0.4470354E-08  0.3100444E+04  0.7818609E-02  0.8215616E-01
       -1   -1    0    0    0  501  0.00000000000E+00  0.00000000000E+00  0.96255317711E+03  0.96255317712E+03  0.50400001928E-02 0.  1.
        1   -1    0    0  501    0  0.00000000000E+00  0.00000000000E+00 -0.24966802639E+04  0.24966802639E+04  0.50400001928E-02 0. -1.
    10030    2    1    2    0    0  0.00000000000E+00  0.00000000000E+00 -0.15341270868E+04  0.34592334410E+04  0.31004435297E+04 0.  0.
        1    1    3    3  502    0 -0.21594260642E+03  0.15064740625E+04 -0.10963286434E+04  0.18756417047E+04  0.50400001928E-02 0. -1.
       -1    1    3    3    0  502  0.21594260642E+03 -0.15064740625E+04 -0.43779844344E+03  0.15835917363E+04  0.50400001928E-02 0.  1.
</event>
<event>
 5   0  0.1377237E-07  0.3100056E+04  0.7818609E-02  0.8215723E-01
        2   -1    0    0  501    0  0.00000000000E+00  0.00000000000E+00  0.16312867346E+04  0.16312867346E+04  0.25500000920E-02 0. -1.
       -2   -1    0    0    0  501  0.00000000000E+00  0.00000000000E+00 -0.14728170807E+04  0.14728170807E+04  0.25500000920E-02 0.  1.
    10030    2    1    2    0    0  0.00000000000E+00  0.00000000000E+00  0.15846965393E+03  0.31041038153E+04  0.31000561067E+04 0.  0.
        2    1    3    3  502    0  0.55915352054E+03 -0.82313480345E+03  0.12692239346E+04  0.16128028275E+04  0.25500000920E-02 0. -1.
       -2    1    3    3    0  502 -0.55915352054E+03  0.82313480345E+03 -0.11107542807E+04  0.14913009878E+04  0.25500000920E-02 0.  1.
</event>
<event>
 5   0  0.4517409E-08  0.3099348E+04  0.7818609E-02  0.8215917E-01
       -1   -1    0    0    0  501  0.00000000000E+00  0.00000000000E+00  0.19611714617E+04  0.19611714617E+04  0.50400001928E-02 0.  1.
        1   -1    0    0  501    0  0.00000000000E+00  0.00000000000E+00 -0.12245178297E+04  0.12245178297E+04  0.50400001928E-02 0. -1.
    10030    2    1    2    0    0  0.00000000000E+00  0.00000000000E+00  0.73665363200E+03  0.31856892914E+04  0.30993479456E+04 0.  0.
        2    1    3    3  502    0  0.14995656377E+04 -0.22974906031E+03  0.69337652243E+03  0.16680086134E+04  0.25500000920E-02 0.  1.
       -2    1    3    3    0  502 -0.14995656377E+04  0.22974906031E+03  0.43277109567E+02  0.15176806781E+04  0.25500000920E-02 0. -1.
</event>
<event>
 5   0  0.1398931E-07  0.3098325E+04  0.7818609E-02  0.8216198E-01
        2   -1    0    0  501    0  0.00000000000E+00  0.00000000000E+00  0.23179343008E+04  0.23179343008E+04  0.25500000920E-02 0. -1.
       -2   -1    0    0    0  501  0.00000000000E+00  0.00000000000E+00 -0.10353633645E+04  0.10353633645E+04  0.25500000920E-02 0.  1.
    10030    2    1    2    0    0  0.00000000000E+00  0.00000000000E+00  0.12825709363E+04  0.33532976653E+04  0.30983248740E+04 0.  0.
        3    1    3    3  502    0 -0.93827983690E+03  0.97353860125E+03  0.14596582871E+04  0.19896604699E+04  0.10100000352E+00 0. -1.
       -3    1    3    3    0  502  0.93827983690E+03 -0.97353860125E+03 -0.17708735074E+03  0.13636371953E+04  0.10100000352E+00 0.  1.
</event>
<event>
 5   0  0.1318916E-07  0.3102184E+04  0.7818609E-02  0.8215139E-01
       -2   -1    0    0    0  501  0.00000000000E+00  0.00000000000E+00  0.12686275404E+04  0.12686275404E+04  0.25500000920E-02 0.  1.
        2   -1    0    0  501    0  0.00000000000E+00  0.00000000000E+00 -0.18964487929E+04  0.18964487929E+04  0.25500000920E-02 0. -1.
    10030    2    1    2    0    0  0.00000000000E+00  0.00000000000E+00 -0.62782125252E+03  0.31650763334E+04  0.31021844998E+04 0.  0.
        5    1    3    3  502    0  0.58713635922E+02 -0.35635162706E+03 -0.18529453883E+04  0.18878195028E+04  0.46999998093E+01 0. -1.
       -5    1    3    3    0  502 -0.58713635922E+02  0.35635162706E+03  0.12251241358E+04  0.12772568306E+04  0.46999998093E+01 0.  1.
</event>
<event>
 5   0  0.4517409E-08  0.3105466E+04  0.7818609E-02  0.8214239E-01
        1   -1    0    0  501    0  0.00000000000E+00  0.00000000000E+00  0.11041068705E+04  0.11041068705E+04  0.50400001928E-02 0. -1.
       -1   -1    0    0    0  501  0.00000000000E+00  0.00000000000E+00 -0.21836475136E+04  0.21836475136E+04  0.50400001928E-02 0.  1.
    10030    2    1    2    0    0  0.00000000000E+00  0.00000000000E+00 -0.10795406432E+04  0.32877543841E+04  0.31054662919E+04 0.  0.
        2    1    3    3  502    0  0.48428212034E+03 -0.11286024522E+04 -0.15456501166E+04  0.19741598087E+04  0.25500000920E-02 0.  1.
       -2    1    3    3    0  502 -0.48428212034E+03  0.11286024522E+04  0.46610947344E+03  0.13135945754E+04  0.25500000920E-02 0. -1.
</event>
<event>
 5   0  0.1398931E-07  0.3096986E+04  0.7818609E-02  0.8216565E-01
       -2   -1    0    0    0  501  0.00000000000E+00  0.00000000000E+00  0.18638601437E+04  0.18638601437E+04  0.25500000920E-02 0.  1.
        2   -1    0    0  501    0  0.00000000000E+00  0.00000000000E+00 -0.12864866880E+04  0.12864866880E+04  0.25500000920E-02 0. -1.
    10030    2    1    2    0    0  0.00000000000E+00  0.00000000000E+00  0.57737345563E+03  0.31503468317E+04  0.30969864470E+04 0.  0.
        3    1    3    3  502    0  0.86554044785E+03 -0.12831961945E+04  0.24231050327E+03  0.15666739069E+04  0.10100000352E+00 0.  1.
       -3    1    3    3    0  502 -0.86554044785E+03  0.12831961945E+04  0.33506295235E+03  0.15836729248E+04  0.10100000352E+00 0. -1.
</event>
<event>
 5   0  0.1329777E-07  0.3099081E+04  0.7818609E-02  0.8215990E-01
       -2   -1    0    0    0  501  0.00000000000E+00  0.00000000000E+00  0.10993643108E+04  0.10993643108E+04  0.25500000920E-02 0. -1.
        2   -1    0    0  501    0  0.00000000000E+00  0.00000000000E+00 -0.21840586852E+04  0.21840586852E+04  0.25500000920E-02 0.  1.
    10030    2    1    2    0    0  0.00000000000E+00  0.00000000000E+00 -0.10846943744E+04  0.32834229960E+04  0.30990812647E+04 0.  0.
        1    1    3    3  502    0 -0.62851217749E+03  0.61909553496E+03 -0.18920006299E+04  0.20875759201E+04  0.50400001928E-02 0.  1.
       -1    1    3    3    0  502  0.62851217749E+03 -0.61909553496E+03  0.80730625555E+03  0.11958470759E+04  0.50400001928E-02 0. -1.
</event>
<event>
 5   0  0.4838602E-08  0.3100159E+04  0.7818609E-02  0.8215694E-01
       -1   -1    0    0    0  501  0.00000000000E+00  0.00000000000E+00  0.86420432541E+03  0.86420432542E+03  0.50400001928E-02 0.  1.
        1   -1    0    0  501    0  0.00000000000E+00  0.00000000000E+00 -0.27802987064E+04  0.27802987065E+04  0.50400001928E-02 0. -1.
    10030    2    1    2    0    0  0.00000000000E+00  0.00000000000E+00 -0.19160943810E+04  0.36445030319E+04  0.31001588140E+04 0.  0.
        5    1    3    3  502    0 -0.21207403143E+03  0.39515016302E+03 -0.27023588274E+04  0.27393218811E+04  0.46999998093E+01 0. -1.
       -5    1    3    3    0  502  0.21207403143E+03 -0.39515016302E+03  0.78626444636E+03  0.90518115079E+03  0.46999998093E+01 0.  1.
</event>
<event>
 5   0  0.1398931E-07  0.3100473E+04  0.7818609E-02  0.8215608E-01
        2   -1    0    0  501    0  0.00000000000E+00  0.00000000000E+00  0.13525016295E+04  0.13525016295E+04  0.25500000920E-02 0. -1.
       -2   -1    0    0    0  501  0.00000000000E+00  0.00000000000E+00 -0.17768797051E+04  0.17768797051E+04  0.25500000920E-02 0.  1.
    10030    2    1    2    0    0  0.00000000000E+00  0.00000000000E+00 -0.42437807560E+03  0.31293813346E+04  0.31004726714E+04 0.  0.
        3    1    3    3  502    0 -0.10961571853E+04 -0.62697265446E+02 -0.13168069162E+04  0.17144888413E+04  0.10100000352E+00 0.  1.
       -3    1    3    3    0  502  0.10961571853E+04  0.62697265446E+02  0.89242884062E+03  0.14148924933E+04  0.10100000352E+00 0. -1.
</event>
<event>
 5   0  0.4450600E-08  0.3099743E+04  0.7818609E-02  0.8215809E-01
        1   -1    0    0  501    0  0.00000000000E+00  0.00000000000E+00  0.22313495003E+04  0.22313495003E+04  0.50400001928E-02 0.  1.
       -1   -1    0    0    0  501  0.00000000000E+00  0.00000000000E+00 -0.10765239355E+04  0.10765239355E+04  0.50400001928E-02 0. -1.
    10030    2    1    2    0    0  0.00000000000E+00  0.00000000000E+00  0.11548255648E+04  0.33078734359E+04  0.30997426639E+04 0.  0.
        4    1    3    3  502    0 -0.96686731934E+02  0.15146423617E+04  0.91251948688E+03  0.17709272246E+04  0.12699999809E+01 0.  1.
       -4    1    3    3    0  502  0.96686731934E+02 -0.15146423617E+04  0.24230607790E+03  0.15369462113E+04  0.12699999809E+01 0. -1.
</event>
<event>
 5   0  0.4470354E-08  0.3097799E+04  0.7818609E-02  0.8216342E-01
       -1   -1    0    0    0  501  0.00000000000E+00  0.00000000000E+00  0.17488040855E+04  0.17488040855E+04  0.50400001928E-02 0.  1.
        1   -1    0    0  501    0  0.00000000000E+00  0.00000000000E+00 -0.13718458437E+04  0.13718458437E+04  0.50400001928E-02 0. -1.
    10030    2    1    2    0    0  0.00000000000E+00  0.00000000000E+00  0.37695824189E+03  0.31206499292E+04  0.30977989710E+04 0.  0.
        1    1    3    3  502    0  0.12352824083E+04  0.83722057691E+03  0.60654485713E+03  0.16108251259E+04  0.50400001928E-02 0. -1.
       -1    1    3    3    0  502 -0.12352824083E+04 -0.83722057691E+03 -0.22958661524E+03  0.15098248033E+04  0.50400001928E-02 0.  1.
</event>
<event>
 5   0  0.4436241E-08  0.3099787E+04  0.7818609E-02  0.8215796E-01
       -1   -1    0    0    0  501  0.00000000000E+00  0.00000000000E+00  0.15446859456E+04  0.15446859456E+04  0.50400001928E-02 0. -1.
        1   -1    0    0  501    0  0.00000000000E+00  0.00000000000E+00 -0.15551187802E+04  0.15551187802E+04  0.50400001928E-02 0.  1.
    10030    2    1    2    0    0  0.00000000000E+00  0.00000000000E+00 -0.10432834539E+02  0.30998047258E+04  0.30997871692E+04 0.  0.
        3    1    3    3  502    0 -0.21051271761E+03  0.43739806605E+03 -0.14771410018E+04  0.15548563348E+04  0.10100000352E+00 0.  1.
       -3    1    3    3    0  502  0.21051271761E+03 -0.43739806605E+03  0.14667081673E+04  0.15449483910E+04  0.10100000352E+00 0. -1.
</event>
<event>
 5   0  0.1325713E-07  0.3100014E+04  0.7818609E-02  0.8215734E-01
        2   -1    0    0  501    0  0.00000000000E+00  0.00000000000E+00  0.18841368831E+04  0.18841368831E+04  0.25500000920E-02 0. -1.
       -2   -1    0    0    0  501  0.00000000000E+00  0.00000000000E+00 -0.12751310233E+04  0.12751310233E+04  0.25500000920E-02 0.  1.
    10030    2    1    2    0    0  0.00000000000E+00  0.00000000000E+00  0.60900585978E+03  0.31592679064E+04  0.31000138011E+04 0.  0.
        4    1    3    3  502    0 -0.82671362608E+03  0.13089912906E+04  0.38080838614E+03  0.15943432059E+04  0.12699999809E+01 0.  1.
       -4    1    3    3    0  502  0.82671362608E+03 -0.13089912906E+04  0.22819747363E+03  0.15649247005E+04  0.12699999809E+01 0. -1.
</event>
<event>
 5   0  0.1325713E-07  0.3093285E+04  0.7818609E-02  0.8217583E-01
       -2   -1    0    0    0  501  0.00000000000E+00  0.00000000000E+00  0.14693426717E+04  0.14693426717E+04  0.25500000920E-02 0. -1.
        2   -1    0    0  501    0  0.00000000000E+00  0.00000000000E+00 -0.16280087459E+04  0.16280087459E+04  0.25500000920E-02 0.  1.
    10030    2    1    2    0    0  0.00000000000E+00  0.00000000000E+00 -0.15866607418E+03  0.30973514176E+04  0.30932848043E+04 0.  0.
        4    1    3    3  502    0 -0.10858878098E+04  0.38254226091E+03 -0.11134589918E+04  0.16016502290E+04  0.12699999809E+01 0.  1.
       -4    1    3    3    0  502  0.10858878098E+04 -0.38254226091E+03  0.95479291765E+03  0.14957011885E+04  0.12699999809E+01 0. -1.
</event>
<event>
 5   0  0.4517409E-08  0.3099512E+04  0.7818609E-02  0.8215872E-01
       -1   -1    0    0    0  501  0.00000000000E+00  0.00000000000E+00  0.12024255679E+04  0.12024255680E+04  0.50400001928E-02 0.  1.
        1   -1    0    0  501    0  0.00000000000E+00  0.00000000000E+00 -0.19974158075E+04  0.19974158075E+04  0.50400001928E-02 0. -1.
    10030    2    1    2    0    0  0.00000000000E+00  0.00000000000E+00 -0.79499023954E+03  0.31998413754E+04  0.30995121144E+04 0.  0.
        2    1    3    3  502    0  0.15880337606E+03  0.14644517623E+04  0.99659456717E+02  0.14764042413E+04  0.25500000920E-02 0.  1.
       -2    1    3    3    0  502 -0.15880337606E+03 -0.14644517623E+04 -0.89464969626E+03  0.17234371342E+04  0.25500000920E-02 0. -1.
</event>
<event>
 5   0  0.4436241E-08  0.3100687E+04  0.7818609E-02  0.8215549E-01
        1   -1    0    0  501    0  0.00000000000E+00  0.00000000000E+00  0.17074864244E+04  0.17074864244E+04  0.50400001928E-02 0. -1.
       -1   -1    0    0    0  501  0.00000000000E+00  0.00000000000E+00 -0.14076625227E+04  0.14076625227E+04  0.50400001928E-02 0.  1.
    10030    2    1    2    0    0  0.00000000000E+00  0.00000000000E+00  0.29982390172E+03  0.31151489471E+04  0.31006867933E+04 0.  0.
        3    1    3    3  502    0  0.79988954614E+03 -0.70207582891E+03  0.12824812820E+04  0.16665809325E+04  0.10100000352E+00 0. -1.
       -3    1    3    3    0  502 -0.79988954614E+03  0.70207582891E+03 -0.98265738031E+03  0.14485680146E+04  0.10100000352E+00 0.  1.
</event>
<event>
 5   0  0.4838602E-08  0.3099514E+04  0.7818609E-02  0.8215871E-01
        1   -1    0    0  501    0  0.00000000000E+00  0.00000000000E+00  0.14801218828E+04  0.14801218828E+04  0.50400001928E-02 0. -1.
       -1   -1    0    0    0  501  0.00000000000E+00  0.00000000000E+00 -0.16226683179E+04  0.16226683179E+04  0.50400001928E-02 0.  1.
    10030    2    1    2    0    0  0.00000000000E+00  0.00000000000E+00 -0.14254643512E+03  0.31027902008E+04  0.30995140819E+04 0.  0.
        5    1    3    3  502    0 -0.13040533733E+04 -0.27979292503E+03 -0.86133838158E+03  0.15876917770E+04  0.46999998093E+01 0.  1.
       -5    1    3    3    0  502  0.13040533733E+04  0.27979292503E+03  0.71879194646E+03  0.15150984237E+04  0.46999998093E+01 0. -1.
</event>
<event>
 5   0  0.1377237E-07  0.3100398E+04  0.7818609E-02  0.8215629E-01
        2   -1    0    0  501    0  0.00000000000E+00  0.00000000000E+00  0.24527898042E+04  0.24527898042E+04  0.25500000920E-02 0. -1.
       -2   -1    0    0    0  501  0.00000000000E+00  0.00000000000E+00 -0.97974820955E+03  0.97974820956E+03  0.25500000920E-02 0.  1.
    10030    2    1    2    0    0  0.00000000000E+00  0.00000000000E+00  0.14730415946E+04  0.34325380137E+04  0.31003976642E+04 0.  0.
        2    1    3    3  502    0 -0.99214736361E+03  0.11722036094E+04  0.97059067466E+03  0.18167179062E+04  0.25500000920E-02 0. -1.
       -2    1    3    3    0  502  0.99214736361E+03 -0.11722036094E+04  0.50245091995E+03  0.16158201075E+04  0.25500000920E-02 0.  1.
</event>
<event>
 5   0  0.1398931E-07  0.3099807E+04  0.7818609E-02  0.8215791E-01
        2   -1    0    0  501    0  0.00000000000E+00  0.00000000000E+00  0.22684853007E+04  0.22684853007E+04  0.25500000920E-02 0. -1.
       -2   -1    0    0    0  501  0.00000000000E+00  0.00000000000E+00 -0.10589447903E+04  0.10589447904E+04  0.25500000920E-02 0.  1.
    10030    2    1    2    0    0  0.00000000000E+00  0.00000000000E+00  0.12095405103E+04  0.33274300910E+04  0.30998068915E+04 0.  0.
        3    1    3    3  502    0 -0.69657609771E+03  0.78182328867E+03 -0.62182642290E+03  0.12178399012E+04  0.10100000352E+00 0.  1.
       -3    1    3    3    0  502  0.69657609771E+03 -0.78182328867E+03  0.18313669332E+04  0.21095901898E+04  0.10100000352E+00 0. -1.
</event>
<event>
 5   0  0.1329777E-07  0.3095746E+04  0.7818609E-02  0.8216906E-01
        2   -1    0    0  501    0  0.00000000000E+00  0.00000000000E+00  0.20645779981E+04  0.20645779981E+04  0.25500000920E-02 0. -1.
       -2   -1    0    0    0  501  0.00000000000E+00  0.00000000000E+00 -0.11604847177E+04  0.11604847177E+04  0.25500000920E-02 0.  1.
    10030    2    1    2    0    0  0.00000000000E+00  0.00000000000E+00  0.90409328041E+03  0.32250627158E+04  0.30957462527E+04 0.  0.
        1    1    3    3  502    0  0.10743076646E+04 -0.85374662655E+03  0.11981265208E+04  0.18216825795E+04  0.50400001928E-02 0. -1.
       -1    1    3    3    0  502 -0.10743076646E+04  0.85374662655E+03 -0.29403324036E+03  0.14033801363E+04  0.50400001928E-02 0.  1.
</event>
<event>
 5   0  0.1377237E-07  0.3099958E+04  0.7818609E-02  0.8215749E-01
        2   -1    0    0  501    0  0.00000000000E+00  0.00000000000E+00  0.26122345109E+04  0.26122345109E+04  0.25500000920E-02 0.  1.
       -2   -1    0    0    0  501  0.00000000000E+00  0.00000000000E+00 -0.91968603411E+03  0.91968603411E+03  0.25500000920E-02 0. -1.
    10030    2    1    2    0    0  0.00000000000E+00  0.00000000000E+00  0.16925484767E+04  0.35319205450E+04  0.30999584497E+04 0.  0.
        2    1    3    3  502    0  0.36151420890E+03 -0.73738263827E+03  0.23439857496E+04  0.24836857435E+04  0.25500000920E-02 0.  1.
       -2    1    3    3    0  502 -0.36151420890E+03  0.73738263827E+03 -0.65143727284E+03  0.10482348014E+04  0.25500000920E-02 0. -1.
</event>
<event>
 5   0  0.1398931E-07  0.3099959E+04  0.7818609E-02  0.8215749E-01
       -2   -1    0    0    0  501  0.00000000000E+00  0.00000000000E+00  0.18150573621E+04  0.18150573621E+04  0.25500000920E-02 0. -1.
        2   -1    0    0  501    0  0.00000000000E+00  0.00000000000E+00 -0.13236143272E+04  0.13236143272E+04  0.25500000920E-02 0.  1.
    10030    2    1    2    0    0  0.00000000000E+00  0.00000000000E+00  0.49144303495E+03  0.31386716893E+04  0.30999586637E+04 0.  0.
        3    1    3    3  502    0 -0.85721382280E+03  0.12856770644E+04  0.12315243615E+03  0.15501443754E+04  0.10100000352E+00 0. -1.
       -3    1    3    3    0  502  0.85721382280E+03 -0.12856770644E+04  0.36829059880E+03  0.15885273140E+04  0.10100000352E+00 0.  1.
</event>
<event>
 5   0  0.4436241E-08  0.3099481E+04  0.7818609E-02  0.8215880E-01
        1   -1    0    0  501    0  0.00000000000E+00  0.00000000000E+00  0.21901225843E+04  0.21901225843E+04  0.50400001928E-02 0. -1.
       -1   -1    0    0    0  501  0.00000000000E+00  0.00000000000E+00 -0.10966030529E+04  0.10966030529E+04  0.50400001928E-02 0.  1.
    10030    2    1    2    0    0  0.00000000000E+00  0.00000000000E+00  0.10935195314E+04  0.32867256373E+04  0.30994806741E+04 0.  0.
        3    1    3    3  502    0  0.10395848876E+04 -0.11031847004E+04  0.20488282867E+03  0.15296176664E+04  0.10100000352E+00 0. -1.
       -3    1    3    3    0  502 -0.10395848876E+04  0.11031847004E+04  0.88863670270E+03  0.17571079709E+04  0.10100000352E+00 0.  1.
</event>
<event>
 5   0  0.1318916E-07  0.3099740E+04  0.7818609E-02  0.8215809E-01
        2   -1    0    0  501    0  0.00000000000E+00  0.00000000000E+00  0.18747876994E+04  0.18747876994E+04  0.25500000920E-02 0.  1.
       -2   -1    0    0    0  501  0.00000000000E+00  0.00000000000E+00 -0.12812633854E+04  0.12812633854E+04  0.25500000920E-02 0. -1.
    10030    2    1    2    0    0  0.00000000000E+00  0.00000000000E+00  0.59352431401E+03  0.31560510849E+04  0.30997398825E+04 0.  0.
        5    1    3    3  502    0 -0.89997096190E+03  0.92498966067E+02 -0.98449863569E+03  0.13370727148E+04  0.46999998093E+01 0. -1.
       -5    1    3    3    0  502  0.89997096190E+03 -0.92498966067E+02  0.15780229497E+04  0.18189783701E+04  0.46999998093E+01 0.  1.
</event>
<event>
 5   0  0.4838602E-08  0.3099450E+04  0.7818609E-02  0.8215889E-01
       -1   -1    0    0    0  501  0.00000000000E+00  0.00000000000E+00  0.12675067739E+04  0.12675067739E+04  0.50400001928E-02 0. -1.
        1   -1    0    0  501    0  0.00000000000E+00  0.00000000000E+00 -0.18947812881E+04  0.18947812881E+04  0.50400001928E-02 0.  1.
    10030    2    1    2    0    0  0.00000000000E+00  0.00000000000E+00 -0.62727451424E+03  0.31622880620E+04  0.30994503498E+04 0.  0.
        5    1    3    3  502    0 -0.65616263213E+03  0.34660952292E+03 -0.17017116272E+04  0.18564838037E+04  0.46999998093E+01 0.  1.
       -5    1    3    3    0  502  0.65616263213E+03 -0.34660952292E+03  0.10744371130E+04  0.13058042583E+04  0.46999998093E+01 0. -1.
</event>
<event>
 5   0  0.4436241E-08  0.3107543E+04  0.7818609E-02  0.8213671E-01
       -1   -1    0    0    0  501  0.00000000000E+00  0.00000000000E+00  0.12421295475E+04  0.12421295475E+04  0.50400001928E-02 0.  1.
        1   -1    0    0  501    0  0.00000000000E+00  0.00000000000E+00 -0.19436025304E+04  0.19436025304E+04  0.50400001928E-02 0. -1.
    10030    2    1    2    0    0  0.00000000000E+00  0.00000000000E+00 -0.70147298285E+03  0.31857320779E+04  0.31075431657E+04 0.  0.
        3    1    3    3  502    0 -0.63735837725E+03 -0.83057336470E+03 -0.15277214745E+04  0.18520288143E+04  0.10100000352E+00 0. -1.
       -3    1    3    3    0  502  0.63735837725E+03  0.83057336470E+03  0.82624849163E+03  0.13337032636E+04  0.10100000352E+00 0.  1.
</event>
<event>
 5   0  0.1398931E-07  0.3099797E+04  0.7818609E-02  0.8215794E-01
       -2   -1    0    0    0  501  0.00000000000E+00  0.00000000000E+00  0.13057586176E+04  0.13057586176E+04  0.25500000920E-02 0.  1.
        2   -1    0    0  501    0  0.00000000000E+00  0.00000000000E+00 -0.18396857598E+04  0.18396857598E+04  0.25500000920E-02 0. -1.
    10030    2    1    2    0    0  0.00000000000E+00  0.00000000000E+00 -0.53392714223E+03  0.31454443773E+04  0.30997971124E+04 0.  0.
        3    1    3    3  502    0 -0.10166124987E+04  0.60148172137E+03  0.75125927247E+03  0.13998827588E+04  0.10100000352E+00 0.  1.
       -3    1    3    3    0  502  0.10166124987E+04 -0.60148172137E+03 -0.12851864147E+04  0.17455616186E+04  0.10100000352E+00 0. -1.
</event>
<event>
 5   0  0.4470354E-08  0.3099838E+04  0.7818609E-02  0.8215782E-01
       -1   -1    0    0    0  501  0.00000000000E+00  0.00000000000E+00  0.14267442663E+04  0.14267442663E+04  0.50400001928E-02 0. -1.
        1   -1    0    0  501    0  0.00000000000E+00  0.00000000000E+00 -0.16837272886E+04  0.16837272886E+04  0.50400001928E-02 0.  1.
    10030    2    1    2    0    0  0.00000000000E+00  0.00000000000E+00 -0.25698302224E+03  0.31104715549E+04  0.30998375797E+04 0.  0.
        1    1    3    3  502    0 -0.34277825524E+03  0.10968356906E+04 -0.11721088121E+04  0.16414580506E+04  0.50400001928E-02 0.  1.
       -1    1    3    3    0  502  0.34277825524E+03 -0.10968356906E+04  0.91512578986E+03  0.14690135043E+04  0.50400001928E-02 0. -1.
</event>
<event>
 5   0  0.4436241E-08  0.3097397E+04  0.7818609E-02  0.8216453E-01
       -1   -1    0    0    0  501  0.00000000000E+00  0.00000000000E+00  0.17489939410E+04  0.17489939410E+04  0.50400001928E-02 0. -1.
        1   -1    0    0  501    0  0.00000000000E+00  0.00000000000E+00 -0.13713412991E+04  0.13713412991E+04  0.50400001928E-02 0.  1.
    10030    2    1    2    0    0  0.00000000000E+00  0.00000000000E+00  0.37765264192E+03  0.31203352401E+04  0.30973973740E+04 0.  0.
        3    1    3    3  502    0 -0.18552531437E+03 -0.10446631517E+04 -0.94768021239E+03  0.14226167924E+04  0.10100000352E+00 0.  1.
       -3    1    3    3    0  502  0.18552531437E+03  0.10446631517E+04  0.13253328543E+04  0.16977184477E+04  0.10100000352E+00 0. -1.
</event>
<event>
 5   0  0.4450600E-08  0.3098281E+04  0.7818609E-02  0.8216210E-01
        1   -1    0    0  501    0  0.00000000000E+00  0.00000000000E+00  0.23741757931E+04  0.23741757931E+04  0.50400001928E-02 0.  1.
       -1   -1    0    0    0  501  0.00000000000E+00  0.00000000000E+00 -0.10108084066E+04  0.10108084066E+04  0.50400001928E-02 0. -1.
    10030    2    1    2    0    0  0.00000000000E+00  0.00000000000E+00  0.13633673865E+04  0.33849841997E+04  0.30982813625E+04 0.  0.
        4    1    3    3  502    0  0.10000251145E+04  0.73412087007E+03  0.16953614707E+04  0.21007702898E+04  0.12699999809E+01 0.  1.
       -4    1    3    3    0  502 -0.10000251145E+04 -0.73412087007E+03 -0.33199408414E+03  0.12842139099E+04  0.12699999809E+01 0. -1.
</event>
<event>
 5   0  0.4838602E-08  0.3099969E+04  0.7818609E-02  0.8215747E-01
       -1   -1    0    0    0  501  0.00000000000E+00  0.00000000000E+00  0.28180906732E+04  0.28180906732E+04  0.50400001928E-02 0.  1.
        1   -1    0    0  501    0  0.00000000000E+00  0.00000000000E+00 -0.85251033242E+03  0.85251033243E+03  0.50400001928E-02 0. -1.
    10030    2    1    2    0    0  0.00000000000E+00  0.00000000000E+00  0.19655803408E+04  0.36706010057E+04  0.30999686557E+04 0.  0.
        5    1    3    3  502    0  0.44789305381E+03 -0.13218858695E+04  0.17810010087E+04  0.22627366445E+04  0.46999998093E+01 0. -1.
       -5    1    3    3    0  502 -0.44789305381E+03  0.13218858695E+04  0.18457933213E+03  0.14078643611E+04  0.46999998093E+01 0.  1.
</event>
<event>
 5   0  0.1325713E-07  0.3101342E+04  0.7818609E-02  0.8215370E-01
       -2   -1    0    0    0  501  0.00000000000E+00  0.00000000000E+00  0.10315649183E+04  0.10315649183E+04  0.25500000920E-02 0.  1.
        2   -1    0    0  501    0  0.00000000000E+00  0.00000000000E+00 -0.23310021891E+04  0.23310021891E+04  0.25500000920E-02 0. -1.
    10030    2    1    2    0    0  0.00000000000E+00  0.00000000000E+00 -0.12994372708E+04  0.33625671074E+04  0.31013416985E+04 0.  0.
        4    1    3    3  502    0  0.11817599644E+04  0.74610236625E+03  0.78697511420E+02  0.13997929367E+04  0.12699999809E+01 0.  1.
       -4    1    3    3    0  502 -0.11817599644E+04 -0.74610236625E+03 -0.13781347822E+04  0.19627741707E+04  0.12699999809E+01 0. -1.
</event>
<event>
 5   0  0.1329777E-07  0.3099746E+04  0.7818609E-02  0.8215808E-01
        2   -1    0    0  501    0  0.00000000000E+00  0.00000000000E+00  0.82094501427E+03  0.82094501428E+03  0.25500000920E-02 0. -1.
       -2   -1    0    0    0  501  0.00000000000E+00  0.00000000000E+00 -0.29260264879E+04  0.29260264879E+04  0.25500000920E-02 0.  1.
    10030    2    1    2    0    0  0.00000000000E+00  0.00000000000E+00 -0.21050814736E+04  0.37469715022E+04  0.30997463489E+04 0.  0.
        1    1    3    3  502    0 -0.23595962405E+03  0.12729297637E+04 -0.20825624720E+04  0.24521610014E+04  0.50400001928E-02 0.  1.
       -1    1    3    3    0  502  0.23595962405E+03 -0.12729297637E+04 -0.22519001692E+02  0.12948105008E+04  0.50400001928E-02 0. -1.
</event>
<event>
 5   0  0.4450600E-08  0.3099749E+04  0.7818609E-02  0.8215807E-01
       -1   -1    0    0    0  501  0.00000000000E+00  0.00000000000E+00  0.13190955861E+04  0.13190955861E+04  0.50400001928E-02 0.  1.
        1   -1    0    0  501    0  0.00000000000E+00  0.00000000000E+00 -0.18210291046E+04  0.18210291046E+04  0.50400001928E-02 0. -1.
    10030    2    1    2    0    0  0.00000000000E+00  0.00000000000E+00 -0.50193351850E+03  0.31401246908E+04  0.30997493151E+04 0.  0.
        4    1    3    3  502    0 -0.11413087176E+03 -0.11636250376E+04  0.77966433887E+03  0.14053210232E+04  0.12699999809E+01 0.  1.
       -4    1    3    3    0  502  0.11413087176E+03  0.11636250376E+04 -0.12815978574E+04  0.17348036676E+04  0.12699999809E+01 0. -1.
</event>
<event>
 5   0  0.1377237E-07  0.3109209E+04  0.7818609E-02  0.8213215E-01
       -2   -1    0    0    0  501  0.00000000000E+00  0.00000000000E+00  0.10815516117E+04  0.10815516117E+04  0.25500000920E-02 0. -1.
        2   -1    0    0  501    0  0.00000000000E+00  0.00000000000E+00 -0.22345633728E+04  0.22345633728E+04  0.25500000920E-02 0.  1.
    10030    2    1    2    0    0  0.00000000000E+00  0.00000000000E+00 -0.11530117612E+04  0.33161149845E+04  0.31092092997E+04 0.  0.
        2    1    3    3  502    0 -0.46670156175E+03 -0.14769219529E+04 -0.71834774642E+03  0.17073758483E+04  0.25500000920E-02 0.  1.
       -2    1    3    3    0  502  0.46670156175E+03  0.14769219529E+04 -0.43466401475E+03  0.16087391362E+04  0.25500000920E-02 0. -1.
</event>
<event>
 5   0  0.4838602E-08  0.3100762E+04  0.7818609E-02  0.8215529E-01
       -1   -1    0    0    0  501  0.00000000000E+00  0.00000000000E+00  0.95855208032E+03  0.95855208034E+03  0.50400001928E-02 0. -1.
        1   -1    0    0  501    0  0.00000000000E+00  0.00000000000E+00 -0.25076167073E+04  0.25076167073E+04  0.50400001928E-02 0.  1.
    10030    2    1    2    0    0  0.00000000000E+00  0.00000000000E+00 -0.15490646270E+04  0.34661687877E+04  0.31007619783E+04 0.  0.
        5    1    3    3  502    0 -0.18885723838E+03 -0.15176963741E+04 -0.10586270475E+04  0.18600491004E+04  0.46999998093E+01 0. -1.
       -5    1    3    3    0  502  0.18885723838E+03  0.15176963741E+04 -0.49043757953E+03  0.16061196872E+04  0.46999998093E+01 0.  1.
</event>
<event>
 5   0  0.1377237E-07  0.3100365E+04  0.7818609E-02  0.8215638E-01
        2   -1    0    0  501    0  0.00000000000E+00  0.00000000000E+00  0.25407884507E+04  0.25407884507E+04  0.25500000920E-02 0. -1.
       -2   -1    0    0    0  501  0.00000000000E+00  0.00000000000E+00 -0.94579532383E+03  0.94579532384E+03  0.25500000920E-02 0.  1.
    10030    2    1    2    0    0  0.00000000000E+00  0.00000000000E+00  0.15949931268E+04  0.34865837745E+04  0.31003650337E+04 0.  0.
        2    1    3    3  502    0  0.76237674484E+03 -0.98343332207E+03  0.18371671597E+04  0.22189057151E+04  0.25500000920E-02 0. -1.
       -2    1    3    3    0  502 -0.76237674484E+03  0.98343332207E+03 -0.24217403285E+03  0.12676780594E+04  0.25500000920E-02 0.  1.
</event>
<event>
 5   0  0.4450600E-08  0.3098102E+04  0.7818609E-02  0.8216259E-01
        1   -1    0    0  501    0  0.00000000000E+00  0.00000000000E+00  0.10515119495E+04  0.10515119495E+04  0.50400001928E-02 0. -1.
       -1   -1    0    0    0  501  0.00000000000E+00  0.00000000000E+00 -0.22820082237E+04  0.22820082237E+04  0.50400001928E-02 0.  1.
    10030    2    1    2    0    0  0.00000000000E+00  0.00000000000E+00 -0.12304962742E+04  0.33335201732E+04  0.30981019454E+04 0.  0.
        4    1    3    3  502    0 -0.11493285036E+03 -0.11164403004E+04  0.53354659700E+03  0.12427075635E+04  0.12699999809E+01 0. -1.
       -4    1    3    3    0  502  0.11493285036E+03  0.11164403004E+04 -0.17640428712E+04  0.20908126096E+04  0.12699999809E+01 0.  1.
</event>
<event>
 5   0  0.4450600E-08  0.3098887E+04  0.7818609E-02  0.8216043E-01
       -1   -1    0    0    0  501  0.00000000000E+00  0.00000000000E+00  0.21607491656E+04  0.21607491656E+04  0.50400001928E-02 0. -1.
        1   -1    0    0  501    0  0.00000000000E+00  0.00000000000E+00 -0.11110845481E+04  0.11110845481E+04  0.50400001928E-02 0.  1.
    10030    2    1    2    0    0  0.00000000000E+00  0.00000000000E+00  0.10496646176E+04  0.32718337137E+04  0.30988869035E+04 0.  0.
        4    1    3    3  502    0  0.15399946580E+04  0.24446447409E+02  0.70336158650E+03  0.16931923428E+04  0.12699999809E+01 0. -1.
       -4    1    3    3    0  502 -0.15399946580E+04 -0.24446447409E+02  0.34630303107E+03  0.15786413709E+04  0.12699999809E+01 0.  1.
</event>
<event>
 5   0  0.4450600E-08  0.3100381E+04  0.7818609E-02  0.8215633E-01
        1   -1    0    0  501    0  0.00000000000E+00  0.00000000000E+00  0.21622151193E+04  0.21622151193E+04  0.50400001928E-02 0. -1.
       -1   -1    0    0    0  501  0.00000000000E+00  0.00000000000E+00 -0.11114022506E+04  0.11114022506E+04  0.50400001928E-02 0.  1.
    10030    2    1    2    0    0  0.00000000000E+00  0.00000000000E+00  0.10508128687E+04  0.32736173698E+04  0.31003811055E+04 0.  0.
        4    1    3    3  502    0 -0.83098575161E+03  0.17492359853E+01  0.19071718148E+04  0.20803476448E+04  0.12699999809E+01 0. -1.
       -4    1    3    3    0  502  0.83098575161E+03 -0.17492359853E+01 -0.85635894609E+03  0.11932697250E+04  0.12699999809E+01 0.  1.
</event>
<event>
 5   0  0.1325713E-07  0.3097694E+04  0.7818609E-02  0.8216371E-01
        2   -1    0    0  501    0  0.00000000000E+00  0.00000000000E+00  0.18928605659E+04  0.18928605659E+04  0.25500000920E-02 0. -1.
       -2   -1    0    0    0  501  0.00000000000E+00  0.00000000000E+00 -0.12673550930E+04  0.12673550930E+04  0.25500000920E-02 0.  1.
    10030    2    1    2    0    0  0.00000000000E+00  0.00000000000E+00  0.62550547287E+03  0.31602156589E+04  0.30976936444E+04 0.  0.
        4    1    3    3  502    0 -0.12660589191E+04 -0.58434370623E+03  0.10005728526E+04  0.17162489329E+04  0.12699999809E+01 0. -1.
       -4    1    3    3    0  502  0.12660589191E+04  0.58434370623E+03 -0.37506737970E+03  0.14439667260E+04  0.12699999809E+01 0.  1.
</event>
<event>
 5   0  0.4305500E-08  0.3098173E+04  0.7818609E-02  0.8216240E-01
       -3   -1    0    0    0  501  0.00000000000E+00  0.00000000000E+00  0.13890570507E+04  0.13890570544E+04  0.10100000352E+00 0. -1.
        3   -1    0    0  501    0  0.00000000000E+00  0.00000000000E+00 -0.17275521208E+04  0.17275521238E+04  0.10100000352E+00 0.  1.
    10030    2    1    2    0    0  0.00000000000E+00  0.00000000000E+00 -0.33849507011E+03  0.31166091782E+04  0.30981726642E+04 0.  0.
        4    1    3    3  502    0 -0.42050305085E+01  0.14338241496E+04 -0.75907918147E+03  0.16223662321E+04  0.12699999809E+01 0.  1.
       -4    1    3    3    0  502  0.42050305085E+01 -0.14338241496E+04  0.42058411136E+03  0.14942429461E+04  0.12699999809E+01 0. -1.
</event>
<event>
 5   0  0.1318916E-07  0.3100086E+04  0.7818609E-02  0.8215714E-01
        2   -1    0    0  501    0  0.00000000000E+00  0.00000000000E+00  0.15418398642E+04  0.15418398642E+04  0.25500000920E-02 0. -1.
       -2   -1    0    0    0  501  0.00000000000E+00  0.00000000000E+00 -0.15582896230E+04  0.15582896230E+04  0.25500000920E-02 0.  1.
    10030    2    1    2    0    0  0.00000000000E+00  0.00000000000E+00 -0.16449758846E+02  0.31001294872E+04  0.31000858445E+04 0.  0.
        5    1    3    3  502    0  0.90216060605E+03  0.11623670412E+04 -0.49569463596E+03  0.15526513323E+04  0.46999998093E+01 0.  1.
       -5    1    3    3    0  502 -0.90216060605E+03 -0.11623670412E+04  0.47924487712E+03  0.15474781549E+04  0.46999998093E+01 0. -1.
</event>
<event>
 5   0  0.1318916E-07  0.3114311E+04  0.7818609E-02  0.8211821E-01
       -2   -1    0    0    0  501  0.00000000000E+00  0.00000000000E+00  0.10960527967E+04  0.10960527967E+04  0.25500000920E-02 0.  1.
        2   -1    0    0  501    0  0.00000000000E+00  0.00000000000E+00 -0.22122416545E+04  0.22122416546E+04  0.25500000920E-02 0. -1.
    10030    2    1    2    0    0  0.00000000000E+00  0.00000000000E+00 -0.11161888578E+04  0.33082944513E+04  0.31143112577E+04 0.  0.
        5    1    3    3  502    0 -0.11808206516E+04 -0.95109504825E+03 -0.18133053720E+03  0.15270304698E+04  0.46999998093E+01 0.  1.
       -5    1    3    3    0  502  0.11808206516E+04  0.95109504825E+03 -0.93485832063E+03  0.17812639815E+04  0.46999998093E+01 0. -1.
</event>
<event>
 5   0  0.1325713E-07  0.3099541E+04  0.7818609E-02  0.8215864E-01
        2   -1    0    0  501    0  0.00000000000E+00  0.00000000000E+00  0.22855887142E+04  0.22855887142E+04  0.25500000920E-02 0. -1.
       -2   -1    0    0    0  501  0.00000000000E+00  0.00000000000E+00 -0.10508400744E+04  0.10508400744E+04  0.25500000920E-02 0.  1.
    10030    2    1    2    0    0  0.00000000000E+00  0.00000000000E+00  0.12347486398E+04  0.33364287886E+04  0.30995407496E+04 0.  0.
        4    1    3    3  502    0  0.92567757608E+03 -0.20235587269E+03 -0.70271285888E+03  0.11796753151E+04  0.12699999809E+01 0.  1.
       -4    1    3    3    0  502 -0.92567757608E+03  0.20235587269E+03  0.19374614987E+04  0.21567534736E+04  0.12699999809E+01 0. -1.
</event>
<event>
 5   0  0.4450600E-08  0.3099879E+04  0.7818609E-02  0.8215771E-01
       -1   -1    0    0    0  501  0.00000000000E+00  0.00000000000E+00  0.93434924478E+03  0.93434924479E+03  0.50400001928E-02 0. -1.
        1   -1    0    0  501    0  0.00000000000E+00  0.00000000000E+00 -0.25711068577E+04  0.25711068577E+04  0.50400001928E-02 0.  1.
    10030    2    1    2    0    0  0.00000000000E+00  0.00000000000E+00 -0.16367576130E+04  0.35054561025E+04  0.30998785465E+04 0.  0.
        4    1    3    3  502    0  0.47169946190E+03  0.40956123212E+03  0.78568384713E+03  0.10037636703E+04  0.12699999809E+01 0. -1.
       -4    1    3    3    0  502 -0.47169946190E+03 -0.40956123212E+03 -0.24224414601E+04  0.25016924323E+04  0.12699999809E+01 0.  1.
</event>
<event>
 5   0  0.4517409E-08  0.3098171E+04  0.7818609E-02  0.8216240E-01
        1   -1    0    0  501    0  0.00000000000E+00  0.00000000000E+00  0.25405300630E+04  0.25405300630E+04  0.50400001928E-02 0.  1.
       -1   -1    0    0    0  501  0.00000000000E+00  0.00000000000E+00 -0.94455329852E+03  0.94455329853E+03  0.50400001928E-02 0. -1.
    10030    2    1    2    0    0  0.00000000000E+00  0.00000000000E+00  0.15959767644E+04  0.34850833615E+04  0.30981711063E+04 0.  0.
        2    1    3    3  502    0  0.46865409245E+03  0.14562592457E+04  0.52397252588E+03  0.16170574686E+04  0.25500000920E-02 0.  1.
       -2    1    3    3    0  502 -0.46865409245E+03 -0.14562592457E+04  0.10720042386E+04  0.18680258929E+04  0.25500000920E-02 0. -1.
</event>
<event>
 5   0  0.1377237E-07  0.3098723E+04  0.7818609E-02  0.8216088E-01
       -2   -1    0    0    0  501  0.00000000000E+00  0.00000000000E+00  0.12899166890E+04  0.12899166890E+04  0.25500000920E-02 0. -1.
        2   -1    0    0  501    0  0.00000000000E+00  0.00000000000E+00 -0.18609895847E+04  0.18609895847E+04  0.25500000920E-02 0.  1.
    10030    2    1    2    0    0  0.00000000000E+00  0.00000000000E+00 -0.57107289578E+03  0.31509062737E+04  0.30987233005E+04 0.  0.
        2    1    3    3  502    0 -0.64641448360E+03  0.58509071395E+03  0.10167887756E+04  0.13394186210E+04  0.25500000920E-02 0. -1.
       -2    1    3    3    0  502  0.64641448360E+03 -0.58509071395E+03 -0.15878616714E+04  0.18114876526E+04  0.25500000920E-02 0.  1.
</event>
<event>
 5   0  0.4517409E-08  0.3101085E+04  0.7818609E-02  0.8215440E-01
        1   -1    0    0  501    0  0.00000000000E+00  0.00000000000E+00  0.20608658141E+04  0.20608658141E+04  0.50400001928E-02 0. -1.
       -1   -1    0    0    0  501  0.00000000000E+00  0.00000000000E+00 -0.11665880534E+04  0.11665880535E+04  0.50400001928E-02 0.  1.
    10030    2    1    2    0    0  0.00000000000E+00  0.00000000000E+00  0.89427776063E+03  0.32274538675E+04  0.31010846093E+04 0.  0.
        2    1    3    3  502    0  0.13599618068E+04  0.18161010390E+03  0.11988623911E+04  0.18220179413E+04  0.25500000920E-02 0. -1.
       -2    1    3    3    0  502 -0.13599618068E+04 -0.18161010390E+03 -0.30458463044E+03  0.14054359262E+04  0.25500000920E-02 0.  1.
</event>
<event>
 5   0  0.1398931E-07  0.3101299E+04  0.7818609E-02  0.8215382E-01
        2   -1    0    0  501    0  0.00000000000E+00  0.00000000000E+00  0.18004450454E+04  0.18004450454E+04  0.25500000920E-02 0. -1.
       -2   -1    0    0    0  501  0.00000000000E+00  0.00000000000E+00 -0.13355106201E+04  0.13355106201E+04  0.25500000920E-02 0.  1.
    10030    2    1    2    0    0  0.00000000000E+00  0.00000000000E+00  0.46493442525E+03  0.31359556655E+04  0.31012987467E+04 0.  0.
        3    1    3    3  502    0 -0.47219157534E+03  0.94159617998E+03  0.13831404408E+04  0.17385757790E+04  0.10100000352E+00 0. -1.
       -3    1    3    3    0  502  0.47219157534E+03 -0.94159617998E+03 -0.91820601560E+03  0.13973798865E+04  0.10100000352E+00 0.  1.
</event>
<event>
 5   0  0.1318916E-07  0.3102214E+04  0.7818609E-02  0.8215131E-01
        2   -1    0    0  501    0  0.00000000000E+00  0.00000000000E+00  0.16091648482E+04  0.16091648482E+04  0.25500000920E-02 0. -1.
       -2   -1    0    0    0  501  0.00000000000E+00  0.00000000000E+00 -0.14951438027E+04  0.14951438027E+04  0.25500000920E-02 0.  1.
    10030    2    1    2    0    0  0.00000000000E+00  0.00000000000E+00  0.11402104556E+03  0.31043086509E+04  0.31022139516E+04 0.  0.
        5    1    3    3  502    0 -0.12968639114E+04  0.69811596500E+03 -0.42982476814E+03  0.15342728983E+04  0.46999998093E+01 0.  1.
       -5    1    3    3    0  502  0.12968639114E+04 -0.69811596500E+03  0.54384581369E+03  0.15700357526E+04  0.46999998093E+01 0. -1.
</event>
<event>
 5   0  0.4838602E-08  0.3100919E+04  0.7818609E-02  0.8215486E-01
        1   -1    0    0  501    0  0.00000000000E+00  0.00000000000E+00  0.13822362460E+04  0.13822362460E+04  0.50400001928E-02 0. -1.
       -1   -1    0    0    0  501  0.00000000000E+00  0.00000000000E+00 -0.17391561819E+04  0.17391561819E+04  0.50400001928E-02 0.  1.
    10030    2    1    2    0    0  0.00000000000E+00  0.00000000000E+00 -0.35691993590E+03  0.31213924280E+04  0.31009190329E+04 0.  0.
        5    1    3    3  502    0  0.22103041144E+02  0.24108909916E+03  0.13630851253E+04  0.13844261074E+04  0.46999998093E+01 0. -1.
       -5    1    3    3    0  502 -0.22103041144E+02 -0.24108909916E+03 -0.17200050612E+04  0.17369663205E+04  0.46999998093E+01 0.  1.
</event>
<event>
 5   0  0.4436241E-08  0.3100455E+04  0.7818609E-02  0.8215613E-01
        1   -1    0    0  501    0  0.00000000000E+00  0.00000000000E+00  0.16844022913E+04  0.16844022913E+04  0.50400001928E-02 0. -1.
       -1   -1    0    0    0  501  0.00000000000E+00  0.00000000000E+00 -0.14267402543E+04  0.14267402543E+04  0.50400001928E-02 0.  1.
    10030    2    1    2    0    0  0.00000000000E+00  0.00000000000E+00  0.25766203693E+03  0.31111425456E+04  0.31004545173E+04 0.  0.
        3    1    3    3  502    0 -0.82908560675E+03 -0.87500163213E+03 -0.84930810142E+03  0.14745626677E+04  0.10100000352E+00 0.  1.
       -3    1    3    3    0  502  0.82908560675E+03  0.87500163213E+03  0.11069701383E+04  0.16365798780E+04  0.10100000352E+00 0. -1.
</event>
<event>
 5   0  0.1398931E-07  0.3101010E+04  0.7818609E-02  0.8215461E-01
       -2   -1    0    0    0  501  0.00000000000E+00  0.00000000000E+00  0.11190078813E+04  0.11190078813E+04  0.25500000920E-02 0. -1.
        2   -1    0    0  501    0  0.00000000000E+00  0.00000000000E+00 -0.21483901346E+04  0.21483901346E+04  0.25500000920E-02 0.  1.
    10030    2    1    2    0    0  0.00000000000E+00  0.00000000000E+00 -0.10293822532E+04  0.32673980159E+04  0.31010098309E+04 0.  0.
        3    1    3    3  502    0 -0.73341933413E+03 -0.86513187260E+03 -0.16286346083E+04  0.19846429840E+04  0.10100000352E+00 0.  1.
       -3    1    3    3    0  502  0.73341933413E+03  0.86513187260E+03  0.59925235502E+03  0.12827550319E+04  0.10100000352E+00 0. -1.
</event>
<event>
 5   0  0.1329777E-07  0.3099351E+04  0.7818609E-02  0.8215916E-01
       -2   -1    0    0    0  501  0.00000000000E+00  0.00000000000E+00  0.10260796895E+04  0.10260796895E+04  0.25500000920E-02 0. -1.
        2   -1    0    0  501    0  0.00000000000E+00  0.00000000000E+00 -0.23404554286E+04  0.23404554286E+04  0.25500000920E-02 0.  1.
    10030    2    1    2    0    0  0.00000000000E+00  0.00000000000E+00 -0.13143757391E+04  0.33665351181E+04  0.30993507575E+04 0.  0.
        1    1    3    3  502    0 -0.18310734340E+03  0.13670988943E+04  0.11011238970E+03  0.13836952065E+04  0.50400001928E-02 0. -1.
       -1    1    3    3    0  502  0.18310734340E+03 -0.13670988943E+04 -0.14244881288E+04  0.19828399116E+04  0.50400001928E-02 0.  1.
</event>
<event>
 5   0  0.1329777E-07  0.3100218E+04  0.7818609E-02  0.8215678E-01
       -2   -1    0    0    0  501  0.00000000000E+00  0.00000000000E+00  0.26824263714E+04  0.26824263714E+04  0.25500000920E-02 0.  1.
        2   -1    0    0  501    0  0.00000000000E+00  0.00000000000E+00 -0.89577060063E+03  0.89577060064E+03  0.25500000920E-02 0. -1.
    10030    2    1    2    0    0  0.00000000000E+00  0.00000000000E+00  0.17866557708E+04  0.35781969720E+04  0.31002184967E+04 0.  0.
        1    1    3    3  502    0  0.10028802045E+04 -0.85473820386E+03  0.18355853796E+04  0.22595839855E+04  0.50400001928E-02 0.  1.
       -1    1    3    3    0  502 -0.10028802045E+04  0.85473820386E+03 -0.48929608796E+02  0.13186129866E+04  0.50400001928E-02 0. -1.
</event>
<event>
 5   0  0.1377237E-07  0.3099786E+04  0.7818609E-02  0.8215797E-01
        2   -1    0    0  501    0  0.00000000000E+00  0.00000000000E+00  0.26757474614E+04  0.26757474614E+04  0.25500000920E-02 0.  1.
       -2   -1    0    0    0  501  0.00000000000E+00  0.00000000000E+00 -0.89775584060E+03  0.89775584060E+03  0.25500000920E-02 0. -1.
    10030    2    1    2    0    0  0.00000000000E+00  0.00000000000E+00  0.17779916208E+04  0.35735033020E+04  0.30997857419E+04 0.  0.
        2    1    3    3  502    0 -0.11897173915E+03  0.15452542168E+04  0.87256890831E+03  0.17785784686E+04  0.25500000920E-02 0.  1.
       -2    1    3    3    0  502  0.11897173915E+03 -0.15452542168E+04  0.90542271249E+03  0.17949248334E+04  0.25500000920E-02 0. -1.
</event>
<event>
 5   0  0.4470354E-08  0.3098897E+04  0.7818609E-02  0.8216041E-01
       -1   -1    0    0    0  501  0.00000000000E+00  0.00000000000E+00  0.90336741423E+03  0.90336741425E+03  0.50400001928E-02 0.  1.
        1   -1    0    0  501    0  0.00000000000E+00  0.00000000000E+00 -0.26576017488E+04  0.26576017489E+04  0.50400001928E-02 0. -1.
    10030    2    1    2    0    0  0.00000000000E+00  0.00000000000E+00 -0.17542343346E+04  0.35609691631E+04  0.30988971070E+04 0.  0.
        1    1    3    3  502    0  0.10686880825E+04 -0.73075794218E+03  0.10110391963E+03  0.12985851494E+04  0.50400001928E-02 0.  1.
       -1    1    3    3    0  502 -0.10686880825E+04  0.73075794218E+03 -0.18553382542E+04  0.22623840137E+04  0.50400001928E-02 0. -1.
</event>
<event>
 5   0  0.1329777E-07  0.3100552E+04  0.7818609E-02  0.8215586E-01
       -2   -1    0    0    0  501  0.00000000000E+00  0.00000000000E+00  0.15448146509E+04  0.15448146509E+04  0.25500000920E-02 0. -1.
        2   -1    0    0  501    0  0.00000000000E+00  0.00000000000E+00 -0.15557570040E+04  0.15557570040E+04  0.25500000920E-02 0.  1.
    10030    2    1    2    0    0  0.00000000000E+00  0.00000000000E+00 -0.10942353083E+02  0.31005716550E+04  0.31005523463E+04 0.  0.
        1    1    3    3  502    0  0.18037139782E+02 -0.21381266848E+03  0.15298933983E+04  0.15448673101E+04  0.50400001928E-02 0. -1.
       -1    1    3    3    0  502 -0.18037139782E+02  0.21381266848E+03 -0.15408357514E+04  0.15557043448E+04  0.50400001928E-02 0.  1.
</event>
<event>
 5   0  0.1325713E-07  0.3100212E+04  0.7818609E-02  0.8215680E-01
       -2   -1    0    0    0  501  0.00000000000E+00  0.00000000000E+00  0.17467143956E+04  0.17467143956E+04  0.25500000920E-02 0. -1.
        2   -1    0    0  501    0  0.00000000000E+00  0.00000000000E+00 -0.13756274433E+04  0.13756274434E+04  0.25500000920E-02 0.  1.
    10030    2    1    2    0    0  0.00000000000E+00  0.00000000000E+00  0.37108695227E+03  0.31223418390E+04  0.31002117723E+04 0.  0.
        4    1    3    3  502    0 -0.14541242266E+04 -0.51127282644E+03  0.35087826721E+03  0.15808207807E+04  0.12699999809E+01 0. -1.
       -4    1    3    3    0  502  0.14541242266E+04  0.51127282644E+03  0.20208685060E+02  0.15415210583E+04  0.12699999809E+01 0.  1.
</event>
<event>
 5   0  0.1398931E-07  0.3099626E+04  0.7818609E-02  0.8215840E-01
       -2   -1    0    0    0  501  0.00000000000E+00  0.00000000000E+00  0.13321160717E+04  0.13321160717E+04  0.25500000920E-02 0.  1.
        2   -1    0    0  501    0  0.00000000000E+00  0.00000000000E+00 -0.18030867374E+04  0.18030867374E+04  0.25500000920E-02 0. -1.
    10030    2    1    2    0    0  0.00000000000E+00  0.00000000000E+00 -0.47097066570E+03  0.31352028091E+04  0.30996263140E+04 0.  0.
        3    1    3    3  502    0  0.14480369214E+03  0.24587819869E+03 -0.17762871073E+04  0.17990608927E+04  0.10100000352E+00 0. -1.
       -3    1    3    3    0  502 -0.14480369214E+03 -0.24587819869E+03  0.13053164416E+04  0.13361419164E+04  0.10100000352E+00 0.  1.
</event>
<event>
 5   0  0.4838602E-08  0.3098556E+04  0.7818609E-02  0.8216134E-01
       -1   -1    0    0    0  501  0.00000000000E+00  0.00000000000E+00  0.17212863909E+04  0.17212863909E+04  0.50400001928E-02 0.  1.
        1   -1    0    0  501    0  0.00000000000E+00  0.00000000000E+00 -0.13944582661E+04  0.13944582661E+04  0.50400001928E-02 0. -1.
    10030    2    1    2    0    0  0.00000000000E+00  0.00000000000E+00  0.32682812485E+03  0.31157446570E+04  0.30985558159E+04 0.  0.
        5    1    3    3  502    0 -0.22081157123E+03  0.14852493225E+04  0.54699664017E+03  0.15981084802E+04  0.46999998093E+01 0.  1.
       -5    1    3    3    0  502  0.22081157123E+03 -0.14852493225E+04 -0.22016851532E+03  0.15176361768E+04  0.46999998093E+01 0. -1.
</event>
<event>
 5   0  0.4517409E-08  0.3100995E+04  0.7818609E-02  0.8215465E-01
       -1   -1    0    0    0  501  0.00000000000E+00  0.00000000000E+00  0.23703819298E+04  0.23703819298E+04  0.50400001928E-02 0.  1.
        1   -1    0    0  501    0  0.00000000000E+00  0.00000000000E+00 -0.10142002801E+04  0.10142002801E+04  0.50400001928E-02 0. -1.
    10030    2    1    2    0    0  0.00000000000E+00  0.00000000000E+00  0.13561816497E+04  0.33845822099E+04  0.31009946902E+04 0.  0.
        2    1    3    3  502    0 -0.10882597150E+04 -0.76117845573E+03  0.15514832433E+04  0.20422541720E+04  0.25500000920E-02 0.  1.
       -2    1    3    3    0  502  0.10882597150E+04  0.76117845573E+03 -0.19530159359E+03  0.13423280379E+04  0.25500000920E-02 0. -1.
</event>
<event>
 5   0  0.1329777E-07  0.3099805E+04  0.7818609E-02  0.8215791E-01
        2   -1    0    0  501    0  0.00000000000E+00  0.00000000000E+00  0.13498902580E+04  0.13498902580E+04  0.25500000920E-02 0. -1.
       -2   -1    0    0    0  501  0.00000000000E+00  0.00000000000E+00 -0.17795506539E+04  0.17795506539E+04  0.25500000920E-02 0.  1.
    10030    2    1    2    0    0  0.00000000000E+00  0.00000000000E+00 -0.42966039595E+03  0.31294409119E+04  0.30998052141E+04 0.  0.
        1    1    3    3  502    0 -0.69048503438E+03 -0.13467970125E+04  0.12237860013E+03  0.15184229639E+04  0.50400001928E-02 0. -1.
       -1    1    3    3    0  502  0.69048503438E+03  0.13467970125E+04 -0.55203899608E+03  0.16110179480E+04  0.50400001928E-02 0.  1.
</event>
<event>
 5   0  0.1325713E-07  0.3101889E+04  0.7818609E-02  0.8215220E-01
        2   -1    0    0  501    0  0.00000000000E+00  0.00000000000E+00  0.18930929964E+04  0.18930929964E+04  0.25500000920E-02 0. -1.
       -2   -1    0    0    0  501  0.00000000000E+00  0.00000000000E+00 -0.12706344536E+04  0.12706344536E+04  0.25500000920E-02 0.  1.
    10030    2    1    2    0    0  0.00000000000E+00  0.00000000000E+00  0.62245854281E+03  0.31637274500E+04  0.31018892212E+04 0.  0.
        4    1    3    3  502    0  0.10788556305E+04 -0.92357726098E+03 -0.32449683712E+03  0.14567855843E+04  0.12699999809E+01 0. -1.
       -4    1    3    3    0  502 -0.10788556305E+04  0.92357726098E+03  0.94695537994E+03  0.17069418657E+04  0.12699999809E+01 0.  1.
</event>
<event>
 5   0  0.1398931E-07  0.3095906E+04  0.7818609E-02  0.8216862E-01
        2   -1    0    0  501    0  0.00000000000E+00  0.00000000000E+00  0.24264429081E+04  0.24264429081E+04  0.25500000920E-02 0. -1.
       -2   -1    0    0    0  501  0.00000000000E+00  0.00000000000E+00 -0.98751909716E+03  0.98751909717E+03  0.25500000920E-02 0.  1.
    10030    2    1    2    0    0  0.00000000000E+00  0.00000000000E+00  0.14389238109E+04  0.34139620053E+04  0.30959061419E+04 0.  0.
        3    1    3    3  502    0 -0.11843036835E+03 -0.81182556841E+03  0.21669754452E+04  0.23170820218E+04  0.10100000352E+00 0. -1.
       -3    1    3    3    0  502  0.11843036835E+03  0.81182556841E+03 -0.72805163426E+03  0.10968799834E+04  0.10100000352E+00 0.  1.
</event>
<event>
 5   0  0.4470354E-08  0.3098350E+04  0.7818609E-02  0.8216191E-01
       -1   -1    0    0    0  501  0.00000000000E+00  0.00000000000E+00  0.11325561309E+04  0.11325561309E+04  0.50400001928E-02 0.  1.
        1   -1    0    0  501    0  0.00000000000E+00  0.00000000000E+00 -0.21190496598E+04  0.21190496598E+04  0.50400001928E-02 0. -1.
    10030    2    1    2    0    0  0.00000000000E+00  0.00000000000E+00 -0.98649352896E+03  0.32516057907E+04  0.30983496793E+04 0.  0.
        1    1    3    3  502    0  0.30892901067E+03 -0.45744680340E+02  0.10991785382E+04  0.11426824442E+04  0.50400001928E-02 0.  1.
       -1    1    3    3    0  502 -0.30892901067E+03  0.45744680340E+02 -0.20856720672E+04  0.21089233465E+04  0.50400001928E-02 0. -1.
</event>
<event>
 5   0  0.1377237E-07  0.3101436E+04  0.7818609E-02  0.8215344E-01
        2   -1    0    0  501    0  0.00000000000E+00  0.00000000000E+00  0.24321157351E+04  0.24321157351E+04  0.25500000920E-02 0.  1.
       -2   -1    0    0    0  501  0.00000000000E+00  0.00000000000E+00 -0.98873871063E+03  0.98873871064E+03  0.25500000920E-02 0. -1.
    10030    2    1    2    0    0  0.00000000000E+00  0.00000000000E+00  0.14433770245E+04  0.34208544457E+04  0.31014364259E+04 0.  0.
        2    1    3    3  502    0  0.75709719198E+03  0.82065365382E+03  0.19086508599E+04  0.22112477660E+04  0.25500000920E-02 0.  1.
       -2    1    3    3    0  502 -0.75709719198E+03 -0.82065365382E+03 -0.46527383546E+03  0.12096066797E+04  0.25500000920E-02 0. -1.
</event>
<event>
 5   0  0.4470354E-08  0.3102465E+04  0.7818609E-02  0.8215062E-01
        1   -1    0    0  501    0  0.00000000000E+00  0.00000000000E+00  0.20425922379E+04  0.20425922379E+04  0.50400001928E-02 0. -1.
       -1   -1    0    0    0  501  0.00000000000E+00  0.00000000000E+00 -0.11780728474E+04  0.11780728474E+04  0.50400001928E-02 0.  1.
    10030    2    1    2    0    0  0.00000000000E+00  0.00000000000E+00  0.86451939052E+03  0.32206650853E+04  0.31024651191E+04 0.  0.
        1    1    3    3  502    0 -0.61150433312E+03  0.13040023759E+04  0.10303727851E+04  0.17708833451E+04  0.50400001928E-02 0. -1.
       -1    1    3    3    0  502  0.61150433312E+03 -0.13040023759E+04 -0.16585339456E+03  0.14497817402E+04  0.50400001928E-02 0.  1.
</event>
<event>
 5   0  0.4517409E-08  0.3099150E+04  0.7818609E-02  0.8215971E-01
       -1   -1    0    0    0  501  0.00000000000E+00  0.00000000000E+00  0.15111863730E+04  0.15111863730E+04  0.50400001928E-02 0. -1.
        1   -1    0    0  501    0  0.00000000000E+00  0.00000000000E+00 -0.15889384183E+04  0.15889384183E+04  0.50400001928E-02 0.  1.
    10030    2    1    2    0    0  0.00000000000E+00  0.00000000000E+00 -0.77752045259E+02  0.31001247913E+04  0.30991496158E+04 0.  0.
        2    1    3    3  502    0  0.51113341785E+03  0.14454810122E+04  0.18593756509E+03  0.15444240045E+04  0.25500000920E-02 0. -1.
       -2    1    3    3    0  502 -0.51113341785E+03 -0.14454810122E+04 -0.26368961035E+03  0.15557007868E+04  0.25500000920E-02 0.  1.
</event>
<event>
 5   0  0.1318916E-07  0.3099519E+04  0.7818609E-02  0.8215870E-01
        2   -1    0    0  501    0  0.00000000000E+00  0.00000000000E+00  0.19372283394E+04  0.19372283394E+04  0.25500000920E-02 0. -1.
       -2   -1    0    0    0  501  0.00000000000E+00  0.00000000000E+00 -0.12397890613E+04  0.12397890613E+04  0.25500000920E-02 0.  1.
    10030    2    1    2    0    0  0.00000000000E+00  0.00000000000E+00  0.69743927811E+03  0.31770174007E+04  0.30995189978E+04 0.  0.
        5    1    3    3  502    0 -0.95296049056E+03  0.28266890177E+03 -0.86999902054E+03  0.13209677477E+04  0.46999998093E+01 0.  1.
       -5    1    3    3    0  502  0.95296049056E+03 -0.28266890177E+03  0.15674382987E+04  0.18560496531E+04  0.46999998093E+01 0. -1.
</event>
<event>
 5   0  0.4470354E-08  0.3100733E+04  0.7818609E-02  0.8215537E-01
       -1   -1    0    0    0  501  0.00000000000E+00  0.00000000000E+00  0.17756328326E+04  0.17756328326E+04  0.50400001928E-02 0. -1.
        1   -1    0    0  501    0  0.00000000000E+00  0.00000000000E+00 -0.13536784794E+04  0.13536784794E+04  0.50400001928E-02 0.  1.
    10030    2    1    2    0    0  0.00000000000E+00  0.00000000000E+00  0.42195435319E+03  0.31293113120E+04  0.31007327862E+04 0.  0.
        1    1    3    3  502    0  0.11126648884E+04  0.59873152578E+03  0.11176635260E+04  0.16869126685E+04  0.50400001928E-02 0. -1.
       -1    1    3    3    0  502 -0.11126648884E+04 -0.59873152578E+03 -0.69570917276E+03  0.14423986435E+04  0.50400001928E-02 0.  1.
</event>
<event>
 5   0  0.1325713E-07  0.3098157E+04  0.7818609E-02  0.8216244E-01
       -2   -1    0    0    0  501  0.00000000000E+00  0.00000000000E+00  0.15647203573E+04  0.15647203573E+04  0.25500000920E-02 0. -1.
        2   -1    0    0  501    0  0.00000000000E+00  0.00000000000E+00 -0.15335932589E+04  0.15335932589E+04  0.25500000920E-02 0.  1.
    10030    2    1    2    0    0  0.00000000000E+00  0.00000000000E+00  0.31127098398E+02  0.30983136162E+04  0.30981572536E+04 0.  0.
        4    1    3    3  502    0  0.10441666285E+04 -0.59548339510E+03 -0.96160323907E+03  0.15393397364E+04  0.12699999809E+01 0.  1.
       -4    1    3    3    0  502 -0.10441666285E+04  0.59548339510E+03  0.99273033746E+03  0.15589738797E+04  0.12699999809E+01 0. -1.
</event>
<event>
 5   0  0.4305500E-08  0.3094802E+04  0.7818609E-02  0.8217166E-01
       -3   -1    0    0    0  501  0.00000000000E+00  0.00000000000E+00  0.13060957020E+04  0.13060957059E+04  0.10100000352E+00 0.  1.
        3   -1    0    0  501    0  0.00000000000E+00  0.00000000000E+00 -0.18332884070E+04  0.18332884098E+04  0.10100000352E+00 0. -1.
    10030    2    1    2    0    0  0.00000000000E+00  0.00000000000E+00 -0.52719270504E+03  0.31393841157E+04  0.30948021710E+04 0.  0.
        1    1    3    3  502    0 -0.99464447341E+03  0.68357516666E+03  0.71878472268E+03  0.14047220773E+04  0.50400001928E-02 0.  1.
       -1    1    3    3    0  502  0.99464447341E+03 -0.68357516666E+03 -0.12459774277E+04  0.17346620384E+04  0.50400001928E-02 0. -1.
</event>
<event>
 5   0  0.1398931E-07  0.3100265E+04  0.7818609E-02  0.8215665E-01
       -2   -1    0    0    0  501  0.00000000000E+00  0.00000000000E+00  0.11567918361E+04  0.11567918361E+04  0.25500000920E-02 0. -1.
        2   -1    0    0  501    0  0.00000000000E+00  0.00000000000E+00 -0.20772198197E+04  0.20772198197E+04  0.25500000920E-02 0.  1.
    10030    2    1    2    0    0  0.00000000000E+00  0.00000000000E+00 -0.92042798359E+03  0.32340116557E+04  0.31002651042E+04 0.  0.
        3    1    3    3  502    0  0.18196506164E+03 -0.77005867824E+03 -0.18506888934E+04  0.20127471381E+04  0.10100000352E+00 0.  1.
       -3    1    3    3    0  502 -0.18196506164E+03  0.77005867824E+03  0.93026090979E+03  0.12212645176E+04  0.10100000352E+00 0. -1.
</event>
<event>
 5   0  0.1318916E-07  0.3092880E+04  0.7818609E-02  0.8217695E-01
       -2   -1    0    0    0  501  0.00000000000E+00  0.00000000000E+00  0.13958643318E+04  0.13958643318E+04  0.25500000920E-02 0. -1.
        2   -1    0    0  501    0  0.00000000000E+00  0.00000000000E+00 -0.17132588103E+04  0.17132588103E+04  0.25500000920E-02 0.  1.
    10030    2    1    2    0    0  0.00000000000E+00  0.00000000000E+00 -0.31739447851E+03  0.31091231422E+04  0.30928801235E+04 0.  0.
        5    1    3    3  502    0 -0.11925589793E+04 -0.98329395330E+03 -0.20785042034E+03  0.15595793679E+04  0.46999998093E+01 0. -1.
       -5    1    3    3    0  502  0.11925589793E+04  0.98329395330E+03 -0.10954405817E+03  0.15495437742E+04  0.46999998093E+01 0.  1.
</event>
<event>
 5   0  0.4436241E-08  0.3100756E+04  0.7818609E-02  0.8215530E-01
       -1   -1    0    0    0  501  0.00000000000E+00  0.00000000000E+00  0.12291897879E+04  0.12291897879E+04  0.50400001928E-02 0.  1.
        1   -1    0    0  501    0  0.00000000000E+00  0.00000000000E+00 -0.19554929277E+04  0.19554929277E+04  0.50400001928E-02 0. -1.
    10030    2    1    2    0    0  0.00000000000E+00  0.00000000000E+00 -0.72630313980E+03  0.31846827156E+04  0.31007559963E+04 0.  0.
        3    1    3    3  502    0  0.13665776047E+03  0.58660841568E+03 -0.18304149354E+04  0.19269674680E+04  0.10100000352E+00 0. -1.
       -3    1    3    3    0  502 -0.13665776047E+03 -0.58660841568E+03  0.11041117956E+04  0.12577152476E+04  0.10100000352E+00 0.  1.
</event>
<event>
 5   0  0.1377237E-07  0.3099924E+04  0.7818609E-02  0.8215759E-01
        2   -1    0    0  501    0  0.00000000000E+00  0.00000000000E+00  0.13212884208E+04  0.13212884208E+04  0.25500000920E-02 0. -1.
       -2   -1    0    0    0  501  0.00000000000E+00  0.00000000000E+00 -0.18182116130E+04  0.18182116130E+04  0.25500000920E-02 0.  1.
    10030    2    1    2    0    0  0.00000000000E+00  0.00000000000E+00 -0.49692319221E+03  0.31395000338E+04  0.30999238383E+04 0.  0.
        2    1    3    3  502    0 -0.35707612932E+03  0.74399859416E+02 -0.17741279311E+04  0.18112340039E+04  0.25500000920E-02 0.  1.
       -2    1    3    3    0  502  0.35707612932E+03 -0.74399859416E+02  0.12772047389E+04  0.13282660299E+04  0.25500000920E-02 0. -1.
</event>
<event>
 5   0  0.1325713E-07  0.3105101E+04  0.7818609E-02  0.8214339E-01
        2   -1    0    0  501    0  0.00000000000E+00  0.00000000000E+00  0.11378398262E+04  0.11378398262E+04  0.25500000920E-02 0. -1.
       -2   -1    0    0    0  501  0.00000000000E+00  0.00000000000E+00 -0.21184120550E+04  0.21184120551E+04  0.25500000920E-02 0.  1.
    10030    2    1    2    0    0  0.00000000000E+00  0.00000000000E+00 -0.98057222886E+03  0.32562518812E+04  0.31051013539E+04 0.  0.
        4    1    3    3  502    0 -0.67868349561E+03 -0.10271339166E+04  0.50169722655E+03  0.13294047879E+04  0.12699999809E+01 0. -1.
       -4    1    3    3    0  502  0.67868349561E+03  0.10271339166E+04 -0.14822694554E+04  0.19268470934E+04  0.12699999809E+01 0.  1.
</event>
<event>
 5   0  0.1325713E-07  0.3100605E+04  0.7818609E-02  0.8215572E-01
        2   -1    0    0  501    0  0.00000000000E+00  0.00000000000E+00  0.25170029914E+04  0.25170029914E+04  0.25500000920E-02 0. -1.
       -2   -1    0    0    0  501  0.00000000000E+00  0.00000000000E+00 -0.95488060850E+03  0.95488060850E+03  0.25500000920E-02 0.  1.
    10030    2    1    2    0    0  0.00000000000E+00  0.00000000000E+00  0.15621223829E+04  0.34718835999E+04  0.31006046817E+04 0.  0.
        4    1    3    3  502    0  0.83171197390E+03  0.13066032613E+04  0.85599913611E+03  0.17696590135E+04  0.12699999809E+01 0. -1.
       -4    1    3    3    0  502 -0.83171197390E+03 -0.13066032613E+04  0.70612324677E+03  0.17022245864E+04  0.12699999809E+01 0.  1.
</event>
<event>
 5   0  0.4450600E-08  0.3105530E+04  0.7818609E-02  0.8214222E-01
       -1   -1    0    0    0  501  0.00000000000E+00  0.00000000000E+00  0.11611661149E+04  0.11611661150E+04  0.50400001928E-02 0. -1.
        1   -1    0    0  501    0  0.00000000000E+00  0.00000000000E+00 -0.20764294324E+04  0.20764294324E+04  0.50400001928E-02 0.  1.
    10030    2    1    2    0    0  0.00000000000E+00  0.00000000000E+00 -0.91526331744E+03  0.32375955474E+04  0.31055302265E+04 0.  0.
        4    1    3    3  502    0 -0.47447315443E+03  0.34047080287E+03 -0.19575770257E+04  0.20428300385E+04  0.12699999809E+01 0.  1.
       -4    1    3    3    0  502  0.47447315443E+03 -0.34047080287E+03  0.10423137082E+04  0.11947655088E+04  0.12699999809E+01 0. -1.
</event>
<event>
 5   0  0.4436241E-08  0.3099820E+04  0.7818609E-02  0.8215787E-01
       -1   -1    0    0    0  501  0.00000000000E+00  0.00000000000E+00  0.14328884417E+04  0.14328884417E+04  0.50400001928E-02 0. -1.
        1   -1    0    0  501    0  0.00000000000E+00  0.00000000000E+00 -0.16764890171E+04  0.16764890171E+04  0.50400001928E-02 0.  1.
    10030    2    1    2    0    0  0.00000000000E+00  0.00000000000E+00 -0.24360057531E+03  0.31093774588E+04  0.30998204692E+04 0.  0.
        3    1    3    3  502    0 -0.11523206699E+04 -0.86807104583E+03 -0.68996646479E+03  0.15992010504E+04  0.10100000352E+00 0.  1.
       -3    1    3    3    0  502  0.11523206699E+04  0.86807104583E+03  0.44636588948E+03  0.15101764084E+04  0.10100000352E+00 0. -1.
</event>
<event>
 5   0  0.4470354E-08  0.3103802E+04  0.7818609E-02  0.8214695E-01
        1   -1    0    0  501    0  0.00000000000E+00  0.00000000000E+00  0.95388822083E+03  0.95388822084E+03  0.50400001928E-02 0. -1.
       -1   -1    0    0    0  501  0.00000000000E+00  0.00000000000E+00 -0.25248203659E+04  0.25248203659E+04  0.50400001928E-02 0.  1.
    10030    2    1    2    0    0  0.00000000000E+00  0.00000000000E+00 -0.15709321450E+04  0.34787085867E+04  0.31038018021E+04 0.  0.
        1    1    3    3  502    0 -0.41761034631E+03  0.47126935730E+03 -0.23752115887E+04  0.24572593065E+04  0.50400001928E-02 0.  1.
       -1    1    3    3    0  502  0.41761034631E+03 -0.47126935730E+03  0.80427944365E+03  0.10214492802E+04  0.50400001928E-02 0. -1.
</event>
<event>
 5   0  0.4450600E-08  0.3105197E+04  0.7818609E-02  0.8214313E-01
       -1   -1    0    0    0  501  0.00000000000E+00  0.00000000000E+00  0.13039429435E+04  0.13039429435E+04  0.50400001928E-02 0. -1.
        1   -1    0    0  501    0  0.00000000000E+00  0.00000000000E+00 -0.18486716750E+04  0.18486716750E+04  0.50400001928E-02 0.  1.
    10030    2    1    2    0    0  0.00000000000E+00  0.00000000000E+00 -0.54472873146E+03  0.31526146185E+04  0.31051971824E+04 0.  0.
        4    1    3    3  502    0 -0.40083366575E+02 -0.25565802816E+03 -0.18266212657E+04  0.18448616655E+04  0.12699999809E+01 0.  1.
       -4    1    3    3    0  502  0.40083366575E+02  0.25565802816E+03  0.12818925343E+04  0.13077529529E+04  0.12699999809E+01 0. -1.
</event>
<event>
 5   0  0.4470354E-08  0.3099012E+04  0.7818609E-02  0.8216009E-01
       -1   -1    0    0    0  501  0.00000000000E+00  0.00000000000E+00  0.13797005175E+04  0.13797005175E+04  0.50400001928E-02 0. -1.
        1   -1    0    0  501    0  0.00000000000E+00  0.00000000000E+00 -0.17402104296E+04  0.17402104296E+04  0.50400001928E-02 0.  1.
    10030    2    1    2    0    0  0.00000000000E+00  0.00000000000E+00 -0.36050991205E+03  0.31199109471E+04  0.30990122493E+04 0.  0.
        1    1    3    3  502    0  0.18404823449E+03 -0.11144357346E+04 -0.12481288323E+04  0.16833497382E+04  0.50400001928E-02 0.  1.
       -1    1    3    3    0  502 -0.18404823449E+03  0.11144357346E+04  0.88761892027E+03  0.14365612088E+04  0.50400001928E-02 0. -1.
</event>
<event>
 5   0  0.1377237E-07  0.3100908E+04  0.7818609E-02  0.8215489E-01
        2   -1    0    0  501    0  0.00000000000E+00  0.00000000000E+00  0.20693630264E+04  0.20693630264E+04  0.25500000920E-02 0. -1.
       -2   -1    0    0    0  501  0.00000000000E+00  0.00000000000E+00 -0.11616654894E+04  0.11616654894E+04  0.25500000920E-02 0.  1.
    10030    2    1    2    0    0  0.00000000000E+00  0.00000000000E+00  0.90769753693E+03  0.32310285158E+04  0.31009080044E+04 0.  0.
        2    1    3    3  502    0  0.27807771943E+03 -0.10358679009E+04 -0.71275705583E+03  0.12877779881E+04  0.25500000920E-02 0.  1.
       -2    1    3    3    0  502 -0.27807771943E+03  0.10358679009E+04  0.16204545928E+04  0.19432505277E+04  0.25500000920E-02 0. -1.
</event>
<event>
 5   0  0.4450600E-08  0.3100865E+04  0.7818609E-02  0.8215501E-01
       -1   -1    0    0    0  501  0.00000000000E+00  0.00000000000E+00  0.77981664140E+03  0.77981664142E+03  0.50400001928E-02 0.  1.
        1   -1    0    0  501    0  0.00000000000E+00  0.00000000000E+00 -0.30825710960E+04  0.30825710960E+04  0.50400001928E-02 0. -1.
    10030    2    1    2    0    0  0.00000000000E+00  0.00000000000E+00 -0.23027544546E+04  0.38623877374E+04  0.31008645498E+04 0.  0.
        4    1    3    3  502    0  0.75503056530E+03  0.70427428014E+02 -0.28358231172E+04  0.29354600223E+04  0.12699999809E+01 0. -1.
       -4    1    3    3    0  502 -0.75503056530E+03 -0.70427428014E+02  0.53306866263E+03  0.92692771516E+03  0.12699999809E+01 0.  1.
</event>
<event>
 5   0  0.1325713E-07  0.3099873E+04  0.7818609E-02  0.8215773E-01
        2   -1    0    0  501    0  0.00000000000E+00  0.00000000000E+00  0.21418996816E+04  0.21418996816E+04  0.25500000920E-02 0.  1.
       -2   -1    0    0    0  501  0.00000000000E+00  0.00000000000E+00 -0.11215758134E+04  0.11215758134E+04  0.25500000920E-02 0. -1.
    10030    2    1    2    0    0  0.00000000000E+00  0.00000000000E+00  0.10203238682E+04  0.32634754951E+04  0.30998728217E+04 0.  0.
        4    1    3    3  502    0  0.11575807272E+03 -0.15403836436E+04  0.37649834292E+03  0.15899478972E+04  0.12699999809E+01 0. -1.
       -4    1    3    3    0  502 -0.11575807272E+03  0.15403836436E+04  0.64382552531E+03  0.16735275978E+04  0.12699999809E+01 0.  1.
</event>
<event>
 5   0  0.4470354E-08  0.3100209E+04  0.7818609E-02  0.8215681E-01
        1   -1    0    0  501    0  0.00000000000E+00  0.00000000000E+00  0.21510198500E+04  0.21510198500E+04  0.50400001928E-02 0.  1.
       -1   -1    0    0    0  501  0.00000000000E+00  0.00000000000E+00 -0.11170624656E+04  0.11170624656E+04  0.50400001928E-02 0. -1.
    10030    2    1    2    0    0  0.00000000000E+00  0.00000000000E+00  0.10339573844E+04  0.32680823156E+04  0.31002087267E+04 0.  0.
        1    1    3    3  502    0  0.63591315328E+03 -0.95921418765E+02  0.20037539512E+04  0.21044277973E+04  0.50400001928E-02 0.  1.
       -1    1    3    3    0  502 -0.63591315328E+03  0.95921418765E+02 -0.96979656679E+03  0.11636545184E+04  0.50400001928E-02 0. -1.
</event>
<event>
 5   0  0.4436241E-08  0.3100636E+04  0.7818609E-02  0.8215563E-01
        1   -1    0    0  501    0  0.00000000000E+00  0.00000000000E+00  0.18876344408E+04  0.18876344408E+04  0.50400001928E-02 0.  1.
       -1   -1    0    0    0  501  0.00000000000E+00  0.00000000000E+00 -0.12732797195E+04  0.12732797195E+04  0.50400001928E-02 0. -1.
    10030    2    1    2    0    0  0.00000000000E+00  0.00000000000E+00  0.61435472135E+03  0.31609141603E+04  0.31006364839E+04 0.  0.
        3    1    3    3  502    0 -0.11518630408E+04  0.10000835730E+04  0.25156905099E+02  0.15256436339E+04  0.10100000352E+00 0. -1.
       -3    1    3    3    0  502  0.11518630408E+04 -0.10000835730E+04  0.58919781625E+03  0.16352705264E+04  0.10100000352E+00 0.  1.
</event>
<event>
 5   0  0.1377237E-07  0.3102692E+04  0.7818609E-02  0.8215000E-01
       -2   -1    0    0    0  501  0.00000000000E+00  0.00000000000E+00  0.16444453260E+04  0.16444453260E+04  0.25500000920E-02 0. -1.
        2   -1    0    0  501    0  0.00000000000E+00  0.00000000000E+00 -0.14635174467E+04  0.14635174467E+04  0.25500000920E-02 0.  1.
    10030    2    1    2    0    0  0.00000000000E+00  0.00000000000E+00  0.18092787929E+03  0.31079627728E+04  0.31026920085E+04 0.  0.
        2    1    3    3  502    0  0.10635472690E+04  0.10717882326E+04  0.44717506898E+03  0.15747470753E+04  0.25500000920E-02 0. -1.
       -2    1    3    3    0  502 -0.10635472690E+04 -0.10717882326E+04 -0.26624718969E+03  0.15332156974E+04  0.25500000920E-02 0.  1.
</event>
<event>
 5   0  0.1398931E-07  0.3100653E+04  0.7818609E-02  0.8215559E-01
       -2   -1    0    0    0  501  0.00000000000E+00  0.00000000000E+00  0.12903648060E+04  0.12903648060E+04  0.25500000920E-02 0. -1.
        2   -1    0    0  501    0  0.00000000000E+00  0.00000000000E+00 -0.18626610785E+04  0.18626610785E+04  0.25500000920E-02 0.  1.
    10030    2    1    2    0    0  0.00000000000E+00  0.00000000000E+00 -0.57229627250E+03  0.31530258845E+04  0.31006530287E+04 0.  0.
        3    1    3    3  502    0 -0.14595279999E+04 -0.43410298382E+03 -0.58234963890E+03  0.16302755887E+04  0.10100000352E+00 0. -1.
       -3    1    3    3    0  502  0.14595279999E+04  0.43410298382E+03  0.10053366402E+02  0.15227502958E+04  0.10100000352E+00 0.  1.
</event>
<event>
 5   0  0.1318916E-07  0.3102509E+04  0.7818609E-02  0.8215050E-01
       -2   -1    0    0    0  501  0.00000000000E+00  0.00000000000E+00  0.11865941902E+04  0.11865941902E+04  0.25500000920E-02 0.  1.
        2   -1    0    0  501    0  0.00000000000E+00  0.00000000000E+00 -0.20279811766E+04  0.20279811766E+04  0.25500000920E-02 0. -1.
    10030    2    1    2    0    0  0.00000000000E+00  0.00000000000E+00 -0.84138698636E+03  0.32145753668E+04  0.31025091020E+04 0.  0.
        5    1    3    3  502    0 -0.15212846123E+04 -0.16781884287E+03 -0.68260590012E+03  0.16758409651E+04  0.46999998093E+01 0.  1.
       -5    1    3    3    0  502  0.15212846123E+04  0.16781884287E+03 -0.15878108625E+03  0.15387344017E+04  0.46999998093E+01 0. -1.
</event>
<event>
 5   0  0.4450600E-08  0.3099823E+04  0.7818609E-02  0.8215786E-01
        1   -1    0    0  501    0  0.00000000000E+00  0.00000000000E+00  0.12647338181E+04  0.12647338181E+04  0.50400001928E-02 0.  1.
       -1   -1    0    0    0  501  0.00000000000E+00  0.00000000000E+00 -0.18993925666E+04  0.18993925666E+04  0.50400001928E-02 0. -1.
    10030    2    1    2    0    0  0.00000000000E+00  0.00000000000E+00 -0.63465874853E+03  0.31641263847E+04  0.30998232291E+04 0.  0.
        4    1    3    3  502    0  0.72727860870E+02  0.79594081596E+03  0.10381532251E+04  0.13101812302E+04  0.12699999809E+01 0.  1.
       -4    1    3    3    0  502 -0.72727860870E+02 -0.79594081596E+03 -0.16728119736E+04  0.18539451546E+04  0.12699999809E+01 0. -1.
</event>
<event>
 5   0  0.4470354E-08  0.3097175E+04  0.7818609E-02  0.8216514E-01
        1   -1    0    0  501    0  0.00000000000E+00  0.00000000000E+00  0.19442130370E+04  0.19442130370E+04  0.50400001928E-02 0. -1.
       -1   -1    0    0    0  501  0.00000000000E+00  0.00000000000E+00 -0.12334675254E+04  0.12334675254E+04  0.50400001928E-02 0.  1.
    10030    2    1    2    0    0  0.00000000000E+00  0.00000000000E+00  0.71074551160E+03  0.31776805624E+04  0.30971752573E+04 0.  0.
        1    1    3    3  502    0 -0.79842464791E+03  0.10466521902E+04 -0.48140055215E+03  0.14016808543E+04  0.50400001928E-02 0.  1.
       -1    1    3    3    0  502  0.79842464791E+03 -0.10466521902E+04  0.11921460638E+04  0.17759997081E+04  0.50400001928E-02 0. -1.
</event>
<event>
 5   0  0.4436241E-08  0.3100672E+04  0.7818609E-02  0.8215553E-01
       -1   -1    0    0    0  501  0.00000000000E+00  0.00000000000E+00  0.74998062260E+03  0.74998062262E+03  0.50400001928E-02 0. -1.
        1   -1    0    0  501    0  0.00000000000E+00  0.00000000000E+00 -0.32048055773E+04  0.32048055773E+04  0.50400001928E-02 0.  1.
    10030    2    1    2    0    0  0.00000000000E+00  0.00000000000E+00 -0.24548249547E+04  0.39547861999E+04  0.31006722382E+04 0.  0.
        3    1    3    3  502    0 -0.76686596832E+03 -0.11911095190E+04 -0.20307673462E+04  0.24760535786E+04  0.10100000352E+00 0.  1.
       -3    1    3    3    0  502  0.76686596832E+03  0.11911095190E+04 -0.42405760848E+03  0.14787326213E+04  0.10100000352E+00 0. -1.
</event>
<event>
 5   0  0.1398931E-07  0.3099837E+04  0.7818609E-02  0.8215783E-01
       -2   -1    0    0    0  501  0.00000000000E+00  0.00000000000E+00  0.13189846744E+04  0.13189846744E+04  0.25500000920E-02 0.  1.
        2   -1    0    0  501    0  0.00000000000E+00  0.00000000000E+00 -0.18212858511E+04  0.18212858511E+04  0.25500000920E-02 0. -1.
    10030    2    1    2    0    0  0.00000000000E+00  0.00000000000E+00 -0.50230117666E+03  0.31402705256E+04  0.30998374960E+04 0.  0.
        3    1    3    3  502    0  0.53388357881E+03 -0.70951926817E+03  0.10357732221E+04  0.13642856906E+04  0.10100000352E+00 0.  1.
       -3    1    3    3    0  502 -0.53388357881E+03  0.70951926817E+03 -0.15380743988E+04  0.17759848350E+04  0.10100000352E+00 0. -1.
</event>
<event>
 5   0  0.1377237E-07  0.3098471E+04  0.7818609E-02  0.8216158E-01
        2   -1    0    0  501    0  0.00000000000E+00  0.00000000000E+00  0.17125629210E+04  0.17125629210E+04  0.25500000920E-02 0. -1.
       -2   -1    0    0    0  501  0.00000000000E+00  0.00000000000E+00 -0.14014848425E+04  0.14014848425E+04  0.25500000920E-02 0.  1.
    10030    2    1    2    0    0  0.00000000000E+00  0.00000000000E+00  0.31107807847E+03  0.31140477635E+04  0.30984712202E+04 0.  0.
        2    1    3    3  502    0 -0.72787086054E+03 -0.90559386901E+03  0.11855005388E+04  0.16599119774E+04  0.25500000920E-02 0. -1.
       -2    1    3    3    0  502  0.72787086054E+03  0.90559386901E+03 -0.87442246038E+03  0.14541357861E+04  0.25500000920E-02 0.  1.
</event>
<event>
 5   0  0.4517409E-08  0.3097898E+04  0.7818609E-02  0.8216315E-01
       -1   -1    0    0    0  501  0.00000000000E+00  0.00000000000E+00  0.14276065242E+04  0.14276065242E+04  0.50400001928E-02 0.  1.
        1   -1    0    0  501    0  0.00000000000E+00  0.00000000000E+00 -0.16806053411E+04  0.16806053411E+04  0.50400001928E-02 0. -1.
    10030    2    1    2    0    0  0.00000000000E+00  0.00000000000E+00 -0.25299881691E+03  0.31082118654E+04  0.30978980937E+04 0.  0.
        2    1    3    3  502    0  0.34673212762E+03  0.45163706377E+03 -0.15717965235E+04  0.16717486405E+04  0.25500000920E-02 0. -1.
       -2    1    3    3    0  502 -0.34673212762E+03 -0.45163706377E+03  0.13187977066E+04  0.14364632249E+04  0.25500000920E-02 0.  1.
</event>
<event>
 5   0  0.4517409E-08  0.3099993E+04  0.7818609E-02  0.8215740E-01
        1   -1    0    0  501    0  0.00000000000E+00  0.00000000000E+00  0.18221898155E+04  0.18221898155E+04  0.50400001928E-02 0.  1.
       -1   -1    0    0    0  501  0.00000000000E+00  0.00000000000E+00 -0.13184622322E+04  0.13184622322E+04  0.50400001928E-02 0. -1.
    10030    2    1    2    0    0  0.00000000000E+00  0.00000000000E+00  0.50372758333E+03  0.31406520478E+04  0.30999925495E+04 0.  0.
        2    1    3    3  502    0 -0.69044395851E+03 -0.43876547505E+03  0.15856649407E+04  0.17842537113E+04  0.25500000920E-02 0.  1.
       -2    1    3    3    0  502  0.69044395851E+03  0.43876547505E+03 -0.10819373574E+04  0.13563983365E+04  0.25500000920E-02 0. -1.
</event>
<event>
 5   0  0.1329777E-07  0.3101485E+04  0.7818609E-02  0.8215330E-01
       -2   -1    0    0    0  501  0.00000000000E+00  0.00000000000E+00  0.18217092091E+04  0.18217092091E+04  0.25500000920E-02 0.  1.
        2   -1    0    0  501    0  0.00000000000E+00  0.00000000000E+00 -0.13200802631E+04  0.13200802631E+04  0.25500000920E-02 0. -1.
    10030    2    1    2    0    0  0.00000000000E+00  0.00000000000E+00  0.50162894594E+03  0.31417894722E+04  0.31014850457E+04 0.  0.
        1    1    3    3  502    0  0.13106007058E+04  0.76670060849E+03  0.57002586391E+03  0.16218611280E+04  0.50400001928E-02 0.  1.
       -1    1    3    3    0  502 -0.13106007058E+04 -0.76670060849E+03 -0.68396917972E+02  0.15199283442E+04  0.50400001928E-02 0. -1.
</event>
<event>
 5   0  0.4436241E-08  0.3098534E+04  0.7818609E-02  0.8216140E-01
        1   -1    0    0  501    0  0.00000000000E+00  0.00000000000E+00  0.16989356608E+04  0.16989356608E+04  0.50400001928E-02 0. -1.
       -1   -1    0    0    0  501  0.00000000000E+00  0.00000000000E+00 -0.14127831446E+04  0.14127831446E+04  0.50400001928E-02 0.  1.
    10030    2    1    2    0    0  0.00000000000E+00  0.00000000000E+00  0.28615251612E+03  0.31117188054E+04  0.30985336308E+04 0.  0.
        3    1    3    3  502    0  0.32213883218E+02 -0.15326843415E+04 -0.81636114316E+02  0.15351949356E+04  0.10100000352E+00 0. -1.
       -3    1    3    3    0  502 -0.32213883218E+02  0.15326843415E+04  0.36778863044E+03  0.15765238698E+04  0.10100000352E+00 0.  1.
</event>
<event>
 5   0  0.1329777E-07  0.3100574E+04  0.7818609E-02  0.8215580E-01
        2   -1    0    0  501    0  0.00000000000E+00  0.00000000000E+00  0.24251477937E+04  0.24251477937E+04  0.25500000920E-02 0.  1.
       -2   -1    0    0    0  501  0.00000000000E+00  0.00000000000E+00 -0.99102841166E+03  0.99102841166E+03  0.25500000920E-02 0. -1.
    10030    2    1    2    0    0  0.00000000000E+00  0.00000000000E+00  0.14341193820E+04  0.34161762054E+04  0.31005743765E+04 0.  0.
        1    1    3    3  502    0  0.33086028743E+03  0.12138266310E+04 -0.28098450521E+03  0.12891066334E+04  0.50400001928E-02 0. -1.
       -1    1    3    3    0  502 -0.33086028743E+03 -0.12138266310E+04  0.17151038873E+04  0.21270695720E+04  0.50400001928E-02 0.  1.
</event>
<event>
 5   0  0.4517409E-08  0.3085263E+04  0.7818609E-02  0.8219794E-01
       -1   -1    0    0    0  501  0.00000000000E+00  0.00000000000E+00  0.10511660843E+04  0.10511660843E+04  0.50400001928E-02 0.  1.
        1   -1    0    0  501    0  0.00000000000E+00  0.00000000000E+00 -0.22638782982E+04  0.22638782982E+04  0.50400001928E-02 0. -1.
    10030    2    1    2    0    0  0.00000000000E+00  0.00000000000E+00 -0.12127122139E+04  0.33150443824E+04  0.30852630915E+04 0.  0.
        2    1    3    3  502    0 -0.11689721179E+04 -0.45811330378E+03 -0.15694067599E+04  0.20098261590E+04  0.25500000920E-02 0. -1.
       -2    1    3    3    0  502  0.11689721179E+04  0.45811330378E+03  0.35669454596E+03  0.13052182234E+04  0.25500000920E-02 0.  1.
</event>
<event>
 5   0  0.4450600E-08  0.3100187E+04  0.7818609E-02  0.8215687E-01
       -1   -1    0    0    0  501  0.00000000000E+00  0.00000000000E+00  0.13752356687E+04  0.13752356687E+04  0.50400001928E-02 0.  1.
        1   -1    0    0  501    0  0.00000000000E+00  0.00000000000E+00 -0.17471839197E+04  0.17471839197E+04  0.50400001928E-02 0. -1.
    10030    2    1    2    0    0  0.00000000000E+00  0.00000000000E+00 -0.37194825101E+03  0.31224195884E+04  0.31001868629E+04 0.  0.
        4    1    3    3  502    0 -0.19169985347E+03  0.12576139462E+04  0.70606728926E+03  0.14549482126E+04  0.12699999809E+01 0.  1.
       -4    1    3    3    0  502  0.19169985347E+03 -0.12576139462E+04 -0.10780155403E+04  0.16674713759E+04  0.12699999809E+01 0. -1.
</event>
<event>
 5   0  0.1325713E-07  0.3100064E+04  0.7818609E-02  0.8215720E-01
       -2   -1    0    0    0  501  0.00000000000E+00  0.00000000000E+00  0.19727246020E+04  0.19727246020E+04  0.25500000920E-02 0. -1.
        2   -1    0    0  501    0  0.00000000000E+00  0.00000000000E+00 -0.12179091923E+04  0.12179091923E+04  0.25500000920E-02 0.  1.
    10030    2    1    2    0    0  0.00000000000E+00  0.00000000000E+00  0.75481540975E+03  0.31906337943E+04  0.31000641456E+04 0.  0.
        4    1    3    3  502    0 -0.81705280894E+03  0.83746112421E+03  0.14238122771E+04  0.18428671793E+04  0.12699999809E+01 0. -1.
       -4    1    3    3    0  502  0.81705280894E+03 -0.83746112421E+03 -0.66899686734E+03  0.13477666150E+04  0.12699999809E+01 0.  1.
</event>
<event>
 5   0  0.1377237E-07  0.3097718E+04  0.7818609E-02  0.8216364E-01
       -2   -1    0    0    0  501  0.00000000000E+00  0.00000000000E+00  0.26366402415E+04  0.26366402415E+04  0.25500000920E-02 0. -1.
        2   -1    0    0  501    0  0.00000000000E+00  0.00000000000E+00 -0.90985643295E+03  0.90985643296E+03  0.25500000920E-02 0.  1.
    10030    2    1    2    0    0  0.00000000000E+00  0.00000000000E+00  0.17267838085E+04  0.35464966744E+04  0.30977179246E+04 0.  0.
        2    1    3    3  502    0  0.65663210444E+03 -0.41054068341E+03 -0.67229970905E+03  0.10255224386E+04  0.25500000920E-02 0.  1.
       -2    1    3    3    0  502 -0.65663210444E+03  0.41054068341E+03  0.23990835176E+04  0.25209742358E+04  0.25500000920E-02 0. -1.
</event>
<event>
 5   0  0.4838602E-08  0.3099922E+04  0.7818609E-02  0.8215759E-01
        1   -1    0    0  501    0  0.00000000000E+00  0.00000000000E+00  0.18172044854E+04  0.18172044854E+04  0.50400001928E-02 0.  1.
       -1   -1    0    0    0  501  0.00000000000E+00  0.00000000000E+00 -0.13220194603E+04  0.13220194603E+04  0.50400001928E-02 0. -1.
    10030    2    1    2    0    0  0.00000000000E+00  0.00000000000E+00  0.49518502511E+03  0.31392239457E+04  0.30999223816E+04 0.  0.
        5    1    3    3  502    0 -0.86764620993E+03  0.22597392073E+03  0.15279332090E+04  0.17715744804E+04  0.46999998093E+01 0.  1.
       -5    1    3    3    0  502  0.86764620993E+03 -0.22597392073E+03 -0.10327481839E+04  0.13676494653E+04  0.46999998093E+01 0. -1.
</event>
<event>
 5   0  0.1318916E-07  0.3094460E+04  0.7818609E-02  0.8217260E-01
        2   -1    0    0  501    0  0.00000000000E+00  0.00000000000E+00  0.19973827640E+04  0.19973827640E+04  0.25500000920E-02 0.  1.
       -2   -1    0    0    0  501  0.00000000000E+00  0.00000000000E+00 -0.11985287062E+04  0.11985287062E+04  0.25500000920E-02 0. -1.
    10030    2    1    2    0    0  0.00000000000E+00  0.00000000000E+00  0.79885405782E+03  0.31959114703E+04  0.30944599400E+04 0.  0.
        5    1    3    3  502    0  0.22423078242E+02 -0.34153352327E+03  0.19577863411E+04  0.19874851923E+04  0.46999998093E+01 0.  1.
       -5    1    3    3    0  502 -0.22423078242E+02  0.34153352327E+03 -0.11589322833E+04  0.12084262780E+04  0.46999998093E+01 0. -1.
</event>
<event>
 5   0  0.1377237E-07  0.3099290E+04  0.7818609E-02  0.8215933E-01
        2   -1    0    0  501    0  0.00000000000E+00  0.00000000000E+00  0.17907793596E+04  0.17907793596E+04  0.25500000920E-02 0.  1.
       -2   -1    0    0    0  501  0.00000000000E+00  0.00000000000E+00 -0.13409799790E+04  0.13409799790E+04  0.25500000920E-02 0. -1.
    10030    2    1    2    0    0  0.00000000000E+00  0.00000000000E+00  0.44979938063E+03  0.31317593386E+04  0.30992897689E+04 0.  0.
        2    1    3    3  502    0  0.39674612428E+03 -0.10999948727E+04 -0.80261280204E+03  0.14183030414E+04  0.25500000920E-02 0. -1.
       -2    1    3    3    0  502 -0.39674612428E+03  0.10999948727E+04  0.12524121827E+04  0.17134562972E+04  0.25500000920E-02 0.  1.
</event>
<event>
 5   0  0.4517409E-08  0.3100738E+04  0.7818609E-02  0.8215535E-01
        1   -1    0    0  501    0  0.00000000000E+00  0.00000000000E+00  0.27310272074E+04  0.27310272074E+04  0.50400001928E-02 0. -1.
       -1   -1    0    0    0  501  0.00000000000E+00  0.00000000000E+00 -0.88012444320E+03  0.88012444322E+03  0.50400001928E-02 0.  1.
    10030    2    1    2    0    0  0.00000000000E+00  0.00000000000E+00  0.18509027642E+04  0.36111516506E+04  0.31007378479E+04 0.  0.
        2    1    3    3  502    0 -0.10760299753E+03  0.35799684928E+02  0.27261906158E+04  0.27285482030E+04  0.25500000920E-02 0. -1.
       -2    1    3    3    0  502  0.10760299753E+03 -0.35799684928E+02 -0.87528785161E+03  0.88260344759E+03  0.25500000920E-02 0.  1.
</event>
<event>
 5   0  0.4436241E-08  0.3082121E+04  0.7818609E-02  0.8220662E-01
       -1   -1    0    0    0  501  0.00000000000E+00  0.00000000000E+00  0.15296605915E+04  0.15296605915E+04  0.50400001928E-02 0. -1.
        1   -1    0    0  501    0  0.00000000000E+00  0.00000000000E+00 -0.15525451710E+04  0.15525451710E+04  0.50400001928E-02 0.  1.
    10030    2    1    2    0    0  0.00000000000E+00  0.00000000000E+00 -0.22884579434E+02  0.30822057625E+04  0.30821208053E+04 0.  0.
        3    1    3    3  502    0  0.51850083077E+03 -0.31051338507E+03  0.14062023307E+04  0.15305772371E+04  0.10100000352E+00 0. -1.
       -3    1    3    3    0  502 -0.51850083077E+03  0.31051338507E+03 -0.14290869101E+04  0.15516285254E+04  0.10100000352E+00 0.  1.
</event>
<event>
 5   0  0.1329777E-07  0.3100926E+04  0.7818609E-02  0.8215484E-01
       -2   -1    0    0    0  501  0.00000000000E+00  0.00000000000E+00  0.13438516687E+04  0.13438516687E+04  0.25500000920E-02 0.  1.
        2   -1    0    0  501    0  0.00000000000E+00  0.00000000000E+00 -0.17888402922E+04  0.17888402922E+04  0.25500000920E-02 0. -1.
    10030    2    1    2    0    0  0.00000000000E+00  0.00000000000E+00 -0.44498862343E+03  0.31326919609E+04  0.31009263208E+04 0.  0.
        1    1    3    3  502    0  0.35998876786E+03 -0.14223636993E+04  0.28386429505E+03  0.14944194003E+04  0.50400001928E-02 0.  1.
       -1    1    3    3    0  502 -0.35998876786E+03  0.14223636993E+04 -0.72885291848E+03  0.16382725606E+04  0.50400001928E-02 0. -1.
</event>
<event>
 5   0  0.4436241E-08  0.3115484E+04  0.7818609E-02  0.8211501E-01
        1   -1    0    0  501    0  0.00000000000E+00  0.00000000000E+00  0.21234091220E+04  0.21234091220E+04  0.50400001928E-02 0.  1.
       -1   -1    0    0    0  501  0.00000000000E+00  0.00000000000E+00 -0.11427661783E+04  0.11427661783E+04  0.50400001928E-02 0. -1.
    10030    2    1    2    0    0  0.00000000000E+00  0.00000000000E+00  0.98064294362E+03  0.32661753003E+04  0.31154839928E+04 0.  0.
        3    1    3    3  502    0 -0.22366099077E+03 -0.12181276174E+04  0.14808499660E+04  0.19304858879E+04  0.10100000352E+00 0.  1.
       -3    1    3    3    0  502  0.22366099077E+03  0.12181276174E+04 -0.50020702241E+03  0.13356894125E+04  0.10100000352E+00 0. -1.
</event>
<event>
 5   0  0.1377237E-07  0.3099343E+04  0.7818609E-02  0.8215918E-01
       -2   -1    0    0    0  501  0.00000000000E+00  0.00000000000E+00  0.12882339566E+04  0.12882339566E+04  0.25500000920E-02 0.  1.
        2   -1    0    0  501    0  0.00000000000E+00  0.00000000000E+00 -0.18641662485E+04  0.18641662485E+04  0.25500000920E-02 0. -1.
    10030    2    1    2    0    0  0.00000000000E+00  0.00000000000E+00 -0.57593229195E+03  0.31524002051E+04  0.30993433253E+04 0.  0.
        2    1    3    3  502    0  0.49307830849E+03  0.12126031407E+04  0.55565992449E+03  0.14220726236E+04  0.25500000920E-02 0.  1.
       -2    1    3    3    0  502 -0.49307830849E+03 -0.12126031407E+04 -0.11315922164E+04  0.17303275815E+04  0.25500000920E-02 0. -1.
</event>
<event>
 5   0  0.1398931E-07  0.3100530E+04  0.7818609E-02  0.8215592E-01
        2   -1    0    0  501    0  0.00000000000E+00  0.00000000000E+00  0.25193729261E+04  0.25193729261E+04  0.25500000920E-02 0. -1.
       -2   -1    0    0    0  501  0.00000000000E+00  0.00000000000E+00 -0.95393659027E+03  0.95393659028E+03  0.25500000920E-02 0.  1.
    10030    2    1    2    0    0  0.00000000000E+00  0.00000000000E+00  0.15654363358E+04  0.34733095164E+04  0.31005302893E+04 0.  0.
        3    1    3    3  502    0 -0.10587471163E+04  0.46712747574E+03  0.19383319221E+04  0.22574951130E+04  0.10100000352E+00 0. -1.
       -3    1    3    3    0  502  0.10587471163E+04 -0.46712747574E+03 -0.37289558630E+03  0.12158144033E+04  0.10100000352E+00 0.  1.
</event>
<event>
 5   0  0.1329777E-07  0.3097018E+04  0.7818609E-02  0.8216557E-01
        2   -1    0    0  501    0  0.00000000000E+00  0.00000000000E+00  0.26695055411E+04  0.26695055411E+04  0.25500000920E-02 0. -1.
       -2   -1    0    0    0  501  0.00000000000E+00  0.00000000000E+00 -0.89824882355E+03  0.89824882355E+03  0.25500000920E-02 0.  1.
    10030    2    1    2    0    0  0.00000000000E+00  0.00000000000E+00  0.17712567176E+04  0.35677543647E+04  0.30970180573E+04 0.  0.
        1    1    3    3  502    0  0.13660381385E+04 -0.10110667883E+02  0.17256525713E+04  0.22009178127E+04  0.50400001928E-02 0. -1.
       -1    1    3    3    0  502 -0.13660381385E+04  0.10110667883E+02  0.45604146256E+02  0.13668365519E+04  0.50400001928E-02 0.  1.
</event>
<event>
 5   0  0.1318916E-07  0.3103936E+04  0.7818609E-02  0.8214659E-01
        2   -1    0    0  501    0  0.00000000000E+00  0.00000000000E+00  0.11151102206E+04  0.11151102206E+04  0.25500000920E-02 0.  1.
       -2   -1    0    0    0  501  0.00000000000E+00  0.00000000000E+00 -0.21599699254E+04  0.21599699254E+04  0.25500000920E-02 0. -1.
    10030    2    1    2    0    0  0.00000000000E+00  0.00000000000E+00 -0.10448597048E+04  0.32750801460E+04  0.31039359143E+04 0.  0.
        5    1    3    3  502    0 -0.85321494088E+03  0.87885257996E+03 -0.15279849647E+04  0.19583456628E+04  0.46999998093E+01 0.  1.
       -5    1    3    3    0  502  0.85321494088E+03 -0.87885257996E+03  0.48312525986E+03  0.13167344832E+04  0.46999998093E+01 0. -1.
</event>
<event>
 5   0  0.4450600E-08  0.3099737E+04  0.7818609E-02  0.8215810E-01
       -1   -1    0    0    0  501  0.00000000000E+00  0.00000000000E+00  0.11153546631E+04  0.11153546631E+04  0.50400001928E-02 0.  1.
        1   -1    0    0  501    0  0.00000000000E+00  0.00000000000E+00 -0.21536576473E+04  0.21536576473E+04  0.50400001928E-02 0. -1.
    10030    2    1    2    0    0  0.00000000000E+00  0.00000000000E+00 -0.10383029842E+04  0.32690123104E+04  0.30997368273E+04 0.  0.
        4    1    3    3  502    0  0.34289868361E+03  0.49396000130E+03  0.98732228088E+03  0.11560202807E+04  0.12699999809E+01 0.  1.
       -4    1    3    3    0  502 -0.34289868361E+03 -0.49396000130E+03 -0.20256252651E+04  0.21129920297E+04  0.12699999809E+01 0. -1.
</event>
<event>
 5   0  0.4838602E-08  0.3100030E+04  0.7818609E-02  0.8215730E-01
       -1   -1    0    0    0  501  0.00000000000E+00  0.00000000000E+00  0.18630143641E+04  0.18630143641E+04  0.50400001928E-02 0. -1.
        1   -1    0    0  501    0  0.00000000000E+00  0.00000000000E+00 -0.12896016791E+04  0.12896016791E+04  0.50400001928E-02 0.  1.
    10030    2    1    2    0    0  0.00000000000E+00  0.00000000000E+00  0.57341268497E+03  0.31526160432E+04  0.31000299690E+04 0.  0.
        5    1    3    3  502    0 -0.11636672829E+04 -0.28865169008E+03  0.12857570368E+04  0.17580200770E+04  0.46999998093E+01 0. -1.
       -5    1    3    3    0  502  0.11636672829E+04  0.28865169008E+03 -0.71234435187E+03  0.13945959662E+04  0.46999998093E+01 0.  1.
</event>
<event>
 5   0  0.1325713E-07  0.3103746E+04  0.7818609E-02  0.8214711E-01
        2   -1    0    0  501    0  0.00000000000E+00  0.00000000000E+00  0.22901754937E+04  0.22901754937E+04  0.25500000920E-02 0. -1.
       -2   -1    0    0    0  501  0.00000000000E+00  0.00000000000E+00 -0.10515827879E+04  0.10515827879E+04  0.25500000920E-02 0.  1.
    10030    2    1    2    0    0  0.00000000000E+00  0.00000000000E+00  0.12385927058E+04  0.33417582816E+04  0.31037455633E+04 0.  0.
        4    1    3    3  502    0  0.47122397694E+02 -0.14694791046E+04  0.11540939885E+04  0.18690970832E+04  0.12699999809E+01 0.  1.
       -4    1    3    3    0  502 -0.47122397694E+02  0.14694791046E+04  0.84498717355E+02  0.14726611984E+04  0.12699999809E+01 0. -1.
</event>
<event>
 5   0  0.4450600E-08  0.3099699E+04  0.7818609E-02  0.8215821E-01
        1   -1    0    0  501    0  0.00000000000E+00  0.00000000000E+00  0.14044658764E+04  0.14044658765E+04  0.50400001928E-02 0. -1.
       -1   -1    0    0    0  501  0.00000000000E+00  0.00000000000E+00 -0.17102820205E+04  0.17102820205E+04  0.50400001928E-02 0.  1.
    10030    2    1    2    0    0  0.00000000000E+00  0.00000000000E+00 -0.30581614406E+03  0.31147478970E+04  0.30996985253E+04 0.  0.
        4    1    3    3  502    0 -0.17902731771E+03  0.12998528768E+04 -0.98175386597E+03  0.16387527416E+04  0.12699999809E+01 0.  1.
       -4    1    3    3    0  502  0.17902731771E+03 -0.12998528768E+04  0.67593772190E+03  0.14759951554E+04  0.12699999809E+01 0. -1.
</event>
<event>
 5   0  0.4470354E-08  0.3098274E+04  0.7818609E-02  0.8216212E-01
        1   -1    0    0  501    0  0.00000000000E+00  0.00000000000E+00  0.20749009798E+04  0.20749009798E+04  0.50400001928E-02 0. -1.
       -1   -1    0    0    0  501  0.00000000000E+00  0.00000000000E+00 -0.11565972762E+04  0.11565972762E+04  0.50400001928E-02 0.  1.
    10030    2    1    2    0    0  0.00000000000E+00  0.00000000000E+00  0.91830370365E+03  0.32314982560E+04  0.30982735977E+04 0.  0.
        1    1    3    3  502    0  0.12944929430E+04 -0.78558145704E+03  0.11801822711E+03  0.15188082522E+04  0.50400001928E-02 0.  1.
       -1    1    3    3    0  502 -0.12944929430E+04  0.78558145704E+03  0.80028547654E+03  0.17126900038E+04  0.50400001928E-02 0. -1.
</event>
<event>
 5   0  0.1329777E-07  0.3103966E+04  0.7818609E-02  0.8214650E-01
       -2   -1    0    0    0  501  0.00000000000E+00  0.00000000000E+00  0.16322686851E+04  0.16322686851E+04  0.25500000920E-02 0. -1.
        2   -1    0    0  501    0  0.00000000000E+00  0.00000000000E+00 -0.14756463949E+04  0.14756463949E+04  0.25500000920E-02 0.  1.
    10030    2    1    2    0    0  0.00000000000E+00  0.00000000000E+00  0.15662229015E+03  0.31079150800E+04  0.31039661085E+04 0.  0.
        1    1    3    3  502    0  0.82221141455E+03  0.11883641969E+04  0.64507927968E+03  0.15825196213E+04  0.50400001928E-02 0. -1.
       -1    1    3    3    0  502 -0.82221141455E+03 -0.11883641969E+04 -0.48845698953E+03  0.15253954587E+04  0.50400001928E-02 0.  1.
</event>
<event>
 5   0  0.4838602E-08  0.3099648E+04  0.7818609E-02  0.8215835E-01
        1   -1    0    0  501    0  0.00000000000E+00  0.00000000000E+00  0.21748723177E+04  0.21748723177E+04  0.50400001928E-02 0. -1.
       -1   -1    0    0    0  501  0.00000000000E+00  0.00000000000E+00 -0.11044114711E+04  0.11044114711E+04  0.50400001928E-02 0.  1.
    10030    2    1    2    0    0  0.00000000000E+00  0.00000000000E+00  0.10704608466E+04  0.32792837888E+04  0.30996476805E+04 0.  0.
        5    1    3    3  502    0 -0.78929173253E+03 -0.10161516721E+04  0.14492352007E+04  0.19380016555E+04  0.46999998093E+01 0. -1.
       -5    1    3    3    0  502  0.78929173253E+03  0.10161516721E+04 -0.37877435412E+03  0.13412821333E+04  0.46999998093E+01 0.  1.
</event>
<event>
 5   0  0.1325713E-07  0.3100049E+04  0.7818609E-02  0.8215724E-01
       -2   -1    0    0    0  501  0.00000000000E+00  0.00000000000E+00  0.90829404322E+03  0.90829404322E+03  0.25500000920E-02 0. -1.
        2   -1    0    0  501    0  0.00000000000E+00  0.00000000000E+00 -0.26451528865E+04  0.26451528865E+04  0.25500000920E-02 0.  1.
    10030    2    1    2    0    0  0.00000000000E+00  0.00000000000E+00 -0.17368588433E+04  0.35534469297E+04  0.31000494256E+04 0.  0.
        4    1    3    3  502    0 -0.35552960003E+02 -0.81238476539E+03  0.64416763279E+03  0.10373941257E+04  0.12699999809E+01 0. -1.
       -4    1    3    3    0  502  0.35552960003E+02  0.81238476539E+03 -0.23810264761E+04  0.25160528040E+04  0.12699999809E+01 0.  1.
</event>
<event>
 5   0  0.1329777E-07  0.3102778E+04  0.7818609E-02  0.8214976E-01
        2   -1    0    0  501    0  0.00000000000E+00  0.00000000000E+00  0.25818659436E+04  0.25818659436E+04  0.25500000920E-02 0.  1.
       -2   -1    0    0    0  501  0.00000000000E+00  0.00000000000E+00 -0.93219704426E+03  0.93219704426E+03  0.25500000920E-02 0. -1.
    10030    2    1    2    0    0  0.00000000000E+00  0.00000000000E+00  0.16496688993E+04  0.35140629879E+04  0.31027779819E+04 0.  0.
        1    1    3    3  502    0 -0.10171616801E+04 -0.15367762562E+03 -0.49037853518E+03  0.11396077412E+04  0.50400001928E-02 0. -1.
       -1    1    3    3    0  502  0.10171616801E+04  0.15367762562E+03  0.21400474345E+04  0.23744552466E+04  0.50400001928E-02 0.  1.
</event>
<event>
 5   0  0.1398931E-07  0.3099899E+04  0.7818609E-02  0.8215766E-01
        2   -1    0    0  501    0  0.00000000000E+00  0.00000000000E+00  0.14605226174E+04  0.14605226174E+04  0.25500000920E-02 0. -1.
       -2   -1    0    0    0  501  0.00000000000E+00  0.00000000000E+00 -0.16448518871E+04  0.16448518871E+04  0.25500000920E-02 0.  1.
    10030    2    1    2    0    0  0.00000000000E+00  0.00000000000E+00 -0.18432926977E+03  0.31053745045E+04  0.30998989554E+04 0.  0.
        3    1    3    3  502    0 -0.11894698110E+04 -0.87960355252E+03 -0.55536923913E+03  0.15801822183E+04  0.10100000352E+00 0.  1.
       -3    1    3    3    0  502  0.11894698110E+04  0.87960355252E+03  0.37103996936E+03  0.15251922862E+04  0.10100000352E+00 0. -1.
</event>
<event>
 5   0  0.1377237E-07  0.3102219E+04  0.7818609E-02  0.8215129E-01
       -2   -1    0    0    0  501  0.00000000000E+00  0.00000000000E+00  0.11023650114E+04  0.11023650114E+04  0.25500000920E-02 0.  1.
        2   -1    0    0  501    0  0.00000000000E+00  0.00000000000E+00 -0.21825263612E+04  0.21825263612E+04  0.25500000920E-02 0. -1.
    10030    2    1    2    0    0  0.00000000000E+00  0.00000000000E+00 -0.10801613497E+04  0.32848913726E+04  0.31022190104E+04 0.  0.
        2    1    3    3  502    0 -0.12816909827E+04  0.63215302897E+03  0.98411237664E+02  0.14324922334E+04  0.25500000920E-02 0.  1.
       -2    1    3    3    0  502  0.12816909827E+04 -0.63215302897E+03 -0.11785725874E+04  0.18523991392E+04  0.25500000920E-02 0. -1.
</event>
<event>
 5   0  0.1329777E-07  0.3094731E+04  0.7818609E-02  0.8217185E-01
        2   -1    0    0  501    0  0.00000000000E+00  0.00000000000E+00  0.18077209445E+04  0.18077209445E+04  0.25500000920E-02 0. -1.
       -2   -1    0    0    0  501  0.00000000000E+00  0.00000000000E+00 -0.13245078743E+04  0.13245078743E+04  0.25500000920E-02 0.  1.
    10030    2    1    2    0    0  0.00000000000E+00  0.00000000000E+00  0.48321307018E+03  0.31322288188E+04  0.30947314103E+04 0.  0.
        1    1    3    3  502    0 -0.12645878698E+04 -0.39783484023E+03 -0.56611419263E+03  0.14415062676E+04  0.50400001928E-02 0.  1.
       -1    1    3    3    0  502  0.12645878698E+04  0.39783484023E+03  0.10493272628E+04  0.16907225511E+04  0.50400001928E-02 0. -1.
</event>
<event>
 5   0  0.1318916E-07  0.3100849E+04  0.7818609E-02  0.8215505E-01
        2   -1    0    0  501    0  0.00000000000E+00  0.00000000000E+00  0.17503805550E+04  0.17503805550E+04  0.25500000920E-02 0.  1.
       -2   -1    0    0    0  501  0.00000000000E+00  0.00000000000E+00 -0.13733107182E+04  0.13733107182E+04  0.25500000920E-02 0. -1.
    10030    2    1    2    0    0  0.00000000000E+00  0.00000000000E+00  0.37706983680E+03  0.31236912732E+04  0.31008491592E+04 0.  0.
        5    1    3    3  502    0 -0.98616271408E+03  0.51809442277E+03  0.12748363457E+04  0.16929762337E+04  0.46999998093E+01 0.  1.
       -5    1    3    3    0  502  0.98616271408E+03 -0.51809442277E+03 -0.89776650895E+03  0.14307150395E+04  0.46999998093E+01 0. -1.
</event>
<event>
 5   0  0.1377237E-07  0.3099436E+04  0.7818609E-02  0.8215893E-01
       -2   -1    0    0    0  501  0.00000000000E+00  0.00000000000E+00  0.20510702619E+04  0.20510702619E+04  0.25500000920E-02 0. -1.
        2   -1    0    0  501    0  0.00000000000E+00  0.00000000000E+00 -0.11709133705E+04  0.11709133705E+04  0.25500000920E-02 0.  1.
    10030    2    1    2    0    0  0.00000000000E+00  0.00000000000E+00  0.88015689142E+03  0.32219836324E+04  0.30994358155E+04 0.  0.
        2    1    3    3  502    0  0.10924734686E+04 -0.89950280733E+03  0.10967362507E+04  0.17903725823E+04  0.25500000920E-02 0. -1.
       -2    1    3    3    0  502 -0.10924734686E+04  0.89950280733E+03 -0.21657935926E+03  0.14316110501E+04  0.25500000920E-02 0.  1.
</event>
<event>
 5   0  0.4436241E-08  0.3099996E+04  0.7818609E-02  0.8215739E-01
       -1   -1    0    0    0  501  0.00000000000E+00  0.00000000000E+00  0.22716248590E+04  0.22716248590E+04  0.50400001928E-02 0. -1.
        1   -1    0    0  501    0  0.00000000000E+00  0.00000000000E+00 -0.10576105687E+04  0.10576105687E+04  0.50400001928E-02 0.  1.
    10030    2    1    2    0    0  0.00000000000E+00  0.00000000000E+00  0.12140142903E+04  0.33292354278E+04  0.30999964252E+04 0.  0.
        3    1    3    3  502    0  0.14518648398E+04  0.11752268937E+03  0.11760693106E+04  0.18721277010E+04  0.10100000352E+00 0. -1.
       -3    1    3    3    0  502 -0.14518648398E+04 -0.11752268937E+03  0.37944979724E+02  0.14571077267E+04  0.10100000352E+00 0.  1.
</event>
<event>
 5   0  0.4470354E-08  0.3098807E+04  0.7818609E-02  0.8216065E-01
       -1   -1    0    0    0  501  0.00000000000E+00  0.00000000000E+00  0.10929911441E+04  0.10929911441E+04  0.50400001928E-02 0.  1.
        1   -1    0    0  501    0  0.00000000000E+00  0.00000000000E+00 -0.21964048638E+04  0.21964048639E+04  0.50400001928E-02 0. -1.
    10030    2    1    2    0    0  0.00000000000E+00  0.00000000000E+00 -0.11034137197E+04  0.32893960080E+04  0.30988069092E+04 0.  0.
        1    1    3    3  502    0  0.82757544663E+03  0.81858844532E+02  0.83601188075E+03  0.11791937309E+04  0.50400001928E-02 0.  1.
       -1    1    3    3    0  502 -0.82757544663E+03 -0.81858844532E+02 -0.19394256005E+04  0.21102022771E+04  0.50400001928E-02 0. -1.
</event>
<event>
 5   0  0.1325713E-07  0.3095341E+04  0.7818609E-02  0.8217018E-01
       -2   -1    0    0    0  501  0.00000000000E+00  0.00000000000E+00  0.11206006772E+04  0.11206006772E+04  0.25500000920E-02 0. -1.
        2   -1    0    0  501    0  0.00000000000E+00  0.00000000000E+00 -0.21375006097E+04  0.21375006097E+04  0.25500000920E-02 0.  1.
    10030    2    1    2    0    0  0.00000000000E+00  0.00000000000E+00 -0.10168999325E+04  0.32581012869E+04  0.30953414226E+04 0.  0.
        4    1    3    3  502    0 -0.28211415381E+03 -0.94795077881E+03  0.74455793715E+03  0.12379689857E+04  0.12699999809E+01 0. -1.
       -4    1    3    3    0  502  0.28211415381E+03  0.94795077881E+03 -0.17614578696E+04  0.20201323012E+04  0.12699999809E+01 0.  1.
</event>
<event>
 5   0  0.1318916E-07  0.3100246E+04  0.7818609E-02  0.8215670E-01
       -2   -1    0    0    0  501  0.00000000000E+00  0.00000000000E+00  0.10942647301E+04  0.10942647301E+04  0.25500000920E-02 0.  1.
        2   -1    0    0  501    0  0.00000000000E+00  0.00000000000E+00 -0.21958871296E+04  0.21958871296E+04  0.25500000920E-02 0. -1.
    10030    2    1    2    0    0  0.00000000000E+00  0.00000000000E+00 -0.11016223995E+04  0.32901518597E+04  0.31002463368E+04 0.  0.
        5    1    3    3  502    0  0.62356633830E+02  0.15377629536E+04 -0.35438871108E+03  0.15793089311E+04  0.46999998093E+01 0. -1.
       -5    1    3    3    0  502 -0.62356633830E+02 -0.15377629536E+04 -0.74723368846E+03  0.17108429286E+04  0.46999998093E+01 0.  1.
</event>
<event>
 5   0  0.1318916E-07  0.3100743E+04  0.7818609E-02  0.8215534E-01
       -2   -1    0    0    0  501  0.00000000000E+00  0.00000000000E+00  0.16264922823E+04  0.16264922823E+04  0.25500000920E-02 0. -1.
        2   -1    0    0  501    0  0.00000000000E+00  0.00000000000E+00 -0.14778128965E+04  0.14778128965E+04  0.25500000920E-02 0.  1.
    10030    2    1    2    0    0  0.00000000000E+00  0.00000000000E+00  0.14867938572E+03  0.31043051788E+04  0.31007426664E+04 0.  0.
        5    1    3    3  502    0  0.26901251231E+03  0.84308612577E+02 -0.14519293261E+04  0.14790525792E+04  0.46999998093E+01 0.  1.
       -5    1    3    3    0  502 -0.26901251231E+03 -0.84308612577E+02  0.16006087119E+04  0.16252525996E+04  0.46999998093E+01 0. -1.
</event>
<event>
 5   0  0.4450600E-08  0.3104657E+04  0.7818609E-02  0.8214461E-01
        1   -1    0    0  501    0  0.00000000000E+00  0.00000000000E+00  0.13540179280E+04  0.13540179280E+04  0.50400001928E-02 0. -1.
       -1   -1    0    0    0  501  0.00000000000E+00  0.00000000000E+00 -0.17796843480E+04  0.17796843480E+04  0.50400001928E-02 0.  1.
    10030    2    1    2    0    0  0.00000000000E+00  0.00000000000E+00 -0.42566642005E+03  0.31337022760E+04  0.31046574776E+04 0.  0.
        4    1    3    3  502    0  0.64636392567E+03 -0.51439915931E+03 -0.15394079019E+04  0.17470463991E+04  0.12699999809E+01 0.  1.
       -4    1    3    3    0  502 -0.64636392567E+03  0.51439915931E+03  0.11137414818E+04  0.13866558768E+04  0.12699999809E+01 0. -1.
</event>
<event>
 5   0  0.4838602E-08  0.3099977E+04  0.7818609E-02  0.8215744E-01
       -1   -1    0    0    0  501  0.00000000000E+00  0.00000000000E+00  0.89248378429E+03  0.89248378430E+03  0.50400001928E-02 0. -1.
        1   -1    0    0  501    0  0.00000000000E+00  0.00000000000E+00 -0.26918851435E+04  0.26918851435E+04  0.50400001928E-02 0.  1.
    10030    2    1    2    0    0  0.00000000000E+00  0.00000000000E+00 -0.17994013592E+04  0.35843689278E+04  0.30999766707E+04 0.  0.
        5    1    3    3  502    0  0.67223353115E+03 -0.63104373750E+02 -0.25129012308E+04  0.26020328146E+04  0.46999998093E+01 0.  1.
       -5    1    3    3    0  502 -0.67223353115E+03  0.63104373750E+02  0.71349987165E+03  0.98233611317E+03  0.46999998093E+01 0. -1.
</event>
<event>
 5   0  0.1329777E-07  0.3099471E+04  0.7818609E-02  0.8215883E-01
        2   -1    0    0  501    0  0.00000000000E+00  0.00000000000E+00  0.23290517653E+04  0.23290517653E+04  0.25500000920E-02 0. -1.
       -2   -1    0    0    0  501  0.00000000000E+00  0.00000000000E+00 -0.10311837568E+04  0.10311837568E+04  0.25500000920E-02 0.  1.
    10030    2    1    2    0    0  0.00000000000E+00  0.00000000000E+00  0.12978680085E+04  0.33602355221E+04  0.30994711479E+04 0.  0.
        1    1    3    3  502    0  0.14190769236E+04 -0.20314642396E+03  0.10645826321E+02  0.14335833140E+04  0.50400001928E-02 0.  1.
       -1    1    3    3    0  502 -0.14190769236E+04  0.20314642396E+03  0.12872221822E+04  0.19266522081E+04  0.50400001928E-02 0. -1.
</event>
<event>
 5   0  0.1325713E-07  0.3102407E+04  0.7818609E-02  0.8215078E-01
       -2   -1    0    0    0  501  0.00000000000E+00  0.00000000000E+00  0.15646941037E+04  0.15646941037E+04  0.25500000920E-02 0. -1.
        2   -1    0    0  501    0  0.00000000000E+00  0.00000000000E+00 -0.15378295503E+04  0.15378295503E+04  0.25500000920E-02 0.  1.
    10030    2    1    2    0    0  0.00000000000E+00  0.00000000000E+00  0.26864553328E+02  0.31025236540E+04  0.31024073426E+04 0.  0.
        4    1    3    3  502    0 -0.13760057534E+04 -0.61569085965E+03  0.37918380274E+03  0.15544288460E+04  0.12699999809E+01 0. -1.
       -4    1    3    3    0  502  0.13760057534E+04  0.61569085965E+03 -0.35231924941E+03  0.15480948080E+04  0.12699999809E+01 0.  1.
</event>
<event>
 5   0  0.1377237E-07  0.3099832E+04  0.7818609E-02  0.8215784E-01
       -2   -1    0    0    0  501  0.00000000000E+00  0.00000000000E+00  0.15668920236E+04  0.15668920236E+04  0.25500000920E-02 0.  1.
        2   -1    0    0  501    0  0.00000000000E+00  0.00000000000E+00 -0.15331242760E+04  0.15331242760E+04  0.25500000920E-02 0. -1.
    10030    2    1    2    0    0  0.00000000000E+00  0.00000000000E+00  0.33767747613E+02  0.31000162996E+04  0.30998323821E+04 0.  0.
        2    1    3    3  502    0  0.37481072943E+02 -0.33164500274E+03 -0.14967603404E+04  0.15335203798E+04  0.25500000920E-02 0. -1.
       -2    1    3    3    0  502 -0.37481072943E+02  0.33164500274E+03  0.15305280880E+04  0.15664959198E+04  0.25500000920E-02 0.  1.
</event>
<event>
 5   0  0.1377237E-07  0.3096215E+04  0.7818609E-02  0.8216778E-01
       -2   -1    0    0    0  501  0.00000000000E+00  0.00000000000E+00  0.13125572229E+04  0.13125572229E+04  0.25500000920E-02 0. -1.
        2   -1    0    0  501    0  0.00000000000E+00  0.00000000000E+00 -0.18259291099E+04  0.18259291099E+04  0.25500000920E-02 0.  1.
    10030    2    1    2    0    0  0.00000000000E+00  0.00000000000E+00 -0.51337188705E+03  0.31384863328E+04  0.30962147481E+04 0.  0.
        2    1    3    3  502    0  0.54510399033E+03 -0.13251923433E+04  0.33728626591E+03  0.14720853006E+04  0.25500000920E-02 0. -1.
       -2    1    3    3    0  502 -0.54510399033E+03  0.13251923433E+04 -0.85065815296E+03  0.16664010322E+04  0.25500000920E-02 0.  1.
</event>
<event>
 5   0  0.4517409E-08  0.3094279E+04  0.7818609E-02  0.8217310E-01
       -1   -1    0    0    0  501  0.00000000000E+00  0.00000000000E+00  0.93650392937E+03  0.93650392938E+03  0.50400001928E-02 0.  1.
        1   -1    0    0  501    0  0.00000000000E+00  0.00000000000E+00 -0.25559319474E+04  0.25559319474E+04  0.50400001928E-02 0. -1.
    10030    2    1    2    0    0  0.00000000000E+00  0.00000000000E+00 -0.16194280181E+04  0.34924358768E+04  0.30942787929E+04 0.  0.
        2    1    3    3  502    0  0.94948622895E+03 -0.44252830432E+03 -0.20947616637E+04  0.23420892013E+04  0.25500000920E-02 0. -1.
       -2    1    3    3    0  502 -0.94948622895E+03  0.44252830432E+03  0.47533364567E+03  0.11503466755E+04  0.25500000920E-02 0.  1.
</event>
<event>
 5   0  0.4436241E-08  0.3098850E+04  0.7818609E-02  0.8216054E-01
        1   -1    0    0  501    0  0.00000000000E+00  0.00000000000E+00  0.10536702957E+04  0.10536702957E+04  0.50400001928E-02 0.  1.
       -1   -1    0    0    0  501  0.00000000000E+00  0.00000000000E+00 -0.22784334027E+04  0.22784334027E+04  0.50400001928E-02 0. -1.
    10030    2    1    2    0    0  0.00000000000E+00  0.00000000000E+00 -0.12247631070E+04  0.33321036984E+04  0.30988498494E+04 0.  0.
        3    1    3    3  502    0 -0.34878761786E+03  0.11180266845E+04  0.47841254531E+03  0.12651146365E+04  0.10100000352E+00 0.  1.
       -3    1    3    3    0  502  0.34878761786E+03 -0.11180266845E+04 -0.17031756523E+04  0.20669890620E+04  0.10100000352E+00 0. -1.
</event>
<event>
 5   0  0.1318916E-07  0.3096704E+04  0.7818609E-02  0.8216643E-01
       -2   -1    0    0    0  501  0.00000000000E+00  0.00000000000E+00  0.12465248153E+04  0.12465248153E+04  0.25500000920E-02 0.  1.
        2   -1    0    0  501    0  0.00000000000E+00  0.00000000000E+00 -0.19232626490E+04  0.19232626490E+04  0.25500000920E-02 0. -1.
    10030    2    1    2    0    0  0.00000000000E+00  0.00000000000E+00 -0.67673783366E+03  0.31697874643E+04  0.30967044537E+04 0.  0.
        5    1    3    3  502    0 -0.81242780248E+03  0.24555899947E+03  0.98719711554E+03  0.13018903147E+04  0.46999998093E+01 0.  1.
       -5    1    3    3    0  502  0.81242780248E+03 -0.24555899947E+03 -0.16639349492E+04  0.18678971496E+04  0.46999998093E+01 0. -1.
</event>
<event>
 5   0  0.1329777E-07  0.3100088E+04  0.7818609E-02  0.8215714E-01
       -2   -1    0    0    0  501  0.00000000000E+00  0.00000000000E+00  0.13231909096E+04  0.13231909096E+04  0.25500000920E-02 0.  1.
        2   -1    0    0  501    0  0.00000000000E+00  0.00000000000E+00 -0.18157896547E+04  0.18157896547E+04  0.25500000920E-02 0. -1.
    10030    2    1    2    0    0  0.00000000000E+00  0.00000000000E+00 -0.49259874516E+03  0.31389805643E+04  0.31000879760E+04 0.  0.
        1    1    3    3  502    0 -0.11579559544E+04  0.58652109277E+03 -0.11041397158E+04  0.17041107642E+04  0.50400001928E-02 0.  1.
       -1    1    3    3    0  502  0.11579559544E+04 -0.58652109277E+03  0.61154097063E+03  0.14348698001E+04  0.50400001928E-02 0. -1.
</event>
<event>
 5   0  0.4450600E-08  0.3101587E+04  0.7818609E-02  0.8215303E-01
        1   -1    0    0  501    0  0.00000000000E+00  0.00000000000E+00  0.14666562062E+04  0.14666562062E+04  0.50400001928E-02 0.  1.
       -1   -1    0    0    0  501  0.00000000000E+00  0.00000000000E+00 -0.16397570836E+04  0.16397570836E+04  0.50400001928E-02 0. -1.
    10030    2    1    2    0    0  0.00000000000E+00  0.00000000000E+00 -0.17310087745E+03  0.31064132898E+04  0.31015866284E+04 0.  0.
        4    1    3    3  502    0 -0.10868312089E+04  0.59544724490E+03 -0.10203096026E+04  0.16052391710E+04  0.12699999809E+01 0. -1.
       -4    1    3    3    0  502  0.10868312089E+04 -0.59544724490E+03  0.84720872519E+03  0.15011741188E+04  0.12699999809E+01 0.  1.
</event>
<event>
 5   0  0.4436241E-08  0.3101131E+04  0.7818609E-02  0.8215427E-01
        1   -1    0    0  501    0  0.00000000000E+00  0.00000000000E+00  0.16266570488E+04  0.16266570489E+04  0.50400001928E-02 0. -1.
       -1   -1    0    0    0  501  0.00000000000E+00  0.00000000000E+00 -0.14780337387E+04  0.14780337387E+04  0.50400001928E-02 0.  1.
    10030    2    1    2    0    0  0.00000000000E+00  0.00000000000E+00  0.14862331019E+03  0.31046907875E+04  0.31011314061E+04 0.  0.
        3    1    3    3  502    0 -0.74511211969E+03  0.96371482777E+03 -0.88612026879E+03  0.15063689724E+04  0.10100000352E+00 0.  1.
       -3    1    3    3    0  502  0.74511211969E+03 -0.96371482777E+03  0.10347435790E+04  0.15983218151E+04  0.10100000352E+00 0. -1.
</event>
<event>
 5   0  0.1318916E-07  0.3099477E+04  0.7818609E-02  0.8215881E-01
        2   -1    0    0  501    0  0.00000000000E+00  0.00000000000E+00  0.27938453246E+04  0.27938453246E+04  0.25500000920E-02 0. -1.
       -2   -1    0    0    0  501  0.00000000000E+00  0.00000000000E+00 -0.85963583878E+03  0.85963583878E+03  0.25500000920E-02 0.  1.
    10030    2    1    2    0    0  0.00000000000E+00  0.00000000000E+00  0.19342094858E+04  0.36534811633E+04  0.30994770972E+04 0.  0.
        5    1    3    3  502    0 -0.12495276638E+04 -0.52459839842E+03  0.80973113249E+02  0.13576087791E+04  0.46999998093E+01 0.  1.
       -5    1    3    3    0  502  0.12495276638E+04  0.52459839842E+03  0.18532363725E+04  0.22958723842E+04  0.46999998093E+01 0. -1.
</event>
<event>
 5   0  0.4517409E-08  0.3099374E+04  0.7818609E-02  0.8215910E-01
        1   -1    0    0  501    0  0.00000000000E+00  0.00000000000E+00  0.13751219471E+04  0.13751219471E+04  0.50400001928E-02 0. -1.
       -1   -1    0    0    0  501  0.00000000000E+00  0.00000000000E+00 -0.17464117806E+04  0.17464117806E+04  0.50400001928E-02 0.  1.
    10030    2    1    2    0    0  0.00000000000E+00  0.00000000000E+00 -0.37128983352E+03  0.31215337277E+04  0.30993735936E+04 0.  0.
        2    1    3    3  502    0 -0.16774372926E+03  0.27956902715E+03  0.13401895933E+04  0.13792769648E+04  0.25500000920E-02 0. -1.
       -2    1    3    3    0  502  0.16774372926E+03 -0.27956902715E+03 -0.17114794268E+04  0.17422567629E+04  0.25500000920E-02 0.  1.
</event>
<event>
 5   0  0.1377237E-07  0.3107973E+04  0.7818609E-02  0.8213553E-01
       -2   -1    0    0    0  501  0.00000000000E+00  0.00000000000E+00  0.17548625613E+04  0.17548625613E+04  0.25500000920E-02 0.  1.
        2   -1    0    0  501    0  0.00000000000E+00  0.00000000000E+00 -0.13761042678E+04  0.13761042678E+04  0.25500000920E-02 0. -1.
    10030    2    1    2    0    0  0.00000000000E+00  0.00000000000E+00  0.37875829345E+03  0.31309668291E+04  0.31079728828E+04 0.  0.
        2    1    3    3  502    0  0.13063484841E+04 -0.49582672398E+03  0.87447178436E+03  0.16483602167E+04  0.25500000920E-02 0.  1.
       -2    1    3    3    0  502 -0.13063484841E+04  0.49582672398E+03 -0.49571349091E+03  0.14826066124E+04  0.25500000920E-02 0. -1.
</event>
<event>
 5   0  0.1325713E-07  0.3100227E+04  0.7818609E-02  0.8215676E-01
       -2   -1    0    0    0  501  0.00000000000E+00  0.00000000000E+00  0.10911524827E+04  0.10911524827E+04  0.25500000920E-02 0. -1.
        2   -1    0    0  501    0  0.00000000000E+00  0.00000000000E+00 -0.22021224763E+04  0.22021224763E+04  0.25500000920E-02 0.  1.
    10030    2    1    2    0    0  0.00000000000E+00  0.00000000000E+00 -0.11109699936E+04  0.32932749589E+04  0.31002267060E+04 0.  0.
        4    1    3    3  502    0 -0.68529738204E+03  0.53951926693E+03  0.80576889180E+03  0.11874252234E+04  0.12699999809E+01 0. -1.
       -4    1    3    3    0  502  0.68529738204E+03 -0.53951926693E+03 -0.19167388854E+04  0.21058497356E+04  0.12699999809E+01 0.  1.
</event>
<event>
 5   0  0.4470354E-08  0.3100702E+04  0.7818609E-02  0.8215545E-01
        1   -1    0    0  501    0  0.00000000000E+00  0.00000000000E+00  0.18698805312E+04  0.18698805313E+04  0.50400001928E-02 0.  1.
       -1   -1    0    0    0  501  0.00000000000E+00  0.00000000000E+00 -0.12854232381E+04  0.12854232381E+04  0.50400001928E-02 0. -1.
    10030    2    1    2    0    0  0.00000000000E+00  0.00000000000E+00  0.58445729315E+03  0.31553037694E+04  0.31007017834E+04 0.  0.
        1    1    3    3  502    0 -0.25916758568E+02 -0.12589056628E+04  0.12126297659E+04  0.17481378937E+04  0.50400001928E-02 0.  1.
       -1    1    3    3    0  502  0.25916758568E+02  0.12589056628E+04 -0.62817247272E+03  0.14071658757E+04  0.50400001928E-02 0. -1.
</event>
<event>
 5   0  0.4470354E-08  0.3099300E+04  0.7818609E-02  0.8215930E-01
        1   -1    0    0  501    0  0.00000000000E+00  0.00000000000E+00  0.11434408343E+04  0.11434408343E+04  0.50400001928E-02 0.  1.
       -1   -1    0    0    0  501  0.00000000000E+00  0.00000000000E+00 -0.21001662778E+04  0.21001662778E+04  0.50400001928E-02 0. -1.
    10030    2    1    2    0    0  0.00000000000E+00  0.00000000000E+00 -0.95672544350E+03  0.32436071122E+04  0.30993004895E+04 0.  0.
        1    1    3    3  502    0  0.35391669771E+03 -0.14717363715E+04 -0.13101968751E+03  0.15193522089E+04  0.50400001928E-02 0.  1.
       -1    1    3    3    0  502 -0.35391669771E+03  0.14717363715E+04 -0.82570575599E+03  0.17242549033E+04  0.50400001928E-02 0. -1.
</event>
<event>
 5   0  0.4436241E-08  0.3097170E+04  0.7818609E-02  0.8216515E-01
        1   -1    0    0  501    0  0.00000000000E+00  0.00000000000E+00  0.30107752579E+04  0.30107752579E+04  0.50400001928E-02 0. -1.
       -1   -1    0    0    0  501  0.00000000000E+00  0.00000000000E+00 -0.79651085916E+03  0.79651085918E+03  0.50400001928E-02 0.  1.
    10030    2    1    2    0    0  0.00000000000E+00  0.00000000000E+00  0.22142643987E+04  0.38072861170E+04  0.30971697967E+04 0.  0.
        3    1    3    3  502    0 -0.10379034798E+03 -0.15418428653E+04  0.98381571620E+03  0.18319239153E+04  0.10100000352E+00 0.  1.
       -3    1    3    3    0  502  0.10379034798E+03  0.15418428653E+04  0.12304486825E+04  0.19753622018E+04  0.10100000352E+00 0. -1.
</event>
<event>
 5   0  0.1329777E-07  0.3101381E+04  0.7818609E-02  0.8215359E-01
       -2   -1    0    0    0  501  0.00000000000E+00  0.00000000000E+00  0.21736562431E+04  0.21736562431E+04  0.25500000920E-02 0.  1.
        2   -1    0    0  501    0  0.00000000000E+00  0.00000000000E+00 -0.11062652460E+04  0.11062652460E+04  0.25500000920E-02 0. -1.
    10030    2    1    2    0    0  0.00000000000E+00  0.00000000000E+00  0.10673909972E+04  0.32799214891E+04  0.31013805690E+04 0.  0.
        1    1    3    3  502    0 -0.62920880165E+03 -0.92577066330E+03  0.16686417700E+04  0.20093084367E+04  0.50400001928E-02 0.  1.
       -1    1    3    3    0  502  0.62920880165E+03  0.92577066330E+03 -0.60125077282E+03  0.12706130524E+04  0.50400001928E-02 0. -1.
</event>
<event>
 5   0  0.1325713E-07  0.3100256E+04  0.7818609E-02  0.8215668E-01
       -2   -1    0    0    0  501  0.00000000000E+00  0.00000000000E+00  0.88101526849E+03  0.88101526850E+03  0.25500000920E-02 0.  1.
        2   -1    0    0  501    0  0.00000000000E+00  0.00000000000E+00 -0.27274176331E+04  0.27274176331E+04  0.25500000920E-02 0. -1.
    10030    2    1    2    0    0  0.00000000000E+00  0.00000000000E+00 -0.18464023646E+04  0.36084329016E+04  0.31002558464E+04 0.  0.
        4    1    3    3  502    0  0.40586370998E+03 -0.97187060747E+03 -0.22470162993E+04  0.24816006309E+04  0.12699999809E+01 0.  1.
       -4    1    3    3    0  502 -0.40586370998E+03  0.97187060747E+03  0.40061393473E+03  0.11268322707E+04  0.12699999809E+01 0. -1.
</event>
<event>
 5   0  0.4450600E-08  0.3100082E+04  0.7818609E-02  0.8215715E-01
        1   -1    0    0  501    0  0.00000000000E+00  0.00000000000E+00  0.11735251540E+04  0.11735251540E+04  0.50400001928E-02 0. -1.
       -1   -1    0    0    0  501  0.00000000000E+00  0.00000000000E+00 -0.20473586535E+04  0.20473586535E+04  0.50400001928E-02 0.  1.
    10030    2    1    2    0    0  0.00000000000E+00  0.00000000000E+00 -0.87383349950E+03  0.32208838075E+04  0.31000818564E+04 0.  0.
        4    1    3    3  502    0  0.11667222747E+04  0.10128021779E+04 -0.56675087673E+03  0.16456662137E+04  0.12699999809E+01 0. -1.
       -4    1    3    3    0  502 -0.11667222747E+04 -0.10128021779E+04 -0.30708262277E+03  0.15752175938E+04  0.12699999809E+01 0.  1.
</event>
<event>
 5   0  0.4838602E-08  0.3104601E+04  0.7818609E-02  0.8214476E-01
       -1   -1    0    0    0  501  0.00000000000E+00  0.00000000000E+00  0.11684577481E+04  0.11684577481E+04  0.50400001928E-02 0. -1.
        1   -1    0    0  501    0  0.00000000000E+00  0.00000000000E+00 -0.20622374874E+04  0.20622374874E+04  0.50400001928E-02 0.  1.
    10030    2    1    2    0    0  0.00000000000E+00  0.00000000000E+00 -0.89377973930E+03  0.32306952355E+04  0.31046013403E+04 0.  0.
        5    1    3    3  502    0 -0.15627304347E+03  0.10922176214E+03  0.11562197986E+04  0.11718434068E+04  0.46999998093E+01 0. -1.
       -5    1    3    3    0  502  0.15627304347E+03 -0.10922176214E+03 -0.20499995379E+04  0.20588518287E+04  0.46999998093E+01 0.  1.
</event>
<event>
 5   0  0.1329777E-07  0.3099235E+04  0.7818609E-02  0.8215948E-01
       -2   -1    0    0    0  501  0.00000000000E+00  0.00000000000E+00  0.13915769218E+04  0.13915769218E+04  0.25500000920E-02 0.  1.
        2   -1    0    0  501    0  0.00000000000E+00  0.00000000000E+00 -0.17256061297E+04  0.17256061297E+04  0.25500000920E-02 0. -1.
    10030    2    1    2    0    0  0.00000000000E+00  0.00000000000E+00 -0.33402920787E+03  0.31171830516E+04  0.30992345289E+04 0.  0.
        1    1    3    3  502    0  0.15243501079E+04  0.25838158851E+03 -0.27206741798E+03  0.15698487114E+04  0.50400001928E-02 0. -1.
       -1    1    3    3    0  502 -0.15243501079E+04 -0.25838158851E+03 -0.61961789895E+02  0.15473343402E+04  0.50400001928E-02 0.  1.
</event>
<event>
 5   0  0.4436241E-08  0.3100511E+04  0.7818609E-02  0.8215598E-01
       -1   -1    0    0    0  501  0.00000000000E+00  0.00000000000E+00  0.13118909408E+04  0.13118909408E+04  0.50400001928E-02 0. -1.
        1   -1    0    0  501    0  0.00000000000E+00  0.00000000000E+00 -0.18319296604E+04  0.18319296604E+04  0.50400001928E-02 0.  1.
    10030    2    1    2    0    0  0.00000000000E+00  0.00000000000E+00 -0.52003871961E+03  0.31438206012E+04  0.31005108777E+04 0.  0.
        3    1    3    3  502    0 -0.50200032986E+03 -0.13950360399E+04  0.19925583673E+03  0.14959387630E+04  0.10100000352E+00 0. -1.
       -3    1    3    3    0  502  0.50200032986E+03  0.13950360399E+04 -0.71929455634E+03  0.16478818383E+04  0.10100000352E+00 0.  1.
</event>
<event>
 5   0  0.1377237E-07  0.3100402E+04  0.7818609E-02  0.8215628E-01
        2   -1    0    0  501    0  0.00000000000E+00  0.00000000000E+00  0.14528977270E+04  0.14528977270E+04  0.25500000920E-02 0. -1.
       -2   -1    0    0    0  501  0.00000000000E+00  0.00000000000E+00 -0.16540211090E+04  0.16540211090E+04  0.25500000920E-02 0.  1.
    10030    2    1    2    0    0  0.00000000000E+00  0.00000000000E+00 -0.20112338201E+03  0.31069188361E+04  0.31004022383E+04 0.  0.
        2    1    3    3  502    0  0.13828366497E+04 -0.54034438975E+02  0.59945260586E+03  0.15081446705E+04  0.25500000920E-02 0. -1.
       -2    1    3    3    0  502 -0.13828366497E+04  0.54034438975E+02 -0.80057598787E+03  0.15987741656E+04  0.25500000920E-02 0.  1.
</event>
<event>
 5   0  0.1377237E-07  0.3099376E+04  0.7818609E-02  0.8215909E-01
        2   -1    0    0  501    0  0.00000000000E+00  0.00000000000E+00  0.15649886277E+04  0.15649886277E+04  0.25500000920E-02 0. -1.
       -2   -1    0    0    0  501  0.00000000000E+00  0.00000000000E+00 -0.15345371573E+04  0.15345371573E+04  0.25500000920E-02 0.  1.
    10030    2    1    2    0    0  0.00000000000E+00  0.00000000000E+00  0.30451470381E+02  0.30995257850E+04  0.30993761952E+04 0.  0.
        2    1    3    3  502    0  0.81144642182E+03  0.89177140489E+02 -0.13020832023E+04  0.15368209146E+04  0.25500000920E-02 0.  1.
       -2    1    3    3    0  502 -0.81144642182E+03 -0.89177140489E+02  0.13325346727E+04  0.15627048703E+04  0.25500000920E-02 0. -1.
</event>
<event>
 5   0  0.1325713E-07  0.3096411E+04  0.7818609E-02  0.8216724E-01
       -2   -1    0    0    0  501  0.00000000000E+00  0.00000000000E+00  0.15000602452E+04  0.15000602452E+04  0.25500000920E-02 0.  1.
        2   -1    0    0  501    0  0.00000000000E+00  0.00000000000E+00 -0.15978956545E+04  0.15978956545E+04  0.25500000920E-02 0. -1.
    10030    2    1    2    0    0  0.00000000000E+00  0.00000000000E+00 -0.97835409302E+02  0.30979558997E+04  0.30964106622E+04 0.  0.
        4    1    3    3  502    0 -0.93483227925E+03 -0.10748636069E+04 -0.65559888309E+03  0.15681373257E+04  0.12699999809E+01 0. -1.
       -4    1    3    3    0  502  0.93483227925E+03  0.10748636069E+04  0.55776347379E+03  0.15298185740E+04  0.12699999809E+01 0.  1.
</event>
<event>
 5   0  0.1318916E-07  0.3100750E+04  0.7818609E-02  0.8215532E-01
        2   -1    0    0  501    0  0.00000000000E+00  0.00000000000E+00  0.10061483657E+04  0.10061483657E+04  0.25500000920E-02 0.  1.
       -2   -1    0    0    0  501  0.00000000000E+00  0.00000000000E+00 -0.23889749511E+04  0.23889749511E+04  0.25500000920E-02 0. -1.
    10030    2    1    2    0    0  0.00000000000E+00  0.00000000000E+00 -0.13828265854E+04  0.33951233168E+04  0.31007503884E+04 0.  0.
        5    1    3    3  502    0 -0.12066911896E+04 -0.89551914280E+03 -0.27363673756E+03  0.15274021463E+04  0.46999998093E+01 0. -1.
       -5    1    3    3    0  502  0.12066911896E+04  0.89551914280E+03 -0.11091898478E+04  0.18677211705E+04  0.46999998093E+01 0.  1.
</event>
<event>
 5   0  0.1329777E-07  0.3099104E+04  0.7818609E-02  0.8215984E-01
       -2   -1    0    0    0  501  0.00000000000E+00  0.00000000000E+00  0.12711656012E+04  0.12711656012E+04  0.25500000920E-02 0.  1.
        2   -1    0    0  501    0  0.00000000000E+00  0.00000000000E+00 -0.18889053736E+04  0.18889053736E+04  0.25500000920E-02 0. -1.
    10030    2    1    2    0    0  0.00000000000E+00  0.00000000000E+00 -0.61773977241E+03  0.31600709749E+04  0.30991040866E+04 0.  0.
        1    1    3    3  502    0  0.14162181686E+04  0.53004329138E+03  0.36152883992E+02  0.15125894429E+04  0.50400001928E-02 0.  1.
       -1    1    3    3    0  502 -0.14162181686E+04 -0.53004329138E+03 -0.65389265640E+03  0.16474815319E+04  0.50400001928E-02 0. -1.
</event>
<event>
 5   0  0.1318916E-07  0.3104234E+04  0.7818609E-02  0.8214577E-01
        2   -1    0    0  501    0  0.00000000000E+00  0.00000000000E+00  0.14473015799E+04  0.14473015799E+04  0.25500000920E-02 0. -1.
       -2   -1    0    0    0  501  0.00000000000E+00  0.00000000000E+00 -0.16645229289E+04  0.16645229289E+04  0.25500000920E-02 0.  1.
    10030    2    1    2    0    0  0.00000000000E+00  0.00000000000E+00 -0.21722134895E+03  0.31118245088E+04  0.31042336670E+04 0.  0.
        5    1    3    3  502    0 -0.15001295513E+04 -0.36129617043E+03  0.59492504932E+02  0.15441777882E+04  0.46999998093E+01 0. -1.
       -5    1    3    3    0  502  0.15001295513E+04  0.36129617043E+03 -0.27671385388E+03  0.15676467206E+04  0.46999998093E+01 0.  1.
</event>
<event>
 5   0  0.4450600E-08  0.3102595E+04  0.7818609E-02  0.8215026E-01
        1   -1    0    0  501    0  0.00000000000E+00  0.00000000000E+00  0.20063348891E+04  0.20063348892E+04  0.50400001928E-02 0. -1.
       -1   -1    0    0    0  501  0.00000000000E+00  0.00000000000E+00 -0.11994627917E+04  0.11994627917E+04  0.50400001928E-02 0.  1.
    10030    2    1    2    0    0  0.00000000000E+00  0.00000000000E+00  0.80687209749E+03  0.32057976808E+04  0.31025950733E+04 0.  0.
        4    1    3    3  502    0  0.39171353235E+03  0.47574515478E+03  0.18744305460E+04  0.19731356843E+04  0.12699999809E+01 0. -1.
       -4    1    3    3    0  502 -0.39171353235E+03 -0.47574515478E+03 -0.10675584486E+04  0.12326619965E+04  0.12699999809E+01 0.  1.
</event>
<event>
 5   0  0.4838602E-08  0.3099756E+04  0.7818609E-02  0.8215805E-01
        1   -1    0    0  501    0  0.00000000000E+00  0.00000000000E+00  0.25881459167E+04  0.25881459167E+04  0.50400001928E-02 0. -1.
       -1   -1    0    0    0  501  0.00000000000E+00  0.00000000000E+00 -0.92812436047E+03  0.92812436048E+03  0.50400001928E-02 0.  1.
    10030    2    1    2    0    0  0.00000000000E+00  0.00000000000E+00  0.16600215563E+04  0.35162702772E+04  0.30997556509E+04 0.  0.
        5    1    3    3  502    0  0.13021322956E+04 -0.78988628627E+03  0.11560910433E+04  0.19120767377E+04  0.46999998093E+01 0.  1.
       -5    1    3    3    0  502 -0.13021322956E+04  0.78988628627E+03  0.50393051297E+03  0.16041935395E+04  0.46999998093E+01 0. -1.
</event>
<event>
 5   0  0.1325713E-07  0.3098343E+04  0.7818609E-02  0.8216193E-01
       -2   -1    0    0    0  501  0.00000000000E+00  0.00000000000E+00  0.20493879596E+04  0.20493879597E+04  0.25500000920E-02 0. -1.
        2   -1    0    0  501    0  0.00000000000E+00  0.00000000000E+00 -0.11710481748E+04  0.11710481748E+04  0.25500000920E-02 0.  1.
    10030    2    1    2    0    0  0.00000000000E+00  0.00000000000E+00  0.87833978490E+03  0.32204361344E+04  0.30983428019E+04 0.  0.
        4    1    3    3  502    0 -0.14396562965E+04 -0.36111094795E+03  0.90041214877E+03  0.17360169986E+04  0.12699999809E+01 0.  1.
       -4    1    3    3    0  502  0.14396562965E+04  0.36111094795E+03 -0.22072363869E+02  0.14844191358E+04  0.12699999809E+01 0. -1.
</event>
<event>
 5   0  0.1377237E-07  0.3100540E+04  0.7818609E-02  0.8215590E-01
       -2   -1    0    0    0  501  0.00000000000E+00  0.00000000000E+00  0.13239615493E+04  0.13239615493E+04  0.25500000920E-02 0. -1.
        2   -1    0    0  501    0  0.00000000000E+00  0.00000000000E+00 -0.18152621055E+04  0.18152621055E+04  0.25500000920E-02 0.  1.
    10030    2    1    2    0    0  0.00000000000E+00  0.00000000000E+00 -0.49130055627E+03  0.31392236548E+04  0.31005401011E+04 0.  0.
        2    1    3    3  502    0  0.11842589593E+04 -0.96615481691E+03  0.17228872141E+02  0.15284702310E+04  0.25500000920E-02 0. -1.
       -2    1    3    3    0  502 -0.11842589593E+04  0.96615481691E+03 -0.50852942841E+03  0.16107534239E+04  0.25500000920E-02 0.  1.
</event>
<event>
 5   0  0.4838602E-08  0.3101788E+04  0.7818609E-02  0.8215247E-01
        1   -1    0    0  501    0  0.00000000000E+00  0.00000000000E+00  0.16373048131E+04  0.16373048131E+04  0.50400001928E-02 0. -1.
       -1   -1    0    0    0  501  0.00000000000E+00  0.00000000000E+00 -0.14690435477E+04  0.14690435477E+04  0.50400001928E-02 0.  1.
    10030    2    1    2    0    0  0.00000000000E+00  0.00000000000E+00  0.16826126539E+03  0.31063483608E+04  0.31017879175E+04 0.  0.
        5    1    3    3  502    0 -0.12217061285E+04  0.87716349164E+03  0.46319516501E+03  0.15737069315E+04  0.46999998093E+01 0. -1.
       -5    1    3    3    0  502  0.12217061285E+04 -0.87716349164E+03 -0.29493389962E+03  0.15326414292E+04  0.46999998093E+01 0.  1.
</event>
<event>
 5   0  0.4450600E-08  0.3099970E+04  0.7818609E-02  0.8215746E-01
        1   -1    0    0  501    0  0.00000000000E+00  0.00000000000E+00  0.17703090402E+04  0.17703090402E+04  0.50400001928E-02 0.  1.
       -1   -1    0    0    0  501  0.00000000000E+00  0.00000000000E+00 -0.13570813129E+04  0.13570813129E+04  0.50400001928E-02 0. -1.
    10030    2    1    2    0    0  0.00000000000E+00  0.00000000000E+00  0.41322772725E+03  0.31273903531E+04  0.30999698815E+04 0.  0.
        4    1    3    3  502    0 -0.86652375098E+03 -0.87055893750E+03 -0.74711350516E+03  0.14376774594E+04  0.12699999809E+01 0. -1.
       -4    1    3    3    0  502  0.86652375098E+03  0.87055893750E+03  0.11603412324E+04  0.16897128937E+04  0.12699999809E+01 0.  1.
</event>
<event>
 5   0  0.1318916E-07  0.3099153E+04  0.7818609E-02  0.8215970E-01
        2   -1    0    0  501    0  0.00000000000E+00  0.00000000000E+00  0.27888758081E+04  0.27888758081E+04  0.25500000920E-02 0. -1.
       -2   -1    0    0    0  501  0.00000000000E+00  0.00000000000E+00 -0.86098776686E+03  0.86098776687E+03  0.25500000920E-02 0.  1.
    10030    2    1    2    0    0  0.00000000000E+00  0.00000000000E+00  0.19278880412E+04  0.36498635750E+04  0.30991534032E+04 0.  0.
        5    1    3    3  502    0  0.12688058314E+03  0.15307915155E+04  0.72332315648E+03  0.16978338626E+04  0.46999998093E+01 0.  1.
       -5    1    3    3    0  502 -0.12688058314E+03 -0.15307915155E+04  0.12045648847E+04  0.19520297123E+04  0.46999998093E+01 0. -1.
</event>
<event>
 5   0  0.4517409E-08  0.3100223E+04  0.7818609E-02  0.8215677E-01
       -1   -1    0    0    0  501  0.00000000000E+00  0.00000000000E+00  0.15633683678E+04  0.15633683678E+04  0.50400001928E-02 0. -1.
        1   -1    0    0  501    0  0.00000000000E+00  0.00000000000E+00 -0.15369674085E+04  0.15369674085E+04  0.50400001928E-02 0.  1.
    10030    2    1    2    0    0  0.00000000000E+00  0.00000000000E+00  0.26400959285E+02  0.31003357763E+04  0.31002233654E+04 0.  0.
        2    1    3    3  502    0 -0.23921053145E+02  0.14273781817E+04  0.61726338880E+03  0.15553117956E+04  0.25500000920E-02 0. -1.
       -2    1    3    3    0  502  0.23921053145E+02 -0.14273781817E+04 -0.59086242951E+03  0.15450239807E+04  0.25500000920E-02 0.  1.
</event>
<event>
 5   0  0.4436241E-08  0.3096498E+04  0.7818609E-02  0.8216700E-01
        1   -1    0    0  501    0  0.00000000000E+00  0.00000000000E+00  0.11482129720E+04  0.11482129720E+04  0.50400001928E-02 0.  1.
       -1   -1    0    0    0  501  0.00000000000E+00  0.00000000000E+00 -0.20876575195E+04  0.20876575195E+04  0.50400001928E-02 0. -1.
    10030    2    1    2    0    0  0.00000000000E+00  0.00000000000E+00 -0.93944454752E+03  0.32358704915E+04  0.30964983093E+04 0.  0.
        3    1    3    3  502    0  0.64467211402E+03 -0.12760967577E+04 -0.10906465172E+04  0.17982032436E+04  0.10100000352E+00 0. -1.
       -3    1    3    3    0  502 -0.64467211402E+03  0.12760967577E+04  0.15120196967E+03  0.14376672479E+04  0.10100000352E+00 0.  1.
</event>
<event>
 5   0  0.4470354E-08  0.3099143E+04  0.7818609E-02  0.8215973E-01
        1   -1    0    0  501    0  0.00000000000E+00  0.00000000000E+00  0.15211206448E+04  0.15211206448E+04  0.50400001928E-02 0. -1.
       -1   -1    0    0    0  501  0.00000000000E+00  0.00000000000E+00 -0.15785549760E+04  0.15785549760E+04  0.50400001928E-02 0.  1.
    10030    2    1    2    0    0  0.00000000000E+00  0.00000000000E+00 -0.57434331186E+02  0.30996756208E+04  0.30991434706E+04 0.  0.
        1    1    3    3  502    0  0.25945860450E+03 -0.12930973871E+04 -0.84233883444E+03  0.15649135222E+04  0.50400001928E-02 0.  1.
       -1    1    3    3    0  502 -0.25945860450E+03  0.12930973871E+04  0.78490450325E+03  0.15347620986E+04  0.50400001928E-02 0. -1.
</event>
<event>
 5   0  0.1329777E-07  0.3105566E+04  0.7818609E-02  0.8214212E-01
       -2   -1    0    0    0  501  0.00000000000E+00  0.00000000000E+00  0.17181366754E+04  0.17181366754E+04  0.25500000920E-02 0.  1.
        2   -1    0    0  501    0  0.00000000000E+00  0.00000000000E+00 -0.14033428494E+04  0.14033428494E+04  0.25500000920E-02 0. -1.
    10030    2    1    2    0    0  0.00000000000E+00  0.00000000000E+00  0.31479382600E+03  0.31214795247E+04  0.31055658535E+04 0.  0.
        1    1    3    3  502    0  0.43233945987E+03 -0.11148768167E+03 -0.13374319922E+04  0.14099898034E+04  0.50400001928E-02 0. -1.
       -1    1    3    3    0  502 -0.43233945987E+03  0.11148768167E+03  0.16522258182E+04  0.17114897213E+04  0.50400001928E-02 0.  1.
</event>
<event>
 5   0  0.1398931E-07  0.3102884E+04  0.7818609E-02  0.8214947E-01
       -2   -1    0    0    0  501  0.00000000000E+00  0.00000000000E+00  0.79974995754E+03  0.79974995754E+03  0.25500000920E-02 0.  1.
        2   -1    0    0  501    0  0.00000000000E+00  0.00000000000E+00 -0.30096551397E+04  0.30096551397E+04  0.25500000920E-02 0. -1.
    10030    2    1    2    0    0  0.00000000000E+00  0.00000000000E+00 -0.22099051822E+04  0.38094050972E+04  0.31028835429E+04 0.  0.
        3    1    3    3  502    0  0.74357387572E+03  0.88660808771E+03  0.16379842824E+03  0.11686770063E+04  0.10100000352E+00 0.  1.
       -3    1    3    3    0  502 -0.74357387572E+03 -0.88660808771E+03 -0.23737036104E+04  0.26407280909E+04  0.10100000352E+00 0. -1.
</event>
<event>
 5   0  0.1318916E-07  0.3101738E+04  0.7818609E-02  0.8215261E-01
       -2   -1    0    0    0  501  0.00000000000E+00  0.00000000000E+00  0.11663103473E+04  0.11663103473E+04  0.25500000920E-02 0. -1.
        2   -1    0    0  501    0  0.00000000000E+00  0.00000000000E+00 -0.20622249891E+04  0.20622249891E+04  0.25500000920E-02 0.  1.
    10030    2    1    2    0    0  0.00000000000E+00  0.00000000000E+00 -0.89591464178E+03  0.32285353364E+04  0.31017377988E+04 0.  0.
        5    1    3    3  502    0  0.10160554122E+04  0.99304172455E+03  0.19929214938E+03  0.14346567249E+04  0.46999998093E+01 0. -1.
       -5    1    3    3    0  502 -0.10160554122E+04 -0.99304172455E+03 -0.10952067912E+04  0.17938786115E+04  0.46999998093E+01 0.  1.
</event>
<event>
 5   0  0.1325713E-07  0.3099251E+04  0.7818609E-02  0.8215943E-01
        2   -1    0    0  501    0  0.00000000000E+00  0.00000000000E+00  0.11523634046E+04  0.11523634046E+04  0.25500000920E-02 0.  1.
       -2   -1    0    0    0  501  0.00000000000E+00  0.00000000000E+00 -0.20838386298E+04  0.20838386298E+04  0.25500000920E-02 0. -1.
    10030    2    1    2    0    0  0.00000000000E+00  0.00000000000E+00 -0.93147522523E+03  0.32362020344E+04  0.30992511212E+04 0.  0.
        4    1    3    3  502    0  0.39384645514E+02 -0.10961456163E+04  0.67727976356E+03  0.12891066106E+04  0.12699999809E+01 0.  1.
       -4    1    3    3    0  502 -0.39384645514E+02  0.10961456163E+04 -0.16087549888E+04  0.19470954238E+04  0.12699999809E+01 0. -1.
</event>
<event>
 5   0  0.1329777E-07  0.3099390E+04  0.7818609E-02  0.8215905E-01
       -2   -1    0    0    0  501  0.00000000000E+00  0.00000000000E+00  0.18783040337E+04  0.18783040337E+04  0.25500000920E-02 0.  1.
        2   -1    0    0  501    0  0.00000000000E+00  0.00000000000E+00 -0.12785758571E+04  0.12785758571E+04  0.25500000920E-02 0. -1.
    10030    2    1    2    0    0  0.00000000000E+00  0.00000000000E+00  0.59972817658E+03  0.31568798908E+04  0.30993897398E+04 0.  0.
        1    1    3    3  502    0 -0.37624604882E+03 -0.15013719955E+04  0.22179225643E+03  0.15636082512E+04  0.50400001928E-02 0. -1.
       -1    1    3    3    0  502  0.37624604882E+03  0.15013719955E+04  0.37793592015E+03  0.15932716397E+04  0.50400001928E-02 0.  1.
</event>
<event>
 5   0  0.4517409E-08  0.3100694E+04  0.7818609E-02  0.8215547E-01
       -1   -1    0    0    0  501  0.00000000000E+00  0.00000000000E+00  0.18494469450E+04  0.18494469450E+04  0.50400001928E-02 0.  1.
        1   -1    0    0  501    0  0.00000000000E+00  0.00000000000E+00 -0.12996186864E+04  0.12996186864E+04  0.50400001928E-02 0. -1.
    10030    2    1    2    0    0  0.00000000000E+00  0.00000000000E+00  0.54982825859E+03  0.31490656315E+04  0.31006939929E+04 0.  0.
        2    1    3    3  502    0 -0.57562066901E+03  0.13554186657E+04 -0.21749690637E+03  0.14885576301E+04  0.25500000920E-02 0. -1.
       -2    1    3    3    0  502  0.57562066901E+03 -0.13554186657E+04  0.76732516497E+03  0.16605080014E+04  0.25500000920E-02 0.  1.
</event>
<event>
 5   0  0.4436241E-08  0.3081773E+04  0.7818609E-02  0.8220758E-01
        1   -1    0    0  501    0  0.00000000000E+00  0.00000000000E+00  0.18350418523E+04  0.18350418523E+04  0.50400001928E-02 0.  1.
       -1   -1    0    0    0  501  0.00000000000E+00  0.00000000000E+00 -0.12938835586E+04  0.12938835586E+04  0.50400001928E-02 0. -1.
    10030    2    1    2    0    0  0.00000000000E+00  0.00000000000E+00  0.54115829371E+03  0.31289254109E+04  0.30817725302E+04 0.  0.
        3    1    3    3  502    0  0.12166323678E+04  0.25988358588E+03 -0.65250535127E+03  0.14048121014E+04  0.10100000352E+00 0. -1.
       -3    1    3    3    0  502 -0.12166323678E+04 -0.25988358588E+03  0.11936636450E+04  0.17241133095E+04  0.10100000352E+00 0.  1.
</event>
<event>
 5   0  0.1318916E-07  0.3099957E+04  0.7818609E-02  0.8215750E-01
       -2   -1    0    0    0  501  0.00000000000E+00  0.00000000000E+00  0.92493880090E+03  0.92493880090E+03  0.25500000920E-02 0.  1.
        2   -1    0    0  501    0  0.00000000000E+00  0.00000000000E+00 -0.25973965052E+04  0.25973965052E+04  0.25500000920E-02 0. -1.
    10030    2    1    2    0    0  0.00000000000E+00  0.00000000000E+00 -0.16724577043E+04  0.35223353061E+04  0.30999566506E+04 0.  0.
        5    1    3    3  502    0  0.14879655881E+04  0.13869716190E+03 -0.13035207555E+04  0.19830448669E+04  0.46999998093E+01 0.  1.
       -5    1    3    3    0  502 -0.14879655881E+04 -0.13869716190E+03 -0.36893694876E+03  0.15392904392E+04  0.46999998093E+01 0. -1.
</event>
<event>
 5   0  0.1398931E-07  0.3099584E+04  0.7818609E-02  0.8215852E-01
       -2   -1    0    0    0  501  0.00000000000E+00  0.00000000000E+00  0.15238537251E+04  0.15238537251E+04  0.25500000920E-02 0. -1.
        2   -1    0    0  501    0  0.00000000000E+00  0.00000000000E+00 -0.15761715165E+04  0.15761715165E+04  0.25500000920E-02 0.  1.
    10030    2    1    2    0    0  0.00000000000E+00  0.00000000000E+00 -0.52317791494E+02  0.31000252416E+04  0.30995837377E+04 0.  0.
        3    1    3    3  502    0 -0.39445865709E+03  0.25178319625E+02 -0.15249127195E+04  0.15753064439E+04  0.10100000352E+00 0.  1.
       -3    1    3    3    0  502  0.39445865709E+03 -0.25178319625E+02  0.14725949280E+04  0.15247187977E+04  0.10100000352E+00 0. -1.
</event>
<event>
 5   0  0.4450600E-08  0.3099619E+04  0.7818609E-02  0.8215843E-01
       -1   -1    0    0    0  501  0.00000000000E+00  0.00000000000E+00  0.13126812847E+04  0.13126812847E+04  0.50400001928E-02 0. -1.
        1   -1    0    0  501    0  0.00000000000E+00  0.00000000000E+00 -0.18297734528E+04  0.18297734528E+04  0.50400001928E-02 0.  1.
    10030    2    1    2    0    0  0.00000000000E+00  0.00000000000E+00 -0.51709216817E+03  0.31424547375E+04  0.30996189228E+04 0.  0.
        4    1    3    3  502    0  0.22052476016E+03  0.37426309277E+02  0.12962302602E+04  0.13153883072E+04  0.12699999809E+01 0. -1.
       -4    1    3    3    0  502 -0.22052476016E+03 -0.37426309277E+02 -0.18133224284E+04  0.18270664303E+04  0.12699999809E+01 0.  1.
</event>
<event>
 5   0  0.4470354E-08  0.3103608E+04  0.7818609E-02  0.8214749E-01
       -1   -1    0    0    0  501  0.00000000000E+00  0.00000000000E+00  0.11912893137E+04  0.11912893137E+04  0.50400001928E-02 0.  1.
        1   -1    0    0  501    0  0.00000000000E+00  0.00000000000E+00 -0.20214191084E+04  0.20214191084E+04  0.50400001928E-02 0. -1.
    10030    2    1    2    0    0  0.00000000000E+00  0.00000000000E+00 -0.83012979471E+03  0.32127084220E+04  0.31036075668E+04 0.  0.
        1    1    3    3  502    0  0.13943447098E+04  0.32074448797E+03 -0.10370365814E+04  0.17670650999E+04  0.50400001928E-02 0. -1.
       -1    1    3    3    0  502 -0.13943447098E+04 -0.32074448797E+03  0.20690678665E+03  0.14456433221E+04  0.50400001928E-02 0.  1.
</event>
<event>
 5   0  0.1318916E-07  0.3100686E+04  0.7818609E-02  0.8215550E-01
        2   -1    0    0  501    0  0.00000000000E+00  0.00000000000E+00  0.10556558406E+04  0.10556558406E+04  0.25500000920E-02 0.  1.
       -2   -1    0    0    0  501  0.00000000000E+00  0.00000000000E+00 -0.22768432345E+04  0.22768432345E+04  0.25500000920E-02 0. -1.
    10030    2    1    2    0    0  0.00000000000E+00  0.00000000000E+00 -0.12211873939E+04  0.33324990752E+04  0.31006856395E+04 0.  0.
        5    1    3    3  502    0  0.78680660422E+02 -0.16813093888E+03  0.10436609233E+04  0.10600513533E+04  0.46999998093E+01 0.  1.
       -5    1    3    3    0  502 -0.78680660422E+02  0.16813093888E+03 -0.22648483172E+04  0.22724477219E+04  0.46999998093E+01 0. -1.
</event>
<event>
 5   0  0.4450600E-08  0.3097803E+04  0.7818609E-02  0.8216341E-01
        1   -1    0    0  501    0  0.00000000000E+00  0.00000000000E+00  0.25039232213E+04  0.25039232213E+04  0.50400001928E-02 0.  1.
       -1   -1    0    0    0  501  0.00000000000E+00  0.00000000000E+00 -0.95813492239E+03  0.95813492241E+03  0.50400001928E-02 0. -1.
    10030    2    1    2    0    0  0.00000000000E+00  0.00000000000E+00  0.15457882989E+04  0.34620581437E+04  0.30978032742E+04 0.  0.
        4    1    3    3  502    0  0.48407296207E+03  0.58977260166E+03 -0.73354077447E+03  0.10584148690E+04  0.12699999809E+01 0. -1.
       -4    1    3    3    0  502 -0.48407296207E+03 -0.58977260166E+03  0.22793290734E+04  0.24036432747E+04  0.12699999809E+01 0.  1.
</event>
<event>
 5   0  0.4470354E-08  0.3101085E+04  0.7818609E-02  0.8215440E-01
       -1   -1    0    0    0  501  0.00000000000E+00  0.00000000000E+00  0.97968297283E+03  0.97968297285E+03  0.50400001928E-02 0. -1.
        1   -1    0    0  501    0  0.00000000000E+00  0.00000000000E+00 -0.24540416005E+04  0.24540416005E+04  0.50400001928E-02 0.  1.
    10030    2    1    2    0    0  0.00000000000E+00  0.00000000000E+00 -0.14743586277E+04  0.34337245733E+04  0.31010854685E+04 0.  0.
        1    1    3    3  502    0 -0.14805388958E+03  0.10687739966E+04  0.49581175127E+03  0.11874456209E+04  0.50400001928E-02 0. -1.
       -1    1    3    3    0  502  0.14805388958E+03 -0.10687739966E+04 -0.19701703789E+04  0.22462789524E+04  0.50400001928E-02 0.  1.
</event>
<event>
 5   0  0.1325713E-07  0.3100417E+04  0.7818609E-02  0.8215623E-01
        2   -1    0    0  501    0  0.00000000000E+00  0.00000000000E+00  0.14203732662E+04  0.14203732662E+04  0.25500000920E-02 0.  1.
       -2   -1    0    0    0  501  0.00000000000E+00  0.00000000000E+00 -0.16919122201E+04  0.16919122201E+04  0.25500000920E-02 0. -1.
    10030    2    1    2    0    0  0.00000000000E+00  0.00000000000E+00 -0.27153895387E+03  0.31122854863E+04  0.31004173178E+04 0.  0.
        4    1    3    3  502    0  0.60727747957E+03 -0.74157947908E+03 -0.13588007348E+04  0.16628490944E+04  0.12699999809E+01 0. -1.
       -4    1    3    3    0  502 -0.60727747957E+03  0.74157947908E+03  0.10872617809E+04  0.14494363919E+04  0.12699999809E+01 0.  1.
</event>
<event>
 5   0  0.4436241E-08  0.3104150E+04  0.7818609E-02  0.8214600E-01
       -1   -1    0    0    0  501  0.00000000000E+00  0.00000000000E+00  0.15311209109E+04  0.15311209109E+04  0.50400001928E-02 0. -1.
        1   -1    0    0  501    0  0.00000000000E+00  0.00000000000E+00 -0.15733156928E+04  0.15733156928E+04  0.50400001928E-02 0.  1.
    10030    2    1    2    0    0  0.00000000000E+00  0.00000000000E+00 -0.42194781921E+02  0.31044366037E+04  0.31041498396E+04 0.  0.
        3    1    3    3  502    0 -0.68989754940E+03  0.31344765166E+03  0.13335492386E+04  0.15338062592E+04  0.10100000352E+00 0. -1.
       -3    1    3    3    0  502  0.68989754940E+03 -0.31344765166E+03 -0.13757440205E+04  0.15706303445E+04  0.10100000352E+00 0.  1.
</event>
<event>
 5   0  0.4470354E-08  0.3099305E+04  0.7818609E-02  0.8215929E-01
       -1   -1    0    0    0  501  0.00000000000E+00  0.00000000000E+00  0.11789480989E+04  0.11789480990E+04  0.50400001928E-02 0. -1.
        1   -1    0    0  501    0  0.00000000000E+00  0.00000000000E+00 -0.20369204136E+04  0.20369204136E+04  0.50400001928E-02 0.  1.
    10030    2    1    2    0    0  0.00000000000E+00  0.00000000000E+00 -0.85797231466E+03  0.32158685126E+04  0.30993053734E+04 0.  0.
        1    1    3    3  502    0  0.14837432465E+04  0.23703420250E+03 -0.35590916784E+02  0.15029790245E+04  0.50400001928E-02 0. -1.
       -1    1    3    3    0  502 -0.14837432465E+04 -0.23703420250E+03 -0.82238139787E+03  0.17128894881E+04  0.50400001928E-02 0.  1.
</event>
<event>
 5   0  0.4470354E-08  0.3098190E+04  0.7818609E-02  0.8216235E-01
        1   -1    0    0  501    0  0.00000000000E+00  0.00000000000E+00  0.16838002087E+04  0.16838002087E+04  0.50400001928E-02 0. -1.
       -1   -1    0    0    0  501  0.00000000000E+00  0.00000000000E+00 -0.14251660851E+04  0.14251660851E+04  0.50400001928E-02 0.  1.
    10030    2    1    2    0    0  0.00000000000E+00  0.00000000000E+00  0.25863412358E+03  0.31089662938E+04  0.30981897628E+04 0.  0.
        1    1    3    3  502    0 -0.77630406281E+03  0.13089465917E+04 -0.16100878824E+03  0.15303310125E+04  0.50400001928E-02 0. -1.
       -1    1    3    3    0  502  0.77630406281E+03 -0.13089465917E+04  0.41964291182E+03  0.15786352813E+04  0.50400001928E-02 0.  1.
</event>
<event>
 5   0  0.4838602E-08  0.3100755E+04  0.7818609E-02  0.8215531E-01
        1   -1    0    0  501    0  0.00000000000E+00  0.00000000000E+00  0.16532464810E+04  0.16532464810E+04  0.50400001928E-02 0.  1.
       -1   -1    0    0    0  501  0.00000000000E+00  0.00000000000E+00 -0.14539092946E+04  0.14539092947E+04  0.50400001928E-02 0. -1.
    10030    2    1    2    0    0  0.00000000000E+00  0.00000000000E+00  0.19933718631E+03  0.31071557756E+04  0.31007550210E+04 0.  0.
        5    1    3    3  502    0  0.83528358403E+03  0.17906232093E+03 -0.11967897169E+04  0.14704046032E+04  0.46999998093E+01 0. -1.
       -5    1    3    3    0  502 -0.83528358403E+03 -0.17906232093E+03  0.13961269032E+04  0.16367511724E+04  0.46999998093E+01 0.  1.
</event>
<event>
 5   0  0.4838602E-08  0.3100779E+04  0.7818609E-02  0.8215524E-01
        1   -1    0    0  501    0  0.00000000000E+00  0.00000000000E+00  0.20550312049E+04  0.20550312049E+04  0.50400001928E-02 0.  1.
       -1   -1    0    0    0  501  0.00000000000E+00  0.00000000000E+00 -0.11696694315E+04  0.11696694315E+04  0.50400001928E-02 0. -1.
    10030    2    1    2    0    0  0.00000000000E+00  0.00000000000E+00  0.88536177347E+03  0.32247006364E+04  0.31007787288E+04 0.  0.
        5    1    3    3  502    0  0.12152288182E+04 -0.38576718494E+03 -0.47466453807E+03  0.13604873815E+04  0.46999998093E+01 0. -1.
       -5    1    3    3    0  502 -0.12152288182E+04  0.38576718494E+03  0.13600263115E+04  0.18642132549E+04  0.46999998093E+01 0.  1.
</event>
<event>
 5   0  0.4517409E-08  0.3096050E+04  0.7818609E-02  0.8216823E-01
        1   -1    0    0  501    0  0.00000000000E+00  0.00000000000E+00  0.17137681283E+04  0.17137681284E+04  0.50400001928E-02 0. -1.
       -1   -1    0    0    0  501  0.00000000000E+00  0.00000000000E+00 -0.13983111001E+04  0.13983111001E+04  0.50400001928E-02 0.  1.
    10030    2    1    2    0    0  0.00000000000E+00  0.00000000000E+00  0.31545702825E+03  0.31120792285E+04  0.30960497392E+04 0.  0.
        2    1    3    3  502    0  0.11070783647E+04 -0.10133756510E+04  0.53893901997E+03  0.15946811540E+04  0.25500000920E-02 0. -1.
       -2    1    3    3    0  502 -0.11070783647E+04  0.10133756510E+04 -0.22348199172E+03  0.15173980744E+04  0.25500000920E-02 0.  1.
</event>
<event>
 5   0  0.4517409E-08  0.3099507E+04  0.7818609E-02  0.8215873E-01
       -1   -1    0    0    0  501  0.00000000000E+00  0.00000000000E+00  0.23996831327E+04  0.23996831327E+04  0.50400001928E-02 0. -1.
        1   -1    0    0  501    0  0.00000000000E+00  0.00000000000E+00 -0.10008555430E+04  0.10008555430E+04  0.50400001928E-02 0.  1.
    10030    2    1    2    0    0  0.00000000000E+00  0.00000000000E+00  0.13988275897E+04  0.34005386757E+04  0.30995071640E+04 0.  0.
        2    1    3    3  502    0  0.15256395283E+04 -0.70585541320E+02  0.41085209616E+03  0.15815681249E+04  0.25500000920E-02 0.  1.
       -2    1    3    3    0  502 -0.15256395283E+04  0.70585541320E+02  0.98797549350E+03  0.18189705508E+04  0.25500000920E-02 0. -1.
</event>
<event>
 5   0  0.4517409E-08  0.3094635E+04  0.7818609E-02  0.8217212E-01
       -1   -1    0    0    0  501  0.00000000000E+00  0.00000000000E+00  0.83294691155E+03  0.83294691156E+03  0.50400001928E-02 0. -1.
        1   -1    0    0  501    0  0.00000000000E+00  0.00000000000E+00 -0.28743625373E+04  0.28743625373E+04  0.50400001928E-02 0.  1.
    10030    2    1    2    0    0  0.00000000000E+00  0.00000000000E+00 -0.20414156258E+04  0.37073094489E+04  0.30946349692E+04 0.  0.
        2    1    3    3  502    0  0.12594968563E+04 -0.21553659645E+02 -0.20971539522E+04  0.24463956325E+04  0.25500000920E-02 0.  1.
       -2    1    3    3    0  502 -0.12594968563E+04  0.21553659645E+02  0.55738326434E+02  0.12609138164E+04  0.25500000920E-02 0. -1.
</event>
<event>
 5   0  0.1318916E-07  0.3099747E+04  0.7818609E-02  0.8215807E-01
        2   -1    0    0  501    0  0.00000000000E+00  0.00000000000E+00  0.92659897473E+03  0.92659897474E+03  0.25500000920E-02 0.  1.
       -2   -1    0    0    0  501  0.00000000000E+00  0.00000000000E+00 -0.25923926218E+04  0.25923926218E+04  0.25500000920E-02 0. -1.
    10030    2    1    2    0    0  0.00000000000E+00  0.00000000000E+00 -0.16657936470E+04  0.35189915965E+04  0.30997473093E+04 0.  0.
        5    1    3    3  502    0 -0.12753843888E+04 -0.81376598304E+03 -0.12149654834E+04  0.19403565729E+04  0.46999998093E+01 0.  1.
       -5    1    3    3    0  502  0.12753843888E+04  0.81376598304E+03 -0.45082816366E+03  0.15786350235E+04  0.46999998093E+01 0. -1.
</event>
<event>
 5   0  0.4470354E-08  0.3099755E+04  0.7818609E-02  0.8215805E-01
       -1   -1    0    0    0  501  0.00000000000E+00  0.00000000000E+00  0.12622084978E+04  0.12622084978E+04  0.50400001928E-02 0. -1.
        1   -1    0    0  501    0  0.00000000000E+00  0.00000000000E+00 -0.19031087610E+04  0.19031087610E+04  0.50400001928E-02 0.  1.
    10030    2    1    2    0    0  0.00000000000E+00  0.00000000000E+00 -0.64090026323E+03  0.31653172588E+04  0.30997548615E+04 0.  0.
        1    1    3    3  502    0 -0.78505541390E+03 -0.96436595002E+03 -0.12651147537E+04  0.17739303900E+04  0.50400001928E-02 0.  1.
       -1    1    3    3    0  502  0.78505541390E+03  0.96436595002E+03  0.62421449050E+03  0.13913868688E+04  0.50400001928E-02 0. -1.
</event>
<event>
 5   0  0.4305500E-08  0.3100424E+04  0.7818609E-02  0.8215622E-01
       -3   -1    0    0    0  501  0.00000000000E+00  0.00000000000E+00  0.17190869905E+04  0.17190869935E+04  0.10100000352E+00 0.  1.
        3   -1    0    0  501    0  0.00000000000E+00  0.00000000000E+00 -0.13979263690E+04  0.13979263727E+04  0.10100000352E+00 0. -1.
    10030    2    1    2    0    0  0.00000000000E+00  0.00000000000E+00  0.32116062150E+03  0.31170133661E+04  0.31004238710E+04 0.  0.
        3    1    3    3  502    0  0.80510062059E+03 -0.11879108595E+04 -0.42893408118E+03  0.14977662286E+04  0.10100000352E+00 0. -1.
       -3    1    3    3    0  502 -0.80510062059E+03  0.11879108595E+04  0.75009470267E+03  0.16192471376E+04  0.10100000352E+00 0.  1.
</event>
<event>
 5   0  0.1318916E-07  0.3097715E+04  0.7818609E-02  0.8216365E-01
        2   -1    0    0  501    0  0.00000000000E+00  0.00000000000E+00  0.15072742391E+04  0.15072742391E+04  0.25500000920E-02 0.  1.
       -2   -1    0    0    0  501  0.00000000000E+00  0.00000000000E+00 -0.15915879395E+04  0.15915879395E+04  0.25500000920E-02 0. -1.
    10030    2    1    2    0    0  0.00000000000E+00  0.00000000000E+00 -0.84313700370E+02  0.30988621785E+04  0.30977149645E+04 0.  0.
        5    1    3    3  502    0  0.27603484590E+03 -0.15150282750E+04  0.12352906371E+03  0.15449231145E+04  0.46999998093E+01 0.  1.
       -5    1    3    3    0  502 -0.27603484590E+03  0.15150282750E+04 -0.20784276408E+03  0.15539390640E+04  0.46999998093E+01 0. -1.
</event>
<event>
 5   0  0.4450600E-08  0.3100889E+04  0.7818609E-02  0.8215494E-01
       -1   -1    0    0    0  501  0.00000000000E+00  0.00000000000E+00  0.10551502008E+04  0.10551502008E+04  0.50400001928E-02 0.  1.
        1   -1    0    0  501    0  0.00000000000E+00  0.00000000000E+00 -0.22782338562E+04  0.22782338562E+04  0.50400001928E-02 0. -1.
    10030    2    1    2    0    0  0.00000000000E+00  0.00000000000E+00 -0.12230836554E+04  0.33333840570E+04  0.31008894923E+04 0.  0.
        4    1    3    3  502    0 -0.85720299120E+03 -0.12897993326E+04 -0.69124982272E+03  0.16959384472E+04  0.12699999809E+01 0.  1.
       -4    1    3    3    0  502  0.85720299120E+03  0.12897993326E+04 -0.53183383264E+03  0.16374456098E+04  0.12699999809E+01 0. -1.
</event>
<event>
 5   0  0.1325713E-07  0.3100729E+04  0.7818609E-02  0.8215538E-01
        2   -1    0    0  501    0  0.00000000000E+00  0.00000000000E+00  0.21605033494E+04  0.21605033494E+04  0.25500000920E-02 0.  1.
       -2   -1    0    0    0  501  0.00000000000E+00  0.00000000000E+00 -0.11125323338E+04  0.11125323338E+04  0.25500000920E-02 0. -1.
    10030    2    1    2    0    0  0.00000000000E+00  0.00000000000E+00  0.10479710156E+04  0.32730356832E+04  0.31007288391E+04 0.  0.
        4    1    3    3  502    0  0.16911940597E+03  0.18366971518E+03  0.21391425985E+04  0.21536639960E+04  0.12699999809E+01 0.  1.
       -4    1    3    3    0  502 -0.16911940597E+03 -0.18366971518E+03 -0.10911715829E+04  0.11193716872E+04  0.12699999809E+01 0. -1.
</event>
<event>
 5   0  0.1329777E-07  0.3094302E+04  0.7818609E-02  0.8217303E-01
       -2   -1    0    0    0  501  0.00000000000E+00  0.00000000000E+00  0.15601630953E+04  0.15601630953E+04  0.25500000920E-02 0. -1.
        2   -1    0    0  501    0  0.00000000000E+00  0.00000000000E+00 -0.15342478383E+04  0.15342478383E+04  0.25500000920E-02 0.  1.
    10030    2    1    2    0    0  0.00000000000E+00  0.00000000000E+00  0.25915257044E+02  0.30944109336E+04  0.30943024133E+04 0.  0.
        1    1    3    3  502    0  0.38331302623E+03 -0.47630702691E+03  0.14342321541E+04  0.15591084414E+04  0.50400001928E-02 0. -1.
       -1    1    3    3    0  502 -0.38331302623E+03  0.47630702691E+03 -0.14083168971E+04  0.15353024922E+04  0.50400001928E-02 0.  1.
</event>
<event>
 5   0  0.4436241E-08  0.3098979E+04  0.7818609E-02  0.8216018E-01
       -1   -1    0    0    0  501  0.00000000000E+00  0.00000000000E+00  0.24934510837E+04  0.24934510837E+04  0.50400001928E-02 0. -1.
        1   -1    0    0  501    0  0.00000000000E+00  0.00000000000E+00 -0.96288954252E+03  0.96288954253E+03  0.50400001928E-02 0.  1.
    10030    2    1    2    0    0  0.00000000000E+00  0.00000000000E+00  0.15305615412E+04  0.34563406263E+04  0.30989791696E+04 0.  0.
        3    1    3    3  502    0 -0.78067070642E+03  0.51320049108E+03 -0.61343030659E+03  0.11176395873E+04  0.10100000352E+00 0.  1.
       -3    1    3    3    0  502  0.78067070642E+03 -0.51320049108E+03  0.21439918478E+04  0.23387010389E+04  0.10100000352E+00 0. -1.
</event>
<event>
 5   0  0.1398931E-07  0.3104580E+04  0.7818609E-02  0.8214482E-01
        2   -1    0    0  501    0  0.00000000000E+00  0.00000000000E+00  0.12333915406E+04  0.12333915406E+04  0.25500000920E-02 0. -1.
       -2   -1    0    0    0  501  0.00000000000E+00  0.00000000000E+00 -0.19536407356E+04  0.19536407356E+04  0.25500000920E-02 0.  1.
    10030    2    1    2    0    0  0.00000000000E+00  0.00000000000E+00 -0.72024919495E+03  0.31870322762E+04  0.31045798148E+04 0.  0.
        3    1    3    3  502    0  0.16518923909E+03 -0.53566438349E+03 -0.18461117098E+04  0.19293398539E+04  0.10100000352E+00 0.  1.
       -3    1    3    3    0  502 -0.16518923909E+03  0.53566438349E+03  0.11258625149E+04  0.12576924223E+04  0.10100000352E+00 0. -1.
</event>
<event>
 5   0  0.4450600E-08  0.3097663E+04  0.7818609E-02  0.8216380E-01
       -1   -1    0    0    0  501  0.00000000000E+00  0.00000000000E+00  0.14457052896E+04  0.14457052896E+04  0.50400001928E-02 0.  1.
        1   -1    0    0  501    0  0.00000000000E+00  0.00000000000E+00 -0.16593137487E+04  0.16593137487E+04  0.50400001928E-02 0. -1.
    10030    2    1    2    0    0  0.00000000000E+00  0.00000000000E+00 -0.21360845915E+03  0.31050190383E+04  0.30976627729E+04 0.  0.
        4    1    3    3  502    0 -0.67176952899E+03  0.64110483565E+03 -0.13493395883E+04  0.16379892087E+04  0.12699999809E+01 0. -1.
       -4    1    3    3    0  502  0.67176952899E+03 -0.64110483565E+03  0.11357311291E+04  0.14670298296E+04  0.12699999809E+01 0.  1.
</event>
<event>
 5   0  0.1377237E-07  0.3103756E+04  0.7818609E-02  0.8214708E-01
       -2   -1    0    0    0  501  0.00000000000E+00  0.00000000000E+00  0.12974818985E+04  0.12974818986E+04  0.25500000920E-02 0.  1.
        2   -1    0    0  501    0  0.00000000000E+00  0.00000000000E+00 -0.18561529106E+04  0.18561529106E+04  0.25500000920E-02 0. -1.
    10030    2    1    2    0    0  0.00000000000E+00  0.00000000000E+00 -0.55867101204E+03  0.31536348091E+04  0.31037556621E+04 0.  0.
        2    1    3    3  502    0 -0.75646347037E+03  0.13463602247E+04 -0.43477094586E+03  0.16043530197E+04  0.25500000920E-02 0. -1.
       -2    1    3    3    0  502  0.75646347037E+03 -0.13463602247E+04 -0.12390006619E+03  0.15492817894E+04  0.25500000920E-02 0.  1.
</event>
<event>
 5   0  0.4450600E-08  0.3103174E+04  0.7818609E-02  0.8214867E-01
        1   -1    0    0  501    0  0.00000000000E+00  0.00000000000E+00  0.12349627229E+04  0.12349627229E+04  0.50400001928E-02 0.  1.
       -1   -1    0    0    0  501  0.00000000000E+00  0.00000000000E+00 -0.19493882759E+04  0.19493882759E+04  0.50400001928E-02 0. -1.
    10030    2    1    2    0    0  0.00000000000E+00  0.00000000000E+00 -0.71442555297E+03  0.31843509988E+04  0.31031737645E+04 0.  0.
        4    1    3    3  502    0 -0.13499164292E+04  0.20538335792E+03 -0.11133492293E+04  0.17618186083E+04  0.12699999809E+01 0. -1.
       -4    1    3    3    0  502  0.13499164292E+04 -0.20538335792E+03  0.39892367632E+03  0.14225323904E+04  0.12699999809E+01 0.  1.
</event>
<event>
 5   0  0.4450600E-08  0.3096495E+04  0.7818609E-02  0.8216700E-01
       -1   -1    0    0    0  501  0.00000000000E+00  0.00000000000E+00  0.16368824510E+04  0.16368824510E+04  0.50400001928E-02 0.  1.
        1   -1    0    0  501    0  0.00000000000E+00  0.00000000000E+00 -0.14644122480E+04  0.14644122480E+04  0.50400001928E-02 0. -1.
    10030    2    1    2    0    0  0.00000000000E+00  0.00000000000E+00  0.17247020297E+03  0.31012946990E+04  0.30964952510E+04 0.  0.
        4    1    3    3  502    0 -0.11598486088E+04  0.30147748888E+03 -0.89555548087E+03  0.14960476944E+04  0.12699999809E+01 0. -1.
       -4    1    3    3    0  502  0.11598486088E+04 -0.30147748888E+03  0.10680256838E+04  0.16052470046E+04  0.12699999809E+01 0.  1.
</event>
<event>
 5   0  0.4517409E-08  0.3099189E+04  0.7818609E-02  0.8215961E-01
       -1   -1    0    0    0  501  0.00000000000E+00  0.00000000000E+00  0.86616445581E+03  0.86616445583E+03  0.50400001928E-02 0. -1.
        1   -1    0    0  501    0  0.00000000000E+00  0.00000000000E+00 -0.27722715424E+04  0.27722715424E+04  0.50400001928E-02 0.  1.
    10030    2    1    2    0    0  0.00000000000E+00  0.00000000000E+00 -0.19061070865E+04  0.36384359982E+04  0.30991889725E+04 0.  0.
        2    1    3    3  502    0 -0.11431963599E+04  0.40080420512E+03 -0.20874650608E+04  0.24135145138E+04  0.25500000920E-02 0.  1.
       -2    1    3    3    0  502  0.11431963599E+04 -0.40080420512E+03  0.18135797430E+03  0.12249214844E+04  0.25500000920E-02 0. -1.
</event>
<event>
 5   0  0.1377237E-07  0.3100939E+04  0.7818609E-02  0.8215480E-01
       -2   -1    0    0    0  501  0.00000000000E+00  0.00000000000E+00  0.10828329259E+04  0.10828329259E+04  0.25500000920E-02 0.  1.
        2   -1    0    0  501    0  0.00000000000E+00  0.00000000000E+00 -0.22200608523E+04  0.22200608523E+04  0.25500000920E-02 0. -1.
    10030    2    1    2    0    0  0.00000000000E+00  0.00000000000E+00 -0.11372279264E+04  0.33028937781E+04  0.31009385600E+04 0.  0.
        2    1    3    3  502    0  0.48061082671E+03  0.13902590021E+04 -0.10905785619E+04  0.18311658743E+04  0.25500000920E-02 0. -1.
       -2    1    3    3    0  502 -0.48061082671E+03 -0.13902590021E+04 -0.46649364480E+02  0.14717279038E+04  0.25500000920E-02 0.  1.
</event>
<event>
 5   0  0.1329777E-07  0.3100681E+04  0.7818609E-02  0.8215551E-01
        2   -1    0    0  501    0  0.00000000000E+00  0.00000000000E+00  0.18932204445E+04  0.18932204445E+04  0.25500000920E-02 0.  1.
       -2   -1    0    0    0  501  0.00000000000E+00  0.00000000000E+00 -0.12695593459E+04  0.12695593459E+04  0.25500000920E-02 0. -1.
    10030    2    1    2    0    0  0.00000000000E+00  0.00000000000E+00  0.62366109864E+03  0.31627797904E+04  0.31006810279E+04 0.  0.
        1    1    3    3  502    0 -0.10789582332E+04  0.46925885638E+03  0.13416042030E+04  0.17844485369E+04  0.50400001928E-02 0.  1.
       -1    1    3    3    0  502  0.10789582332E+04 -0.46925885638E+03 -0.71794310439E+03  0.13783312535E+04  0.50400001928E-02 0. -1.
</event>
<event>
 5   0  0.4517409E-08  0.3099004E+04  0.7818609E-02  0.8216011E-01
       -1   -1    0    0    0  501  0.00000000000E+00  0.00000000000E+00  0.13421337072E+04  0.13421337072E+04  0.50400001928E-02 0. -1.
        1   -1    0    0  501    0  0.00000000000E+00  0.00000000000E+00 -0.17889105419E+04  0.17889105419E+04  0.50400001928E-02 0.  1.
    10030    2    1    2    0    0  0.00000000000E+00  0.00000000000E+00 -0.44677683473E+03  0.31310442491E+04  0.30990044449E+04 0.  0.
        2    1    3    3  502    0  0.94152527617E+03 -0.98810330119E+03 -0.96455239525E+03  0.16712807372E+04  0.25500000920E-02 0.  1.
       -2    1    3    3    0  502 -0.94152527617E+03  0.98810330119E+03  0.51777556051E+03  0.14597635119E+04  0.25500000920E-02 0. -1.
</event>
<event>
 5   0  0.1329777E-07  0.3098752E+04  0.7818609E-02  0.8216081E-01
        2   -1    0    0  501    0  0.00000000000E+00  0.00000000000E+00  0.16473460444E+04  0.16473460444E+04  0.25500000920E-02 0.  1.
       -2   -1    0    0    0  501  0.00000000000E+00  0.00000000000E+00 -0.14572323402E+04  0.14572323402E+04  0.25500000920E-02 0. -1.
    10030    2    1    2    0    0  0.00000000000E+00  0.00000000000E+00  0.19011370421E+03  0.31045783846E+04  0.30987519626E+04 0.  0.
        1    1    3    3  502    0  0.15341057548E+04  0.12371461030E+03 -0.83548246364E+02  0.15413520303E+04  0.50400001928E-02 0.  1.
       -1    1    3    3    0  502 -0.15341057548E+04 -0.12371461030E+03  0.27366195058E+03  0.15632263543E+04  0.50400001928E-02 0. -1.
</event>
<event>
 5   0  0.4470354E-08  0.3099000E+04  0.7818609E-02  0.8216012E-01
        1   -1    0    0  501    0  0.00000000000E+00  0.00000000000E+00  0.23436035356E+04  0.23436035356E+04  0.50400001928E-02 0. -1.
       -1   -1    0    0    0  501  0.00000000000E+00  0.00000000000E+00 -0.10244695375E+04  0.10244695375E+04  0.50400001928E-02 0.  1.
    10030    2    1    2    0    0  0.00000000000E+00  0.00000000000E+00  0.13191339981E+04  0.33680730731E+04  0.30990001163E+04 0.  0.
        1    1    3    3  502    0 -0.92743680799E+03  0.12402749808E+04  0.71422654585E+03  0.17054444053E+04  0.50400001928E-02 0.  1.
       -1    1    3    3    0  502  0.92743680799E+03 -0.12402749808E+04  0.60490745224E+03  0.16626286677E+04  0.50400001928E-02 0. -1.
</event>
<event>
 5   0  0.1318916E-07  0.3100141E+04  0.7818609E-02  0.8215699E-01
        2   -1    0    0  501    0  0.00000000000E+00  0.00000000000E+00  0.17940665823E+04  0.17940665823E+04  0.25500000920E-02 0.  1.
       -2   -1    0    0    0  501  0.00000000000E+00  0.00000000000E+00 -0.13392586984E+04  0.13392586984E+04  0.25500000920E-02 0. -1.
    10030    2    1    2    0    0  0.00000000000E+00  0.00000000000E+00  0.45480788387E+03  0.31333252808E+04  0.31001414651E+04 0.  0.
        5    1    3    3  502    0 -0.99097976225E+03  0.40381895067E+03 -0.90602138540E+03  0.14021438852E+04  0.46999998093E+01 0. -1.
       -5    1    3    3    0  502  0.99097976225E+03 -0.40381895067E+03  0.13608292693E+04  0.17311813955E+04  0.46999998093E+01 0.  1.
</event>
<event>
 5   0  0.1325713E-07  0.3092701E+04  0.7818609E-02  0.8217744E-01
        2   -1    0    0  501    0  0.00000000000E+00  0.00000000000E+00  0.17484743484E+04  0.17484743484E+04  0.25500000920E-02 0.  1.
       -2   -1    0    0    0  501  0.00000000000E+00  0.00000000000E+00 -0.13675925786E+04  0.13675925786E+04  0.25500000920E-02 0. -1.
    10030    2    1    2    0    0  0.00000000000E+00  0.00000000000E+00  0.38088176984E+03  0.31160669269E+04  0.30927014357E+04 0.  0.
        4    1    3    3  502    0  0.12382972660E+04  0.92513225413E+03  0.23492330538E+03  0.15634706198E+04  0.12699999809E+01 0.  1.
       -4    1    3    3    0  502 -0.12382972660E+04 -0.92513225413E+03  0.14595846446E+03  0.15525963071E+04  0.12699999809E+01 0. -1.
</event>
<event>
 5   0  0.1325713E-07  0.3100360E+04  0.7818609E-02  0.8215639E-01
        2   -1    0    0  501    0  0.00000000000E+00  0.00000000000E+00  0.29598591758E+04  0.29598591758E+04  0.25500000920E-02 0.  1.
       -2   -1    0    0    0  501  0.00000000000E+00  0.00000000000E+00 -0.81188242958E+03  0.81188242959E+03  0.25500000920E-02 0. -1.
    10030    2    1    2    0    0  0.00000000000E+00  0.00000000000E+00  0.21479767463E+04  0.37717416054E+04  0.31003597591E+04 0.  0.
        4    1    3    3  502    0 -0.10771056577E+03  0.14347932314E+03  0.29471857613E+04  0.29526417674E+04  0.12699999809E+01 0.  1.
       -4    1    3    3    0  502  0.10771056577E+03 -0.14347932314E+03 -0.79920901500E+03  0.81909983806E+03  0.12699999809E+01 0. -1.
</event>
<event>
 5   0  0.4517409E-08  0.3097475E+04  0.7818609E-02  0.8216431E-01
        1   -1    0    0  501    0  0.00000000000E+00  0.00000000000E+00  0.16891181923E+04  0.16891181923E+04  0.50400001928E-02 0.  1.
       -1   -1    0    0    0  501  0.00000000000E+00  0.00000000000E+00 -0.14200234320E+04  0.14200234320E+04  0.50400001928E-02 0. -1.
    10030    2    1    2    0    0  0.00000000000E+00  0.00000000000E+00  0.26909476030E+03  0.31091416242E+04  0.30974747214E+04 0.  0.
        2    1    3    3  502    0 -0.10266976940E+04  0.10560897814E+04 -0.34595562248E+03  0.15129835009E+04  0.25500000920E-02 0. -1.
       -2    1    3    3    0  502  0.10266976940E+04 -0.10560897814E+04  0.61505038278E+03  0.15961581233E+04  0.25500000920E-02 0.  1.
</event>
<event>
 5   0  0.4436241E-08  0.3092301E+04  0.7818609E-02  0.8217854E-01
        1   -1    0    0  501    0  0.00000000000E+00  0.00000000000E+00  0.21618126860E+04  0.21618126860E+04  0.50400001928E-02 0.  1.
       -1   -1    0    0    0  501  0.00000000000E+00  0.00000000000E+00 -0.11058223029E+04  0.11058223029E+04  0.50400001928E-02 0. -1.
    10030    2    1    2    0    0  0.00000000000E+00  0.00000000000E+00  0.10559903831E+04  0.32676349889E+04  0.30923005565E+04 0.  0.
        3    1    3    3  502    0 -0.33457471291E+03  0.10472807716E+04  0.16767618172E+04  0.20050604617E+04  0.10100000352E+00 0.  1.
       -3    1    3    3    0  502  0.33457471291E+03 -0.10472807716E+04 -0.62077143414E+03  0.12625745272E+04  0.10100000352E+00 0. -1.
</event>
<event>
 5   0  0.4838602E-08  0.3103757E+04  0.7818609E-02  0.8214708E-01
       -1   -1    0    0    0  501  0.00000000000E+00  0.00000000000E+00  0.27622633276E+04  0.27622633276E+04  0.50400001928E-02 0.  1.
        1   -1    0    0  501    0  0.00000000000E+00  0.00000000000E+00 -0.87186709144E+03  0.87186709145E+03  0.50400001928E-02 0. -1.
    10030    2    1    2    0    0  0.00000000000E+00  0.00000000000E+00  0.18903962362E+04  0.36341304191E+04  0.31037567516E+04 0.  0.
        5    1    3    3  502    0  0.96593948881E+03 -0.69003502508E+03  0.21155622397E+04  0.24258633745E+04  0.46999998093E+01 0.  1.
       -5    1    3    3    0  502 -0.96593948881E+03  0.69003502508E+03 -0.22516600348E+03  0.12082670446E+04  0.46999998093E+01 0. -1.
</event>
<event>
 5   0  0.1325713E-07  0.3100055E+04  0.7818609E-02  0.8215723E-01
        2   -1    0    0  501    0  0.00000000000E+00  0.00000000000E+00  0.11788615008E+04  0.11788615008E+04  0.25500000920E-02 0. -1.
       -2   -1    0    0    0  501  0.00000000000E+00  0.00000000000E+00 -0.20380560243E+04  0.20380560243E+04  0.25500000920E-02 0.  1.
    10030    2    1    2    0    0  0.00000000000E+00  0.00000000000E+00 -0.85919452350E+03  0.32169175252E+04  0.31000553438E+04 0.  0.
        4    1    3    3  502    0 -0.23817935753E+03 -0.19741530581E+03  0.11465005500E+04  0.11875046667E+04  0.12699999809E+01 0. -1.
       -4    1    3    3    0  502  0.23817935753E+03  0.19741530581E+03 -0.20056950735E+04  0.20294128585E+04  0.12699999809E+01 0.  1.
</event>
<event>
 5   0  0.1318916E-07  0.3101846E+04  0.7818609E-02  0.8215231E-01
        2   -1    0    0  501    0  0.00000000000E+00  0.00000000000E+00  0.24007271598E+04  0.24007271598E+04  0.25500000920E-02 0.  1.
       -2   -1    0    0    0  501  0.00000000000E+00  0.00000000000E+00 -0.10019308662E+04  0.10019308662E+04  0.25500000920E-02 0. -1.
    10030    2    1    2    0    0  0.00000000000E+00  0.00000000000E+00  0.13987962936E+04  0.34026580259E+04  0.31018463164E+04 0.  0.
        5    1    3    3  502    0 -0.40127262618E+03  0.61275881437E+03  0.21990310322E+04  0.23178120406E+04  0.46999998093E+01 0.  1.
       -5    1    3    3    0  502  0.40127262618E+03 -0.61275881437E+03 -0.80023473857E+03  0.10848459853E+04  0.46999998093E+01 0. -1.
</event>
<event>
 5   0  0.1329777E-07  0.3100088E+04  0.7818609E-02  0.8215714E-01
       -2   -1    0    0    0  501  0.00000000000E+00  0.00000000000E+00  0.90924808032E+03  0.90924808032E+03  0.25500000920E-02 0. -1.
        2   -1    0    0  501    0  0.00000000000E+00  0.00000000000E+00 -0.26424428863E+04  0.26424428863E+04  0.25500000920E-02 0.  1.
    10030    2    1    2    0    0  0.00000000000E+00  0.00000000000E+00 -0.17331948060E+04  0.35516909666E+04  0.31000878192E+04 0.  0.
        1    1    3    3  502    0  0.11616755878E+03 -0.45299222351E+03  0.82649808489E+03  0.94962937014E+03  0.50400001928E-02 0. -1.
       -1    1    3    3    0  502 -0.11616755878E+03  0.45299222351E+03 -0.25596928909E+04  0.26020615965E+04  0.50400001928E-02 0.  1.
</event>
<event>
 5   0  0.1329777E-07  0.3106046E+04  0.7818609E-02  0.8214081E-01
       -2   -1    0    0    0  501  0.00000000000E+00  0.00000000000E+00  0.10298767283E+04  0.10298767283E+04  0.25500000920E-02 0. -1.
        2   -1    0    0  501    0  0.00000000000E+00  0.00000000000E+00 -0.23419121801E+04  0.23419121801E+04  0.25500000920E-02 0.  1.
    10030    2    1    2    0    0  0.00000000000E+00  0.00000000000E+00 -0.13120354518E+04  0.33717889084E+04  0.31060462675E+04 0.  0.
        1    1    3    3  502    0 -0.10757849985E+04  0.29316465915E+03 -0.18295349847E+04  0.21425352133E+04  0.50400001928E-02 0.  1.
       -1    1    3    3    0  502  0.10757849985E+04 -0.29316465915E+03  0.51749953281E+03  0.12292536950E+04  0.50400001928E-02 0. -1.
</event>
<event>
 5   0  0.4305500E-08  0.3099052E+04  0.7818609E-02  0.8215998E-01
       -3   -1    0    0    0  501  0.00000000000E+00  0.00000000000E+00  0.17807220198E+04  0.17807220227E+04  0.10100000352E+00 0. -1.
        3   -1    0    0  501    0  0.00000000000E+00  0.00000000000E+00 -0.13483463545E+04  0.13483463583E+04  0.10100000352E+00 0.  1.
    10030    2    1    2    0    0  0.00000000000E+00  0.00000000000E+00  0.43237566530E+03  0.31290683810E+04  0.30990515028E+04 0.  0.
        2    1    3    3  502    0  0.35382569775E+03 -0.29255165085E+03  0.17104720179E+04  0.17710148550E+04  0.25500000920E-02 0. -1.
       -2    1    3    3    0  502 -0.35382569775E+03  0.29255165085E+03 -0.12780963526E+04  0.13580535259E+04  0.25500000920E-02 0.  1.
</event>
<event>
 5   0  0.4305500E-08  0.3100408E+04  0.7818609E-02  0.8215626E-01
        3   -1    0    0  501    0  0.00000000000E+00  0.00000000000E+00  0.14586855924E+04  0.14586855959E+04  0.10100000352E+00 0.  1.
       -3   -1    0    0    0  501  0.00000000000E+00  0.00000000000E+00 -0.16474639805E+04  0.16474639836E+04  0.10100000352E+00 0. -1.
    10030    2    1    2    0    0  0.00000000000E+00  0.00000000000E+00 -0.18877838808E+03  0.31061495795E+04  0.31004077039E+04 0.  0.
        4    1    3    3  502    0  0.58131856696E+03 -0.14017302943E+04 -0.41175856195E+03  0.15723631325E+04  0.12699999809E+01 0. -1.
       -4    1    3    3    0  502 -0.58131856696E+03  0.14017302943E+04  0.22298017387E+03  0.15337864470E+04  0.12699999809E+01 0.  1.
</event>
<event>
 5   0  0.1325713E-07  0.3093515E+04  0.7818609E-02  0.8217520E-01
        2   -1    0    0  501    0  0.00000000000E+00  0.00000000000E+00  0.16322727557E+04  0.16322727557E+04  0.25500000920E-02 0.  1.
       -2   -1    0    0    0  501  0.00000000000E+00  0.00000000000E+00 -0.14657228045E+04  0.14657228045E+04  0.25500000920E-02 0. -1.
    10030    2    1    2    0    0  0.00000000000E+00  0.00000000000E+00  0.16654995113E+03  0.30979955602E+04  0.30935154121E+04 0.  0.
        4    1    3    3  502    0 -0.14244969477E+03 -0.57442009732E+03  0.15144028227E+04  0.16259360030E+04  0.12699999809E+01 0.  1.
       -4    1    3    3    0  502  0.14244969477E+03  0.57442009732E+03 -0.13478528715E+04  0.14720595572E+04  0.12699999809E+01 0. -1.
</event>
<event>
 5   0  0.4450600E-08  0.3099300E+04  0.7818609E-02  0.8215930E-01
       -1   -1    0    0    0  501  0.00000000000E+00  0.00000000000E+00  0.12674525811E+04  0.12674525811E+04  0.50400001928E-02 0. -1.
        1   -1    0    0  501    0  0.00000000000E+00  0.00000000000E+00 -0.18946786461E+04  0.18946786461E+04  0.50400001928E-02 0.  1.
    10030    2    1    2    0    0  0.00000000000E+00  0.00000000000E+00 -0.62722606500E+03  0.31621312272E+04  0.30993001406E+04 0.  0.
        4    1    3    3  502    0 -0.14658697336E+03 -0.11467898852E+04 -0.13664231730E+04  0.17898962769E+04  0.12699999809E+01 0.  1.
       -4    1    3    3    0  502  0.14658697336E+03  0.11467898852E+04  0.73919710795E+03  0.13722349503E+04  0.12699999809E+01 0. -1.
</event>
<event>
 5   0  0.1325713E-07  0.3098887E+04  0.7818609E-02  0.8216043E-01
        2   -1    0    0  501    0  0.00000000000E+00  0.00000000000E+00  0.14168648349E+04  0.14168648349E+04  0.25500000920E-02 0. -1.
       -2   -1    0    0    0  501  0.00000000000E+00  0.00000000000E+00 -0.16944279274E+04  0.16944279274E+04  0.25500000920E-02 0.  1.
    10030    2    1    2    0    0  0.00000000000E+00  0.00000000000E+00 -0.27756309254E+03  0.31112927623E+04  0.30988871200E+04 0.  0.
        4    1    3    3  502    0 -0.11032475427E+04  0.87669631206E+03 -0.78558267558E+03  0.16133484797E+04  0.12699999809E+01 0.  1.
       -4    1    3    3    0  502  0.11032475427E+04 -0.87669631206E+03  0.50801958304E+03  0.14979442826E+04  0.12699999809E+01 0. -1.
</event>
<event>
 5   0  0.4436241E-08  0.3106115E+04  0.7818609E-02  0.8214062E-01
       -1   -1    0    0    0  501  0.00000000000E+00  0.00000000000E+00  0.10630147686E+04  0.10630147686E+04  0.50400001928E-02 0.  1.
        1   -1    0    0  501    0  0.00000000000E+00  0.00000000000E+00 -0.22690065761E+04  0.22690065761E+04  0.50400001928E-02 0. -1.
    10030    2    1    2    0    0  0.00000000000E+00  0.00000000000E+00 -0.12059918075E+04  0.33320213447E+04  0.31061149370E+04 0.  0.
        3    1    3    3  502    0 -0.10990954767E+04 -0.39247936022E+03  0.49619160700E+03  0.12681707441E+04  0.10100000352E+00 0.  1.
       -3    1    3    3    0  502  0.10990954767E+04  0.39247936022E+03 -0.17021834145E+04  0.20638506007E+04  0.10100000352E+00 0. -1.
</event>
<event>
 5   0  0.4450600E-08  0.3100749E+04  0.7818609E-02  0.8215532E-01
       -1   -1    0    0    0  501  0.00000000000E+00  0.00000000000E+00  0.14064953752E+04  0.14064953752E+04  0.50400001928E-02 0.  1.
        1   -1    0    0  501    0  0.00000000000E+00  0.00000000000E+00 -0.17089723319E+04  0.17089723319E+04  0.50400001928E-02 0. -1.
    10030    2    1    2    0    0  0.00000000000E+00  0.00000000000E+00 -0.30247695668E+03  0.31154677071E+04  0.31007493812E+04 0.  0.
        4    1    3    3  502    0 -0.83518612983E+03 -0.84682464886E+03 -0.11504499586E+04  0.16547460765E+04  0.12699999809E+01 0. -1.
       -4    1    3    3    0  502  0.83518612983E+03  0.84682464886E+03  0.84797300194E+03  0.14607216307E+04  0.12699999809E+01 0.  1.
</event>
<event>
 5   0  0.4517409E-08  0.3101290E+04  0.7818609E-02  0.8215384E-01
       -1   -1    0    0    0  501  0.00000000000E+00  0.00000000000E+00  0.13677316824E+04  0.13677316825E+04  0.50400001928E-02 0.  1.
        1   -1    0    0  501    0  0.00000000000E+00  0.00000000000E+00 -0.17580202255E+04  0.17580202255E+04  0.50400001928E-02 0. -1.
    10030    2    1    2    0    0  0.00000000000E+00  0.00000000000E+00 -0.39028854307E+03  0.31257519080E+04  0.31012900289E+04 0.  0.
        2    1    3    3  502    0  0.14594348234E+04  0.42134673732E+03 -0.50907641315E+03  0.16020742403E+04  0.25500000920E-02 0.  1.
       -2    1    3    3    0  502 -0.14594348234E+04 -0.42134673732E+03  0.11878787008E+03  0.15236776677E+04  0.25500000920E-02 0. -1.
</event>
<event>
 5   0  0.1329777E-07  0.3099672E+04  0.7818609E-02  0.8215828E-01
       -2   -1    0    0    0  501  0.00000000000E+00  0.00000000000E+00  0.17988815796E+04  0.17988815796E+04  0.25500000920E-02 0.  1.
        2   -1    0    0  501    0  0.00000000000E+00  0.00000000000E+00 -0.13352693057E+04  0.13352693057E+04  0.25500000920E-02 0. -1.
    10030    2    1    2    0    0  0.00000000000E+00  0.00000000000E+00  0.46361227396E+03  0.31341508853E+04  0.30996718264E+04 0.  0.
        1    1    3    3  502    0 -0.84500432932E+03 -0.86256456592E+03  0.12141797852E+04  0.17123908718E+04  0.50400001928E-02 0.  1.
       -1    1    3    3    0  502  0.84500432932E+03  0.86256456592E+03 -0.75056751127E+03  0.14217600135E+04  0.50400001928E-02 0. -1.
</event>
<event>
 5   0  0.4470354E-08  0.3100884E+04  0.7818609E-02  0.8215495E-01
        1   -1    0    0  501    0  0.00000000000E+00  0.00000000000E+00  0.18494788860E+04  0.18494788860E+04  0.50400001928E-02 0.  1.
       -1   -1    0    0    0  501  0.00000000000E+00  0.00000000000E+00 -0.12997552875E+04  0.12997552876E+04  0.50400001928E-02 0. -1.
    10030    2    1    2    0    0  0.00000000000E+00  0.00000000000E+00  0.54972359841E+03  0.31492341735E+04  0.31008837200E+04 0.  0.
        1    1    3    3  502    0  0.84521291468E+03 -0.12983417707E+04  0.33741550709E+03  0.15855363285E+04  0.50400001928E-02 0. -1.
       -1    1    3    3    0  502 -0.84521291468E+03  0.12983417707E+04  0.21230809132E+03  0.15636978450E+04  0.50400001928E-02 0.  1.
</event>
<event>
 5   0  0.1398931E-07  0.3099842E+04  0.7818609E-02  0.8215781E-01
       -2   -1    0    0    0  501  0.00000000000E+00  0.00000000000E+00  0.14778830089E+04  0.14778830089E+04  0.25500000920E-02 0. -1.
        2   -1    0    0  501    0  0.00000000000E+00  0.00000000000E+00 -0.16254700993E+04  0.16254700993E+04  0.25500000920E-02 0.  1.
    10030    2    1    2    0    0  0.00000000000E+00  0.00000000000E+00 -0.14758709044E+03  0.31033531082E+04  0.30998417000E+04 0.  0.
        3    1    3    3  502    0  0.23408170973E+03 -0.96785019680E+03  0.11152919221E+04  0.14951268615E+04  0.10100000352E+00 0. -1.
       -3    1    3    3    0  502 -0.23408170973E+03  0.96785019680E+03 -0.12628790125E+04  0.16082262467E+04  0.10100000352E+00 0.  1.
</event>
<event>
 5   0  0.1377237E-07  0.3099839E+04  0.7818609E-02  0.8215782E-01
       -2   -1    0    0    0  501  0.00000000000E+00  0.00000000000E+00  0.14310955468E+04  0.14310955468E+04  0.25500000920E-02 0. -1.
        2   -1    0    0  501    0  0.00000000000E+00  0.00000000000E+00 -0.16786094177E+04  0.16786094177E+04  0.25500000920E-02 0.  1.
    10030    2    1    2    0    0  0.00000000000E+00  0.00000000000E+00 -0.24751387095E+03  0.31097049645E+04  0.30998390039E+04 0.  0.
        2    1    3    3  502    0  0.37276682344E+03  0.14560835558E+04 -0.50326778687E+03  0.15850592707E+04  0.25500000920E-02 0.  1.
       -2    1    3    3    0  502 -0.37276682344E+03 -0.14560835558E+04  0.25575391592E+03  0.15246456938E+04  0.25500000920E-02 0. -1.
</event>
<event>
 5   0  0.1325713E-07  0.3100961E+04  0.7818609E-02  0.8215474E-01
       -2   -1    0    0    0  501  0.00000000000E+00  0.00000000000E+00  0.20774483493E+04  0.20774483493E+04  0.25500000920E-02 0.  1.
        2   -1    0    0  501    0  0.00000000000E+00  0.00000000000E+00 -0.11571838490E+04  0.11571838490E+04  0.25500000920E-02 0. -1.
    10030    2    1    2    0    0  0.00000000000E+00  0.00000000000E+00  0.92026450034E+03  0.32346321983E+04  0.31009609330E+04 0.  0.
        4    1    3    3  502    0  0.30491908928E+03 -0.30206002170E+03  0.20142460264E+04  0.20594670610E+04  0.12699999809E+01 0.  1.
       -4    1    3    3    0  502 -0.30491908928E+03  0.30206002170E+03 -0.10939815260E+04  0.11751651373E+04  0.12699999809E+01 0. -1.
</event>
<event>
 5   0  0.4450600E-08  0.3098821E+04  0.7818609E-02  0.8216062E-01
        1   -1    0    0  501    0  0.00000000000E+00  0.00000000000E+00  0.18887373987E+04  0.18887373987E+04  0.50400001928E-02 0.  1.
       -1   -1    0    0    0  501  0.00000000000E+00  0.00000000000E+00 -0.12710464224E+04  0.12710464224E+04  0.50400001928E-02 0. -1.
    10030    2    1    2    0    0  0.00000000000E+00  0.00000000000E+00  0.61769097636E+03  0.31597838211E+04  0.30988210103E+04 0.  0.
        4    1    3    3  502    0  0.72501465138E+03  0.11907948341E+04  0.99818714759E+03  0.17146480036E+04  0.12699999809E+01 0.  1.
       -4    1    3    3    0  502 -0.72501465138E+03 -0.11907948341E+04 -0.38049617123E+03  0.14451358175E+04  0.12699999809E+01 0. -1.
</event>
<event>
 5   0  0.4470354E-08  0.3098346E+04  0.7818609E-02  0.8216192E-01
        1   -1    0    0  501    0  0.00000000000E+00  0.00000000000E+00  0.86698429013E+03  0.86698429015E+03  0.50400001928E-02 0. -1.
       -1   -1    0    0    0  501  0.00000000000E+00  0.00000000000E+00 -0.27681442659E+04  0.27681442659E+04  0.50400001928E-02 0.  1.
    10030    2    1    2    0    0  0.00000000000E+00  0.00000000000E+00 -0.19011599757E+04  0.36351285560E+04  0.30983463921E+04 0.  0.
        1    1    3    3  502    0  0.28545565414E+03  0.10131418949E+04 -0.22841641102E+04  0.25150242766E+04  0.50400001928E-02 0.  1.
       -1    1    3    3    0  502 -0.28545565414E+03 -0.10131418949E+04  0.38300413442E+03  0.11201042794E+04  0.50400001928E-02 0. -1.
</event>
<event>
 5   0  0.1325713E-07  0.3099623E+04  0.7818609E-02  0.8215841E-01
       -2   -1    0    0    0  501  0.00000000000E+00  0.00000000000E+00  0.21741316779E+04  0.21741316779E+04  0.25500000920E-02 0.  1.
        2   -1    0    0  501    0  0.00000000000E+00  0.00000000000E+00 -0.11047698169E+04  0.11047698169E+04  0.25500000920E-02 0. -1.
    10030    2    1    2    0    0  0.00000000000E+00  0.00000000000E+00  0.10693618611E+04  0.32789014948E+04  0.30996225936E+04 0.  0.
        4    1    3    3  502    0 -0.75375562655E+03  0.65350580182E+03 -0.71996068363E+03  0.12302692292E+04  0.12699999809E+01 0. -1.
       -4    1    3    3    0  502  0.75375562655E+03 -0.65350580182E+03  0.17893225447E+04  0.20486322656E+04  0.12699999809E+01 0.  1.
</event>
<event>
 5   0  0.1318916E-07  0.3098280E+04  0.7818609E-02  0.8216210E-01
       -2   -1    0    0    0  501  0.00000000000E+00  0.00000000000E+00  0.11652549605E+04  0.11652549605E+04  0.25500000920E-02 0. -1.
        2   -1    0    0  501    0  0.00000000000E+00  0.00000000000E+00 -0.20594935005E+04  0.20594935005E+04  0.25500000920E-02 0.  1.
    10030    2    1    2    0    0  0.00000000000E+00  0.00000000000E+00 -0.89423853995E+03  0.32247484610E+04  0.30982801795E+04 0.  0.
        5    1    3    3  502    0  0.48391946785E+03  0.16340212661E+03 -0.19693269561E+04  0.20344898762E+04  0.46999998093E+01 0.  1.
       -5    1    3    3    0  502 -0.48391946785E+03 -0.16340212661E+03  0.10750884161E+04  0.11902585848E+04  0.46999998093E+01 0. -1.
</event>
<event>
 5   0  0.4517409E-08  0.3101311E+04  0.7818609E-02  0.8215378E-01
        1   -1    0    0  501    0  0.00000000000E+00  0.00000000000E+00  0.12355446165E+04  0.12355446165E+04  0.50400001928E-02 0.  1.
       -1   -1    0    0    0  501  0.00000000000E+00  0.00000000000E+00 -0.19461322538E+04  0.19461322538E+04  0.50400001928E-02 0. -1.
    10030    2    1    2    0    0  0.00000000000E+00  0.00000000000E+00 -0.71058763736E+03  0.31816768703E+04  0.31013114833E+04 0.  0.
        2    1    3    3  502    0 -0.65904119512E+03  0.90021741840E+03 -0.14601441715E+04  0.18375929089E+04  0.25500000920E-02 0. -1.
       -2    1    3    3    0  502  0.65904119512E+03 -0.90021741840E+03  0.74955653418E+03  0.13440839614E+04  0.25500000920E-02 0.  1.
</event>
<event>
 5   0  0.4436241E-08  0.3100540E+04  0.7818609E-02  0.8215590E-01
        1   -1    0    0  501    0  0.00000000000E+00  0.00000000000E+00  0.18042377250E+04  0.18042377250E+04  0.50400001928E-02 0. -1.
       -1   -1    0    0    0  501  0.00000000000E+00  0.00000000000E+00 -0.13320509891E+04  0.13320509891E+04  0.50400001928E-02 0.  1.
    10030    2    1    2    0    0  0.00000000000E+00  0.00000000000E+00  0.47218673592E+03  0.31362887141E+04  0.31005397247E+04 0.  0.
        3    1    3    3  502    0  0.10687482766E+04  0.11223529978E+04  0.19774176580E+03  0.15623702975E+04  0.10100000352E+00 0.  1.
       -3    1    3    3    0  502 -0.10687482766E+04 -0.11223529978E+04  0.27444497012E+03  0.15739184166E+04  0.10100000352E+00 0. -1.
</event>
<event>
 5   0  0.1377237E-07  0.3084746E+04  0.7818609E-02  0.8219937E-01
        2   -1    0    0  501    0  0.00000000000E+00  0.00000000000E+00  0.12353240000E+04  0.12353240000E+04  0.25500000920E-02 0.  1.
       -2   -1    0    0    0  501  0.00000000000E+00  0.00000000000E+00 -0.19257411254E+04  0.19257411254E+04  0.25500000920E-02 0. -1.
    10030    2    1    2    0    0  0.00000000000E+00  0.00000000000E+00 -0.69041712534E+03  0.31610651254E+04  0.30847458437E+04 0.  0.
        2    1    3    3  502    0  0.16366685479E+03  0.59150394337E+03  0.11048089865E+04  0.12638301512E+04  0.25500000920E-02 0.  1.
       -2    1    3    3    0  502 -0.16366685479E+03 -0.59150394337E+03 -0.17952261119E+04  0.18972349742E+04  0.25500000920E-02 0. -1.
</event>
<event>
 5   0  0.1325713E-07  0.3099451E+04  0.7818609E-02  0.8215889E-01
        2   -1    0    0  501    0  0.00000000000E+00  0.00000000000E+00  0.13364099259E+04  0.13364099259E+04  0.25500000920E-02 0. -1.
       -2   -1    0    0    0  501  0.00000000000E+00  0.00000000000E+00 -0.17970904106E+04  0.17970904106E+04  0.25500000920E-02 0.  1.
    10030    2    1    2    0    0  0.00000000000E+00  0.00000000000E+00 -0.46068048462E+03  0.31335003365E+04  0.30994512175E+04 0.  0.
        4    1    3    3  502    0 -0.11972078375E+04 -0.55056033803E+03  0.59423269489E+03  0.14455232273E+04  0.12699999809E+01 0. -1.
       -4    1    3    3    0  502  0.11972078375E+04  0.55056033803E+03 -0.10549131795E+04  0.16879771092E+04  0.12699999809E+01 0.  1.
</event>
<event>
 5   0  0.4470354E-08  0.3101681E+04  0.7818609E-02  0.8215277E-01
       -1   -1    0    0    0  501  0.00000000000E+00  0.00000000000E+00  0.10654000936E+04  0.10654000936E+04  0.50400001928E-02 0. -1.
        1   -1    0    0  501    0  0.00000000000E+00  0.00000000000E+00 -0.22574674113E+04  0.22574674113E+04  0.50400001928E-02 0.  1.
    10030    2    1    2    0    0  0.00000000000E+00  0.00000000000E+00 -0.11920673177E+04  0.33228675049E+04  0.31016808290E+04 0.  0.
        1    1    3    3  502    0  0.13063442845E+04  0.36736302645E+03 -0.14003135187E+04  0.19499663929E+04  0.50400001928E-02 0.  1.
       -1    1    3    3    0  502 -0.13063442845E+04 -0.36736302645E+03  0.20824620099E+03  0.13729011119E+04  0.50400001928E-02 0. -1.
</event>
<event>
 5   0  0.4470354E-08  0.3100285E+04  0.7818609E-02  0.8215660E-01
       -1   -1    0    0    0  501  0.00000000000E+00  0.00000000000E+00  0.11508429654E+04  0.11508429654E+04  0.50400001928E-02 0.  1.
        1   -1    0    0  501    0  0.00000000000E+00  0.00000000000E+00 -0.20879841595E+04  0.20879841595E+04  0.50400001928E-02 0. -1.
    10030    2    1    2    0    0  0.00000000000E+00  0.00000000000E+00 -0.93714119408E+03  0.32388271249E+04  0.31002850719E+04 0.  0.
        1    1    3    3  502    0  0.14976023822E+04  0.24216280908E+03 -0.80137537259E+03  0.17157092438E+04  0.50400001928E-02 0. -1.
       -1    1    3    3    0  502 -0.14976023822E+04 -0.24216280908E+03 -0.13576582149E+03  0.15231178811E+04  0.50400001928E-02 0.  1.
</event>
<event>
 5   0  0.1398931E-07  0.3079153E+04  0.7818609E-02  0.8221483E-01
       -2   -1    0    0    0  501  0.00000000000E+00  0.00000000000E+00  0.18750638037E+04  0.18750638037E+04  0.25500000920E-02 0.  1.
        2   -1    0    0  501    0  0.00000000000E+00  0.00000000000E+00 -0.12641146096E+04  0.12641146096E+04  0.25500000920E-02 0. -1.
    10030    2    1    2    0    0  0.00000000000E+00  0.00000000000E+00  0.61094919408E+03  0.31391784133E+04  0.30791528369E+04 0.  0.
        3    1    3    3  502    0  0.83235324860E+03  0.74548776115E+03 -0.77429036697E+03  0.13594445612E+04  0.10100000352E+00 0. -1.
       -3    1    3    3    0  502 -0.83235324860E+03 -0.74548776115E+03  0.13852395611E+04  0.17797338521E+04  0.10100000352E+00 0.  1.
</event>
<event>
 5   0  0.4450600E-08  0.3098189E+04  0.7818609E-02  0.8216235E-01
       -1   -1    0    0    0  501  0.00000000000E+00  0.00000000000E+00  0.10669232042E+04  0.10669232042E+04  0.50400001928E-02 0. -1.
        1   -1    0    0  501    0  0.00000000000E+00  0.00000000000E+00 -0.22491719627E+04  0.22491719627E+04  0.50400001928E-02 0.  1.
    10030    2    1    2    0    0  0.00000000000E+00  0.00000000000E+00 -0.11822487585E+04  0.33160951670E+04  0.30981889919E+04 0.  0.
        4    1    3    3  502    0  0.14567794261E+04 -0.13692645234E+03 -0.11355622714E+04  0.18521496794E+04  0.12699999809E+01 0.  1.
       -4    1    3    3    0  502 -0.14567794261E+04  0.13692645234E+03 -0.46686487123E+02  0.14639454876E+04  0.12699999809E+01 0. -1.
</event>
<event>
 5   0  0.4436241E-08  0.3099460E+04  0.7818609E-02  0.8215886E-01
        1   -1    0    0  501    0  0.00000000000E+00  0.00000000000E+00  0.21933677760E+04  0.21933677760E+04  0.50400001928E-02 0. -1.
       -1   -1    0    0    0  501  0.00000000000E+00  0.00000000000E+00 -0.10949662103E+04  0.10949662103E+04  0.50400001928E-02 0.  1.
    10030    2    1    2    0    0  0.00000000000E+00  0.00000000000E+00  0.10984015657E+04  0.32883339863E+04  0.30994603410E+04 0.  0.
        3    1    3    3  502    0 -0.11528490950E+04 -0.14927156684E+03  0.16365042420E+04  0.20073587574E+04  0.10100000352E+00 0. -1.
       -3    1    3    3    0  502  0.11528490950E+04  0.14927156684E+03 -0.53810267631E+03  0.12809752289E+04  0.10100000352E+00 0.  1.
</event>
<event>
 5   0  0.4470354E-08  0.3099891E+04  0.7818609E-02  0.8215768E-01
        1   -1    0    0  501    0  0.00000000000E+00  0.00000000000E+00  0.16103872213E+04  0.16103872213E+04  0.50400001928E-02 0. -1.
       -1   -1    0    0    0  501  0.00000000000E+00  0.00000000000E+00 -0.14917725442E+04  0.14917725442E+04  0.50400001928E-02 0.  1.
    10030    2    1    2    0    0  0.00000000000E+00  0.00000000000E+00  0.11861467711E+03  0.31021597656E+04  0.30998912512E+04 0.  0.
        1    1    3    3  502    0 -0.53929270319E+03  0.12488444258E+04  0.80273888113E+03  0.15795058502E+04  0.50400001928E-02 0. -1.
       -1    1    3    3    0  502  0.53929270319E+03 -0.12488444258E+04 -0.68412420402E+03  0.15226539154E+04  0.50400001928E-02 0.  1.
</event>
<event>
 5   0  0.4436241E-08  0.3100245E+04  0.7818609E-02  0.8215671E-01
       -1   -1    0    0    0  501  0.00000000000E+00  0.00000000000E+00  0.10835458906E+04  0.10835458907E+04  0.50400001928E-02 0. -1.
        1   -1    0    0  501    0  0.00000000000E+00  0.00000000000E+00 -0.22176082842E+04  0.22176082842E+04  0.50400001928E-02 0.  1.
    10030    2    1    2    0    0  0.00000000000E+00  0.00000000000E+00 -0.11340623936E+04  0.33011541749E+04  0.31002453732E+04 0.  0.
        3    1    3    3  502    0  0.10462519222E+04  0.68582806963E+03  0.40764397246E+03  0.13157419368E+04  0.10100000352E+00 0. -1.
       -3    1    3    3    0  502 -0.10462519222E+04 -0.68582806963E+03 -0.15417063660E+04  0.19854122381E+04  0.10100000352E+00 0.  1.
</event>
<event>
 5   0  0.4517409E-08  0.3099310E+04  0.7818609E-02  0.8215927E-01
       -1   -1    0    0    0  501  0.00000000000E+00  0.00000000000E+00  0.11980455750E+04  0.11980455751E+04  0.50400001928E-02 0. -1.
        1   -1    0    0  501    0  0.00000000000E+00  0.00000000000E+00 -0.20044566018E+04  0.20044566018E+04  0.50400001928E-02 0.  1.
    10030    2    1    2    0    0  0.00000000000E+00  0.00000000000E+00 -0.80641102676E+03  0.32025021769E+04  0.30993098343E+04 0.  0.
        2    1    3    3  502    0  0.21028758407E+03 -0.13848687206E+04  0.28169710409E+03  0.14287881228E+04  0.25500000920E-02 0. -1.
       -2    1    3    3    0  502 -0.21028758407E+03  0.13848687206E+04 -0.10881081309E+04  0.17737140541E+04  0.25500000920E-02 0.  1.
</event>
<event>
 5   0  0.4450600E-08  0.3098132E+04  0.7818609E-02  0.8216251E-01
        1   -1    0    0  501    0  0.00000000000E+00  0.00000000000E+00  0.10579416788E+04  0.10579416788E+04  0.50400001928E-02 0.  1.
       -1   -1    0    0    0  501  0.00000000000E+00  0.00000000000E+00 -0.22681833787E+04  0.22681833787E+04  0.50400001928E-02 0. -1.
    10030    2    1    2    0    0  0.00000000000E+00  0.00000000000E+00 -0.12102417000E+04  0.33261250575E+04  0.30981321673E+04 0.  0.
        4    1    3    3  502    0 -0.10812996502E+04  0.42320045457E+03  0.49566098643E+03  0.12625327658E+04  0.12699999809E+01 0.  1.
       -4    1    3    3    0  502  0.10812996502E+04 -0.42320045457E+03 -0.17059026864E+04  0.20635922918E+04  0.12699999809E+01 0. -1.
</event>
<event>
 5   0  0.4470354E-08  0.3101379E+04  0.7818609E-02  0.8215360E-01
        1   -1    0    0  501    0  0.00000000000E+00  0.00000000000E+00  0.17509701862E+04  0.17509701862E+04  0.50400001928E-02 0. -1.
       -1   -1    0    0    0  501  0.00000000000E+00  0.00000000000E+00 -0.13733173826E+04  0.13733173826E+04  0.50400001928E-02 0.  1.
    10030    2    1    2    0    0  0.00000000000E+00  0.00000000000E+00  0.37765280357E+03  0.31242875688E+04  0.31013789147E+04 0.  0.
        1    1    3    3  502    0  0.32236969653E+03 -0.13367711031E+04 -0.53323764162E+03  0.14748632430E+04  0.50400001928E-02 0.  1.
       -1    1    3    3    0  502 -0.32236969653E+03  0.13367711031E+04  0.91089044519E+03  0.16494243257E+04  0.50400001928E-02 0. -1.
</event>
<event>
 5   0  0.4436241E-08  0.3099543E+04  0.7818609E-02  0.8215863E-01
        1   -1    0    0  501    0  0.00000000000E+00  0.00000000000E+00  0.20980763999E+04  0.20980763999E+04  0.50400001928E-02 0. -1.
       -1   -1    0    0    0  501  0.00000000000E+00  0.00000000000E+00 -0.11447586447E+04  0.11447586447E+04  0.50400001928E-02 0.  1.
    10030    2    1    2    0    0  0.00000000000E+00  0.00000000000E+00  0.95331775518E+03  0.32428350446E+04  0.30995426089E+04 0.  0.
        3    1    3    3  502    0  0.37883951618E+03 -0.10555788579E+04 -0.64237955112E+03  0.12924463634E+04  0.10100000352E+00 0.  1.
       -3    1    3    3    0  502 -0.37883951618E+03  0.10555788579E+04  0.15956973063E+04  0.19503886812E+04  0.10100000352E+00 0. -1.
</event>
<event>
 5   0  0.1318916E-07  0.3099134E+04  0.7818609E-02  0.8215976E-01
       -2   -1    0    0    0  501  0.00000000000E+00  0.00000000000E+00  0.12290657213E+04  0.12290657213E+04  0.25500000920E-02 0.  1.
        2   -1    0    0  501    0  0.00000000000E+00  0.00000000000E+00 -0.19536442411E+04  0.19536442411E+04  0.25500000920E-02 0. -1.
    10030    2    1    2    0    0  0.00000000000E+00  0.00000000000E+00 -0.72457851987E+03  0.31827099624E+04  0.30991335359E+04 0.  0.
        5    1    3    3  502    0 -0.54087064429E+03 -0.54149491122E+03 -0.17459837850E+04  0.19063680810E+04  0.46999998093E+01 0. -1.
       -5    1    3    3    0  502  0.54087064429E+03  0.54149491122E+03  0.10214052651E+04  0.12763418814E+04  0.46999998093E+01 0.  1.
</event>
<event>
 5   0  0.1325713E-07  0.3101177E+04  0.7818609E-02  0.8215415E-01
       -2   -1    0    0    0  501  0.00000000000E+00  0.00000000000E+00  0.12862816556E+04  0.12862816556E+04  0.25500000920E-02 0.  1.
        2   -1    0    0  501    0  0.00000000000E+00  0.00000000000E+00 -0.18692053945E+04  0.18692053945E+04  0.25500000920E-02 0. -1.
    10030    2    1    2    0    0  0.00000000000E+00  0.00000000000E+00 -0.58292373892E+03  0.31554870502E+04  0.31011769441E+04 0.  0.
        4    1    3    3  502    0  0.36831314224E+03 -0.95551753319E+03 -0.14761782489E+04  0.17966001677E+04  0.12699999809E+01 0. -1.
       -4    1    3    3    0  502 -0.36831314224E+03  0.95551753319E+03  0.89325450998E+03  0.13588868825E+04  0.12699999809E+01 0.  1.
</event>
<event>
 5   0  0.4838602E-08  0.3097065E+04  0.7818609E-02  0.8216544E-01
       -1   -1    0    0    0  501  0.00000000000E+00  0.00000000000E+00  0.14241191391E+04  0.14241191391E+04  0.50400001928E-02 0.  1.
        1   -1    0    0  501    0  0.00000000000E+00  0.00000000000E+00 -0.16838144128E+04  0.16838144128E+04  0.50400001928E-02 0. -1.
    10030    2    1    2    0    0  0.00000000000E+00  0.00000000000E+00 -0.25969527369E+03  0.31079335520E+04  0.30970646310E+04 0.  0.
        5    1    3    3  502    0  0.13294624318E+04  0.68926423269E+03 -0.52540694688E+03  0.15870192469E+04  0.46999998093E+01 0. -1.
       -5    1    3    3    0  502 -0.13294624318E+04 -0.68926423269E+03  0.26571167319E+03  0.15209143051E+04  0.46999998093E+01 0.  1.
</event>
<event>
 5   0  0.1325713E-07  0.3100738E+04  0.7818609E-02  0.8215535E-01
       -2   -1    0    0    0  501  0.00000000000E+00  0.00000000000E+00  0.11902603458E+04  0.11902603458E+04  0.25500000920E-02 0. -1.
        2   -1    0    0  501    0  0.00000000000E+00  0.00000000000E+00 -0.20194277382E+04  0.20194277382E+04  0.25500000920E-02 0.  1.
    10030    2    1    2    0    0  0.00000000000E+00  0.00000000000E+00 -0.82916739233E+03  0.32096880840E+04  0.31007384656E+04 0.  0.
        4    1    3    3  502    0  0.12086191394E+03 -0.30824566871E+03 -0.19824040825E+04  0.20098633172E+04  0.12699999809E+01 0.  1.
       -4    1    3    3    0  502 -0.12086191394E+03  0.30824566871E+03  0.11532366902E+04  0.11998247668E+04  0.12699999809E+01 0. -1.
</event>
<event>
 5   0  0.4436241E-08  0.3100911E+04  0.7818609E-02  0.8215488E-01
        1   -1    0    0  501    0  0.00000000000E+00  0.00000000000E+00  0.27376350274E+04  0.27376350274E+04  0.50400001928E-02 0.  1.
       -1   -1    0    0    0  501  0.00000000000E+00  0.00000000000E+00 -0.87809831124E+03  0.87809831126E+03  0.50400001928E-02 0. -1.
    10030    2    1    2    0    0  0.00000000000E+00  0.00000000000E+00  0.18595367162E+04  0.36157333387E+04  0.31009112818E+04 0.  0.
        3    1    3    3  502    0  0.41299072255E+03 -0.84452606149E+03 -0.50786122260E+03  0.10685076682E+04  0.10100000352E+00 0. -1.
       -3    1    3    3    0  502 -0.41299072255E+03  0.84452606149E+03  0.23673979388E+04  0.25472256704E+04  0.10100000352E+00 0.  1.
</event>
<event>
 5   0  0.1377237E-07  0.3099686E+04  0.7818609E-02  0.8215824E-01
        2   -1    0    0  501    0  0.00000000000E+00  0.00000000000E+00  0.17106975800E+04  0.17106975800E+04  0.25500000920E-02 0.  1.
       -2   -1    0    0    0  501  0.00000000000E+00  0.00000000000E+00 -0.14041137987E+04  0.14041137987E+04  0.25500000920E-02 0. -1.
    10030    2    1    2    0    0  0.00000000000E+00  0.00000000000E+00  0.30658378138E+03  0.31148113787E+04  0.30996864858E+04 0.  0.
        2    1    3    3  502    0 -0.18035974088E+03 -0.48522264520E+03  0.16212565798E+04  0.17018941063E+04  0.25500000920E-02 0.  1.
       -2    1    3    3    0  502  0.18035974088E+03  0.48522264520E+03 -0.13146727985E+04  0.14129172724E+04  0.25500000920E-02 0. -1.
</event>
<event>
 5   0  0.1329777E-07  0.3100010E+04  0.7818609E-02  0.8215735E-01
        2   -1    0    0  501    0  0.00000000000E+00  0.00000000000E+00  0.24360722630E+04  0.24360722630E+04  0.25500000920E-02 0. -1.
       -2   -1    0    0    0  501  0.00000000000E+00  0.00000000000E+00 -0.98622520493E+03  0.98622520494E+03  0.25500000920E-02 0.  1.
    10030    2    1    2    0    0  0.00000000000E+00  0.00000000000E+00  0.14498470581E+04  0.34222974679E+04  0.31000102366E+04 0.  0.
        1    1    3    3  502    0  0.86431903517E+03  0.12234118958E+04  0.28509174906E+03  0.15248151910E+04  0.50400001928E-02 0. -1.
       -1    1    3    3    0  502 -0.86431903517E+03 -0.12234118958E+04  0.11647553090E+04  0.18974822769E+04  0.50400001928E-02 0.  1.
</event>
<event>
 5   0  0.4450600E-08  0.3100240E+04  0.7818609E-02  0.8215672E-01
       -1   -1    0    0    0  501  0.00000000000E+00  0.00000000000E+00  0.95860842278E+03  0.95860842279E+03  0.50400001928E-02 0.  1.
        1   -1    0    0  501    0  0.00000000000E+00  0.00000000000E+00 -0.25066250704E+04  0.25066250704E+04  0.50400001928E-02 0. -1.
    10030    2    1    2    0    0  0.00000000000E+00  0.00000000000E+00 -0.15480166476E+04  0.34652334932E+04  0.31002399296E+04 0.  0.
        4    1    3    3  502    0  0.97908532315E+03 -0.70282606298E+03 -0.18636082067E+04  0.22193714664E+04  0.12699999809E+01 0. -1.
       -4    1    3    3    0  502 -0.97908532315E+03  0.70282606298E+03  0.31559155907E+03  0.12458620268E+04  0.12699999809E+01 0.  1.
</event>
<event>
 5   0  0.1329777E-07  0.3098780E+04  0.7818609E-02  0.8216073E-01
       -2   -1    0    0    0  501  0.00000000000E+00  0.00000000000E+00  0.25602904071E+04  0.25602904071E+04  0.25500000920E-02 0. -1.
        2   -1    0    0  501    0  0.00000000000E+00  0.00000000000E+00 -0.93763171337E+03  0.93763171337E+03  0.25500000920E-02 0.  1.
    10030    2    1    2    0    0  0.00000000000E+00  0.00000000000E+00  0.16226586937E+04  0.34979221204E+04  0.30987800704E+04 0.  0.
        1    1    3    3  502    0  0.80102298986E+02  0.68061250150E+02 -0.93360230898E+03  0.93950092253E+03  0.50400001928E-02 0.  1.
       -1    1    3    3    0  502 -0.80102298986E+02 -0.68061250150E+02  0.25562610027E+04  0.25584211979E+04  0.50400001928E-02 0. -1.
</event>
<event>
 5   0  0.4517409E-08  0.3098741E+04  0.7818609E-02  0.8216083E-01
        1   -1    0    0  501    0  0.00000000000E+00  0.00000000000E+00  0.18453416737E+04  0.18453416738E+04  0.50400001928E-02 0. -1.
       -1   -1    0    0    0  501  0.00000000000E+00  0.00000000000E+00 -0.13008699895E+04  0.13008699895E+04  0.50400001928E-02 0.  1.
    10030    2    1    2    0    0  0.00000000000E+00  0.00000000000E+00  0.54447168429E+03  0.31462116632E+04  0.30987414243E+04 0.  0.
        2    1    3    3  502    0  0.11941689768E+04  0.49428571436E-02 -0.73005961473E+03  0.13996523091E+04  0.25500000920E-02 0.  1.
       -2    1    3    3    0  502 -0.11941689768E+04 -0.49428571436E-02  0.12745312990E+04  0.17465593541E+04  0.25500000920E-02 0. -1.
</event>
<event>
 5   0  0.1325713E-07  0.3101719E+04  0.7818609E-02  0.8215266E-01
       -2   -1    0    0    0  501  0.00000000000E+00  0.00000000000E+00  0.15238720495E+04  0.15238720495E+04  0.25500000920E-02 0.  1.
        2   -1    0    0  501    0  0.00000000000E+00  0.00000000000E+00 -0.15783253372E+04  0.15783253372E+04  0.25500000920E-02 0. -1.
    10030    2    1    2    0    0  0.00000000000E+00  0.00000000000E+00 -0.54453287657E+02  0.31021973867E+04  0.31017194369E+04 0.  0.
        4    1    3    3  502    0  0.66092589356E+03 -0.10523387816E+03  0.13720125394E+04  0.15265376599E+04  0.12699999809E+01 0.  1.
       -4    1    3    3    0  502 -0.66092589356E+03  0.10523387816E+03 -0.14264658271E+04  0.15756597268E+04  0.12699999809E+01 0. -1.
</event>
<event>
 5   0  0.1398931E-07  0.3100351E+04  0.7818609E-02  0.8215642E-01
        2   -1    0    0  501    0  0.00000000000E+00  0.00000000000E+00  0.20217507670E+04  0.20217507670E+04  0.25500000920E-02 0.  1.
       -2   -1    0    0    0  501  0.00000000000E+00  0.00000000000E+00 -0.11885957778E+04  0.11885957778E+04  0.25500000920E-02 0. -1.
    10030    2    1    2    0    0  0.00000000000E+00  0.00000000000E+00  0.83315498918E+03  0.32103465448E+04  0.31003512223E+04 0.  0.
        3    1    3    3  502    0  0.60511810638E+03 -0.10443834339E+03 -0.10572865735E+04  0.12226733819E+04  0.10100000352E+00 0. -1.
       -3    1    3    3    0  502 -0.60511810638E+03  0.10443834339E+03  0.18904415627E+04  0.19876731629E+04  0.10100000352E+00 0.  1.
</event>
<event>
 5   0  0.4517409E-08  0.3096717E+04  0.7818609E-02  0.8216640E-01
        1   -1    0    0  501    0  0.00000000000E+00  0.00000000000E+00  0.16923720922E+04  0.16923720922E+04  0.50400001928E-02 0.  1.
       -1   -1    0    0    0  501  0.00000000000E+00  0.00000000000E+00 -0.14165994325E+04  0.14165994325E+04  0.50400001928E-02 0. -1.
    10030    2    1    2    0    0  0.00000000000E+00  0.00000000000E+00  0.27577265965E+03  0.31089715247E+04  0.30967165485E+04 0.  0.
        2    1    3    3  502    0 -0.35846974829E+02 -0.32629288711E+03  0.16570372131E+04  0.16892378102E+04  0.25500000920E-02 0.  1.
       -2    1    3    3    0  502  0.35846974829E+02  0.32629288711E+03 -0.13812645534E+04  0.14197337146E+04  0.25500000920E-02 0. -1.
</event>
<event>
 5   0  0.4450600E-08  0.3100889E+04  0.7818609E-02  0.8215494E-01
       -1   -1    0    0    0  501  0.00000000000E+00  0.00000000000E+00  0.12823221119E+04  0.12823221119E+04  0.50400001928E-02 0.  1.
        1   -1    0    0  501    0  0.00000000000E+00  0.00000000000E+00 -0.18746284525E+04  0.18746284525E+04  0.50400001928E-02 0. -1.
    10030    2    1    2    0    0  0.00000000000E+00  0.00000000000E+00 -0.59230634060E+03  0.31569505644E+04  0.31008885928E+04 0.  0.
        4    1    3    3  502    0 -0.32390601863E+03  0.14165794739E+04 -0.84654100431E+03  0.16817389213E+04  0.12699999809E+01 0. -1.
       -4    1    3    3    0  502  0.32390601863E+03 -0.14165794739E+04  0.25423466370E+03  0.14752116430E+04  0.12699999809E+01 0.  1.
</event>
<event>
 5   0  0.4436241E-08  0.3099918E+04  0.7818609E-02  0.8215761E-01
        1   -1    0    0  501    0  0.00000000000E+00  0.00000000000E+00  0.17354603000E+04  0.17354603000E+04  0.50400001928E-02 0. -1.
       -1   -1    0    0    0  501  0.00000000000E+00  0.00000000000E+00 -0.13842853330E+04  0.13842853330E+04  0.50400001928E-02 0.  1.
    10030    2    1    2    0    0  0.00000000000E+00  0.00000000000E+00  0.35117496702E+03  0.31197456330E+04  0.30999175726E+04 0.  0.
        3    1    3    3  502    0 -0.50287781518E+03  0.13678422511E+04  0.70668801183E+03  0.16196562836E+04  0.10100000352E+00 0. -1.
       -3    1    3    3    0  502  0.50287781518E+03 -0.13678422511E+04 -0.35551304481E+03  0.15000893494E+04  0.10100000352E+00 0.  1.
</event>
<event>
 5   0  0.4436241E-08  0.3100274E+04  0.7818609E-02  0.8215663E-01
       -1   -1    0    0    0  501  0.00000000000E+00  0.00000000000E+00  0.12833281638E+04  0.12833281638E+04  0.50400001928E-02 0. -1.
        1   -1    0    0  501    0  0.00000000000E+00  0.00000000000E+00 -0.18724162732E+04  0.18724162732E+04  0.50400001928E-02 0.  1.
    10030    2    1    2    0    0  0.00000000000E+00  0.00000000000E+00 -0.58908810934E+03  0.31557444370E+04  0.31002738832E+04 0.  0.
        3    1    3    3  502    0 -0.17408437656E+03 -0.15108740470E+04  0.10617857215E+02  0.15209071323E+04  0.10100000352E+00 0. -1.
       -3    1    3    3    0  502  0.17408437656E+03  0.15108740470E+04 -0.59970596655E+03  0.16348373046E+04  0.10100000352E+00 0.  1.
</event>
<event>
 5   0  0.1398931E-07  0.3101092E+04  0.7818609E-02  0.8215438E-01
        2   -1    0    0  501    0  0.00000000000E+00  0.00000000000E+00  0.11630494454E+04  0.11630494454E+04  0.25500000920E-02 0. -1.
       -2   -1    0    0    0  501  0.00000000000E+00  0.00000000000E+00 -0.20671459336E+04  0.20671459336E+04  0.25500000920E-02 0.  1.
    10030    2    1    2    0    0  0.00000000000E+00  0.00000000000E+00 -0.90409648814E+03  0.32301953790E+04  0.31010920216E+04 0.  0.
        3    1    3    3  502    0 -0.68949826310E+03  0.40730999959E+03 -0.18350602825E+04  0.20021876888E+04  0.10100000352E+00 0.  1.
       -3    1    3    3    0  502  0.68949826310E+03 -0.40730999959E+03  0.93096379434E+03  0.12280076902E+04  0.10100000352E+00 0. -1.
</event>
<event>
 5   0  0.1318916E-07  0.3100790E+04  0.7818609E-02  0.8215521E-01
       -2   -1    0    0    0  501  0.00000000000E+00  0.00000000000E+00  0.14287994620E+04  0.14287994620E+04  0.25500000920E-02 0. -1.
        2   -1    0    0  501    0  0.00000000000E+00  0.00000000000E+00 -0.16823386119E+04  0.16823386119E+04  0.25500000920E-02 0.  1.
    10030    2    1    2    0    0  0.00000000000E+00  0.00000000000E+00 -0.25353914987E+03  0.31111380738E+04  0.31007899016E+04 0.  0.
        5    1    3    3  502    0  0.79933854889E+03  0.13129657069E+04 -0.32963571223E+03  0.15721014141E+04  0.46999998093E+01 0.  1.
       -5    1    3    3    0  502 -0.79933854889E+03 -0.13129657069E+04  0.76096562363E+02  0.15390366598E+04  0.46999998093E+01 0. -1.
</event>
<event>
 5   0  0.1377237E-07  0.3099619E+04  0.7818609E-02  0.8215842E-01
       -2   -1    0    0    0  501  0.00000000000E+00  0.00000000000E+00  0.13237204352E+04  0.13237204352E+04  0.25500000920E-02 0. -1.
        2   -1    0    0  501    0  0.00000000000E+00  0.00000000000E+00 -0.18145141310E+04  0.18145141310E+04  0.25500000920E-02 0.  1.
    10030    2    1    2    0    0  0.00000000000E+00  0.00000000000E+00 -0.49079369577E+03  0.31382345662E+04  0.30996189670E+04 0.  0.
        2    1    3    3  502    0 -0.12505735732E+04 -0.38425253426E+02  0.68060045159E+03  0.14242990335E+04  0.25500000920E-02 0. -1.
       -2    1    3    3    0  502  0.12505735732E+04  0.38425253426E+02 -0.11713941474E+04  0.17139355328E+04  0.25500000920E-02 0.  1.
</event>
<event>
 5   0  0.4470354E-08  0.3099875E+04  0.7818609E-02  0.8215772E-01
        1   -1    0    0  501    0  0.00000000000E+00  0.00000000000E+00  0.11722097596E+04  0.11722097596E+04  0.50400001928E-02 0.  1.
       -1   -1    0    0    0  501  0.00000000000E+00  0.00000000000E+00 -0.20493821456E+04  0.20493821456E+04  0.50400001928E-02 0. -1.
    10030    2    1    2    0    0  0.00000000000E+00  0.00000000000E+00 -0.87717238603E+03  0.32215919053E+04  0.30998746764E+04 0.  0.
        1    1    3    3  502    0 -0.88552016745E+03  0.11089423611E+03 -0.17555703002E+04  0.19693832988E+04  0.50400001928E-02 0. -1.
       -1    1    3    3    0  502  0.88552016745E+03 -0.11089423611E+03  0.87839791416E+03  0.12522086065E+04  0.50400001928E-02 0.  1.
</event>
<event>
 5   0  0.1377237E-07  0.3100712E+04  0.7818609E-02  0.8215543E-01
       -2   -1    0    0    0  501  0.00000000000E+00  0.00000000000E+00  0.14013105042E+04  0.14013105042E+04  0.25500000920E-02 0.  1.
        2   -1    0    0  501    0  0.00000000000E+00  0.00000000000E+00 -0.17152536587E+04  0.17152536587E+04  0.25500000920E-02 0. -1.
    10030    2    1    2    0    0  0.00000000000E+00  0.00000000000E+00 -0.31394315450E+03  0.31165641630E+04  0.31007115115E+04 0.  0.
        2    1    3    3  502    0 -0.14074735678E+04 -0.22277003973E+03  0.45688371352E+03  0.14964461441E+04  0.25500000920E-02 0.  1.
       -2    1    3    3    0  502  0.14074735678E+04  0.22277003973E+03 -0.77082686802E+03  0.16201180189E+04  0.25500000920E-02 0. -1.
</event>
<event>
 5   0  0.4470354E-08  0.3100476E+04  0.7818609E-02  0.8215607E-01
       -1   -1    0    0    0  501  0.00000000000E+00  0.00000000000E+00  0.13993952942E+04  0.13993952942E+04  0.50400001928E-02 0.  1.
        1   -1    0    0  501    0  0.00000000000E+00  0.00000000000E+00 -0.17173402545E+04  0.17173402545E+04  0.50400001928E-02 0. -1.
    10030    2    1    2    0    0  0.00000000000E+00  0.00000000000E+00 -0.31794496035E+03  0.31167355487E+04  0.31004760091E+04 0.  0.
        1    1    3    3  502    0 -0.55208081920E+03  0.11559913729E+04 -0.10365504348E+04  0.16478914069E+04  0.50400001928E-02 0. -1.
       -1    1    3    3    0  502  0.55208081920E+03 -0.11559913729E+04  0.71860547446E+03  0.14688441418E+04  0.50400001928E-02 0.  1.
</event>
<event>
 5   0  0.4838602E-08  0.3101094E+04  0.7818609E-02  0.8215438E-01
       -1   -1    0    0    0  501  0.00000000000E+00  0.00000000000E+00  0.11601816682E+04  0.11601816683E+04  0.50400001928E-02 0. -1.
        1   -1    0    0  501    0  0.00000000000E+00  0.00000000000E+00 -0.20722581640E+04  0.20722581640E+04  0.50400001928E-02 0.  1.
    10030    2    1    2    0    0  0.00000000000E+00  0.00000000000E+00 -0.91207649570E+03  0.32324398322E+04  0.31010939578E+04 0.  0.
        5    1    3    3  502    0  0.17878819363E+02  0.98265353217E+03  0.79402545970E+03  0.12634975810E+04  0.46999998093E+01 0. -1.
       -5    1    3    3    0  502 -0.17878819363E+02 -0.98265353217E+03 -0.17061019554E+04  0.19689422512E+04  0.46999998093E+01 0.  1.
</event>
<event>
 5   0  0.1325713E-07  0.3102011E+04  0.7818609E-02  0.8215186E-01
       -2   -1    0    0    0  501  0.00000000000E+00  0.00000000000E+00  0.11499756052E+04  0.11499756052E+04  0.25500000920E-02 0.  1.
        2   -1    0    0  501    0  0.00000000000E+00  0.00000000000E+00 -0.20918866778E+04  0.20918866778E+04  0.25500000920E-02 0. -1.
    10030    2    1    2    0    0  0.00000000000E+00  0.00000000000E+00 -0.94191107262E+03  0.32418622829E+04  0.31020113786E+04 0.  0.
        4    1    3    3  502    0 -0.14652925703E+03 -0.12651717684E+03 -0.20792102269E+04  0.20882035819E+04  0.12699999809E+01 0. -1.
       -4    1    3    3    0  502  0.14652925703E+03  0.12651717684E+03  0.11372991543E+04  0.11536587010E+04  0.12699999809E+01 0.  1.
</event>
<event>
 5   0  0.4436241E-08  0.3099865E+04  0.7818609E-02  0.8215775E-01
       -1   -1    0    0    0  501  0.00000000000E+00  0.00000000000E+00  0.27816522758E+04  0.27816522758E+04  0.50400001928E-02 0.  1.
        1   -1    0    0  501    0  0.00000000000E+00  0.00000000000E+00 -0.86362022994E+03  0.86362022995E+03  0.50400001928E-02 0. -1.
    10030    2    1    2    0    0  0.00000000000E+00  0.00000000000E+00  0.19180320459E+04  0.36452725058E+04  0.30998652732E+04 0.  0.
        3    1    3    3  502    0 -0.15797657030E+03  0.40111716175E+03  0.27097297254E+04  0.27438088070E+04  0.10100000352E+00 0.  1.
       -3    1    3    3    0  502  0.15797657030E+03 -0.40111716175E+03 -0.79169767955E+03  0.90146369878E+03  0.10100000352E+00 0. -1.
</event>
<event>
 5   0  0.4305500E-08  0.3102480E+04  0.7818609E-02  0.8215058E-01
       -3   -1    0    0    0  501  0.00000000000E+00  0.00000000000E+00  0.10577238474E+04  0.10577238522E+04  0.10100000352E+00 0.  1.
        3   -1    0    0  501    0  0.00000000000E+00  0.00000000000E+00 -0.22750221564E+04  0.22750221587E+04  0.10100000352E+00 0. -1.
    10030    2    1    2    0    0  0.00000000000E+00  0.00000000000E+00 -0.12172983090E+04  0.33327460109E+04  0.31024797823E+04 0.  0.
        3    1    3    3  502    0 -0.14880180243E+04 -0.43601710986E+03 -0.65712765990E+03  0.16840799661E+04  0.10100000352E+00 0. -1.
       -3    1    3    3    0  502  0.14880180243E+04  0.43601710986E+03 -0.56017064915E+03  0.16486660447E+04  0.10100000352E+00 0.  1.
</event>
<event>
 5   0  0.4470354E-08  0.3100696E+04  0.7818609E-02  0.8215547E-01
        1   -1    0    0  501    0  0.00000000000E+00  0.00000000000E+00  0.13788277953E+04  0.13788277953E+04  0.50400001928E-02 0.  1.
       -1   -1    0    0    0  501  0.00000000000E+00  0.00000000000E+00 -0.17432046784E+04  0.17432046784E+04  0.50400001928E-02 0. -1.
    10030    2    1    2    0    0  0.00000000000E+00  0.00000000000E+00 -0.36437688306E+03  0.31220324737E+04  0.31006960918E+04 0.  0.
        1    1    3    3  502    0 -0.12781971205E+04  0.55665099989E+03  0.50066025402E+03  0.14813199872E+04  0.50400001928E-02 0.  1.
       -1    1    3    3    0  502  0.12781971205E+04 -0.55665099989E+03 -0.86503713708E+03  0.16407124864E+04  0.50400001928E-02 0. -1.
</event>
<event>
 5   0  0.4517409E-08  0.3098963E+04  0.7818609E-02  0.8216023E-01
       -1   -1    0    0    0  501  0.00000000000E+00  0.00000000000E+00  0.17484647896E+04  0.17484647896E+04  0.50400001928E-02 0. -1.
        1   -1    0    0  501    0  0.00000000000E+00  0.00000000000E+00 -0.13731433953E+04  0.13731433953E+04  0.50400001928E-02 0.  1.
    10030    2    1    2    0    0  0.00000000000E+00  0.00000000000E+00  0.37532139430E+03  0.31216081849E+04  0.30989629735E+04 0.  0.
        2    1    3    3  502    0 -0.73585733444E+03  0.12882129196E+04 -0.26272435857E+03  0.15066527906E+04  0.25500000920E-02 0.  1.
       -2    1    3    3    0  502  0.73585733444E+03 -0.12882129196E+04  0.63804575287E+03  0.16149553943E+04  0.25500000920E-02 0. -1.
</event>
<event>
 5   0  0.4450600E-08  0.3090327E+04  0.7818609E-02  0.8218398E-01
       -1   -1    0    0    0  501  0.00000000000E+00  0.00000000000E+00  0.21431140160E+04  0.21431140160E+04  0.50400001928E-02 0. -1.
        1   -1    0    0  501    0  0.00000000000E+00  0.00000000000E+00 -0.11140471440E+04  0.11140471440E+04  0.50400001928E-02 0.  1.
    10030    2    1    2    0    0  0.00000000000E+00  0.00000000000E+00  0.10290668720E+04  0.32571611600E+04  0.30903268751E+04 0.  0.
        4    1    3    3  502    0 -0.68869532174E+03  0.56941521976E+03  0.18431384547E+04  0.20483397947E+04  0.12699999809E+01 0. -1.
       -4    1    3    3    0  502  0.68869532174E+03 -0.56941521976E+03 -0.81407158262E+03  0.12088213653E+04  0.12699999809E+01 0.  1.
</event>
<event>
 5   0  0.4305500E-08  0.3100768E+04  0.7818609E-02  0.8215527E-01
        3   -1    0    0  501    0  0.00000000000E+00  0.00000000000E+00  0.87185255385E+03  0.87185255970E+03  0.10100000352E+00 0. -1.
       -3   -1    0    0    0  501  0.00000000000E+00  0.00000000000E+00 -0.27569917885E+04  0.27569917904E+04  0.10100000352E+00 0.  1.
    10030    2    1    2    0    0  0.00000000000E+00  0.00000000000E+00 -0.18851392347E+04  0.36288443501E+04  0.31007678699E+04 0.  0.
        2    1    3    3  502    0 -0.65290782648E+03 -0.94399364835E+03  0.27717670964E+03  0.11807792200E+04  0.25500000920E-02 0. -1.
       -2    1    3    3    0  502  0.65290782648E+03  0.94399364835E+03 -0.21623159443E+04  0.24480651301E+04  0.25500000920E-02 0.  1.
</event>
<event>
 5   0  0.1329777E-07  0.3100693E+04  0.7818609E-02  0.8215548E-01
        2   -1    0    0  501    0  0.00000000000E+00  0.00000000000E+00  0.21781064334E+04  0.21781064334E+04  0.25500000920E-02 0.  1.
       -2   -1    0    0    0  501  0.00000000000E+00  0.00000000000E+00 -0.11035155380E+04  0.11035155380E+04  0.25500000920E-02 0. -1.
    10030    2    1    2    0    0  0.00000000000E+00  0.00000000000E+00  0.10745908955E+04  0.32816219714E+04  0.31006930145E+04 0.  0.
        1    1    3    3  502    0 -0.12629481815E+04 -0.88220496472E+03  0.35321966386E+03  0.15805340363E+04  0.50400001928E-02 0. -1.
       -1    1    3    3    0  502  0.12629481815E+04  0.88220496472E+03  0.72137123160E+03  0.17010879351E+04  0.50400001928E-02 0.  1.
</event>
<event>
 5   0  0.4517409E-08  0.3100696E+04  0.7818609E-02  0.8215547E-01
        1   -1    0    0  501    0  0.00000000000E+00  0.00000000000E+00  0.18338090725E+04  0.18338090725E+04  0.50400001928E-02 0. -1.
       -1   -1    0    0    0  501  0.00000000000E+00  0.00000000000E+00 -0.13107029427E+04  0.13107029427E+04  0.50400001928E-02 0.  1.
    10030    2    1    2    0    0  0.00000000000E+00  0.00000000000E+00  0.52310612984E+03  0.31445120152E+04  0.31006960171E+04 0.  0.
        2    1    3    3  502    0 -0.59550308277E+03 -0.70175171797E+03 -0.10036742729E+04  0.13617787784E+04  0.25500000920E-02 0.  1.
       -2    1    3    3    0  502  0.59550308277E+03  0.70175171797E+03  0.15267804027E+04  0.17827332368E+04  0.25500000920E-02 0. -1.
</event>
<event>
 5   0  0.1398931E-07  0.3099981E+04  0.7818609E-02  0.8215743E-01
       -2   -1    0    0    0  501  0.00000000000E+00  0.00000000000E+00  0.80974383691E+03  0.80974383692E+03  0.25500000920E-02 0. -1.
        2   -1    0    0  501    0  0.00000000000E+00  0.00000000000E+00 -0.29669504119E+04  0.29669504119E+04  0.25500000920E-02 0.  1.
    10030    2    1    2    0    0  0.00000000000E+00  0.00000000000E+00 -0.21572065750E+04  0.37766942488E+04  0.30999805228E+04 0.  0.
        3    1    3    3  502    0 -0.11772046593E+04  0.95704387520E+03 -0.14652583315E+04  0.21092002696E+04  0.10100000352E+00 0.  1.
       -3    1    3    3    0  502  0.11772046593E+04 -0.95704387520E+03 -0.69194824343E+03  0.16674939792E+04  0.10100000352E+00 0. -1.
</event>
<event>
 5   0  0.4450600E-08  0.3099154E+04  0.7818609E-02  0.8215970E-01
        1   -1    0    0  501    0  0.00000000000E+00  0.00000000000E+00  0.24465821242E+04  0.24465821242E+04  0.50400001928E-02 0.  1.
       -1   -1    0    0    0  501  0.00000000000E+00  0.00000000000E+00 -0.98144652125E+03  0.98144652127E+03  0.50400001928E-02 0. -1.
    10030    2    1    2    0    0  0.00000000000E+00  0.00000000000E+00  0.14651356029E+04  0.34280286455E+04  0.30991544103E+04 0.  0.
        4    1    3    3  502    0 -0.22629578100E+03  0.15255808021E+04  0.56635056392E+03  0.16429732616E+04  0.12699999809E+01 0. -1.
       -4    1    3    3    0  502  0.22629578100E+03 -0.15255808021E+04  0.89878503901E+03  0.17850553839E+04  0.12699999809E+01 0.  1.
</event>
<event>
 5   0  0.1329777E-07  0.3098135E+04  0.7818609E-02  0.8216250E-01
        2   -1    0    0  501    0  0.00000000000E+00  0.00000000000E+00  0.19572515181E+04  0.19572515181E+04  0.25500000920E-02 0.  1.
       -2   -1    0    0    0  501  0.00000000000E+00  0.00000000000E+00 -0.12260101583E+04  0.12260101584E+04  0.25500000920E-02 0. -1.
    10030    2    1    2    0    0  0.00000000000E+00  0.00000000000E+00  0.73124135979E+03  0.31832616765E+04  0.30981350801E+04 0.  0.
        1    1    3    3  502    0  0.14287181967E+04  0.31338040398E+03  0.88970157752E+03  0.17120198188E+04  0.50400001928E-02 0. -1.
       -1    1    3    3    0  502 -0.14287181967E+04 -0.31338040398E+03 -0.15846021774E+03  0.14712418576E+04  0.50400001928E-02 0.  1.
</event>
<event>
 5   0  0.4436241E-08  0.3101274E+04  0.7818609E-02  0.8215388E-01
       -1   -1    0    0    0  501  0.00000000000E+00  0.00000000000E+00  0.10476086798E+04  0.10476086798E+04  0.50400001928E-02 0.  1.
        1   -1    0    0  501    0  0.00000000000E+00  0.00000000000E+00 -0.22952040477E+04  0.22952040477E+04  0.50400001928E-02 0. -1.
    10030    2    1    2    0    0  0.00000000000E+00  0.00000000000E+00 -0.12475953679E+04  0.33428127274E+04  0.31012743717E+04 0.  0.
        3    1    3    3  502    0  0.15328875873E+04 -0.35196370044E+02 -0.87309547755E+03  0.17644486003E+04  0.10100000352E+00 0. -1.
       -3    1    3    3    0  502 -0.15328875873E+04  0.35196370044E+02 -0.37449989033E+03  0.15783641272E+04  0.10100000352E+00 0.  1.
</event>
<event>
 5   0  0.1325713E-07  0.3103901E+04  0.7818609E-02  0.8214668E-01
        2   -1    0    0  501    0  0.00000000000E+00  0.00000000000E+00  0.18316163582E+04  0.18316163582E+04  0.25500000920E-02 0. -1.
       -2   -1    0    0    0  501  0.00000000000E+00  0.00000000000E+00 -0.13149858657E+04  0.13149858657E+04  0.25500000920E-02 0.  1.
    10030    2    1    2    0    0  0.00000000000E+00  0.00000000000E+00  0.51663049252E+03  0.31466022239E+04  0.31039005283E+04 0.  0.
        4    1    3    3  502    0  0.42992260623E+03 -0.14872800252E+04  0.14860117027E+03  0.15552875109E+04  0.12699999809E+01 0. -1.
       -4    1    3    3    0  502 -0.42992260623E+03  0.14872800252E+04  0.36802932226E+03  0.15913147130E+04  0.12699999809E+01 0.  1.
</event>
<event>
 5   0  0.1325713E-07  0.3099627E+04  0.7818609E-02  0.8215840E-01
       -2   -1    0    0    0  501  0.00000000000E+00  0.00000000000E+00  0.18380107998E+04  0.18380107998E+04  0.25500000920E-02 0. -1.
        2   -1    0    0  501    0  0.00000000000E+00  0.00000000000E+00 -0.13068052141E+04  0.13068052141E+04  0.25500000920E-02 0.  1.
    10030    2    1    2    0    0  0.00000000000E+00  0.00000000000E+00  0.53120558569E+03  0.31448160139E+04  0.30996271368E+04 0.  0.
        4    1    3    3  502    0 -0.13969041766E+04  0.17057381137E+03 -0.39307985260E+03  0.14611468397E+04  0.12699999809E+01 0.  1.
       -4    1    3    3    0  502  0.13969041766E+04 -0.17057381137E+03  0.92428543829E+03  0.16836691742E+04  0.12699999809E+01 0. -1.
</event>
<event>
 5   0  0.1318916E-07  0.3102637E+04  0.7818609E-02  0.8215015E-01
        2   -1    0    0  501    0  0.00000000000E+00  0.00000000000E+00  0.25262587242E+04  0.25262587242E+04  0.25500000920E-02 0. -1.
       -2   -1    0    0    0  501  0.00000000000E+00  0.00000000000E+00 -0.95262985929E+03  0.95262985929E+03  0.25500000920E-02 0.  1.
    10030    2    1    2    0    0  0.00000000000E+00  0.00000000000E+00  0.15736288649E+04  0.34788885835E+04  0.31026372608E+04 0.  0.
        5    1    3    3  502    0 -0.14383250176E+04  0.52261555411E+03  0.10719375969E+04  0.18684159535E+04  0.46999998093E+01 0. -1.
       -5    1    3    3    0  502  0.14383250176E+04 -0.52261555411E+03  0.50169126802E+03  0.16104726300E+04  0.46999998093E+01 0.  1.
</event>
<event>
 5   0  0.1377237E-07  0.3099261E+04  0.7818609E-02  0.8215941E-01
        2   -1    0    0  501    0  0.00000000000E+00  0.00000000000E+00  0.19223962062E+04  0.19223962062E+04  0.25500000920E-02 0.  1.
       -2   -1    0    0    0  501  0.00000000000E+00  0.00000000000E+00 -0.12491466377E+04  0.12491466377E+04  0.25500000920E-02 0. -1.
    10030    2    1    2    0    0  0.00000000000E+00  0.00000000000E+00  0.67324956846E+03  0.31715428439E+04  0.30992610457E+04 0.  0.
        2    1    3    3  502    0  0.45078798220E+03 -0.63767845101E+03 -0.10330648912E+04  0.12950160930E+04  0.25500000920E-02 0. -1.
       -2    1    3    3    0  502 -0.45078798220E+03  0.63767845101E+03  0.17063144596E+04  0.18765267509E+04  0.25500000920E-02 0.  1.
</event>
<event>
 5   0  0.1398931E-07  0.3101547E+04  0.7818609E-02  0.8215313E-01
        2   -1    0    0  501    0  0.00000000000E+00  0.00000000000E+00  0.20784893247E+04  0.20784893247E+04  0.25500000920E-02 0. -1.
       -2   -1    0    0    0  501  0.00000000000E+00  0.00000000000E+00 -0.11570415061E+04  0.11570415061E+04  0.25500000920E-02 0.  1.
    10030    2    1    2    0    0  0.00000000000E+00  0.00000000000E+00  0.92144781854E+03  0.32355308308E+04  0.31015469809E+04 0.  0.
        3    1    3    3  502    0 -0.51895506020E+03  0.94524328558E+03  0.16233640600E+04  0.19488740608E+04  0.10100000352E+00 0. -1.
       -3    1    3    3    0  502  0.51895506020E+03 -0.94524328558E+03 -0.70191624149E+03  0.12866567700E+04  0.10100000352E+00 0.  1.
</event>
<event>
 5   0  0.1398931E-07  0.3099825E+04  0.7818609E-02  0.8215786E-01
        2   -1    0    0  501    0  0.00000000000E+00  0.00000000000E+00  0.15693610784E+04  0.15693610784E+04  0.25500000920E-02 0.  1.
       -2   -1    0    0    0  501  0.00000000000E+00  0.00000000000E+00 -0.15307047975E+04  0.15307047975E+04  0.25500000920E-02 0. -1.
    10030    2    1    2    0    0  0.00000000000E+00  0.00000000000E+00  0.38656280816E+02  0.31000658759E+04  0.30998248542E+04 0.  0.
        3    1    3    3  502    0  0.80457093774E+03 -0.46264262895E+03 -0.12220805547E+04  0.15345531885E+04  0.10100000352E+00 0. -1.
       -3    1    3    3    0  502 -0.80457093774E+03  0.46264262895E+03  0.12607368355E+04  0.15655126874E+04  0.10100000352E+00 0.  1.
</event>
<event>
 5   0  0.1377237E-07  0.3099183E+04  0.7818609E-02  0.8215962E-01
        2   -1    0    0  501    0  0.00000000000E+00  0.00000000000E+00  0.19771498157E+04  0.19771498157E+04  0.25500000920E-02 0.  1.
       -2   -1    0    0    0  501  0.00000000000E+00  0.00000000000E+00 -0.12144925800E+04  0.12144925800E+04  0.25500000920E-02 0. -1.
    10030    2    1    2    0    0  0.00000000000E+00  0.00000000000E+00  0.76265723577E+03  0.31916423957E+04  0.30991829766E+04 0.  0.
        2    1    3    3  502    0 -0.21334195488E+03  0.14818069319E+04 -0.30562559317E+02  0.14973979575E+04  0.25500000920E-02 0.  1.
       -2    1    3    3    0  502  0.21334195488E+03 -0.14818069319E+04  0.79321979509E+03  0.16942444382E+04  0.25500000920E-02 0. -1.
</event>
<event>
 5   0  0.4517409E-08  0.3089606E+04  0.7818609E-02  0.8218596E-01
       -1   -1    0    0    0  501  0.00000000000E+00  0.00000000000E+00  0.12003725538E+04  0.12003725538E+04  0.50400001928E-02 0. -1.
        1   -1    0    0  501    0  0.00000000000E+00  0.00000000000E+00 -0.19880636796E+04  0.19880636796E+04  0.50400001928E-02 0.  1.
    10030    2    1    2    0    0  0.00000000000E+00  0.00000000000E+00 -0.78769112584E+03  0.31884362335E+04  0.30896064968E+04 0.  0.
        2    1    3    3  502    0 -0.11902570108E+04  0.92266445400E+03 -0.38752324739E+02  0.15064936737E+04  0.25500000920E-02 0.  1.
       -2    1    3    3    0  502  0.11902570108E+04 -0.92266445400E+03 -0.74893880110E+03  0.16819425597E+04  0.25500000920E-02 0. -1.
</event>
<event>
 5   0  0.1398931E-07  0.3099935E+04  0.7818609E-02  0.8215756E-01
       -2   -1    0    0    0  501  0.00000000000E+00  0.00000000000E+00  0.25139417478E+04  0.25139417478E+04  0.25500000920E-02 0.  1.
        2   -1    0    0  501    0  0.00000000000E+00  0.00000000000E+00 -0.95563063503E+03  0.95563063503E+03  0.25500000920E-02 0. -1.
    10030    2    1    2    0    0  0.00000000000E+00  0.00000000000E+00  0.15583111127E+04  0.34695723828E+04  0.30999353212E+04 0.  0.
        3    1    3    3  502    0 -0.12307761800E+04  0.89980764552E+03  0.46669716436E+03  0.15944497664E+04  0.10100000352E+00 0.  1.
       -3    1    3    3    0  502  0.12307761800E+04 -0.89980764552E+03  0.10916139484E+04  0.18751226164E+04  0.10100000352E+00 0. -1.
</event>
<event>
 5   0  0.4470354E-08  0.3099722E+04  0.7818609E-02  0.8215814E-01
       -1   -1    0    0    0  501  0.00000000000E+00  0.00000000000E+00  0.17346337009E+04  0.17346337009E+04  0.50400001928E-02 0.  1.
        1   -1    0    0  501    0  0.00000000000E+00  0.00000000000E+00 -0.13847706493E+04  0.13847706493E+04  0.50400001928E-02 0. -1.
    10030    2    1    2    0    0  0.00000000000E+00  0.00000000000E+00  0.34986305159E+03  0.31194043502E+04  0.30997224626E+04 0.  0.
        1    1    3    3  502    0  0.14996208480E+04  0.33056702022E+03 -0.36000383766E+02  0.15360446837E+04  0.50400001928E-02 0. -1.
       -1    1    3    3    0  502 -0.14996208480E+04 -0.33056702022E+03  0.38586343536E+03  0.15833596665E+04  0.50400001928E-02 0.  1.
</event>
<event>
 5   0  0.1329777E-07  0.3101583E+04  0.7818609E-02  0.8215304E-01
        2   -1    0    0  501    0  0.00000000000E+00  0.00000000000E+00  0.17829554206E+04  0.17829554206E+04  0.25500000920E-02 0. -1.
       -2   -1    0    0    0  501  0.00000000000E+00  0.00000000000E+00 -0.13488582033E+04  0.13488582033E+04  0.25500000920E-02 0.  1.
    10030    2    1    2    0    0  0.00000000000E+00  0.00000000000E+00  0.43409721731E+03  0.31318136240E+04  0.31015828509E+04 0.  0.
        1    1    3    3  502    0 -0.12221981904E+04  0.27121790923E+03 -0.70709128833E+03  0.14378128045E+04  0.50400001928E-02 0.  1.
       -1    1    3    3    0  502  0.12221981904E+04 -0.27121790923E+03  0.11411885056E+04  0.16940008194E+04  0.50400001928E-02 0. -1.
</event>
<event>
 5   0  0.1377237E-07  0.3099482E+04  0.7818609E-02  0.8215880E-01
        2   -1    0    0  501    0  0.00000000000E+00  0.00000000000E+00  0.22623198321E+04  0.22623198321E+04  0.25500000920E-02 0.  1.
       -2   -1    0    0    0  501  0.00000000000E+00  0.00000000000E+00 -0.10616080091E+04  0.10616080091E+04  0.25500000920E-02 0. -1.
    10030    2    1    2    0    0  0.00000000000E+00  0.00000000000E+00  0.12007118230E+04  0.33239278412E+04  0.30994817972E+04 0.  0.
        2    1    3    3  502    0  0.13191530230E+03  0.10086493379E+03  0.22527512641E+04  0.22588633513E+04  0.25500000920E-02 0.  1.
       -2    1    3    3    0  502 -0.13191530230E+03 -0.10086493379E+03 -0.10520394411E+04  0.10650644899E+04  0.25500000920E-02 0. -1.
</event>
<event>
 5   0  0.4517409E-08  0.3096380E+04  0.7818609E-02  0.8216732E-01
        1   -1    0    0  501    0  0.00000000000E+00  0.00000000000E+00  0.20182792300E+04  0.20182792300E+04  0.50400001928E-02 0.  1.
       -1   -1    0    0    0  501  0.00000000000E+00  0.00000000000E+00 -0.11875918051E+04  0.11875918051E+04  0.50400001928E-02 0. -1.
    10030    2    1    2    0    0  0.00000000000E+00  0.00000000000E+00  0.83068742488E+03  0.32058710351E+04  0.30963797402E+04 0.  0.
        2    1    3    3  502    0 -0.56946868011E+03  0.37676483311E+03  0.18539538139E+04  0.19757001445E+04  0.25500000920E-02 0.  1.
       -2    1    3    3    0  502  0.56946868011E+03 -0.37676483311E+03 -0.10232663890E+04  0.12301708906E+04  0.25500000920E-02 0. -1.
</event>
<event>
 5   0  0.1318916E-07  0.3101975E+04  0.7818609E-02  0.8215196E-01
       -2   -1    0    0    0  501  0.00000000000E+00  0.00000000000E+00  0.86915035300E+03  0.86915035300E+03  0.25500000920E-02 0. -1.
        2   -1    0    0  501    0  0.00000000000E+00  0.00000000000E+00 -0.27677162960E+04  0.27677162960E+04  0.25500000920E-02 0.  1.
    10030    2    1    2    0    0  0.00000000000E+00  0.00000000000E+00 -0.18985659430E+04  0.36368666490E+04  0.31019745941E+04 0.  0.
        5    1    3    3  502    0  0.91333706008E+03  0.63602465578E+03  0.31717995050E+03  0.11572973512E+04  0.46999998093E+01 0. -1.
       -5    1    3    3    0  502 -0.91333706008E+03 -0.63602465578E+03 -0.22157458935E+04  0.24795692978E+04  0.46999998093E+01 0.  1.
</event>
<event>
 5   0  0.4436241E-08  0.3117857E+04  0.7818609E-02  0.8210854E-01
       -1   -1    0    0    0  501  0.00000000000E+00  0.00000000000E+00  0.12071271040E+04  0.12071271040E+04  0.50400001928E-02 0. -1.
        1   -1    0    0  501    0  0.00000000000E+00  0.00000000000E+00 -0.20132584049E+04  0.20132584049E+04  0.50400001928E-02 0.  1.
    10030    2    1    2    0    0  0.00000000000E+00  0.00000000000E+00 -0.80613130092E+03  0.32203855090E+04  0.31178574618E+04 0.  0.
        3    1    3    3  502    0  0.68348503212E+03  0.13008659292E+04  0.13448562105E+03  0.14756321857E+04  0.10100000352E+00 0. -1.
       -3    1    3    3    0  502 -0.68348503212E+03 -0.13008659292E+04 -0.94061692197E+03  0.17447533233E+04  0.10100000352E+00 0.  1.
</event>
<event>
 5   0  0.4436241E-08  0.3099602E+04  0.7818609E-02  0.8215847E-01
        1   -1    0    0  501    0  0.00000000000E+00  0.00000000000E+00  0.12095969987E+04  0.12095969987E+04  0.50400001928E-02 0. -1.
       -1   -1    0    0    0  501  0.00000000000E+00  0.00000000000E+00 -0.19856881525E+04  0.19856881525E+04  0.50400001928E-02 0.  1.
    10030    2    1    2    0    0  0.00000000000E+00  0.00000000000E+00 -0.77609115384E+03  0.31952851512E+04  0.30996015419E+04 0.  0.
        3    1    3    3  502    0  0.15324022731E+03 -0.10787489632E+04  0.74811146035E+03  0.13216855376E+04  0.10100000352E+00 0.  1.
       -3    1    3    3    0  502 -0.15324022731E+03  0.10787489632E+04 -0.15242026142E+04  0.18735996136E+04  0.10100000352E+00 0. -1.
</event>
<event>
 5   0  0.4450600E-08  0.3100443E+04  0.7818609E-02  0.8215616E-01
        1   -1    0    0  501    0  0.00000000000E+00  0.00000000000E+00  0.17746106772E+04  0.17746106772E+04  0.50400001928E-02 0. -1.
       -1   -1    0    0    0  501  0.00000000000E+00  0.00000000000E+00 -0.13542050729E+04  0.13542050729E+04  0.50400001928E-02 0.  1.
    10030    2    1    2    0    0  0.00000000000E+00  0.00000000000E+00  0.42040560424E+03  0.31288157501E+04  0.31004430532E+04 0.  0.
        4    1    3    3  502    0  0.80606280954E+02 -0.11472422110E+04  0.12591974183E+04  0.17053567997E+04  0.12699999809E+01 0. -1.
       -4    1    3    3    0  502 -0.80606280954E+02  0.11472422110E+04 -0.83879181404E+03  0.14234589504E+04  0.12699999809E+01 0.  1.
</event>
<event>
 5   0  0.1325713E-07  0.3100877E+04  0.7818609E-02  0.8215497E-01
       -2   -1    0    0    0  501  0.00000000000E+00  0.00000000000E+00  0.12620488011E+04  0.12620488011E+04  0.25500000920E-02 0.  1.
        2   -1    0    0  501    0  0.00000000000E+00  0.00000000000E+00 -0.19047282628E+04  0.19047282628E+04  0.25500000920E-02 0. -1.
    10030    2    1    2    0    0  0.00000000000E+00  0.00000000000E+00 -0.64267946168E+03  0.31667770639E+04  0.31008773085E+04 0.  0.
        4    1    3    3  502    0 -0.10749854354E+04 -0.28916942539E+03 -0.14234621420E+04  0.18070580305E+04  0.12699999809E+01 0. -1.
       -4    1    3    3    0  502  0.10749854354E+04  0.28916942539E+03  0.78078268033E+03  0.13597190334E+04  0.12699999809E+01 0.  1.
</event>
<event>
 5   0  0.1377237E-07  0.3101189E+04  0.7818609E-02  0.8215412E-01
       -2   -1    0    0    0  501  0.00000000000E+00  0.00000000000E+00  0.18321836133E+04  0.18321836133E+04  0.25500000920E-02 0. -1.
        2   -1    0    0  501    0  0.00000000000E+00  0.00000000000E+00 -0.13122831356E+04  0.13122831356E+04  0.25500000920E-02 0.  1.
    10030    2    1    2    0    0  0.00000000000E+00  0.00000000000E+00  0.51990047766E+03  0.31444667489E+04  0.31011892280E+04 0.  0.
        2    1    3    3  502    0  0.11747119232E+04 -0.34969025694E+03  0.12230006853E+04  0.17314624034E+04  0.25500000920E-02 0. -1.
       -2    1    3    3    0  502 -0.11747119232E+04  0.34969025694E+03 -0.70310020761E+03  0.14130043454E+04  0.25500000920E-02 0.  1.
</event>
<event>
 5   0  0.1325713E-07  0.3099490E+04  0.7818609E-02  0.8215878E-01
       -2   -1    0    0    0  501  0.00000000000E+00  0.00000000000E+00  0.13486425035E+04  0.13486425035E+04  0.25500000920E-02 0.  1.
        2   -1    0    0  501    0  0.00000000000E+00  0.00000000000E+00 -0.17808346245E+04  0.17808346245E+04  0.25500000920E-02 0. -1.
    10030    2    1    2    0    0  0.00000000000E+00  0.00000000000E+00 -0.43219212105E+03  0.31294771280E+04  0.30994898073E+04 0.  0.
        4    1    3    3  502    0 -0.88866913190E+03 -0.11027592176E+04 -0.85138696765E+03  0.16524745382E+04  0.12699999809E+01 0. -1.
       -4    1    3    3    0  502  0.88866913190E+03  0.11027592176E+04  0.41919484660E+03  0.14770025898E+04  0.12699999809E+01 0.  1.
</event>
<event>
 5   0  0.1329777E-07  0.3098423E+04  0.7818609E-02  0.8216171E-01
       -2   -1    0    0    0  501  0.00000000000E+00  0.00000000000E+00  0.17410506451E+04  0.17410506451E+04  0.25500000920E-02 0.  1.
        2   -1    0    0  501    0  0.00000000000E+00  0.00000000000E+00 -0.13785107513E+04  0.13785107513E+04  0.25500000920E-02 0. -1.
    10030    2    1    2    0    0  0.00000000000E+00  0.00000000000E+00  0.36253989382E+03  0.31195613965E+04  0.30984234913E+04 0.  0.
        1    1    3    3  502    0 -0.16621594234E+03 -0.70604801282E+03 -0.11969829721E+04  0.13996070060E+04  0.50400001928E-02 0. -1.
       -1    1    3    3    0  502  0.16621594234E+03  0.70604801282E+03  0.15595228659E+04  0.17199543904E+04  0.50400001928E-02 0.  1.
</event>
<event>
 5   0  0.1398931E-07  0.3100136E+04  0.7818609E-02  0.8215701E-01
       -2   -1    0    0    0  501  0.00000000000E+00  0.00000000000E+00  0.13586222763E+04  0.13586222763E+04  0.25500000920E-02 0.  1.
        2   -1    0    0  501    0  0.00000000000E+00  0.00000000000E+00 -0.17684910219E+04  0.17684910219E+04  0.25500000920E-02 0. -1.
    10030    2    1    2    0    0  0.00000000000E+00  0.00000000000E+00 -0.40986874552E+03  0.31271132982E+04  0.31001363182E+04 0.  0.
        3    1    3    3  502    0  0.13175217059E+03  0.75078955727E+03 -0.15663709164E+04  0.17419992685E+04  0.10100000352E+00 0. -1.
       -3    1    3    3    0  502 -0.13175217059E+03 -0.75078955727E+03  0.11565021709E+04  0.13851140297E+04  0.10100000352E+00 0.  1.
</event>
<event>
 5   0  0.4470354E-08  0.3100841E+04  0.7818609E-02  0.8215507E-01
       -1   -1    0    0    0  501  0.00000000000E+00  0.00000000000E+00  0.10674312229E+04  0.10674312230E+04  0.50400001928E-02 0. -1.
        1   -1    0    0  501    0  0.00000000000E+00  0.00000000000E+00 -0.22519519474E+04  0.22519519475E+04  0.50400001928E-02 0.  1.
    10030    2    1    2    0    0  0.00000000000E+00  0.00000000000E+00 -0.11845207245E+04  0.33193831704E+04  0.31008410609E+04 0.  0.
        1    1    3    3  502    0  0.85826218086E+03 -0.79605487255E+03  0.49599366592E+03  0.12713485155E+04  0.50400001928E-02 0. -1.
       -1    1    3    3    0  502 -0.85826218086E+03  0.79605487255E+03 -0.16805143904E+04  0.20480346549E+04  0.50400001928E-02 0.  1.
</event>
<event>
 5   0  0.1377237E-07  0.3098542E+04  0.7818609E-02  0.8216138E-01
        2   -1    0    0  501    0  0.00000000000E+00  0.00000000000E+00  0.16131260652E+04  0.16131260652E+04  0.25500000920E-02 0.  1.
       -2   -1    0    0    0  501  0.00000000000E+00  0.00000000000E+00 -0.14879434940E+04  0.14879434940E+04  0.25500000920E-02 0. -1.
    10030    2    1    2    0    0  0.00000000000E+00  0.00000000000E+00  0.12518257121E+03  0.31010695591E+04  0.30985418723E+04 0.  0.
        2    1    3    3  502    0  0.61065066506E+03 -0.34304956339E+03  0.14456242373E+04  0.16063644273E+04  0.25500000920E-02 0.  1.
       -2    1    3    3    0  502 -0.61065066506E+03  0.34304956339E+03 -0.13204416661E+04  0.14947051319E+04  0.25500000920E-02 0. -1.
</event>
<event>
 5   0  0.4450600E-08  0.3103652E+04  0.7818609E-02  0.8214736E-01
        1   -1    0    0  501    0  0.00000000000E+00  0.00000000000E+00  0.22783416352E+04  0.22783416352E+04  0.50400001928E-02 0.  1.
       -1   -1    0    0    0  501  0.00000000000E+00  0.00000000000E+00 -0.10569813207E+04  0.10569813208E+04  0.50400001928E-02 0. -1.
    10030    2    1    2    0    0  0.00000000000E+00  0.00000000000E+00  0.12213603144E+04  0.33353229559E+04  0.31036523972E+04 0.  0.
        4    1    3    3  502    0 -0.12145430557E+04 -0.96293426502E+03  0.52879743023E+03  0.16376768814E+04  0.12699999809E+01 0. -1.
       -4    1    3    3    0  502  0.12145430557E+04  0.96293426502E+03  0.69256288420E+03  0.16976460745E+04  0.12699999809E+01 0.  1.
</event>
<event>
 5   0  0.1325713E-07  0.3097833E+04  0.7818609E-02  0.8216333E-01
       -2   -1    0    0    0  501  0.00000000000E+00  0.00000000000E+00  0.29600830011E+04  0.29600830011E+04  0.25500000920E-02 0. -1.
        2   -1    0    0  501    0  0.00000000000E+00  0.00000000000E+00 -0.81049807963E+03  0.81049807963E+03  0.25500000920E-02 0.  1.
    10030    2    1    2    0    0  0.00000000000E+00  0.00000000000E+00  0.21495849214E+04  0.37705810807E+04  0.30978325248E+04 0.  0.
        4    1    3    3  502    0 -0.39747459008E+03  0.10546467464E+04  0.23680145556E+04  0.26225484472E+04  0.12699999809E+01 0. -1.
       -4    1    3    3    0  502  0.39747459008E+03 -0.10546467464E+04 -0.21842963420E+03  0.11480326335E+04  0.12699999809E+01 0.  1.
</event>
<event>
 5   0  0.1325713E-07  0.3097574E+04  0.7818609E-02  0.8216404E-01
        2   -1    0    0  501    0  0.00000000000E+00  0.00000000000E+00  0.13650151457E+04  0.13650151457E+04  0.25500000920E-02 0. -1.
       -2   -1    0    0    0  501  0.00000000000E+00  0.00000000000E+00 -0.17572997855E+04  0.17572997855E+04  0.25500000920E-02 0.  1.
    10030    2    1    2    0    0  0.00000000000E+00  0.00000000000E+00 -0.39228463981E+03  0.31223149313E+04  0.30975737750E+04 0.  0.
        4    1    3    3  502    0  0.14747264484E+04  0.18917005645E+02  0.28045902485E+03  0.15012777319E+04  0.12699999809E+01 0.  1.
       -4    1    3    3    0  502 -0.14747264484E+04 -0.18917005645E+02 -0.67274366466E+03  0.16210371994E+04  0.12699999809E+01 0. -1.
</event>
<event>
 5   0  0.4470354E-08  0.3106633E+04  0.7818609E-02  0.8213920E-01
       -1   -1    0    0    0  501  0.00000000000E+00  0.00000000000E+00  0.10809518056E+04  0.10809518056E+04  0.50400001928E-02 0.  1.
        1   -1    0    0  501    0  0.00000000000E+00  0.00000000000E+00 -0.22320996481E+04  0.22320996481E+04  0.50400001928E-02 0. -1.
    10030    2    1    2    0    0  0.00000000000E+00  0.00000000000E+00 -0.11511478425E+04  0.33130514537E+04  0.31066329972E+04 0.  0.
        1    1    3    3  502    0  0.13794953846E+04  0.31209510021E+03 -0.12604116837E+04  0.18944784190E+04  0.50400001928E-02 0. -1.
       -1    1    3    3    0  502 -0.13794953846E+04 -0.31209510021E+03  0.10926384122E+03  0.14185730346E+04  0.50400001928E-02 0.  1.
</event>
<event>
 5   0  0.4436241E-08  0.3100059E+04  0.7818609E-02  0.8215722E-01
       -1   -1    0    0    0  501  0.00000000000E+00  0.00000000000E+00  0.11771020111E+04  0.11771020111E+04  0.50400001928E-02 0. -1.
        1   -1    0    0  501    0  0.00000000000E+00  0.00000000000E+00 -0.20411070570E+04  0.20411070570E+04  0.50400001928E-02 0.  1.
    10030    2    1    2    0    0  0.00000000000E+00  0.00000000000E+00 -0.86400504589E+03  0.32182090681E+04  0.31000588521E+04 0.  0.
        3    1    3    3  502    0 -0.65184445519E+03 -0.13964519517E+04 -0.25950098661E+03  0.15627923788E+04  0.10100000352E+00 0.  1.
       -3    1    3    3    0  502  0.65184445519E+03  0.13964519517E+04 -0.60450405928E+03  0.16554166892E+04  0.10100000352E+00 0. -1.
</event>
<event>
 5   0  0.1398931E-07  0.3109145E+04  0.7818609E-02  0.8213232E-01
       -2   -1    0    0    0  501  0.00000000000E+00  0.00000000000E+00  0.10429996702E+04  0.10429996702E+04  0.25500000920E-02 0.  1.
        2   -1    0    0  501    0  0.00000000000E+00  0.00000000000E+00 -0.23170634682E+04  0.23170634682E+04  0.25500000920E-02 0. -1.
    10030    2    1    2    0    0  0.00000000000E+00  0.00000000000E+00 -0.12740637980E+04  0.33600631383E+04  0.31091454987E+04 0.  0.
        3    1    3    3  502    0 -0.36687822514E+03 -0.15038651368E+04 -0.79171385332E+03  0.17386836451E+04  0.10100000352E+00 0. -1.
       -3    1    3    3    0  502  0.36687822514E+03  0.15038651368E+04 -0.48234994468E+03  0.16213794933E+04  0.10100000352E+00 0.  1.
</event>
<event>
 5   0  0.4838602E-08  0.3100875E+04  0.7818609E-02  0.8215498E-01
       -1   -1    0    0    0  501  0.00000000000E+00  0.00000000000E+00  0.13465767038E+04  0.13465767039E+04  0.50400001928E-02 0. -1.
        1   -1    0    0  501    0  0.00000000000E+00  0.00000000000E+00 -0.17851606822E+04  0.17851606822E+04  0.50400001928E-02 0.  1.
    10030    2    1    2    0    0  0.00000000000E+00  0.00000000000E+00 -0.43858397832E+03  0.31317373860E+04  0.31008745781E+04 0.  0.
        5    1    3    3  502    0 -0.71695048247E+03  0.10125225448E+04 -0.11583928045E+04  0.16973850115E+04  0.46999998093E+01 0.  1.
       -5    1    3    3    0  502  0.71695048247E+03 -0.10125225448E+04  0.71980882614E+03  0.14343523745E+04  0.46999998093E+01 0. -1.
</event>
<event>
 5   0  0.4450600E-08  0.3099745E+04  0.7818609E-02  0.8215808E-01
        1   -1    0    0  501    0  0.00000000000E+00  0.00000000000E+00  0.25112636985E+04  0.25112636985E+04  0.50400001928E-02 0.  1.
       -1   -1    0    0    0  501  0.00000000000E+00  0.00000000000E+00 -0.95653236138E+03  0.95653236139E+03  0.50400001928E-02 0. -1.
    10030    2    1    2    0    0  0.00000000000E+00  0.00000000000E+00  0.15547313372E+04  0.34677960599E+04  0.30997451480E+04 0.  0.
        4    1    3    3  502    0  0.76397514571E+02  0.36280529126E+03  0.24609197147E+04  0.24886927722E+04  0.12699999809E+01 0.  1.
       -4    1    3    3    0  502 -0.76397514571E+02 -0.36280529126E+03 -0.90618837750E+03  0.97910328771E+03  0.12699999809E+01 0. -1.
</event>
<event>
 5   0  0.1325713E-07  0.3100604E+04  0.7818609E-02  0.8215572E-01
       -2   -1    0    0    0  501  0.00000000000E+00  0.00000000000E+00  0.27190833057E+04  0.27190833057E+04  0.25500000920E-02 0.  1.
        2   -1    0    0  501    0  0.00000000000E+00  0.00000000000E+00 -0.88391434949E+03  0.88391434949E+03  0.25500000920E-02 0. -1.
    10030    2    1    2    0    0  0.00000000000E+00  0.00000000000E+00  0.18351689562E+04  0.36029976552E+04  0.31006042968E+04 0.  0.
        4    1    3    3  502    0 -0.30036111692E+02  0.66306673091E+03 -0.71045154429E+03  0.97226676757E+03  0.12699999809E+01 0. -1.
       -4    1    3    3    0  502  0.30036111692E+02 -0.66306673091E+03  0.25456205005E+04  0.26307308876E+04  0.12699999809E+01 0.  1.
</event>
<event>
 5   0  0.1329777E-07  0.3099915E+04  0.7818609E-02  0.8215761E-01
       -2   -1    0    0    0  501  0.00000000000E+00  0.00000000000E+00  0.85862748739E+03  0.85862748740E+03  0.25500000920E-02 0. -1.
        2   -1    0    0  501    0  0.00000000000E+00  0.00000000000E+00 -0.27979166793E+04  0.27979166793E+04  0.25500000920E-02 0.  1.
    10030    2    1    2    0    0  0.00000000000E+00  0.00000000000E+00 -0.19392891919E+04  0.36565441667E+04  0.30999149461E+04 0.  0.
        1    1    3    3  502    0 -0.56660916690E+03  0.12534669192E+04 -0.12715029845E+03  0.13814457876E+04  0.50400001928E-02 0. -1.
       -1    1    3    3    0  502  0.56660916690E+03 -0.12534669192E+04 -0.18121388934E+04  0.22750983791E+04  0.50400001928E-02 0.  1.
</event>
<event>
 5   0  0.4517409E-08  0.3098243E+04  0.7818609E-02  0.8216220E-01
        1   -1    0    0  501    0  0.00000000000E+00  0.00000000000E+00  0.70844114994E+03  0.70844114996E+03  0.50400001928E-02 0.  1.
       -1   -1    0    0    0  501  0.00000000000E+00  0.00000000000E+00 -0.33874063564E+04  0.33874063564E+04  0.50400001928E-02 0. -1.
    10030    2    1    2    0    0  0.00000000000E+00  0.00000000000E+00 -0.26789652064E+04  0.40958475063E+04  0.30982434084E+04 0.  0.
        2    1    3    3  502    0  0.65021140983E+03  0.13769753715E+04 -0.96337231037E+03  0.18019218240E+04  0.25500000920E-02 0.  1.
       -2    1    3    3    0  502 -0.65021140983E+03 -0.13769753715E+04 -0.17155928961E+04  0.22939256824E+04  0.25500000920E-02 0. -1.
</event>
<event>
 5   0  0.1377237E-07  0.3098556E+04  0.7818609E-02  0.8216134E-01
       -2   -1    0    0    0  501  0.00000000000E+00  0.00000000000E+00  0.12010554004E+04  0.12010554004E+04  0.25500000920E-02 0.  1.
        2   -1    0    0  501    0  0.00000000000E+00  0.00000000000E+00 -0.19984606387E+04  0.19984606387E+04  0.25500000920E-02 0. -1.
    10030    2    1    2    0    0  0.00000000000E+00  0.00000000000E+00 -0.79740523835E+03  0.31995160391E+04  0.30985557556E+04 0.  0.
        2    1    3    3  502    0  0.11979556776E+04  0.96430105138E+03 -0.59267332984E+03  0.16481007248E+04  0.25500000920E-02 0. -1.
       -2    1    3    3    0  502 -0.11979556776E+04 -0.96430105138E+03 -0.20473190850E+03  0.15514153143E+04  0.25500000920E-02 0.  1.
</event>
<event>
 5   0  0.1329777E-07  0.3100176E+04  0.7818609E-02  0.8215690E-01
        2   -1    0    0  501    0  0.00000000000E+00  0.00000000000E+00  0.16775739594E+04  0.16775739594E+04  0.25500000920E-02 0.  1.
       -2   -1    0    0    0  501  0.00000000000E+00  0.00000000000E+00 -0.14322904197E+04  0.14322904197E+04  0.25500000920E-02 0. -1.
    10030    2    1    2    0    0  0.00000000000E+00  0.00000000000E+00  0.24528353965E+03  0.31098643791E+04  0.31001761952E+04 0.  0.
        1    1    3    3  502    0 -0.12772033443E+04  0.14602668619E+03  0.99148990461E+03  0.16234606268E+04  0.50400001928E-02 0.  1.
       -1    1    3    3    0  502  0.12772033443E+04 -0.14602668619E+03 -0.74620636495E+03  0.14864037523E+04  0.50400001928E-02 0. -1.
</event>
<event>
 5   0  0.1398931E-07  0.3100401E+04  0.7818609E-02  0.8215628E-01
        2   -1    0    0  501    0  0.00000000000E+00  0.00000000000E+00  0.10631939873E+04  0.10631939873E+04  0.25500000920E-02 0. -1.
       -2   -1    0    0    0  501  0.00000000000E+00  0.00000000000E+00 -0.22602857729E+04  0.22602857729E+04  0.25500000920E-02 0.  1.
    10030    2    1    2    0    0  0.00000000000E+00  0.00000000000E+00 -0.11970917856E+04  0.33234797603E+04  0.31004014214E+04 0.  0.
        3    1    3    3  502    0 -0.46936601611E+03 -0.86788389212E+03 -0.18802319821E+04  0.21233933277E+04  0.10100000352E+00 0.  1.
       -3    1    3    3    0  502  0.46936601611E+03  0.86788389212E+03  0.68314019652E+03  0.12000864325E+04  0.10100000352E+00 0. -1.
</event>
<event>
 5   0  0.1377237E-07  0.3087345E+04  0.7818609E-02  0.8219220E-01
        2   -1    0    0  501    0  0.00000000000E+00  0.00000000000E+00  0.12940838563E+04  0.12940838563E+04  0.25500000920E-02 0. -1.
       -2   -1    0    0    0  501  0.00000000000E+00  0.00000000000E+00 -0.18413991825E+04  0.18413991825E+04  0.25500000920E-02 0.  1.
    10030    2    1    2    0    0  0.00000000000E+00  0.00000000000E+00 -0.54731532623E+03  0.31354830388E+04  0.30873451087E+04 0.  0.
        2    1    3    3  502    0  0.34140037403E+03  0.90244478476E+03 -0.14974203979E+04  0.17813558468E+04  0.25500000920E-02 0.  1.
       -2    1    3    3    0  502 -0.34140037403E+03 -0.90244478476E+03  0.95010507165E+03  0.13541271920E+04  0.25500000920E-02 0. -1.
</event>
<event>
 5   0  0.4838602E-08  0.3099757E+04  0.7818609E-02  0.8215805E-01
       -1   -1    0    0    0  501  0.00000000000E+00  0.00000000000E+00  0.13289481730E+04  0.13289481730E+04  0.50400001928E-02 0.  1.
        1   -1    0    0  501    0  0.00000000000E+00  0.00000000000E+00 -0.18075372762E+04  0.18075372762E+04  0.50400001928E-02 0. -1.
    10030    2    1    2    0    0  0.00000000000E+00  0.00000000000E+00 -0.47858910324E+03  0.31364854493E+04  0.30997569975E+04 0.  0.
        5    1    3    3  502    0  0.36402960654E+03 -0.68982963624E+03  0.11158724149E+04  0.13614609130E+04  0.46999998093E+01 0.  1.
       -5    1    3    3    0  502 -0.36402960654E+03  0.68982963624E+03 -0.15944615181E+04  0.17750245362E+04  0.46999998093E+01 0. -1.
</event>
<event>
 5   0  0.1325713E-07  0.3100500E+04  0.7818609E-02  0.8215601E-01
        2   -1    0    0  501    0  0.00000000000E+00  0.00000000000E+00  0.18939102350E+04  0.18939102350E+04  0.25500000920E-02 0.  1.
       -2   -1    0    0    0  501  0.00000000000E+00  0.00000000000E+00 -0.12689485449E+04  0.12689485449E+04  0.25500000920E-02 0. -1.
    10030    2    1    2    0    0  0.00000000000E+00  0.00000000000E+00  0.62496169017E+03  0.31628587799E+04  0.31004997254E+04 0.  0.
        4    1    3    3  502    0  0.61879127124E+03 -0.13089197713E+04  0.87779206016E+03  0.16931314535E+04  0.12699999809E+01 0.  1.
       -4    1    3    3    0  502 -0.61879127124E+03  0.13089197713E+04 -0.25283036999E+03  0.14697273264E+04  0.12699999809E+01 0. -1.
</event>
<event>
 5   0  0.4436241E-08  0.3100229E+04  0.7818609E-02  0.8215675E-01
       -1   -1    0    0    0  501  0.00000000000E+00  0.00000000000E+00  0.12324661743E+04  0.12324661743E+04  0.50400001928E-02 0.  1.
        1   -1    0    0  501    0  0.00000000000E+00  0.00000000000E+00 -0.19496320341E+04  0.19496320341E+04  0.50400001928E-02 0. -1.
    10030    2    1    2    0    0  0.00000000000E+00  0.00000000000E+00 -0.71716585984E+03  0.31820982084E+04  0.31002293685E+04 0.  0.
        3    1    3    3  502    0  0.13782900209E+04  0.33641769540E+03  0.28240437263E+03  0.14465864950E+04  0.10100000352E+00 0.  1.
       -3    1    3    3    0  502 -0.13782900209E+04 -0.33641769540E+03 -0.99957023248E+03  0.17355117134E+04  0.10100000352E+00 0. -1.
</event>
<event>
 5   0  0.4436241E-08  0.3101516E+04  0.7818609E-02  0.8215322E-01
       -1   -1    0    0    0  501  0.00000000000E+00  0.00000000000E+00  0.15117662324E+04  0.15117662324E+04  0.50400001928E-02 0. -1.
        1   -1    0    0  501    0  0.00000000000E+00  0.00000000000E+00 -0.15907549548E+04  0.15907549549E+04  0.50400001928E-02 0.  1.
    10030    2    1    2    0    0  0.00000000000E+00  0.00000000000E+00 -0.78988722492E+02  0.31025211872E+04  0.31015155165E+04 0.  0.
        3    1    3    3  502    0  0.84474481161E+03  0.81142118344E+03  0.97712818253E+03  0.15253778643E+04  0.10100000352E+00 0. -1.
       -3    1    3    3    0  502 -0.84474481161E+03 -0.81142118344E+03 -0.10561169050E+04  0.15771433229E+04  0.10100000352E+00 0.  1.
</event>
<event>
 5   0  0.1398931E-07  0.3098103E+04  0.7818609E-02  0.8216259E-01
       -2   -1    0    0    0  501  0.00000000000E+00  0.00000000000E+00  0.88547743747E+03  0.88547743747E+03  0.25500000920E-02 0.  1.
        2   -1    0    0  501    0  0.00000000000E+00  0.00000000000E+00 -0.27099064213E+04  0.27099064213E+04  0.25500000920E-02 0. -1.
    10030    2    1    2    0    0  0.00000000000E+00  0.00000000000E+00 -0.18244289838E+04  0.35953838587E+04  0.30981032867E+04 0.  0.
        3    1    3    3  502    0 -0.14178144543E+03  0.13217459519E+04 -0.18351286704E+04  0.22660122654E+04  0.10100000352E+00 0. -1.
       -3    1    3    3    0  502  0.14178144543E+03 -0.13217459519E+04  0.10699686584E+02  0.13293715934E+04  0.10100000352E+00 0.  1.
</event>
<event>
 5   0  0.4305500E-08  0.3099818E+04  0.7818609E-02  0.8215788E-01
        3   -1    0    0  501    0  0.00000000000E+00  0.00000000000E+00  0.90263129598E+03  0.90263130163E+03  0.10100000352E+00 0.  1.
       -3   -1    0    0    0  501  0.00000000000E+00  0.00000000000E+00 -0.26613504878E+04  0.26613504897E+04  0.10100000352E+00 0. -1.
    10030    2    1    2    0    0  0.00000000000E+00  0.00000000000E+00 -0.17587191918E+04  0.35639817913E+04  0.30998182226E+04 0.  0.
        3    1    3    3  502    0 -0.11602161924E+04 -0.90074425959E+03 -0.14481916078E+04  0.20626926037E+04  0.10100000352E+00 0. -1.
       -3    1    3    3    0  502  0.11602161924E+04  0.90074425959E+03 -0.31052758404E+03  0.15012891876E+04  0.10100000352E+00 0.  1.
</event>
<event>
 5   0  0.4436241E-08  0.3099548E+04  0.7818609E-02  0.8215862E-01
       -1   -1    0    0    0  501  0.00000000000E+00  0.00000000000E+00  0.12836051718E+04  0.12836051718E+04  0.50400001928E-02 0.  1.
        1   -1    0    0  501    0  0.00000000000E+00  0.00000000000E+00 -0.18711354409E+04  0.18711354409E+04  0.50400001928E-02 0. -1.
    10030    2    1    2    0    0  0.00000000000E+00  0.00000000000E+00 -0.58753026909E+03  0.31547406128E+04  0.30995477923E+04 0.  0.
        3    1    3    3  502    0 -0.70699448954E+03 -0.13230729511E+04  0.10231194193E+03  0.15036059942E+04  0.10100000352E+00 0.  1.
       -3    1    3    3    0  502  0.70699448954E+03  0.13230729511E+04 -0.68984221102E+03  0.16511346185E+04  0.10100000352E+00 0. -1.
</event>
<event>
 5   0  0.4450600E-08  0.3099340E+04  0.7818609E-02  0.8215919E-01
        1   -1    0    0  501    0  0.00000000000E+00  0.00000000000E+00  0.15776016509E+04  0.15776016509E+04  0.50400001928E-02 0.  1.
       -1   -1    0    0    0  501  0.00000000000E+00  0.00000000000E+00 -0.15222325153E+04  0.15222325153E+04  0.50400001928E-02 0. -1.
    10030    2    1    2    0    0  0.00000000000E+00  0.00000000000E+00  0.55369135614E+02  0.30998341663E+04  0.30993396260E+04 0.  0.
        4    1    3    3  502    0 -0.90012952115E+02 -0.37301601177E+03  0.15293340215E+04  0.15767394961E+04  0.12699999809E+01 0.  1.
       -4    1    3    3    0  502  0.90012952115E+02  0.37301601177E+03 -0.14739648858E+04  0.15230946701E+04  0.12699999809E+01 0. -1.
</event>
<event>
 5   0  0.4838602E-08  0.3099968E+04  0.7818609E-02  0.8215747E-01
       -1   -1    0    0    0  501  0.00000000000E+00  0.00000000000E+00  0.15013621473E+04  0.15013621473E+04  0.50400001928E-02 0.  1.
        1   -1    0    0  501    0  0.00000000000E+00  0.00000000000E+00 -0.16001808212E+04  0.16001808212E+04  0.50400001928E-02 0. -1.
    10030    2    1    2    0    0  0.00000000000E+00  0.00000000000E+00 -0.98818673921E+02  0.31015429686E+04  0.30999683314E+04 0.  0.
        5    1    3    3  502    0  0.43728479475E+03  0.96612795389E+03  0.10815663790E+04  0.15147373162E+04  0.46999998093E+01 0.  1.
       -5    1    3    3    0  502 -0.43728479475E+03 -0.96612795389E+03 -0.11803850529E+04  0.15868056523E+04  0.46999998093E+01 0. -1.
</event>
<event>
 5   0  0.4450600E-08  0.3100578E+04  0.7818609E-02  0.8215579E-01
        1   -1    0    0  501    0  0.00000000000E+00  0.00000000000E+00  0.21346121214E+04  0.21346121214E+04  0.50400001928E-02 0. -1.
       -1   -1    0    0    0  501  0.00000000000E+00  0.00000000000E+00 -0.11259169942E+04  0.11259169942E+04  0.50400001928E-02 0.  1.
    10030    2    1    2    0    0  0.00000000000E+00  0.00000000000E+00  0.10086951272E+04  0.32605291156E+04  0.31005780516E+04 0.  0.
        4    1    3    3  502    0  0.31332603497E+03  0.33127167915E+03  0.20625008808E+04  0.21123033935E+04  0.12699999809E+01 0. -1.
       -4    1    3    3    0  502 -0.31332603497E+03 -0.33127167915E+03 -0.10538057537E+04  0.11482257221E+04  0.12699999809E+01 0.  1.
</event>
<event>
 5   0  0.1398931E-07  0.3100277E+04  0.7818609E-02  0.8215662E-01
        2   -1    0    0  501    0  0.00000000000E+00  0.00000000000E+00  0.18189626689E+04  0.18189626689E+04  0.25500000920E-02 0.  1.
       -2   -1    0    0    0  501  0.00000000000E+00  0.00000000000E+00 -0.13210436505E+04  0.13210436505E+04  0.25500000920E-02 0. -1.
    10030    2    1    2    0    0  0.00000000000E+00  0.00000000000E+00  0.49791901842E+03  0.31400063194E+04  0.31002768162E+04 0.  0.
        3    1    3    3  502    0 -0.12003312895E+04 -0.93086826332E+03  0.56214397201E+03  0.16196656395E+04  0.10100000352E+00 0.  1.
       -3    1    3    3    0  502  0.12003312895E+04  0.93086826332E+03 -0.64224953594E+02  0.15203406799E+04  0.10100000352E+00 0. -1.
</event>
<event>
 5   0  0.4470354E-08  0.3094561E+04  0.7818609E-02  0.8217232E-01
        1   -1    0    0  501    0  0.00000000000E+00  0.00000000000E+00  0.12842769791E+04  0.12842769791E+04  0.50400001928E-02 0.  1.
       -1   -1    0    0    0  501  0.00000000000E+00  0.00000000000E+00 -0.18641437139E+04  0.18641437139E+04  0.50400001928E-02 0. -1.
    10030    2    1    2    0    0  0.00000000000E+00  0.00000000000E+00 -0.57986673479E+03  0.31484206931E+04  0.30945609431E+04 0.  0.
        1    1    3    3  502    0 -0.86229577488E+03 -0.12842725673E+04 -0.25517999483E+03  0.15678095740E+04  0.50400001928E-02 0. -1.
       -1    1    3    3    0  502  0.86229577488E+03  0.12842725673E+04 -0.32468673996E+03  0.15806111191E+04  0.50400001928E-02 0.  1.
</event>
<event>
 5   0  0.1398931E-07  0.3099380E+04  0.7818609E-02  0.8215908E-01
       -2   -1    0    0    0  501  0.00000000000E+00  0.00000000000E+00  0.14778648143E+04  0.14778648143E+04  0.25500000920E-02 0. -1.
        2   -1    0    0  501    0  0.00000000000E+00  0.00000000000E+00 -0.16250055464E+04  0.16250055464E+04  0.25500000920E-02 0.  1.
    10030    2    1    2    0    0  0.00000000000E+00  0.00000000000E+00 -0.14714073211E+03  0.31028703608E+04  0.30993796283E+04 0.  0.
        3    1    3    3  502    0  0.69817507302E+03 -0.66549204058E+03  0.11407303554E+04  0.14938520150E+04  0.10100000352E+00 0. -1.
       -3    1    3    3    0  502 -0.69817507302E+03  0.66549204058E+03 -0.12878710876E+04  0.16090183458E+04  0.10100000352E+00 0.  1.
</event>
<event>
 5   0  0.1325713E-07  0.3089253E+04  0.7818609E-02  0.8218694E-01
       -2   -1    0    0    0  501  0.00000000000E+00  0.00000000000E+00  0.13040339444E+04  0.13040339444E+04  0.25500000920E-02 0. -1.
        2   -1    0    0  501    0  0.00000000000E+00  0.00000000000E+00 -0.18296078502E+04  0.18296078502E+04  0.25500000920E-02 0.  1.
    10030    2    1    2    0    0  0.00000000000E+00  0.00000000000E+00 -0.52557390580E+03  0.31336417946E+04  0.30892528168E+04 0.  0.
        4    1    3    3  502    0 -0.59191083980E+03  0.14241798148E+04 -0.34899363337E+03  0.15812794681E+04  0.12699999809E+01 0.  1.
       -4    1    3    3    0  502  0.59191083980E+03 -0.14241798148E+04 -0.17658027243E+03  0.15523623265E+04  0.12699999809E+01 0. -1.
</event>
<event>
 5   0  0.4450600E-08  0.3098019E+04  0.7818609E-02  0.8216282E-01
       -1   -1    0    0    0  501  0.00000000000E+00  0.00000000000E+00  0.15084529049E+04  0.15084529049E+04  0.50400001928E-02 0.  1.
        1   -1    0    0  501    0  0.00000000000E+00  0.00000000000E+00 -0.15906569081E+04  0.15906569081E+04  0.50400001928E-02 0. -1.
    10030    2    1    2    0    0  0.00000000000E+00  0.00000000000E+00 -0.82204003239E+02  0.30991098130E+04  0.30980193890E+04 0.  0.
        4    1    3    3  502    0  0.33995182973E+03 -0.11054461711E+04 -0.10719262144E+04  0.15768975571E+04  0.12699999809E+01 0. -1.
       -4    1    3    3    0  502 -0.33995182973E+03  0.11054461711E+04  0.98972221113E+03  0.15222122558E+04  0.12699999809E+01 0.  1.
</event>
<event>
 5   0  0.4470354E-08  0.3097252E+04  0.7818609E-02  0.8216492E-01
        1   -1    0    0  501    0  0.00000000000E+00  0.00000000000E+00  0.30999981860E+04  0.30999981860E+04  0.50400001928E-02 0. -1.
       -1   -1    0    0    0  501  0.00000000000E+00  0.00000000000E+00 -0.77362729501E+03  0.77362729503E+03  0.50400001928E-02 0.  1.
    10030    2    1    2    0    0  0.00000000000E+00  0.00000000000E+00  0.23263708910E+04  0.38736254811E+04  0.30972524671E+04 0.  0.
        1    1    3    3  502    0 -0.13643184546E+04  0.73269265080E+03  0.11710800150E+04  0.19415539569E+04  0.50400001928E-02 0. -1.
       -1    1    3    3    0  502  0.13643184546E+04 -0.73269265080E+03  0.11552908760E+04  0.19320715241E+04  0.50400001928E-02 0.  1.
</event>
<event>
 5   0  0.1377237E-07  0.3100866E+04  0.7818609E-02  0.8215500E-01
       -2   -1    0    0    0  501  0.00000000000E+00  0.00000000000E+00  0.14908600756E+04  0.14908600756E+04  0.25500000920E-02 0.  1.
        2   -1    0    0  501    0  0.00000000000E+00  0.00000000000E+00 -0.16123867944E+04  0.16123867945E+04  0.25500000920E-02 0. -1.
    10030    2    1    2    0    0  0.00000000000E+00  0.00000000000E+00 -0.12152671889E+03  0.31032468700E+04  0.31008663939E+04 0.  0.
        2    1    3    3  502    0  0.66288349626E+03 -0.11048803497E+04 -0.92378724045E+03  0.15854204434E+04  0.25500000920E-02 0. -1.
       -2    1    3    3    0  502 -0.66288349626E+03  0.11048803497E+04  0.80226052155E+03  0.15178264266E+04  0.25500000920E-02 0.  1.
</event>
<event>
 5   0  0.1398931E-07  0.3100205E+04  0.7818609E-02  0.8215682E-01
       -2   -1    0    0    0  501  0.00000000000E+00  0.00000000000E+00  0.11052032346E+04  0.11052032346E+04  0.25500000920E-02 0. -1.
        2   -1    0    0  501    0  0.00000000000E+00  0.00000000000E+00 -0.21740958880E+04  0.21740958880E+04  0.25500000920E-02 0.  1.
    10030    2    1    2    0    0  0.00000000000E+00  0.00000000000E+00 -0.10688926534E+04  0.32792991226E+04  0.31002050305E+04 0.  0.
        3    1    3    3  502    0 -0.77723104305E+03  0.20785993525E+03 -0.19359492103E+04  0.20964716077E+04  0.10100000352E+00 0.  1.
       -3    1    3    3    0  502  0.77723104305E+03 -0.20785993525E+03  0.86705655686E+03  0.11828275149E+04  0.10100000352E+00 0. -1.
</event>
<event>
 5   0  0.4450600E-08  0.3101624E+04  0.7818609E-02  0.8215292E-01
        1   -1    0    0  501    0  0.00000000000E+00  0.00000000000E+00  0.10205129006E+04  0.10205129006E+04  0.50400001928E-02 0.  1.
       -1   -1    0    0    0  501  0.00000000000E+00  0.00000000000E+00 -0.23566749039E+04  0.23566749039E+04  0.50400001928E-02 0. -1.
    10030    2    1    2    0    0  0.00000000000E+00  0.00000000000E+00 -0.13361620033E+04  0.33771878045E+04  0.31016235374E+04 0.  0.
        4    1    3    3  502    0  0.84176045802E+03 -0.10057453616E+04 -0.15692154260E+04  0.20451217732E+04  0.12699999809E+01 0. -1.
       -4    1    3    3    0  502 -0.84176045802E+03  0.10057453616E+04  0.23305342267E+03  0.13320660313E+04  0.12699999809E+01 0.  1.
</event>
<event>
 5   0  0.4517409E-08  0.3097052E+04  0.7818609E-02  0.8216547E-01
        1   -1    0    0  501    0  0.00000000000E+00  0.00000000000E+00  0.25079094406E+04  0.25079094407E+04  0.50400001928E-02 0. -1.
       -1   -1    0    0    0  501  0.00000000000E+00  0.00000000000E+00 -0.95614827047E+03  0.95614827048E+03  0.50400001928E-02 0.  1.
    10030    2    1    2    0    0  0.00000000000E+00  0.00000000000E+00  0.15517611702E+04  0.34640577111E+04  0.30970523239E+04 0.  0.
        2    1    3    3  502    0  0.11809142231E+04 -0.27327952528E+03  0.18537662657E+04  0.22148791094E+04  0.25500000920E-02 0. -1.
       -2    1    3    3    0  502 -0.11809142231E+04  0.27327952528E+03 -0.30200509556E+03  0.12491786017E+04  0.25500000920E-02 0.  1.
</event>
<event>
 5   0  0.4470354E-08  0.3100348E+04  0.7818609E-02  0.8215642E-01
       -1   -1    0    0    0  501  0.00000000000E+00  0.00000000000E+00  0.21388530311E+04  0.21388530311E+04  0.50400001928E-02 0. -1.
        1   -1    0    0  501    0  0.00000000000E+00  0.00000000000E+00 -0.11235179778E+04  0.11235179779E+04  0.50400001928E-02 0.  1.
    10030    2    1    2    0    0  0.00000000000E+00  0.00000000000E+00  0.10153350533E+04  0.32623710090E+04  0.31003482595E+04 0.  0.
        1    1    3    3  502    0  0.79087148215E+02 -0.11272210400E+04 -0.60899640802E+03  0.12836505269E+04  0.50400001928E-02 0.  1.
       -1    1    3    3    0  502 -0.79087148215E+02  0.11272210400E+04  0.16243314613E+04  0.19787204821E+04  0.50400001928E-02 0. -1.
</event>
<event>
 5   0  0.1377237E-07  0.3101106E+04  0.7818609E-02  0.8215435E-01
        2   -1    0    0  501    0  0.00000000000E+00  0.00000000000E+00  0.28798509559E+04  0.28798509559E+04  0.25500000920E-02 0.  1.
       -2   -1    0    0    0  501  0.00000000000E+00  0.00000000000E+00 -0.83483974912E+03  0.83483974912E+03  0.25500000920E-02 0. -1.
    10030    2    1    2    0    0  0.00000000000E+00  0.00000000000E+00  0.20450112068E+04  0.37146907050E+04  0.31011056412E+04 0.  0.
        2    1    3    3  502    0 -0.40666070896E+02  0.21235913086E+03  0.28617041939E+04  0.28698608021E+04  0.25500000920E-02 0.  1.
       -2    1    3    3    0  502  0.40666070896E+02 -0.21235913086E+03 -0.81669298710E+03  0.84482990298E+03  0.25500000920E-02 0. -1.
</event>
<event>
 5   0  0.4838602E-08  0.3100568E+04  0.7818609E-02  0.8215582E-01
       -1   -1    0    0    0  501  0.00000000000E+00  0.00000000000E+00  0.12842249791E+04  0.12842249791E+04  0.50400001928E-02 0.  1.
        1   -1    0    0  501    0  0.00000000000E+00  0.00000000000E+00 -0.18714635031E+04  0.18714635031E+04  0.50400001928E-02 0. -1.
    10030    2    1    2    0    0  0.00000000000E+00  0.00000000000E+00 -0.58723852406E+03  0.31556884822E+04  0.31005678049E+04 0.  0.
        5    1    3    3  502    0  0.14697850872E+04 -0.46059381026E+03 -0.47265333679E+03  0.16111604909E+04  0.46999998093E+01 0.  1.
       -5    1    3    3    0  502 -0.14697850872E+04  0.46059381026E+03 -0.11458518727E+03  0.15445279913E+04  0.46999998093E+01 0. -1.
</event>
<event>
 5   0  0.4436241E-08  0.3099866E+04  0.7818609E-02  0.8215775E-01
        1   -1    0    0  501    0  0.00000000000E+00  0.00000000000E+00  0.17323685401E+04  0.17323685401E+04  0.50400001928E-02 0. -1.
       -1   -1    0    0    0  501  0.00000000000E+00  0.00000000000E+00 -0.13867098949E+04  0.13867098949E+04  0.50400001928E-02 0.  1.
    10030    2    1    2    0    0  0.00000000000E+00  0.00000000000E+00  0.34565864515E+03  0.31190784350E+04  0.30998661882E+04 0.  0.
        3    1    3    3  502    0  0.72419500342E+03  0.43095807753E+03 -0.11360438237E+04  0.14144888996E+04  0.10100000352E+00 0.  1.
       -3    1    3    3    0  502 -0.72419500342E+03 -0.43095807753E+03  0.14817024689E+04  0.17045895354E+04  0.10100000352E+00 0. -1.
</event>
<event>
 5   0  0.1398931E-07  0.3100655E+04  0.7818609E-02  0.8215558E-01
       -2   -1    0    0    0  501  0.00000000000E+00  0.00000000000E+00  0.12463236092E+04  0.12463236092E+04  0.25500000920E-02 0.  1.
        2   -1    0    0  501    0  0.00000000000E+00  0.00000000000E+00 -0.19284842737E+04  0.19284842738E+04  0.25500000920E-02 0. -1.
    10030    2    1    2    0    0  0.00000000000E+00  0.00000000000E+00 -0.68216066451E+03  0.31748078830E+04  0.31006550794E+04 0.  0.
        3    1    3    3  502    0 -0.87732171035E+03  0.77517217778E+02 -0.16474505506E+04  0.18680994699E+04  0.10100000352E+00 0. -1.
       -3    1    3    3    0  502  0.87732171035E+03 -0.77517217778E+02  0.96528988609E+03  0.13067084131E+04  0.10100000352E+00 0.  1.
</event>
<event>
 5   0  0.1398931E-07  0.3100264E+04  0.7818609E-02  0.8215666E-01
       -2   -1    0    0    0  501  0.00000000000E+00  0.00000000000E+00  0.21785197007E+04  0.21785197007E+04  0.25500000920E-02 0. -1.
        2   -1    0    0  501    0  0.00000000000E+00  0.00000000000E+00 -0.11030007707E+04  0.11030007707E+04  0.25500000920E-02 0.  1.
    10030    2    1    2    0    0  0.00000000000E+00  0.00000000000E+00  0.10755189300E+04  0.32815204714E+04  0.31002638010E+04 0.  0.
        3    1    3    3  502    0  0.12272789450E+04  0.81094476062E+03  0.20231937617E+02  0.14711404947E+04  0.10100000352E+00 0.  1.
       -3    1    3    3    0  502 -0.12272789450E+04 -0.81094476062E+03  0.10552869924E+04  0.18103799767E+04  0.10100000352E+00 0. -1.
</event>
<event>
 5   0  0.4470354E-08  0.3102420E+04  0.7818609E-02  0.8215074E-01
       -1   -1    0    0    0  501  0.00000000000E+00  0.00000000000E+00  0.96379287144E+03  0.96379287145E+03  0.50400001928E-02 0.  1.
        1   -1    0    0  501    0  0.00000000000E+00  0.00000000000E+00 -0.24966491229E+04  0.24966491229E+04  0.50400001928E-02 0. -1.
    10030    2    1    2    0    0  0.00000000000E+00  0.00000000000E+00 -0.15328562514E+04  0.34604419943E+04  0.31024201051E+04 0.  0.
        1    1    3    3  502    0 -0.15390733665E+04 -0.83503645229E+02 -0.96132967257E+03  0.18165556489E+04  0.50400001928E-02 0.  1.
       -1    1    3    3    0  502  0.15390733665E+04  0.83503645229E+02 -0.57152657887E+03  0.16438863454E+04  0.50400001928E-02 0. -1.
</event>
<event>
 5   0  0.1329777E-07  0.3100737E+04  0.7818609E-02  0.8215536E-01
        2   -1    0    0  501    0  0.00000000000E+00  0.00000000000E+00  0.17251096815E+04  0.17251096815E+04  0.25500000920E-02 0. -1.
       -2   -1    0    0    0  501  0.00000000000E+00  0.00000000000E+00 -0.13933276433E+04  0.13933276433E+04  0.25500000920E-02 0.  1.
    10030    2    1    2    0    0  0.00000000000E+00  0.00000000000E+00  0.33178203820E+03  0.31184373249E+04  0.31007373362E+04 0.  0.
        1    1    3    3  502    0  0.64103190367E+03 -0.27090945994E+03 -0.12274158337E+04  0.14109796121E+04  0.50400001928E-02 0.  1.
       -1    1    3    3    0  502 -0.64103190367E+03  0.27090945994E+03  0.15591978719E+04  0.17074577127E+04  0.50400001928E-02 0. -1.
</event>
<event>
 5   0  0.4450600E-08  0.3091223E+04  0.7818609E-02  0.8218151E-01
        1   -1    0    0  501    0  0.00000000000E+00  0.00000000000E+00  0.15797349537E+04  0.15797349537E+04  0.50400001928E-02 0. -1.
       -1   -1    0    0    0  501  0.00000000000E+00  0.00000000000E+00 -0.15122249688E+04  0.15122249688E+04  0.50400001928E-02 0.  1.
    10030    2    1    2    0    0  0.00000000000E+00  0.00000000000E+00  0.67509984935E+02  0.30919599225E+04  0.30912228267E+04 0.  0.
        4    1    3    3  502    0 -0.99573542670E+03  0.39676082207E+02  0.12154975834E+04  0.15717821794E+04  0.12699999809E+01 0. -1.
       -4    1    3    3    0  502  0.99573542670E+03 -0.39676082207E+02 -0.11479875984E+04  0.15201777431E+04  0.12699999809E+01 0.  1.
</event>
<event>
 5   0  0.4470354E-08  0.3099479E+04  0.7818609E-02  0.8215881E-01
       -1   -1    0    0    0  501  0.00000000000E+00  0.00000000000E+00  0.25230875268E+04  0.25230875268E+04  0.50400001928E-02 0.  1.
        1   -1    0    0  501    0  0.00000000000E+00  0.00000000000E+00 -0.95188628671E+03  0.95188628672E+03  0.50400001928E-02 0. -1.
    10030    2    1    2    0    0  0.00000000000E+00  0.00000000000E+00  0.15712012401E+04  0.34749738136E+04  0.30994789349E+04 0.  0.
        1    1    3    3  502    0 -0.10151734030E+04  0.31383238956E+03 -0.47917360306E+03  0.11656222153E+04  0.50400001928E-02 0. -1.
       -1    1    3    3    0  502  0.10151734030E+04 -0.31383238956E+03  0.20503748432E+04  0.23093515983E+04  0.50400001928E-02 0.  1.
</event>
<event>
 5   0  0.4517409E-08  0.3100437E+04  0.7818609E-02  0.8215618E-01
        1   -1    0    0  501    0  0.00000000000E+00  0.00000000000E+00  0.26898991938E+04  0.26898991938E+04  0.50400001928E-02 0.  1.
       -1   -1    0    0    0  501  0.00000000000E+00  0.00000000000E+00 -0.89340818687E+03  0.89340818689E+03  0.50400001928E-02 0. -1.
    10030    2    1    2    0    0  0.00000000000E+00  0.00000000000E+00  0.17964910069E+04  0.35833073807E+04  0.31004373638E+04 0.  0.
        2    1    3    3  502    0  0.25426987332E+03 -0.89942638716E+03  0.23276130931E+04  0.25082670722E+04  0.25500000920E-02 0.  1.
       -2    1    3    3    0  502 -0.25426987332E+03  0.89942638716E+03 -0.53112208618E+03  0.10750403085E+04  0.25500000920E-02 0. -1.
</event>
<event>
 5   0  0.1398931E-07  0.3100081E+04  0.7818609E-02  0.8215716E-01
        2   -1    0    0  501    0  0.00000000000E+00  0.00000000000E+00  0.23332453409E+04  0.23332453409E+04  0.25500000920E-02 0. -1.
       -2   -1    0    0    0  501  0.00000000000E+00  0.00000000000E+00 -0.10297352501E+04  0.10297352501E+04  0.25500000920E-02 0.  1.
    10030    2    1    2    0    0  0.00000000000E+00  0.00000000000E+00  0.13035100908E+04  0.33629805910E+04  0.31000806278E+04 0.  0.
        3    1    3    3  502    0 -0.11449756227E+04  0.97596282829E+03  0.24708911893E+03  0.15246395186E+04  0.10100000352E+00 0. -1.
       -3    1    3    3    0  502  0.11449756227E+04 -0.97596282829E+03  0.10564209718E+04  0.18383410724E+04  0.10100000352E+00 0.  1.
</event>
<event>
 5   0  0.4450600E-08  0.3099584E+04  0.7818609E-02  0.8215852E-01
       -1   -1    0    0    0  501  0.00000000000E+00  0.00000000000E+00  0.31528746017E+04  0.31528746017E+04  0.50400001928E-02 0. -1.
        1   -1    0    0  501    0  0.00000000000E+00  0.00000000000E+00 -0.76179835524E+03  0.76179835525E+03  0.50400001928E-02 0.  1.
    10030    2    1    2    0    0  0.00000000000E+00  0.00000000000E+00  0.23910762465E+04  0.39146729570E+04  0.30995836404E+04 0.  0.
        4    1    3    3  502    0  0.62743003297E+03  0.13967671734E+04  0.89341138430E+03  0.17727979291E+04  0.12699999809E+01 0. -1.
       -4    1    3    3    0  502 -0.62743003297E+03 -0.13967671734E+04  0.14976648622E+04  0.21418750279E+04  0.12699999809E+01 0.  1.
</event>
<event>
 5   0  0.4517409E-08  0.3097733E+04  0.7818609E-02  0.8216360E-01
       -1   -1    0    0    0  501  0.00000000000E+00  0.00000000000E+00  0.23373247434E+04  0.23373247434E+04  0.50400001928E-02 0. -1.
        1   -1    0    0  501    0  0.00000000000E+00  0.00000000000E+00 -0.10263819372E+04  0.10263819372E+04  0.50400001928E-02 0.  1.
    10030    2    1    2    0    0  0.00000000000E+00  0.00000000000E+00  0.13109428062E+04  0.33637066806E+04  0.30977332990E+04 0.  0.
        2    1    3    3  502    0 -0.14061038330E+03  0.10560337511E+04 -0.56534184664E+03  0.12060638320E+04  0.25500000920E-02 0.  1.
       -2    1    3    3    0  502  0.14061038330E+03 -0.10560337511E+04  0.18762846529E+04  0.21576428486E+04  0.25500000920E-02 0. -1.
</event>
<event>
 5   0  0.1377237E-07  0.3098220E+04  0.7818609E-02  0.8216227E-01
       -2   -1    0    0    0  501  0.00000000000E+00  0.00000000000E+00  0.15571793875E+04  0.15571793875E+04  0.25500000920E-02 0.  1.
        2   -1    0    0  501    0  0.00000000000E+00  0.00000000000E+00 -0.15410819327E+04  0.15410819327E+04  0.25500000920E-02 0. -1.
    10030    2    1    2    0    0  0.00000000000E+00  0.00000000000E+00  0.16097454768E+02  0.30982613203E+04  0.30982195017E+04 0.  0.
        2    1    3    3  502    0 -0.11813736437E+03 -0.15103789941E+04  0.33137936228E+03  0.15508105702E+04  0.25500000920E-02 0.  1.
       -2    1    3    3    0  502  0.11813736437E+03  0.15103789941E+04 -0.31528190751E+03  0.15474507501E+04  0.25500000920E-02 0. -1.
</event>
<event>
 5   0  0.4436241E-08  0.3100117E+04  0.7818609E-02  0.8215706E-01
        1   -1    0    0  501    0  0.00000000000E+00  0.00000000000E+00  0.20477622540E+04  0.20477622540E+04  0.50400001928E-02 0. -1.
       -1   -1    0    0    0  501  0.00000000000E+00  0.00000000000E+00 -0.11733205938E+04  0.11733205938E+04  0.50400001928E-02 0.  1.
    10030    2    1    2    0    0  0.00000000000E+00  0.00000000000E+00  0.87444166027E+03  0.32210828478E+04  0.31001171745E+04 0.  0.
        3    1    3    3  502    0  0.61065634771E+03  0.95528508824E+03  0.15354459075E+04  0.19086814611E+04  0.10100000352E+00 0. -1.
       -3    1    3    3    0  502 -0.61065634771E+03 -0.95528508824E+03 -0.66100424725E+03  0.13124013867E+04  0.10100000352E+00 0.  1.
</event>
<event>
 5   0  0.1318916E-07  0.3103052E+04  0.7818609E-02  0.8214901E-01
        2   -1    0    0  501    0  0.00000000000E+00  0.00000000000E+00  0.22327990813E+04  0.22327990813E+04  0.25500000920E-02 0.  1.
       -2   -1    0    0    0  501  0.00000000000E+00  0.00000000000E+00 -0.10781235597E+04  0.10781235597E+04  0.25500000920E-02 0. -1.
    10030    2    1    2    0    0  0.00000000000E+00  0.00000000000E+00  0.11546755216E+04  0.33109226410E+04  0.31030522352E+04 0.  0.
        5    1    3    3  502    0  0.26621373739E+03 -0.13013665009E+04 -0.27810977901E+03  0.13571262516E+04  0.46999998093E+01 0. -1.
       -5    1    3    3    0  502 -0.26621373739E+03  0.13013665009E+04  0.14327853006E+04  0.19537963894E+04  0.46999998093E+01 0.  1.
</event>
<event>
 5   0  0.4436241E-08  0.3100952E+04  0.7818609E-02  0.8215477E-01
       -1   -1    0    0    0  501  0.00000000000E+00  0.00000000000E+00  0.13456743356E+04  0.13456743356E+04  0.50400001928E-02 0.  1.
        1   -1    0    0  501    0  0.00000000000E+00  0.00000000000E+00 -0.17864468119E+04  0.17864468119E+04  0.50400001928E-02 0. -1.
    10030    2    1    2    0    0  0.00000000000E+00  0.00000000000E+00 -0.44077247634E+03  0.31321211475E+04  0.31009518711E+04 0.  0.
        3    1    3    3  502    0  0.46563445477E+03 -0.14564056473E+04 -0.47995721916E+03  0.16025890919E+04  0.10100000352E+00 0. -1.
       -3    1    3    3    0  502 -0.46563445477E+03  0.14564056473E+04  0.39184742825E+02  0.15295320557E+04  0.10100000352E+00 0.  1.
</event>
<event>
 5   0  0.1377237E-07  0.3099749E+04  0.7818609E-02  0.8215807E-01
        2   -1    0    0  501    0  0.00000000000E+00  0.00000000000E+00  0.13982505323E+04  0.13982505323E+04  0.25500000920E-02 0.  1.
       -2   -1    0    0    0  501  0.00000000000E+00  0.00000000000E+00 -0.17179399761E+04  0.17179399761E+04  0.25500000920E-02 0. -1.
    10030    2    1    2    0    0  0.00000000000E+00  0.00000000000E+00 -0.31968944388E+03  0.31161905084E+04  0.30997486905E+04 0.  0.
        2    1    3    3  502    0  0.91833476481E+03  0.10340259227E+04 -0.86324320289E+03  0.16302567824E+04  0.25500000920E-02 0. -1.
       -2    1    3    3    0  502 -0.91833476481E+03 -0.10340259227E+04  0.54355375901E+03  0.14859337260E+04  0.25500000920E-02 0.  1.
</event>
<event>
 5   0  0.1325713E-07  0.3100314E+04  0.7818609E-02  0.8215652E-01
        2   -1    0    0  501    0  0.00000000000E+00  0.00000000000E+00  0.24442139711E+04  0.24442139711E+04  0.25500000920E-02 0.  1.
       -2   -1    0    0    0  501  0.00000000000E+00  0.00000000000E+00 -0.98313271428E+03  0.98313271428E+03  0.25500000920E-02 0. -1.
    10030    2    1    2    0    0  0.00000000000E+00  0.00000000000E+00  0.14610812568E+04  0.34273466854E+04  0.31003139942E+04 0.  0.
        4    1    3    3  502    0  0.25169271694E+03  0.10166291839E+04 -0.53285896848E+03  0.11750848542E+04  0.12699999809E+01 0. -1.
       -4    1    3    3    0  502 -0.25169271694E+03 -0.10166291839E+04  0.19939402253E+04  0.22522618312E+04  0.12699999809E+01 0.  1.
</event>
<event>
 5   0  0.4470354E-08  0.3100105E+04  0.7818609E-02  0.8215709E-01
       -1   -1    0    0    0  501  0.00000000000E+00  0.00000000000E+00  0.13226133750E+04  0.13226133750E+04  0.50400001928E-02 0. -1.
        1   -1    0    0  501    0  0.00000000000E+00  0.00000000000E+00 -0.18166027592E+04  0.18166027592E+04  0.50400001928E-02 0.  1.
    10030    2    1    2    0    0  0.00000000000E+00  0.00000000000E+00 -0.49398938420E+03  0.31392161342E+04  0.31001052281E+04 0.  0.
        1    1    3    3  502    0 -0.12207112579E+04  0.28516829740E+03  0.67621246415E+03  0.14243315028E+04  0.50400001928E-02 0.  1.
       -1    1    3    3    0  502  0.12207112579E+04 -0.28516829740E+03 -0.11702018484E+04  0.17148846314E+04  0.50400001928E-02 0. -1.
</event>
<event>
 5   0  0.1398931E-07  0.3100733E+04  0.7818609E-02  0.8215537E-01
        2   -1    0    0  501    0  0.00000000000E+00  0.00000000000E+00  0.18471827609E+04  0.18471827609E+04  0.25500000920E-02 0. -1.
       -2   -1    0    0    0  501  0.00000000000E+00  0.00000000000E+00 -0.13012440534E+04  0.13012440534E+04  0.25500000920E-02 0.  1.
    10030    2    1    2    0    0  0.00000000000E+00  0.00000000000E+00  0.54593870758E+03  0.31484268143E+04  0.31007325477E+04 0.  0.
        3    1    3    3  502    0  0.30339836891E+03 -0.64128036284E+03 -0.11267644904E+04  0.13314988926E+04  0.10100000352E+00 0.  1.
       -3    1    3    3    0  502 -0.30339836891E+03  0.64128036284E+03  0.16727031980E+04  0.18169279217E+04  0.10100000352E+00 0. -1.
</event>
<event>
 5   0  0.1377237E-07  0.3099265E+04  0.7818609E-02  0.8215940E-01
        2   -1    0    0  501    0  0.00000000000E+00  0.00000000000E+00  0.26284590024E+04  0.26284590024E+04  0.25500000920E-02 0. -1.
       -2   -1    0    0    0  501  0.00000000000E+00  0.00000000000E+00 -0.91360006655E+03  0.91360006655E+03  0.25500000920E-02 0.  1.
    10030    2    1    2    0    0  0.00000000000E+00  0.00000000000E+00  0.17148589358E+04  0.35420590689E+04  0.30992646350E+04 0.  0.
        2    1    3    3  502    0  0.61914943618E+00 -0.30989984156E+03 -0.87782406963E+03  0.93092072293E+03  0.25500000920E-02 0.  1.
       -2    1    3    3    0  502 -0.61914943618E+00  0.30989984156E+03  0.25926830054E+04  0.26111383460E+04  0.25500000920E-02 0. -1.
</event>
<event>
 5   0  0.4436241E-08  0.3099828E+04  0.7818609E-02  0.8215785E-01
        1   -1    0    0  501    0  0.00000000000E+00  0.00000000000E+00  0.24920501464E+04  0.24920501464E+04  0.50400001928E-02 0.  1.
       -1   -1    0    0    0  501  0.00000000000E+00  0.00000000000E+00 -0.96395892608E+03  0.96395892610E+03  0.50400001928E-02 0. -1.
    10030    2    1    2    0    0  0.00000000000E+00  0.00000000000E+00  0.15280912203E+04  0.34560090725E+04  0.30998283713E+04 0.  0.
        3    1    3    3  502    0 -0.32242477141E+03 -0.10056849153E+04 -0.50070603668E+03  0.11687884443E+04  0.10100000352E+00 0. -1.
       -3    1    3    3    0  502  0.32242477141E+03  0.10056849153E+04  0.20287972570E+04  0.22872206283E+04  0.10100000352E+00 0.  1.
</event>
<event>
 5   0  0.4436241E-08  0.3098815E+04  0.7818609E-02  0.8216063E-01
       -1   -1    0    0    0  501  0.00000000000E+00  0.00000000000E+00  0.13947970176E+04  0.13947970177E+04  0.50400001928E-02 0.  1.
        1   -1    0    0  501    0  0.00000000000E+00  0.00000000000E+00 -0.17211561492E+04  0.17211561492E+04  0.50400001928E-02 0. -1.
    10030    2    1    2    0    0  0.00000000000E+00  0.00000000000E+00 -0.32635913154E+03  0.31159531669E+04  0.30988149114E+04 0.  0.
        3    1    3    3  502    0  0.91980295492E+03  0.91784892558E+03 -0.10117540446E+04  0.16468546940E+04  0.10100000352E+00 0. -1.
       -3    1    3    3    0  502 -0.91980295492E+03 -0.91784892558E+03  0.68539491304E+03  0.14690984729E+04  0.10100000352E+00 0.  1.
</event>
<event>
 5   0  0.4450600E-08  0.3100704E+04  0.7818609E-02  0.8215545E-01
       -1   -1    0    0    0  501  0.00000000000E+00  0.00000000000E+00  0.13619349027E+04  0.13619349028E+04  0.50400001928E-02 0. -1.
        1   -1    0    0  501    0  0.00000000000E+00  0.00000000000E+00 -0.17648358857E+04  0.17648358857E+04  0.50400001928E-02 0.  1.
    10030    2    1    2    0    0  0.00000000000E+00  0.00000000000E+00 -0.40290098297E+03  0.31267707885E+04  0.31007041719E+04 0.  0.
        4    1    3    3  502    0  0.10015056006E+04  0.11445000359E+04  0.10223930720E+03  0.15242533546E+04  0.12699999809E+01 0. -1.
       -4    1    3    3    0  502 -0.10015056006E+04 -0.11445000359E+04 -0.50514029017E+03  0.16025174339E+04  0.12699999809E+01 0.  1.
</event>
<event>
 5   0  0.1398931E-07  0.3100989E+04  0.7818609E-02  0.8215467E-01
        2   -1    0    0  501    0  0.00000000000E+00  0.00000000000E+00  0.23085658421E+04  0.23085658421E+04  0.25500000920E-02 0. -1.
       -2   -1    0    0    0  501  0.00000000000E+00  0.00000000000E+00 -0.10413534995E+04  0.10413534995E+04  0.25500000920E-02 0.  1.
    10030    2    1    2    0    0  0.00000000000E+00  0.00000000000E+00  0.12672123426E+04  0.33499193415E+04  0.31009889509E+04 0.  0.
        3    1    3    3  502    0 -0.11376940747E+04  0.61953219516E+03 -0.28676309356E+03  0.13268010516E+04  0.10100000352E+00 0. -1.
       -3    1    3    3    0  502  0.11376940747E+04 -0.61953219516E+03  0.15539754362E+04  0.20231182899E+04  0.10100000352E+00 0.  1.
</event>
<event>
 5   0  0.1377237E-07  0.3099401E+04  0.7818609E-02  0.8215902E-01
        2   -1    0    0  501    0  0.00000000000E+00  0.00000000000E+00  0.25312263107E+04  0.25312263107E+04  0.25500000920E-02 0.  1.
       -2   -1    0    0    0  501  0.00000000000E+00  0.00000000000E+00 -0.94877792030E+03  0.94877792031E+03  0.25500000920E-02 0. -1.
    10030    2    1    2    0    0  0.00000000000E+00  0.00000000000E+00  0.15824483904E+04  0.34800042310E+04  0.30994009969E+04 0.  0.
        2    1    3    3  502    0  0.71122741227E+03  0.96651236394E+03  0.18922435471E+04  0.22406642370E+04  0.25500000920E-02 0.  1.
       -2    1    3    3    0  502 -0.71122741227E+03 -0.96651236394E+03 -0.30979515667E+03  0.12393399940E+04  0.25500000920E-02 0. -1.
</event>
<event>
 5   0  0.1325713E-07  0.3099598E+04  0.7818609E-02  0.8215848E-01
        2   -1    0    0  501    0  0.00000000000E+00  0.00000000000E+00  0.16799097574E+04  0.16799097574E+04  0.25500000920E-02 0. -1.
       -2   -1    0    0    0  501  0.00000000000E+00  0.00000000000E+00 -0.14297656479E+04  0.14297656479E+04  0.25500000920E-02 0.  1.
    10030    2    1    2    0    0  0.00000000000E+00  0.00000000000E+00  0.25014410946E+03  0.31096754053E+04  0.30995982079E+04 0.  0.
        4    1    3    3  502    0 -0.14902509505E+04  0.15670675195E+03  0.52192192009E+03  0.15867605380E+04  0.12699999809E+01 0.  1.
       -4    1    3    3    0  502  0.14902509505E+04 -0.15670675195E+03 -0.27177781063E+03  0.15229148672E+04  0.12699999809E+01 0. -1.
</event>
<event>
 5   0  0.4517409E-08  0.3100806E+04  0.7818609E-02  0.8215517E-01
       -1   -1    0    0    0  501  0.00000000000E+00  0.00000000000E+00  0.15808700262E+04  0.15808700262E+04  0.50400001928E-02 0.  1.
        1   -1    0    0  501    0  0.00000000000E+00  0.00000000000E+00 -0.15205232127E+04  0.15205232127E+04  0.50400001928E-02 0. -1.
    10030    2    1    2    0    0  0.00000000000E+00  0.00000000000E+00  0.60346813532E+02  0.31013932389E+04  0.31008060701E+04 0.  0.
        2    1    3    3  502    0 -0.34470318092E+03  0.11415196245E+04  0.10212506597E+04  0.15699809699E+04  0.25500000920E-02 0.  1.
       -2    1    3    3    0  502  0.34470318092E+03 -0.11415196245E+04 -0.96090384612E+03  0.15314122690E+04  0.25500000920E-02 0. -1.
</event>
<event>
 5   0  0.1398931E-07  0.3100088E+04  0.7818609E-02  0.8215714E-01
       -2   -1    0    0    0  501  0.00000000000E+00  0.00000000000E+00  0.13257805722E+04  0.13257805722E+04  0.25500000920E-02 0. -1.
        2   -1    0    0  501    0  0.00000000000E+00  0.00000000000E+00 -0.18122429870E+04  0.18122429870E+04  0.25500000920E-02 0.  1.
    10030    2    1    2    0    0  0.00000000000E+00  0.00000000000E+00 -0.48646241481E+03  0.31380235592E+04  0.31000880919E+04 0.  0.
        3    1    3    3  502    0  0.76487516941E+03  0.11377579653E+04 -0.97534467255E+03  0.16825054094E+04  0.10100000352E+00 0.  1.
       -3    1    3    3    0  502 -0.76487516941E+03 -0.11377579653E+04  0.48888225774E+03  0.14555181498E+04  0.10100000352E+00 0. -1.
</event>
<event>
 5   0  0.1377237E-07  0.3094630E+04  0.7818609E-02  0.8217213E-01
       -2   -1    0    0    0  501  0.00000000000E+00  0.00000000000E+00  0.13162117369E+04  0.13162117369E+04  0.25500000920E-02 0.  1.
        2   -1    0    0  501    0  0.00000000000E+00  0.00000000000E+00 -0.18189959689E+04  0.18189959689E+04  0.25500000920E-02 0. -1.
    10030    2    1    2    0    0  0.00000000000E+00  0.00000000000E+00 -0.50278423198E+03  0.31352077058E+04  0.30946300869E+04 0.  0.
        2    1    3    3  502    0 -0.11924437367E+04 -0.25491386980E+03 -0.12163945528E+04  0.17223585150E+04  0.25500000920E-02 0. -1.
       -2    1    3    3    0  502  0.11924437367E+04  0.25491386980E+03  0.71361032078E+03  0.14128491908E+04  0.25500000920E-02 0.  1.
</event>
<event>
 5   0  0.4470354E-08  0.3096644E+04  0.7818609E-02  0.8216659E-01
       -1   -1    0    0    0  501  0.00000000000E+00  0.00000000000E+00  0.12039027122E+04  0.12039027122E+04  0.50400001928E-02 0.  1.
        1   -1    0    0  501    0  0.00000000000E+00  0.00000000000E+00 -0.19912749009E+04  0.19912749009E+04  0.50400001928E-02 0. -1.
    10030    2    1    2    0    0  0.00000000000E+00  0.00000000000E+00 -0.78737218866E+03  0.31951776131E+04  0.30966441538E+04 0.  0.
        1    1    3    3  502    0 -0.11398293295E+04  0.97819310841E+03 -0.78144789532E+03  0.16931430745E+04  0.50400001928E-02 0.  1.
       -1    1    3    3    0  502  0.11398293295E+04 -0.97819310841E+03 -0.59242933338E+01  0.15020345385E+04  0.50400001928E-02 0. -1.
</event>
<event>
 5   0  0.4436241E-08  0.3101751E+04  0.7818609E-02  0.8215258E-01
       -1   -1    0    0    0  501  0.00000000000E+00  0.00000000000E+00  0.14982751205E+04  0.14982751205E+04  0.50400001928E-02 0.  1.
        1   -1    0    0  501    0  0.00000000000E+00  0.00000000000E+00 -0.16053221451E+04  0.16053221451E+04  0.50400001928E-02 0. -1.
    10030    2    1    2    0    0  0.00000000000E+00  0.00000000000E+00 -0.10704702460E+03  0.31035972655E+04  0.31017506220E+04 0.  0.
        3    1    3    3  502    0 -0.85514502432E+03 -0.10628409030E+03 -0.13437270690E+04  0.15962993975E+04  0.10100000352E+00 0. -1.
       -3    1    3    3    0  502  0.85514502432E+03  0.10628409030E+03  0.12366800444E+04  0.15072978680E+04  0.10100000352E+00 0.  1.
</event>
<event>
 5   0  0.4450600E-08  0.3099493E+04  0.7818609E-02  0.8215877E-01
        1   -1    0    0  501    0  0.00000000000E+00  0.00000000000E+00  0.22297893173E+04  0.22297893173E+04  0.50400001928E-02 0.  1.
       -1   -1    0    0    0  501  0.00000000000E+00  0.00000000000E+00 -0.10771039846E+04  0.10771039847E+04  0.50400001928E-02 0. -1.
    10030    2    1    2    0    0  0.00000000000E+00  0.00000000000E+00  0.11526853327E+04  0.33068933020E+04  0.30994934803E+04 0.  0.
        4    1    3    3  502    0  0.24566510658E+03  0.46004494135E+03  0.21333504246E+04  0.21961735677E+04  0.12699999809E+01 0.  1.
       -4    1    3    3    0  502 -0.24566510658E+03 -0.46004494135E+03 -0.98066509191E+03  0.11107197342E+04  0.12699999809E+01 0. -1.
</event>
<event>
 5   0  0.4436241E-08  0.3100641E+04  0.7818609E-02  0.8215562E-01
        1   -1    0    0  501    0  0.00000000000E+00  0.00000000000E+00  0.20129150333E+04  0.20129150333E+04  0.50400001928E-02 0.  1.
       -1   -1    0    0    0  501  0.00000000000E+00  0.00000000000E+00 -0.11940365075E+04  0.11940365076E+04  0.50400001928E-02 0. -1.
    10030    2    1    2    0    0  0.00000000000E+00  0.00000000000E+00  0.81887852571E+03  0.32069515408E+04  0.31006412474E+04 0.  0.
        3    1    3    3  502    0  0.10680083539E+04  0.33011871198E+03 -0.70157603009E+03  0.13197837490E+04  0.10100000352E+00 0. -1.
       -3    1    3    3    0  502 -0.10680083539E+04 -0.33011871198E+03  0.15204545558E+04  0.18871677918E+04  0.10100000352E+00 0.  1.
</event>
<event>
 5   0  0.1398931E-07  0.3099753E+04  0.7818609E-02  0.8215806E-01
        2   -1    0    0  501    0  0.00000000000E+00  0.00000000000E+00  0.19827455634E+04  0.19827455634E+04  0.25500000920E-02 0.  1.
       -2   -1    0    0    0  501  0.00000000000E+00  0.00000000000E+00 -0.12115104013E+04  0.12115104013E+04  0.25500000920E-02 0. -1.
    10030    2    1    2    0    0  0.00000000000E+00  0.00000000000E+00  0.77123516209E+03  0.31942559648E+04  0.30997528116E+04 0.  0.
        3    1    3    3  502    0 -0.55669390462E+03 -0.19463312500E+03 -0.10913719188E+04  0.12405171632E+04  0.10100000352E+00 0. -1.
       -3    1    3    3    0  502  0.55669390462E+03  0.19463312500E+03  0.18626070809E+04  0.19537388016E+04  0.10100000352E+00 0.  1.
</event>
<event>
 5   0  0.4450600E-08  0.3100405E+04  0.7818609E-02  0.8215627E-01
       -1   -1    0    0    0  501  0.00000000000E+00  0.00000000000E+00  0.82273972908E+03  0.82273972909E+03  0.50400001928E-02 0.  1.
        1   -1    0    0  501    0  0.00000000000E+00  0.00000000000E+00 -0.29208840665E+04  0.29208840665E+04  0.50400001928E-02 0. -1.
    10030    2    1    2    0    0  0.00000000000E+00  0.00000000000E+00 -0.20981443374E+04  0.37436237956E+04  0.31004047256E+04 0.  0.
        4    1    3    3  502    0  0.13100142820E+04 -0.19844798821E+03 -0.20207660892E+04  0.24164056413E+04  0.12699999809E+01 0. -1.
       -4    1    3    3    0  502 -0.13100142820E+04  0.19844798821E+03 -0.77378248200E+02  0.13272181543E+04  0.12699999809E+01 0.  1.
</event>
<event>
 5   0  0.1329777E-07  0.3100683E+04  0.7818609E-02  0.8215551E-01
       -2   -1    0    0    0  501  0.00000000000E+00  0.00000000000E+00  0.12226775661E+04  0.12226775661E+04  0.25500000920E-02 0. -1.
        2   -1    0    0  501    0  0.00000000000E+00  0.00000000000E+00 -0.19658155358E+04  0.19658155358E+04  0.25500000920E-02 0.  1.
    10030    2    1    2    0    0  0.00000000000E+00  0.00000000000E+00 -0.74313796975E+03  0.31884931019E+04  0.31006828633E+04 0.  0.
        1    1    3    3  502    0 -0.36433015827E+03 -0.74394154240E+03  0.97602932369E+03  0.12801635534E+04  0.50400001928E-02 0. -1.
       -1    1    3    3    0  502  0.36433015827E+03  0.74394154240E+03 -0.17191672934E+04  0.19083295485E+04  0.50400001928E-02 0.  1.
</event>
<event>
 5   0  0.4517409E-08  0.3100237E+04  0.7818609E-02  0.8215673E-01
       -1   -1    0    0    0  501  0.00000000000E+00  0.00000000000E+00  0.14609884210E+04  0.14609884210E+04  0.50400001928E-02 0.  1.
        1   -1    0    0  501    0  0.00000000000E+00  0.00000000000E+00 -0.16446859387E+04  0.16446859387E+04  0.50400001928E-02 0. -1.
    10030    2    1    2    0    0  0.00000000000E+00  0.00000000000E+00 -0.18369751776E+03  0.31056743597E+04  0.31002368378E+04 0.  0.
        2    1    3    3  502    0 -0.74094854632E+03 -0.97134487351E+03  0.86394810348E+03  0.14963027558E+04  0.25500000920E-02 0.  1.
       -2    1    3    3    0  502  0.74094854632E+03  0.97134487351E+03 -0.10476456212E+04  0.16093716039E+04  0.25500000920E-02 0. -1.
</event>
<event>
 5   0  0.4436241E-08  0.3099013E+04  0.7818609E-02  0.8216009E-01
       -1   -1    0    0    0  501  0.00000000000E+00  0.00000000000E+00  0.82372008587E+03  0.82372008588E+03  0.50400001928E-02 0.  1.
        1   -1    0    0  501    0  0.00000000000E+00  0.00000000000E+00 -0.29147883871E+04  0.29147883871E+04  0.50400001928E-02 0. -1.
    10030    2    1    2    0    0  0.00000000000E+00  0.00000000000E+00 -0.20910683012E+04  0.37385084729E+04  0.30990125786E+04 0.  0.
        3    1    3    3  502    0 -0.92750203550E+03 -0.63635552490E+03  0.24010347225E+03  0.11501556710E+04  0.10100000352E+00 0.  1.
       -3    1    3    3    0  502  0.92750203550E+03  0.63635552490E+03 -0.23311717734E+04  0.25883528020E+04  0.10100000352E+00 0. -1.
</event>
<event>
 5   0  0.1329777E-07  0.3085569E+04  0.7818609E-02  0.8219709E-01
        2   -1    0    0  501    0  0.00000000000E+00  0.00000000000E+00  0.16549158292E+04  0.16549158292E+04  0.25500000920E-02 0. -1.
       -2   -1    0    0    0  501  0.00000000000E+00  0.00000000000E+00 -0.14382510012E+04  0.14382510013E+04  0.25500000920E-02 0.  1.
    10030    2    1    2    0    0  0.00000000000E+00  0.00000000000E+00  0.21666482792E+03  0.30931668304E+04  0.30855692170E+04 0.  0.
        1    1    3    3  502    0  0.31807724491E+03  0.79109269281E+03 -0.11805953863E+04  0.14562988184E+04  0.50400001928E-02 0.  1.
       -1    1    3    3    0  502 -0.31807724491E+03 -0.79109269281E+03  0.13972602142E+04  0.16368680120E+04  0.50400001928E-02 0. -1.
</event>
<event>
 5   0  0.4450600E-08  0.3101366E+04  0.7818609E-02  0.8215363E-01
       -1   -1    0    0    0  501  0.00000000000E+00  0.00000000000E+00  0.15604024836E+04  0.15604024836E+04  0.50400001928E-02 0.  1.
        1   -1    0    0  501    0  0.00000000000E+00  0.00000000000E+00 -0.15410235733E+04  0.15410235733E+04  0.50400001928E-02 0. -1.
    10030    2    1    2    0    0  0.00000000000E+00  0.00000000000E+00  0.19378910256E+02  0.31014260569E+04  0.31013655128E+04 0.  0.
        4    1    3    3  502    0 -0.34318221444E+03  0.14605083904E+04 -0.38243630363E+03  0.15482628750E+04  0.12699999809E+01 0. -1.
       -4    1    3    3    0  502  0.34318221444E+03 -0.14605083904E+04  0.40181521389E+03  0.15531631819E+04  0.12699999809E+01 0.  1.
</event>
<event>
 5   0  0.1377237E-07  0.3099199E+04  0.7818609E-02  0.8215958E-01
        2   -1    0    0  501    0  0.00000000000E+00  0.00000000000E+00  0.10803424245E+04  0.10803424245E+04  0.25500000920E-02 0. -1.
       -2   -1    0    0    0  501  0.00000000000E+00  0.00000000000E+00 -0.22226831123E+04  0.22226831123E+04  0.25500000920E-02 0.  1.
    10030    2    1    2    0    0  0.00000000000E+00  0.00000000000E+00 -0.11423406879E+04  0.33030255368E+04  0.30991991626E+04 0.  0.
        2    1    3    3  502    0  0.11114910079E+04  0.10773728625E+04 -0.49495256944E+03  0.16251530979E+04  0.25500000920E-02 0. -1.
       -2    1    3    3    0  502 -0.11114910079E+04 -0.10773728625E+04 -0.64738811842E+03  0.16778724389E+04  0.25500000920E-02 0.  1.
</event>
<event>
 5   0  0.4838602E-08  0.3099897E+04  0.7818609E-02  0.8215766E-01
        1   -1    0    0  501    0  0.00000000000E+00  0.00000000000E+00  0.19672893579E+04  0.19672893579E+04  0.50400001928E-02 0. -1.
       -1   -1    0    0    0  501  0.00000000000E+00  0.00000000000E+00 -0.12211425703E+04  0.12211425703E+04  0.50400001928E-02 0.  1.
    10030    2    1    2    0    0  0.00000000000E+00  0.00000000000E+00  0.74614678761E+03  0.31884319282E+04  0.30998972777E+04 0.  0.
        5    1    3    3  502    0 -0.90551177706E+03  0.23748910439E+03  0.16436541723E+04  0.18915532721E+04  0.46999998093E+01 0. -1.
       -5    1    3    3    0  502  0.90551177706E+03 -0.23748910439E+03 -0.89750738470E+03  0.12968786561E+04  0.46999998093E+01 0.  1.
</event>
<event>
 5   0  0.1398931E-07  0.3100987E+04  0.7818609E-02  0.8215467E-01
        2   -1    0    0  501    0  0.00000000000E+00  0.00000000000E+00  0.16484202303E+04  0.16484202303E+04  0.25500000920E-02 0. -1.
       -2   -1    0    0    0  501  0.00000000000E+00  0.00000000000E+00 -0.14583843669E+04  0.14583843669E+04  0.25500000920E-02 0.  1.
    10030    2    1    2    0    0  0.00000000000E+00  0.00000000000E+00  0.19003586336E+03  0.31068045972E+04  0.31009871293E+04 0.  0.
        3    1    3    3  502    0 -0.32939637315E+03  0.12576874377E+04 -0.75140461877E+03  0.15016286401E+04  0.10100000352E+00 0. -1.
       -3    1    3    3    0  502  0.32939637315E+03 -0.12576874377E+04  0.94144048213E+03  0.16051759571E+04  0.10100000352E+00 0.  1.
</event>
<event>
 5   0  0.4517409E-08  0.3100634E+04  0.7818609E-02  0.8215564E-01
        1   -1    0    0  501    0  0.00000000000E+00  0.00000000000E+00  0.79772160892E+03  0.79772160893E+03  0.50400001928E-02 0. -1.
       -1   -1    0    0    0  501  0.00000000000E+00  0.00000000000E+00 -0.30129335735E+04  0.30129335735E+04  0.50400001928E-02 0.  1.
    10030    2    1    2    0    0  0.00000000000E+00  0.00000000000E+00 -0.22152119646E+04  0.38106551825E+04  0.31006336242E+04 0.  0.
        2    1    3    3  502    0 -0.17242171896E+03 -0.86813041394E+03  0.45669548652E+03  0.99596708389E+03  0.25500000920E-02 0. -1.
       -2    1    3    3    0  502  0.17242171896E+03  0.86813041394E+03 -0.26719074511E+04  0.28146880986E+04  0.25500000920E-02 0.  1.
</event>
<event>
 5   0  0.1377237E-07  0.3098972E+04  0.7818609E-02  0.8216020E-01
        2   -1    0    0  501    0  0.00000000000E+00  0.00000000000E+00  0.29374024902E+04  0.29374024902E+04  0.25500000920E-02 0.  1.
       -2   -1    0    0    0  501  0.00000000000E+00  0.00000000000E+00 -0.81735690990E+03  0.81735690991E+03  0.25500000920E-02 0. -1.
    10030    2    1    2    0    0  0.00000000000E+00  0.00000000000E+00  0.21200455803E+04  0.37547594001E+04  0.30989715859E+04 0.  0.
        2    1    3    3  502    0  0.10623588409E+04 -0.53074357400E+03 -0.14589063559E+03  0.11964861577E+04  0.25500000920E-02 0. -1.
       -2    1    3    3    0  502 -0.10623588409E+04  0.53074357400E+03  0.22659362159E+04  0.25582732424E+04  0.25500000920E-02 0.  1.
</event>
<event>
 5   0  0.1329777E-07  0.3102676E+04  0.7818609E-02  0.8215004E-01
        2   -1    0    0  501    0  0.00000000000E+00  0.00000000000E+00  0.24504585768E+04  0.24504585768E+04  0.25500000920E-02 0.  1.
       -2   -1    0    0    0  501  0.00000000000E+00  0.00000000000E+00 -0.98212227918E+03  0.98212227919E+03  0.25500000920E-02 0. -1.
    10030    2    1    2    0    0  0.00000000000E+00  0.00000000000E+00  0.14683362977E+04  0.34325808560E+04  0.31026762400E+04 0.  0.
        1    1    3    3  502    0 -0.36944919764E+03  0.41982321114E+03 -0.86672696174E+03  0.10314843016E+04  0.50400001928E-02 0. -1.
       -1    1    3    3    0  502  0.36944919764E+03 -0.41982321114E+03  0.23350632594E+04  0.24010965544E+04  0.50400001928E-02 0.  1.
</event>
<event>
 5   0  0.4436241E-08  0.3092921E+04  0.7818609E-02  0.8217683E-01
       -1   -1    0    0    0  501  0.00000000000E+00  0.00000000000E+00  0.17468310205E+04  0.17468310205E+04  0.50400001928E-02 0.  1.
        1   -1    0    0  501    0  0.00000000000E+00  0.00000000000E+00 -0.13690738363E+04  0.13690738363E+04  0.50400001928E-02 0. -1.
    10030    2    1    2    0    0  0.00000000000E+00  0.00000000000E+00  0.37775718424E+03  0.31159048568E+04  0.30929213677E+04 0.  0.
        3    1    3    3  502    0  0.13893876671E+04 -0.60234865815E+03  0.50476667553E+03  0.15962491667E+04  0.10100000352E+00 0. -1.
       -3    1    3    3    0  502 -0.13893876671E+04  0.60234865815E+03 -0.12700949130E+03  0.15196556901E+04  0.10100000352E+00 0.  1.
</event>
<event>
 5   0  0.4450600E-08  0.3100245E+04  0.7818609E-02  0.8215671E-01
       -1   -1    0    0    0  501  0.00000000000E+00  0.00000000000E+00  0.15573589949E+04  0.15573589949E+04  0.50400001928E-02 0.  1.
        1   -1    0    0  501    0  0.00000000000E+00  0.00000000000E+00 -0.15429198351E+04  0.15429198351E+04  0.50400001928E-02 0. -1.
    10030    2    1    2    0    0  0.00000000000E+00  0.00000000000E+00  0.14439159827E+02  0.31002788300E+04  0.31002452055E+04 0.  0.
        4    1    3    3  502    0  0.42520463086E+03 -0.36275521507E+03 -0.14386481501E+04  0.15434054674E+04  0.12699999809E+01 0. -1.
       -4    1    3    3    0  502 -0.42520463086E+03  0.36275521507E+03  0.14530873099E+04  0.15568733626E+04  0.12699999809E+01 0.  1.
</event>
<event>
 5   0  0.1377237E-07  0.3102731E+04  0.7818609E-02  0.8214989E-01
        2   -1    0    0  501    0  0.00000000000E+00  0.00000000000E+00  0.22572428791E+04  0.22572428791E+04  0.25500000920E-02 0. -1.
       -2   -1    0    0    0  501  0.00000000000E+00  0.00000000000E+00 -0.10662278093E+04  0.10662278093E+04  0.25500000920E-02 0.  1.
    10030    2    1    2    0    0  0.00000000000E+00  0.00000000000E+00  0.11910150699E+04  0.33234706884E+04  0.31027311388E+04 0.  0.
        2    1    3    3  502    0  0.63035800991E+03 -0.10071977800E+04  0.16639358755E+04  0.20446225046E+04  0.25500000920E-02 0. -1.
       -2    1    3    3    0  502 -0.63035800991E+03  0.10071977800E+04 -0.47292080562E+03  0.12788481838E+04  0.25500000920E-02 0.  1.
</event>
<event>
 5   0  0.1325713E-07  0.3099542E+04  0.7818609E-02  0.8215864E-01
        2   -1    0    0  501    0  0.00000000000E+00  0.00000000000E+00  0.18628536573E+04  0.18628536573E+04  0.25500000920E-02 0.  1.
       -2   -1    0    0    0  501  0.00000000000E+00  0.00000000000E+00 -0.12893066516E+04  0.12893066516E+04  0.25500000920E-02 0. -1.
    10030    2    1    2    0    0  0.00000000000E+00  0.00000000000E+00  0.57354700564E+03  0.31521603089E+04  0.30995416508E+04 0.  0.
        4    1    3    3  502    0  0.14610285740E+03  0.93849999035E+03 -0.95862168462E+03  0.13494759812E+04  0.12699999809E+01 0. -1.
       -4    1    3    3    0  502 -0.14610285740E+03 -0.93849999035E+03  0.15321686903E+04  0.18026843276E+04  0.12699999809E+01 0.  1.
</event>
<event>
 5   0  0.1398931E-07  0.3090217E+04  0.7818609E-02  0.8218428E-01
        2   -1    0    0  501    0  0.00000000000E+00  0.00000000000E+00  0.15766577188E+04  0.15766577188E+04  0.25500000920E-02 0. -1.
       -2   -1    0    0    0  501  0.00000000000E+00  0.00000000000E+00 -0.15141903009E+04  0.15141903009E+04  0.25500000920E-02 0.  1.
    10030    2    1    2    0    0  0.00000000000E+00  0.00000000000E+00  0.62467417888E+02  0.30908480198E+04  0.30902167081E+04 0.  0.
        3    1    3    3  502    0  0.73390698034E+03 -0.13588175723E+04  0.79773664386E+02  0.15464050240E+04  0.10100000352E+00 0.  1.
       -3    1    3    3    0  502 -0.73390698034E+03  0.13588175723E+04 -0.17306246499E+02  0.15444429957E+04  0.10100000352E+00 0. -1.
</event>
<event>
 5   0  0.1318916E-07  0.3113668E+04  0.7818609E-02  0.8211997E-01
        2   -1    0    0  501    0  0.00000000000E+00  0.00000000000E+00  0.15027641018E+04  0.15027641019E+04  0.25500000920E-02 0.  1.
       -2   -1    0    0    0  501  0.00000000000E+00  0.00000000000E+00 -0.16128496524E+04  0.16128496524E+04  0.25500000920E-02 0. -1.
    10030    2    1    2    0    0  0.00000000000E+00  0.00000000000E+00 -0.11008555051E+03  0.31156137542E+04  0.31136682927E+04 0.  0.
        5    1    3    3  502    0 -0.53136329152E+03  0.59964307783E+02 -0.15180670573E+04  0.16095006512E+04  0.46999998093E+01 0. -1.
       -5    1    3    3    0  502  0.53136329152E+03 -0.59964307783E+02  0.14079815068E+04  0.15061131030E+04  0.46999998093E+01 0.  1.
</event>
<event>
 5   0  0.4450600E-08  0.3100459E+04  0.7818609E-02  0.8215612E-01
       -1   -1    0    0    0  501  0.00000000000E+00  0.00000000000E+00  0.13476158455E+04  0.13476158455E+04  0.50400001928E-02 0.  1.
        1   -1    0    0  501    0  0.00000000000E+00  0.00000000000E+00 -0.17833055854E+04  0.17833055854E+04  0.50400001928E-02 0. -1.
    10030    2    1    2    0    0  0.00000000000E+00  0.00000000000E+00 -0.43568973988E+03  0.31309214309E+04  0.31004585882E+04 0.  0.
        4    1    3    3  502    0 -0.62263266038E+03 -0.23861102590E+03 -0.16310961831E+04  0.17621245764E+04  0.12699999809E+01 0. -1.
       -4    1    3    3    0  502  0.62263266038E+03  0.23861102590E+03  0.11954064432E+04  0.13687968545E+04  0.12699999809E+01 0.  1.
</event>
<event>
 5   0  0.4838602E-08  0.3123447E+04  0.7818609E-02  0.8209332E-01
        1   -1    0    0  501    0  0.00000000000E+00  0.00000000000E+00  0.23247098436E+04  0.23247098436E+04  0.50400001928E-02 0. -1.
       -1   -1    0    0    0  501  0.00000000000E+00  0.00000000000E+00 -0.10491545936E+04  0.10491545936E+04  0.50400001928E-02 0.  1.
    10030    2    1    2    0    0  0.00000000000E+00  0.00000000000E+00  0.12755552500E+04  0.33738644372E+04  0.31234468212E+04 0.  0.
        5    1    3    3  502    0  0.65163511656E+03 -0.99289774722E+03 -0.45767149389E+03  0.12727763149E+04  0.46999998093E+01 0.  1.
       -5    1    3    3    0  502 -0.65163511656E+03  0.99289774722E+03  0.17332267439E+04  0.21010881222E+04  0.46999998093E+01 0. -1.
</event>
<event>
 5   0  0.4470354E-08  0.3100856E+04  0.7818609E-02  0.8215503E-01
       -1   -1    0    0    0  501  0.00000000000E+00  0.00000000000E+00  0.11582898334E+04  0.11582898334E+04  0.50400001928E-02 0. -1.
        1   -1    0    0  501    0  0.00000000000E+00  0.00000000000E+00 -0.20753240482E+04  0.20753240482E+04  0.50400001928E-02 0.  1.
    10030    2    1    2    0    0  0.00000000000E+00  0.00000000000E+00 -0.91703421485E+03  0.32336138816E+04  0.31008558471E+04 0.  0.
        1    1    3    3  502    0 -0.91556577471E+03  0.28626447050E+03  0.81167009969E+03  0.12565891873E+04  0.50400001928E-02 0. -1.
       -1    1    3    3    0  502  0.91556577471E+03 -0.28626447050E+03 -0.17287043145E+04  0.19770246943E+04  0.50400001928E-02 0.  1.
</event>
<event>
 5   0  0.1325713E-07  0.3099612E+04  0.7818609E-02  0.8215844E-01
       -2   -1    0    0    0  501  0.00000000000E+00  0.00000000000E+00  0.83613927400E+03  0.83613927400E+03  0.25500000920E-02 0.  1.
        2   -1    0    0  501    0  0.00000000000E+00  0.00000000000E+00 -0.28726053979E+04  0.28726053979E+04  0.25500000920E-02 0. -1.
    10030    2    1    2    0    0  0.00000000000E+00  0.00000000000E+00 -0.20364661239E+04  0.37087446719E+04  0.30996117124E+04 0.  0.
        4    1    3    3  502    0  0.32069483899E+03 -0.60143539918E+02 -0.28310421166E+04  0.28497830626E+04  0.12699999809E+01 0. -1.
       -4    1    3    3    0  502 -0.32069483899E+03  0.60143539918E+02  0.79457599269E+03  0.85896160928E+03  0.12699999809E+01 0.  1.
</event>
<event>
 5   0  0.1325713E-07  0.3099723E+04  0.7818609E-02  0.8215814E-01
       -2   -1    0    0    0  501  0.00000000000E+00  0.00000000000E+00  0.11632518120E+04  0.11632518120E+04  0.25500000920E-02 0.  1.
        2   -1    0    0  501    0  0.00000000000E+00  0.00000000000E+00 -0.20649612610E+04  0.20649612610E+04  0.25500000920E-02 0. -1.
    10030    2    1    2    0    0  0.00000000000E+00  0.00000000000E+00 -0.90170944908E+03  0.32282130730E+04  0.30997225221E+04 0.  0.
        4    1    3    3  502    0  0.11246554354E+04 -0.60268750862E+02  0.65797953964E+03  0.13043852415E+04  0.12699999809E+01 0.  1.
       -4    1    3    3    0  502 -0.11246554354E+04  0.60268750862E+02 -0.15596889887E+04  0.19238278315E+04  0.12699999809E+01 0. -1.
</event>
<event>
 5   0  0.4305500E-08  0.3080762E+04  0.7818609E-02  0.8221037E-01
       -3   -1    0    0    0  501  0.00000000000E+00  0.00000000000E+00  0.21507075927E+04  0.21507075951E+04  0.10100000352E+00 0. -1.
        3   -1    0    0  501    0  0.00000000000E+00  0.00000000000E+00 -0.11032528812E+04  0.11032528858E+04  0.10100000352E+00 0.  1.
    10030    2    1    2    0    0  0.00000000000E+00  0.00000000000E+00  0.10474547115E+04  0.32539604809E+04  0.30807624768E+04 0.  0.
        4    1    3    3  502    0 -0.13019988335E+04  0.39204630396E+03  0.12882078976E+04  0.18730676623E+04  0.12699999809E+01 0. -1.
       -4    1    3    3    0  502  0.13019988335E+04 -0.39204630396E+03 -0.24075318615E+03  0.13808928186E+04  0.12699999809E+01 0.  1.
</event>
<event>
 5   0  0.1377237E-07  0.3099726E+04  0.7818609E-02  0.8215813E-01
        2   -1    0    0  501    0  0.00000000000E+00  0.00000000000E+00  0.25771146431E+04  0.25771146431E+04  0.25500000920E-02 0.  1.
       -2   -1    0    0    0  501  0.00000000000E+00  0.00000000000E+00 -0.93207961675E+03  0.93207961675E+03  0.25500000920E-02 0. -1.
    10030    2    1    2    0    0  0.00000000000E+00  0.00000000000E+00  0.16450350263E+04  0.35091942598E+04  0.30997264582E+04 0.  0.
        2    1    3    3  502    0  0.25249631918E+03 -0.15062350099E+04  0.11211377091E+04  0.18945838749E+04  0.25500000920E-02 0. -1.
       -2    1    3    3    0  502 -0.25249631918E+03  0.15062350099E+04  0.52389731726E+03  0.16146103850E+04  0.25500000920E-02 0.  1.
</event>
<event>
 5   0  0.4517409E-08  0.3099098E+04  0.7818609E-02  0.8215986E-01
       -1   -1    0    0    0  501  0.00000000000E+00  0.00000000000E+00  0.89251223828E+03  0.89251223829E+03  0.50400001928E-02 0. -1.
        1   -1    0    0  501    0  0.00000000000E+00  0.00000000000E+00 -0.26902731229E+04  0.26902731229E+04  0.50400001928E-02 0.  1.
    10030    2    1    2    0    0  0.00000000000E+00  0.00000000000E+00 -0.17977608846E+04  0.35827853612E+04  0.30990977310E+04 0.  0.
        2    1    3    3  502    0  0.12430995681E+04 -0.87364266781E+03 -0.12505884602E+04  0.19678718312E+04  0.25500000920E-02 0.  1.
       -2    1    3    3    0  502 -0.12430995681E+04  0.87364266781E+03 -0.54717242440E+03  0.16149135300E+04  0.25500000920E-02 0. -1.
</event>
<event>
 5   0  0.4436241E-08  0.3093225E+04  0.7818609E-02  0.8217600E-01
       -1   -1    0    0    0  501  0.00000000000E+00  0.00000000000E+00  0.80202479303E+03  0.80202479305E+03  0.50400001928E-02 0. -1.
        1   -1    0    0  501    0  0.00000000000E+00  0.00000000000E+00 -0.29824632627E+04  0.29824632627E+04  0.50400001928E-02 0.  1.
    10030    2    1    2    0    0  0.00000000000E+00  0.00000000000E+00 -0.21804384697E+04  0.37844880557E+04  0.30932245189E+04 0.  0.
        3    1    3    3  502    0 -0.19464553551E+03  0.57229605076E+03  0.65150620160E+03  0.88874630527E+03  0.10100000352E+00 0. -1.
       -3    1    3    3    0  502  0.19464553551E+03 -0.57229605076E+03 -0.28319446713E+04  0.28957417505E+04  0.10100000352E+00 0.  1.
</event>
<event>
 5   0  0.1318916E-07  0.3099144E+04  0.7818609E-02  0.8215973E-01
        2   -1    0    0  501    0  0.00000000000E+00  0.00000000000E+00  0.19194884877E+04  0.19194884877E+04  0.25500000920E-02 0. -1.
       -2   -1    0    0    0  501  0.00000000000E+00  0.00000000000E+00 -0.12509447639E+04  0.12509447639E+04  0.25500000920E-02 0.  1.
    10030    2    1    2    0    0  0.00000000000E+00  0.00000000000E+00  0.66854372371E+03  0.31704332516E+04  0.30991444452E+04 0.  0.
        5    1    3    3  502    0 -0.12121832080E+04  0.95968334183E+03  0.22809749923E+03  0.15628278233E+04  0.46999998093E+01 0. -1.
       -5    1    3    3    0  502  0.12121832080E+04 -0.95968334183E+03  0.44044622448E+03  0.16076054282E+04  0.46999998093E+01 0.  1.
</event>
<event>
 5   0  0.1329777E-07  0.3099025E+04  0.7818609E-02  0.8216006E-01
        2   -1    0    0  501    0  0.00000000000E+00  0.00000000000E+00  0.86848078434E+03  0.86848078434E+03  0.25500000920E-02 0. -1.
       -2   -1    0    0    0  501  0.00000000000E+00  0.00000000000E+00 -0.27645843326E+04  0.27645843326E+04  0.25500000920E-02 0.  1.
    10030    2    1    2    0    0  0.00000000000E+00  0.00000000000E+00 -0.18961035483E+04  0.36330651170E+04  0.30990246011E+04 0.  0.
        1    1    3    3  502    0 -0.35244508834E+02 -0.50786998264E+03  0.76763918409E+03  0.92111020603E+03  0.50400001928E-02 0. -1.
       -1    1    3    3    0  502  0.35244508834E+02  0.50786998264E+03 -0.26637427324E+04  0.27119549109E+04  0.50400001928E-02 0.  1.
</event>
<event>
 5   0  0.4450600E-08  0.3100220E+04  0.7818609E-02  0.8215677E-01
       -1   -1    0    0    0  501  0.00000000000E+00  0.00000000000E+00  0.14278714775E+04  0.14278714775E+04  0.50400001928E-02 0.  1.
        1   -1    0    0  501    0  0.00000000000E+00  0.00000000000E+00 -0.16828135286E+04  0.16828135286E+04  0.50400001928E-02 0. -1.
    10030    2    1    2    0    0  0.00000000000E+00  0.00000000000E+00 -0.25494205115E+03  0.31106850061E+04  0.31002202757E+04 0.  0.
        4    1    3    3  502    0 -0.27527182864E+03  0.15084954569E+04  0.10024592611E+03  0.15366795312E+04  0.12699999809E+01 0.  1.
       -4    1    3    3    0  502  0.27527182864E+03 -0.15084954569E+04 -0.35518797726E+03  0.15740054749E+04  0.12699999809E+01 0. -1.
</event>
<event>
 5   0  0.4450600E-08  0.3093922E+04  0.7818609E-02  0.8217408E-01
       -1   -1    0    0    0  501  0.00000000000E+00  0.00000000000E+00  0.32454993709E+04  0.32454993710E+04  0.50400001928E-02 0. -1.
        1   -1    0    0  501    0  0.00000000000E+00  0.00000000000E+00 -0.73735589225E+03  0.73735589227E+03  0.50400001928E-02 0.  1.
    10030    2    1    2    0    0  0.00000000000E+00  0.00000000000E+00  0.25081434787E+04  0.39828552632E+04  0.30939218377E+04 0.  0.
        4    1    3    3  502    0  0.32207205827E+03  0.44388202114E+03 -0.60801427922E+03  0.81880683683E+03  0.12699999809E+01 0.  1.
       -4    1    3    3    0  502 -0.32207205827E+03 -0.44388202114E+03  0.31161577579E+04  0.31640484264E+04  0.12699999809E+01 0. -1.
</event>
<event>
 5   0  0.4838602E-08  0.3097521E+04  0.7818609E-02  0.8216419E-01
       -1   -1    0    0    0  501  0.00000000000E+00  0.00000000000E+00  0.14799223015E+04  0.14799223015E+04  0.50400001928E-02 0.  1.
        1   -1    0    0  501    0  0.00000000000E+00  0.00000000000E+00 -0.16208006225E+04  0.16208006225E+04  0.50400001928E-02 0. -1.
    10030    2    1    2    0    0  0.00000000000E+00  0.00000000000E+00 -0.14087832101E+03  0.31007229241E+04  0.30975209362E+04 0.  0.
        5    1    3    3  502    0  0.13827268279E+04 -0.31277865647E+03  0.55380223562E+03  0.15219996632E+04  0.46999998093E+01 0.  1.
       -5    1    3    3    0  502 -0.13827268279E+04  0.31277865647E+03 -0.69468055663E+03  0.15787232609E+04  0.46999998093E+01 0. -1.
</event>
<event>
 5   0  0.1325713E-07  0.3100561E+04  0.7818609E-02  0.8215584E-01
        2   -1    0    0  501    0  0.00000000000E+00  0.00000000000E+00  0.23848714696E+04  0.23848714696E+04  0.25500000920E-02 0.  1.
       -2   -1    0    0    0  501  0.00000000000E+00  0.00000000000E+00 -0.10077563416E+04  0.10077563416E+04  0.25500000920E-02 0. -1.
    10030    2    1    2    0    0  0.00000000000E+00  0.00000000000E+00  0.13771151280E+04  0.33926278112E+04  0.31005608186E+04 0.  0.
        4    1    3    3  502    0  0.20144476131E+03  0.30199706223E+03  0.23377088921E+04  0.23657275191E+04  0.12699999809E+01 0.  1.
       -4    1    3    3    0  502 -0.20144476131E+03 -0.30199706223E+03 -0.96059376411E+03  0.10269002921E+04  0.12699999809E+01 0. -1.
</event>
<event>
 5   0  0.4838602E-08  0.3090541E+04  0.7818609E-02  0.8218339E-01
        1   -1    0    0  501    0  0.00000000000E+00  0.00000000000E+00  0.25851153768E+04  0.25851153768E+04  0.50400001928E-02 0.  1.
       -1   -1    0    0    0  501  0.00000000000E+00  0.00000000000E+00 -0.92369608094E+03  0.92369608096E+03  0.50400001928E-02 0. -1.
    10030    2    1    2    0    0  0.00000000000E+00  0.00000000000E+00  0.16614192958E+04  0.35088114577E+04  0.30905410156E+04 0.  0.
        5    1    3    3  502    0 -0.14121465108E+04  0.58150368618E+03  0.10982609935E+04  0.18810910676E+04  0.46999998093E+01 0.  1.
       -5    1    3    3    0  502  0.14121465108E+04 -0.58150368618E+03  0.56315830233E+03  0.16277203901E+04  0.46999998093E+01 0. -1.
</event>
<event>
 5   0  0.1398931E-07  0.3100574E+04  0.7818609E-02  0.8215580E-01
        2   -1    0    0  501    0  0.00000000000E+00  0.00000000000E+00  0.87506974560E+03  0.87506974560E+03  0.25500000920E-02 0.  1.
       -2   -1    0    0    0  501  0.00000000000E+00  0.00000000000E+00 -0.27465129533E+04  0.27465129533E+04  0.25500000920E-02 0. -1.
    10030    2    1    2    0    0  0.00000000000E+00  0.00000000000E+00 -0.18714432077E+04  0.36215826989E+04  0.31005743928E+04 0.  0.
        3    1    3    3  502    0 -0.48250392754E+03  0.24150185488E+03  0.76185605068E+03  0.93357262072E+03  0.10100000352E+00 0.  1.
       -3    1    3    3    0  502  0.48250392754E+03 -0.24150185488E+03 -0.26332992584E+04  0.26880100782E+04  0.10100000352E+00 0. -1.
</event>
<event>
 5   0  0.1398931E-07  0.3099597E+04  0.7818609E-02  0.8215849E-01
       -2   -1    0    0    0  501  0.00000000000E+00  0.00000000000E+00  0.23731677947E+04  0.23731677947E+04  0.25500000920E-02 0. -1.
        2   -1    0    0  501    0  0.00000000000E+00  0.00000000000E+00 -0.10120966574E+04  0.10120966574E+04  0.25500000920E-02 0.  1.
    10030    2    1    2    0    0  0.00000000000E+00  0.00000000000E+00  0.13610711373E+04  0.33852644521E+04  0.30995968721E+04 0.  0.
        3    1    3    3  502    0  0.59510589781E+03  0.44291576358E+03  0.21666596895E+04  0.22901396515E+04  0.10100000352E+00 0. -1.
       -3    1    3    3    0  502 -0.59510589781E+03 -0.44291576358E+03 -0.80558855213E+03  0.10951248005E+04  0.10100000352E+00 0.  1.
</event>
<event>
 5   0  0.4305500E-08  0.3100383E+04  0.7818609E-02  0.8215633E-01
       -3   -1    0    0    0  501  0.00000000000E+00  0.00000000000E+00  0.24087266870E+04  0.24087266891E+04  0.10100000352E+00 0.  1.
        3   -1    0    0  501    0  0.00000000000E+00  0.00000000000E+00 -0.99766150818E+03  0.99766151330E+03  0.10100000352E+00 0. -1.
    10030    2    1    2    0    0  0.00000000000E+00  0.00000000000E+00  0.14110651788E+04  0.34063882024E+04  0.31003831451E+04 0.  0.
        5    1    3    3  502    0  0.78997504476E+03  0.51698618786E+03 -0.64534758132E+03  0.11436043374E+04  0.46999998093E+01 0. -1.
       -5    1    3    3    0  502 -0.78997504476E+03 -0.51698618786E+03  0.20564127601E+04  0.22627838650E+04  0.46999998093E+01 0.  1.
</event>
<event>
 5   0  0.4838602E-08  0.3099716E+04  0.7818609E-02  0.8215816E-01
        1   -1    0    0  501    0  0.00000000000E+00  0.00000000000E+00  0.15507730148E+04  0.15507730148E+04  0.50400001928E-02 0. -1.
       -1   -1    0    0    0  501  0.00000000000E+00  0.00000000000E+00 -0.15489432104E+04  0.15489432104E+04  0.50400001928E-02 0.  1.
    10030    2    1    2    0    0  0.00000000000E+00  0.00000000000E+00  0.18298044776E+01  0.30997162252E+04  0.30997156851E+04 0.  0.
        5    1    3    3  502    0 -0.10855818350E+04  0.86704448768E+03 -0.68594996251E+03  0.15494526470E+04  0.46999998093E+01 0.  1.
       -5    1    3    3    0  502  0.10855818350E+04 -0.86704448768E+03  0.68777976699E+03  0.15502635782E+04  0.46999998093E+01 0. -1.
</event>
<event>
 5   0  0.1398931E-07  0.3101231E+04  0.7818609E-02  0.8215400E-01
       -2   -1    0    0    0  501  0.00000000000E+00  0.00000000000E+00  0.15936420940E+04  0.15936420940E+04  0.25500000920E-02 0.  1.
        2   -1    0    0  501    0  0.00000000000E+00  0.00000000000E+00 -0.15087508338E+04  0.15087508338E+04  0.25500000920E-02 0. -1.
    10030    2    1    2    0    0  0.00000000000E+00  0.00000000000E+00  0.84891260207E+02  0.31023929278E+04  0.31012312639E+04 0.  0.
        3    1    3    3  502    0 -0.13631864839E+04 -0.16304734470E+03 -0.67862045540E+03  0.15314658205E+04  0.10100000352E+00 0. -1.
       -3    1    3    3    0  502  0.13631864839E+04  0.16304734470E+03  0.76351171561E+03  0.15709271073E+04  0.10100000352E+00 0.  1.
</event>
<event>
 5   0  0.1377237E-07  0.3101285E+04  0.7818609E-02  0.8215385E-01
        2   -1    0    0  501    0  0.00000000000E+00  0.00000000000E+00  0.18615774106E+04  0.18615774106E+04  0.25500000920E-02 0.  1.
       -2   -1    0    0    0  501  0.00000000000E+00  0.00000000000E+00 -0.12916422174E+04  0.12916422174E+04  0.25500000920E-02 0. -1.
    10030    2    1    2    0    0  0.00000000000E+00  0.00000000000E+00  0.56993519319E+03  0.31532196279E+04  0.31012848785E+04 0.  0.
        2    1    3    3  502    0 -0.98934871213E+03  0.10182388438E+04 -0.34907027947E+03  0.14620093287E+04  0.25500000920E-02 0. -1.
       -2    1    3    3    0  502  0.98934871213E+03 -0.10182388438E+04  0.91900547266E+03  0.16912102992E+04  0.25500000920E-02 0.  1.
</event>
<event>
 5   0  0.1329777E-07  0.3098556E+04  0.7818609E-02  0.8216134E-01
        2   -1    0    0  501    0  0.00000000000E+00  0.00000000000E+00  0.20967514331E+04  0.20967514332E+04  0.25500000920E-02 0. -1.
       -2   -1    0    0    0  501  0.00000000000E+00  0.00000000000E+00 -0.11447529950E+04  0.11447529950E+04  0.25500000920E-02 0.  1.
    10030    2    1    2    0    0  0.00000000000E+00  0.00000000000E+00  0.95199843811E+03  0.32415044282E+04  0.30985561044E+04 0.  0.
        1    1    3    3  502    0 -0.13902603014E+04 -0.68288344056E+03  0.44116148786E+03  0.16105207100E+04  0.50400001928E-02 0.  1.
       -1    1    3    3    0  502  0.13902603014E+04  0.68288344056E+03  0.51083695025E+03  0.16309837181E+04  0.50400001928E-02 0. -1.
</event>
<event>
 5   0  0.4470354E-08  0.3100249E+04  0.7818609E-02  0.8215670E-01
       -1   -1    0    0    0  501  0.00000000000E+00  0.00000000000E+00  0.23039145389E+04  0.23039145389E+04  0.50400001928E-02 0. -1.
        1   -1    0    0  501    0  0.00000000000E+00  0.00000000000E+00 -0.10429580826E+04  0.10429580827E+04  0.50400001928E-02 0.  1.
    10030    2    1    2    0    0  0.00000000000E+00  0.00000000000E+00  0.12609564563E+04  0.33468726216E+04  0.31002492094E+04 0.  0.
        1    1    3    3  502    0 -0.37173998440E+03  0.13704026789E+04  0.13017915547E+04  0.19263580587E+04  0.50400001928E-02 0. -1.
       -1    1    3    3    0  502  0.37173998440E+03 -0.13704026789E+04 -0.40835098404E+02  0.14205145629E+04  0.50400001928E-02 0.  1.
</event>
<event>
 5   0  0.1325713E-07  0.3095552E+04  0.7818609E-02  0.8216960E-01
        2   -1    0    0  501    0  0.00000000000E+00  0.00000000000E+00  0.14978962951E+04  0.14978962951E+04  0.25500000920E-02 0.  1.
       -2   -1    0    0    0  501  0.00000000000E+00  0.00000000000E+00 -0.15993162006E+04  0.15993162006E+04  0.25500000920E-02 0. -1.
    10030    2    1    2    0    0  0.00000000000E+00  0.00000000000E+00 -0.10141990547E+03  0.30972124957E+04  0.30955515254E+04 0.  0.
        4    1    3    3  502    0 -0.35848201036E+03  0.19545120608E+03  0.14430404347E+04  0.14996925801E+04  0.12699999809E+01 0.  1.
       -4    1    3    3    0  502  0.35848201036E+03 -0.19545120608E+03 -0.15444603401E+04  0.15975199156E+04  0.12699999809E+01 0. -1.
</event>
<event>
 5   0  0.1325713E-07  0.3101813E+04  0.7818609E-02  0.8215241E-01
        2   -1    0    0  501    0  0.00000000000E+00  0.00000000000E+00  0.12048811792E+04  0.12048811792E+04  0.25500000920E-02 0. -1.
       -2   -1    0    0    0  501  0.00000000000E+00  0.00000000000E+00 -0.19963052647E+04  0.19963052647E+04  0.25500000920E-02 0.  1.
    10030    2    1    2    0    0  0.00000000000E+00  0.00000000000E+00 -0.79142408551E+03  0.32011864440E+04  0.31018127870E+04 0.  0.
        4    1    3    3  502    0 -0.87179946995E+03  0.10023047231E+04  0.43034336089E+03  0.13963688964E+04  0.12699999809E+01 0. -1.
       -4    1    3    3    0  502  0.87179946995E+03 -0.10023047231E+04 -0.12217674464E+04  0.18048175475E+04  0.12699999809E+01 0.  1.
</event>
<event>
 5   0  0.1318916E-07  0.3100080E+04  0.7818609E-02  0.8215716E-01
        2   -1    0    0  501    0  0.00000000000E+00  0.00000000000E+00  0.21210163329E+04  0.21210163329E+04  0.25500000920E-02 0.  1.
       -2   -1    0    0    0  501  0.00000000000E+00  0.00000000000E+00 -0.11327702365E+04  0.11327702365E+04  0.25500000920E-02 0. -1.
    10030    2    1    2    0    0  0.00000000000E+00  0.00000000000E+00  0.98824609634E+03  0.32537865694E+04  0.31000801106E+04 0.  0.
        5    1    3    3  502    0 -0.85986176201E+03 -0.73420651558E+03  0.16069668047E+04  0.19648882560E+04  0.46999998093E+01 0.  1.
       -5    1    3    3    0  502  0.85986176201E+03  0.73420651558E+03 -0.61872070835E+03  0.12888983134E+04  0.46999998093E+01 0. -1.
</event>
<event>
 5   0  0.4450600E-08  0.3099874E+04  0.7818609E-02  0.8215772E-01
        1   -1    0    0  501    0  0.00000000000E+00  0.00000000000E+00  0.20023443149E+04  0.20023443149E+04  0.50400001928E-02 0. -1.
       -1   -1    0    0    0  501  0.00000000000E+00  0.00000000000E+00 -0.11997464322E+04  0.11997464322E+04  0.50400001928E-02 0.  1.
    10030    2    1    2    0    0  0.00000000000E+00  0.00000000000E+00  0.80259788269E+03  0.32020907471E+04  0.30998744799E+04 0.  0.
        4    1    3    3  502    0 -0.29459577070E+03  0.11112965608E+04  0.14750642597E+04  0.18701825839E+04  0.12699999809E+01 0. -1.
       -4    1    3    3    0  502  0.29459577070E+03 -0.11112965608E+04 -0.67246637700E+03  0.13319081632E+04  0.12699999809E+01 0.  1.
</event>
<event>
 5   0  0.4517409E-08  0.3101733E+04  0.7818609E-02  0.8215263E-01
        1   -1    0    0  501    0  0.00000000000E+00  0.00000000000E+00  0.28836301666E+04  0.28836301666E+04  0.50400001928E-02 0.  1.
       -1   -1    0    0    0  501  0.00000000000E+00  0.00000000000E+00 -0.83408290119E+03  0.83408290120E+03  0.50400001928E-02 0. -1.
    10030    2    1    2    0    0  0.00000000000E+00  0.00000000000E+00  0.20495472654E+04  0.37177130678E+04  0.31017328159E+04 0.  0.
        2    1    3    3  502    0 -0.76536759271E+03 -0.37681420533E+02  0.26408650917E+04  0.27497956058E+04  0.25500000920E-02 0.  1.
       -2    1    3    3    0  502  0.76536759271E+03  0.37681420533E+02 -0.59131782629E+03  0.96791746194E+03  0.25500000920E-02 0. -1.
</event>
<event>
 5   0  0.1398931E-07  0.3100114E+04  0.7818609E-02  0.8215707E-01
       -2   -1    0    0    0  501  0.00000000000E+00  0.00000000000E+00  0.20469338403E+04  0.20469338403E+04  0.25500000920E-02 0.  1.
        2   -1    0    0  501    0  0.00000000000E+00  0.00000000000E+00 -0.11737927782E+04  0.11737927782E+04  0.25500000920E-02 0. -1.
    10030    2    1    2    0    0  0.00000000000E+00  0.00000000000E+00  0.87314106215E+03  0.32207266185E+04  0.31001136490E+04 0.  0.
        3    1    3    3  502    0 -0.65951389594E+03  0.12735043651E+04  0.10475887592E+04  0.17760107447E+04  0.10100000352E+00 0.  1.
       -3    1    3    3    0  502  0.65951389594E+03 -0.12735043651E+04 -0.17444769703E+03  0.14447158738E+04  0.10100000352E+00 0. -1.
</event>
<event>
 5   0  0.1329777E-07  0.3098059E+04  0.7818609E-02  0.8216271E-01
       -2   -1    0    0    0  501  0.00000000000E+00  0.00000000000E+00  0.95235907682E+03  0.95235907683E+03  0.25500000920E-02 0.  1.
        2   -1    0    0  501    0  0.00000000000E+00  0.00000000000E+00 -0.25195255643E+04  0.25195255643E+04  0.25500000920E-02 0. -1.
    10030    2    1    2    0    0  0.00000000000E+00  0.00000000000E+00 -0.15671664875E+04  0.34718846412E+04  0.30980594187E+04 0.  0.
        1    1    3    3  502    0  0.91977988218E+03 -0.12261507211E+04 -0.53286376569E+03  0.16227705985E+04  0.50400001928E-02 0.  1.
       -1    1    3    3    0  502 -0.91977988218E+03  0.12261507211E+04 -0.10343027218E+04  0.18491140427E+04  0.50400001928E-02 0. -1.
</event>
<event>
 5   0  0.1325713E-07  0.3099451E+04  0.7818609E-02  0.8215889E-01
        2   -1    0    0  501    0  0.00000000000E+00  0.00000000000E+00  0.26079609794E+04  0.26079609794E+04  0.25500000920E-02 0. -1.
       -2   -1    0    0    0  501  0.00000000000E+00  0.00000000000E+00 -0.92089138695E+03  0.92089138695E+03  0.25500000920E-02 0.  1.
    10030    2    1    2    0    0  0.00000000000E+00  0.00000000000E+00  0.16870695924E+04  0.35288523663E+04  0.30994507923E+04 0.  0.
        4    1    3    3  502    0 -0.15358049457E+04  0.15208130160E+01  0.60758454121E+03  0.16516233625E+04  0.12699999809E+01 0.  1.
       -4    1    3    3    0  502  0.15358049457E+04 -0.15208130160E+01  0.10794850512E+04  0.18772290038E+04  0.12699999809E+01 0. -1.
</event>
<event>
 5   0  0.4436241E-08  0.3104130E+04  0.7818609E-02  0.8214605E-01
        1   -1    0    0  501    0  0.00000000000E+00  0.00000000000E+00  0.20947832980E+04  0.20947832980E+04  0.50400001928E-02 0. -1.
       -1   -1    0    0    0  501  0.00000000000E+00  0.00000000000E+00 -0.11499547031E+04  0.11499547031E+04  0.50400001928E-02 0.  1.
    10030    2    1    2    0    0  0.00000000000E+00  0.00000000000E+00  0.94482859495E+03  0.32447380011E+04  0.31041300911E+04 0.  0.
        3    1    3    3  502    0  0.10350662398E+04  0.86121274124E+03  0.12792972155E+04  0.18573235804E+04  0.10100000352E+00 0. -1.
       -3    1    3    3    0  502 -0.10350662398E+04 -0.86121274124E+03 -0.33446862057E+03  0.13874144207E+04  0.10100000352E+00 0.  1.
</event>
<event>
 5   0  0.4470354E-08  0.3100778E+04  0.7818609E-02  0.8215524E-01
        1   -1    0    0  501    0  0.00000000000E+00  0.00000000000E+00  0.21383412488E+04  0.21383412488E+04  0.50400001928E-02 0. -1.
       -1   -1    0    0    0  501  0.00000000000E+00  0.00000000000E+00 -0.11240984233E+04  0.11240984233E+04  0.50400001928E-02 0.  1.
    10030    2    1    2    0    0  0.00000000000E+00  0.00000000000E+00  0.10142428255E+04  0.32624396721E+04  0.31007779838E+04 0.  0.
        1    1    3    3  502    0 -0.15083993404E+04  0.31216915544E+03  0.69233281204E+03  0.16887992404E+04  0.50400001928E-02 0.  1.
       -1    1    3    3    0  502  0.15083993404E+04 -0.31216915544E+03  0.32191001345E+03  0.15736404317E+04  0.50400001928E-02 0. -1.
</event>
<event>
 5   0  0.4450600E-08  0.3101107E+04  0.7818609E-02  0.8215434E-01
       -1   -1    0    0    0  501  0.00000000000E+00  0.00000000000E+00  0.21347351928E+04  0.21347351928E+04  0.50400001928E-02 0.  1.
        1   -1    0    0  501    0  0.00000000000E+00  0.00000000000E+00 -0.11262363965E+04  0.11262363965E+04  0.50400001928E-02 0. -1.
    10030    2    1    2    0    0  0.00000000000E+00  0.00000000000E+00  0.10084987963E+04  0.32609715893E+04  0.31011072029E+04 0.  0.
        4    1    3    3  502    0 -0.13391663530E+04 -0.78154154125E+03  0.51099542644E+03  0.16325720935E+04  0.12699999809E+01 0. -1.
       -4    1    3    3    0  502  0.13391663530E+04  0.78154154125E+03  0.49750336988E+03  0.16283994957E+04  0.12699999809E+01 0.  1.
</event>
<event>
 5   0  0.1329777E-07  0.3099743E+04  0.7818609E-02  0.8215808E-01
       -2   -1    0    0    0  501  0.00000000000E+00  0.00000000000E+00  0.15363754565E+04  0.15363754565E+04  0.25500000920E-02 0.  1.
        2   -1    0    0  501    0  0.00000000000E+00  0.00000000000E+00 -0.15634860853E+04  0.15634860853E+04  0.25500000920E-02 0. -1.
    10030    2    1    2    0    0  0.00000000000E+00  0.00000000000E+00 -0.27110628868E+02  0.30998615418E+04  0.30997429881E+04 0.  0.
        1    1    3    3  502    0 -0.61388040851E+03 -0.20519330157E+03  0.13947414938E+04  0.15376141524E+04  0.50400001928E-02 0.  1.
       -1    1    3    3    0  502  0.61388040851E+03  0.20519330157E+03 -0.14218521227E+04  0.15622473894E+04  0.50400001928E-02 0. -1.
</event>
<event>
 5   0  0.1325713E-07  0.3099631E+04  0.7818609E-02  0.8215839E-01
        2   -1    0    0  501    0  0.00000000000E+00  0.00000000000E+00  0.11995653500E+04  0.11995653500E+04  0.25500000920E-02 0. -1.
       -2   -1    0    0    0  501  0.00000000000E+00  0.00000000000E+00 -0.20023315951E+04  0.20023315951E+04  0.25500000920E-02 0.  1.
    10030    2    1    2    0    0  0.00000000000E+00  0.00000000000E+00 -0.80276624515E+03  0.32018969451E+04  0.30996306882E+04 0.  0.
        4    1    3    3  502    0  0.11054262615E+04 -0.71848630528E+02 -0.15210239529E+04  0.18816601509E+04  0.12699999809E+01 0.  1.
       -4    1    3    3    0  502 -0.11054262615E+04  0.71848630528E+02  0.71825770770E+03  0.13202367943E+04  0.12699999809E+01 0. -1.
</event>
<event>
 5   0  0.4838602E-08  0.3098639E+04  0.7818609E-02  0.8216112E-01
        1   -1    0    0  501    0  0.00000000000E+00  0.00000000000E+00  0.13544824744E+04  0.13544824744E+04  0.50400001928E-02 0.  1.
       -1   -1    0    0    0  501  0.00000000000E+00  0.00000000000E+00 -0.17721827310E+04  0.17721827310E+04  0.50400001928E-02 0. -1.
    10030    2    1    2    0    0  0.00000000000E+00  0.00000000000E+00 -0.41770025663E+03  0.31266652054E+04  0.30986387015E+04 0.  0.
        5    1    3    3  502    0  0.96338151513E+03  0.57069710884E+03 -0.12893148233E+04  0.17076750093E+04  0.46999998093E+01 0. -1.
       -5    1    3    3    0  502 -0.96338151513E+03 -0.57069710884E+03  0.87161456669E+03  0.14189901961E+04  0.46999998093E+01 0.  1.
</event>
<event>
 5   0  0.1329777E-07  0.3100901E+04  0.7818609E-02  0.8215491E-01
       -2   -1    0    0    0  501  0.00000000000E+00  0.00000000000E+00  0.17682322049E+04  0.17682322049E+04  0.25500000920E-02 0. -1.
        2   -1    0    0  501    0  0.00000000000E+00  0.00000000000E+00 -0.13594918512E+04  0.13594918512E+04  0.25500000920E-02 0.  1.
    10030    2    1    2    0    0  0.00000000000E+00  0.00000000000E+00  0.40874035363E+03  0.31277240561E+04  0.31009013358E+04 0.  0.
        1    1    3    3  502    0 -0.10839346989E+04  0.19605630345E+03  0.13049292224E+04  0.17076863826E+04  0.50400001928E-02 0. -1.
       -1    1    3    3    0  502  0.10839346989E+04 -0.19605630345E+03 -0.89618886879E+03  0.14200376735E+04  0.50400001928E-02 0.  1.
</event>
<event>
 5   0  0.4436241E-08  0.3099395E+04  0.7818609E-02  0.8215904E-01
        1   -1    0    0  501    0  0.00000000000E+00  0.00000000000E+00  0.67463406035E+03  0.67463406036E+03  0.50400001928E-02 0. -1.
       -1   -1    0    0    0  501  0.00000000000E+00  0.00000000000E+00 -0.35597991388E+04  0.35597991388E+04  0.50400001928E-02 0.  1.
    10030    2    1    2    0    0  0.00000000000E+00  0.00000000000E+00 -0.28851650784E+04  0.42344331992E+04  0.30993946164E+04 0.  0.
        3    1    3    3  502    0 -0.12539346425E+04 -0.31255973868E+03 -0.26110869173E+04  0.29133864450E+04  0.10100000352E+00 0. -1.
       -3    1    3    3    0  502  0.12539346425E+04  0.31255973868E+03 -0.27407816113E+03  0.13210467541E+04  0.10100000352E+00 0.  1.
</event>
<event>
 5   0  0.4305500E-08  0.3102986E+04  0.7818609E-02  0.8214919E-01
        3   -1    0    0  501    0  0.00000000000E+00  0.00000000000E+00  0.14204850978E+04  0.14204851014E+04  0.10100000352E+00 0.  1.
       -3   -1    0    0    0  501  0.00000000000E+00  0.00000000000E+00 -0.16945839454E+04  0.16945839484E+04  0.10100000352E+00 0. -1.
    10030    2    1    2    0    0  0.00000000000E+00  0.00000000000E+00 -0.27409884754E+03  0.31150690498E+04  0.31029864658E+04 0.  0.
        2    1    3    3  502    0  0.31896966953E+03  0.13713401254E+04  0.51726750804E+03  0.14999603543E+04  0.25500000920E-02 0. -1.
       -2    1    3    3    0  502 -0.31896966953E+03 -0.13713401254E+04 -0.79136635558E+03  0.16151086955E+04  0.25500000920E-02 0.  1.
</event>
<event>
 5   0  0.4838602E-08  0.3104908E+04  0.7818609E-02  0.8214392E-01
        1   -1    0    0  501    0  0.00000000000E+00  0.00000000000E+00  0.13614499855E+04  0.13614499855E+04  0.50400001928E-02 0.  1.
       -1   -1    0    0    0  501  0.00000000000E+00  0.00000000000E+00 -0.17702545955E+04  0.17702545955E+04  0.50400001928E-02 0. -1.
    10030    2    1    2    0    0  0.00000000000E+00  0.00000000000E+00 -0.40880461001E+03  0.31317045811E+04  0.31049077883E+04 0.  0.
        5    1    3    3  502    0 -0.11746276584E+04 -0.38275511568E+02  0.81868705525E+03  0.14323008536E+04  0.46999998093E+01 0.  1.
       -5    1    3    3    0  502  0.11746276584E+04  0.38275511568E+02 -0.12274916653E+04  0.16994037275E+04  0.46999998093E+01 0. -1.
</event>
<event>
 5   0  0.4517409E-08  0.3099311E+04  0.7818609E-02  0.8215927E-01
       -1   -1    0    0    0  501  0.00000000000E+00  0.00000000000E+00  0.15556216159E+04  0.15556216159E+04  0.50400001928E-02 0.  1.
        1   -1    0    0  501    0  0.00000000000E+00  0.00000000000E+00 -0.15437117887E+04  0.15437117887E+04  0.50400001928E-02 0. -1.
    10030    2    1    2    0    0  0.00000000000E+00  0.00000000000E+00  0.11909827172E+02  0.30993334046E+04  0.30993105215E+04 0.  0.
        2    1    3    3  502    0 -0.96864022180E+03  0.10718327883E+04  0.56662118106E+03  0.15518211779E+04  0.25500000920E-02 0.  1.
       -2    1    3    3    0  502  0.96864022180E+03 -0.10718327883E+04 -0.55471135389E+03  0.15475122266E+04  0.25500000920E-02 0. -1.
</event>
<event>
 5   0  0.1318916E-07  0.3100011E+04  0.7818609E-02  0.8215735E-01
        2   -1    0    0  501    0  0.00000000000E+00  0.00000000000E+00  0.15757712350E+04  0.15757712350E+04  0.25500000920E-02 0. -1.
       -2   -1    0    0    0  501  0.00000000000E+00  0.00000000000E+00 -0.15246607424E+04  0.15246607424E+04  0.25500000920E-02 0.  1.
    10030    2    1    2    0    0  0.00000000000E+00  0.00000000000E+00  0.51110492610E+02  0.31004319774E+04  0.31000106716E+04 0.  0.
        5    1    3    3  502    0 -0.39456994221E+02  0.87536708597E+03  0.13042711687E+04  0.15712955677E+04  0.46999998093E+01 0. -1.
       -5    1    3    3    0  502  0.39456994221E+02 -0.87536708597E+03 -0.12531606761E+04  0.15291364097E+04  0.46999998093E+01 0.  1.
</event>
<event>
 5   0  0.1325713E-07  0.3097408E+04  0.7818609E-02  0.8216450E-01
        2   -1    0    0  501    0  0.00000000000E+00  0.00000000000E+00  0.21462397185E+04  0.21462397185E+04  0.25500000920E-02 0.  1.
       -2   -1    0    0    0  501  0.00000000000E+00  0.00000000000E+00 -0.11175286427E+04  0.11175286427E+04  0.25500000920E-02 0. -1.
    10030    2    1    2    0    0  0.00000000000E+00  0.00000000000E+00  0.10287110758E+04  0.32637683611E+04  0.30974081807E+04 0.  0.
        4    1    3    3  502    0 -0.10245679570E+04 -0.11426840903E+04  0.73289884116E+03  0.17007671072E+04  0.12699999809E+01 0. -1.
       -4    1    3    3    0  502  0.10245679570E+04  0.11426840903E+04  0.29581223462E+03  0.15630012539E+04  0.12699999809E+01 0.  1.
</event>
<event>
 5   0  0.4470354E-08  0.3104612E+04  0.7818609E-02  0.8214473E-01
        1   -1    0    0  501    0  0.00000000000E+00  0.00000000000E+00  0.14377161882E+04  0.14377161882E+04  0.50400001928E-02 0. -1.
       -1   -1    0    0    0  501  0.00000000000E+00  0.00000000000E+00 -0.16760294119E+04  0.16760294119E+04  0.50400001928E-02 0.  1.
    10030    2    1    2    0    0  0.00000000000E+00  0.00000000000E+00 -0.23831322371E+03  0.31137456001E+04  0.31046124508E+04 0.  0.
        1    1    3    3  502    0  0.58611090836E+03  0.64165622853E+03 -0.14091775750E+04  0.16556056748E+04  0.50400001928E-02 0.  1.
       -1    1    3    3    0  502 -0.58611090836E+03 -0.64165622853E+03  0.11708643513E+04  0.14581399253E+04  0.50400001928E-02 0. -1.
</event>
<event>
 5   0  0.1318916E-07  0.3099825E+04  0.7818609E-02  0.8215786E-01
       -2   -1    0    0    0  501  0.00000000000E+00  0.00000000000E+00  0.12071665790E+04  0.12071665790E+04  0.25500000920E-02 0. -1.
        2   -1    0    0  501    0  0.00000000000E+00  0.00000000000E+00 -0.19899731302E+04  0.19899731302E+04  0.25500000920E-02 0.  1.
    10030    2    1    2    0    0  0.00000000000E+00  0.00000000000E+00 -0.78280655118E+03  0.31971397092E+04  0.30998251924E+04 0.  0.
        5    1    3    3  502    0  0.65352074169E+03  0.13494355479E+04 -0.79633698449E+03  0.16977162132E+04  0.46999998093E+01 0.  1.
       -5    1    3    3    0  502 -0.65352074169E+03 -0.13494355479E+04  0.13530433318E+02  0.14994234960E+04  0.46999998093E+01 0. -1.
</event>
<event>
 5   0  0.4838602E-08  0.3104539E+04  0.7818609E-02  0.8214493E-01
       -1   -1    0    0    0  501  0.00000000000E+00  0.00000000000E+00  0.18288034876E+04  0.18288034876E+04  0.50400001928E-02 0. -1.
        1   -1    0    0  501    0  0.00000000000E+00  0.00000000000E+00 -0.13175506381E+04  0.13175506381E+04  0.50400001928E-02 0.  1.
    10030    2    1    2    0    0  0.00000000000E+00  0.00000000000E+00  0.51125284949E+03  0.31463541258E+04  0.31045393875E+04 0.  0.
        5    1    3    3  502    0 -0.32797120364E+03  0.12349068657E+04  0.11489514243E+04  0.17183339439E+04  0.46999998093E+01 0. -1.
       -5    1    3    3    0  502  0.32797120364E+03 -0.12349068657E+04 -0.63769857480E+03  0.14280201818E+04  0.46999998093E+01 0.  1.
</event>
<event>
 5   0  0.1398931E-07  0.3099886E+04  0.7818609E-02  0.8215769E-01
        2   -1    0    0  501    0  0.00000000000E+00  0.00000000000E+00  0.19651839836E+04  0.19651839836E+04  0.25500000920E-02 0. -1.
       -2   -1    0    0    0  501  0.00000000000E+00  0.00000000000E+00 -0.12224422831E+04  0.12224422831E+04  0.25500000920E-02 0.  1.
    10030    2    1    2    0    0  0.00000000000E+00  0.00000000000E+00  0.74274170046E+03  0.31876262667E+04  0.30998864468E+04 0.  0.
        3    1    3    3  502    0 -0.11861772118E+04 -0.93563933118E+03  0.15324102345E+02  0.15108514732E+04  0.10100000352E+00 0.  1.
       -3    1    3    3    0  502  0.11861772118E+04  0.93563933118E+03  0.72741759811E+03  0.16767747935E+04  0.10100000352E+00 0. -1.
</event>
<event>
 5   0  0.1318916E-07  0.3099864E+04  0.7818609E-02  0.8215775E-01
        2   -1    0    0  501    0  0.00000000000E+00  0.00000000000E+00  0.17807000136E+04  0.17807000136E+04  0.25500000920E-02 0. -1.
       -2   -1    0    0    0  501  0.00000000000E+00  0.00000000000E+00 -0.13490703206E+04  0.13490703206E+04  0.25500000920E-02 0.  1.
    10030    2    1    2    0    0  0.00000000000E+00  0.00000000000E+00  0.43162969296E+03  0.31297703342E+04  0.30998642153E+04 0.  0.
        5    1    3    3  502    0 -0.25001862373E+03  0.35023404622E+03 -0.12875412974E+04  0.13575558485E+04  0.46999998093E+01 0.  1.
       -5    1    3    3    0  502  0.25001862373E+03 -0.35023404622E+03  0.17191709903E+04  0.17722144857E+04  0.46999998093E+01 0. -1.
</event>
<event>
 5   0  0.4450600E-08  0.3099993E+04  0.7818609E-02  0.8215740E-01
        1   -1    0    0  501    0  0.00000000000E+00  0.00000000000E+00  0.11117681199E+04  0.11117681199E+04  0.50400001928E-02 0.  1.
       -1   -1    0    0    0  501  0.00000000000E+00  0.00000000000E+00 -0.21609628021E+04  0.21609628021E+04  0.50400001928E-02 0. -1.
    10030    2    1    2    0    0  0.00000000000E+00  0.00000000000E+00 -0.10491946823E+04  0.32727309220E+04  0.30999932591E+04 0.  0.
        4    1    3    3  502    0 -0.14975902580E+03  0.33909925214E+03  0.10642806295E+04  0.11269919875E+04  0.12699999809E+01 0.  1.
       -4    1    3    3    0  502  0.14975902580E+03 -0.33909925214E+03 -0.21134753118E+04  0.21457389345E+04  0.12699999809E+01 0. -1.
</event>
<event>
 5   0  0.1398931E-07  0.3099914E+04  0.7818609E-02  0.8215761E-01
       -2   -1    0    0    0  501  0.00000000000E+00  0.00000000000E+00  0.15015817720E+04  0.15015817721E+04  0.25500000920E-02 0.  1.
        2   -1    0    0  501    0  0.00000000000E+00  0.00000000000E+00 -0.15998910190E+04  0.15998910190E+04  0.25500000920E-02 0. -1.
    10030    2    1    2    0    0  0.00000000000E+00  0.00000000000E+00 -0.98309246978E+02  0.31014727911E+04  0.30999143159E+04 0.  0.
        3    1    3    3  502    0 -0.46929609358E+03  0.10304745353E+04  0.10097964047E+04  0.15171701884E+04  0.10100000352E+00 0.  1.
       -3    1    3    3    0  502  0.46929609358E+03 -0.10304745353E+04 -0.11081056517E+04  0.15843026027E+04  0.10100000352E+00 0. -1.
</event>
<event>
 5   0  0.1377237E-07  0.3101212E+04  0.7818609E-02  0.8215405E-01
        2   -1    0    0  501    0  0.00000000000E+00  0.00000000000E+00  0.22350626456E+04  0.22350626456E+04  0.25500000920E-02 0. -1.
       -2   -1    0    0    0  501  0.00000000000E+00  0.00000000000E+00 -0.10757542932E+04  0.10757542932E+04  0.25500000920E-02 0.  1.
    10030    2    1    2    0    0  0.00000000000E+00  0.00000000000E+00  0.11593083524E+04  0.33108169388E+04  0.31012115288E+04 0.  0.
        2    1    3    3  502    0 -0.11076371539E+04 -0.59386125762E+02 -0.57708713901E+03  0.12503664833E+04  0.25500000920E-02 0.  1.
       -2    1    3    3    0  502  0.11076371539E+04  0.59386125762E+02  0.17363954914E+04  0.20604504554E+04  0.25500000920E-02 0. -1.
</event>
<event>
 5   0  0.1325713E-07  0.3103712E+04  0.7818609E-02  0.8214720E-01
        2   -1    0    0  501    0  0.00000000000E+00  0.00000000000E+00  0.15571306064E+04  0.15571306064E+04  0.25500000920E-02 0.  1.
       -2   -1    0    0    0  501  0.00000000000E+00  0.00000000000E+00 -0.15465994611E+04  0.15465994611E+04  0.25500000920E-02 0. -1.
    10030    2    1    2    0    0  0.00000000000E+00  0.00000000000E+00  0.10531145344E+02  0.31037300675E+04  0.31037122011E+04 0.  0.
        4    1    3    3  502    0  0.95160933635E+03 -0.10688698691E+04  0.60544618293E+03  0.15539014832E+04  0.12699999809E+01 0.  1.
       -4    1    3    3    0  502 -0.95160933635E+03  0.10688698691E+04 -0.59491503759E+03  0.15498285844E+04  0.12699999809E+01 0. -1.
</event>
<event>
 5   0  0.1318916E-07  0.3099888E+04  0.7818609E-02  0.8215769E-01
       -2   -1    0    0    0  501  0.00000000000E+00  0.00000000000E+00  0.25053450429E+04  0.25053450429E+04  0.25500000920E-02 0.  1.
        2   -1    0    0  501    0  0.00000000000E+00  0.00000000000E+00 -0.95888019123E+03  0.95888019123E+03  0.25500000920E-02 0. -1.
    10030    2    1    2    0    0  0.00000000000E+00  0.00000000000E+00  0.15464648517E+04  0.34642252341E+04  0.30998875682E+04 0.  0.
        5    1    3    3  502    0  0.14483530608E+03  0.14873749378E+04  0.12327030082E+04  0.19372248884E+04  0.46999998093E+01 0. -1.
       -5    1    3    3    0  502 -0.14483530608E+03 -0.14873749378E+04  0.31376184345E+03  0.15270003458E+04  0.46999998093E+01 0.  1.
</event>
<event>
 5   0  0.1329777E-07  0.3099589E+04  0.7818609E-02  0.8215851E-01
       -2   -1    0    0    0  501  0.00000000000E+00  0.00000000000E+00  0.10841294944E+04  0.10841294944E+04  0.25500000920E-02 0.  1.
        2   -1    0    0  501    0  0.00000000000E+00  0.00000000000E+00 -0.22154762223E+04  0.22154762224E+04  0.25500000920E-02 0. -1.
    10030    2    1    2    0    0  0.00000000000E+00  0.00000000000E+00 -0.11313467279E+04  0.32996057168E+04  0.30995890804E+04 0.  0.
        1    1    3    3  502    0 -0.94836544474E+03 -0.20314844426E+03  0.72113028212E+03  0.12085922352E+04  0.50400001928E-02 0.  1.
       -1    1    3    3    0  502  0.94836544474E+03  0.20314844426E+03 -0.18524770101E+04  0.20910134816E+04  0.50400001928E-02 0. -1.
</event>
<event>
 5   0  0.1329777E-07  0.3100665E+04  0.7818609E-02  0.8215555E-01
        2   -1    0    0  501    0  0.00000000000E+00  0.00000000000E+00  0.81904286792E+03  0.81904286792E+03  0.25500000920E-02 0. -1.
       -2   -1    0    0    0  501  0.00000000000E+00  0.00000000000E+00 -0.29345613467E+04  0.29345613467E+04  0.25500000920E-02 0.  1.
    10030    2    1    2    0    0  0.00000000000E+00  0.00000000000E+00 -0.21155184788E+04  0.37536042147E+04  0.31006654392E+04 0.  0.
        1    1    3    3  502    0  0.65496911594E+03  0.13702233766E+04 -0.14348601179E+04  0.20893348708E+04  0.50400001928E-02 0.  1.
       -1    1    3    3    0  502 -0.65496911594E+03 -0.13702233766E+04 -0.68065836095E+03  0.16642693439E+04  0.50400001928E-02 0. -1.
</event>
<event>
 5   0  0.4470354E-08  0.3101310E+04  0.7818609E-02  0.8215378E-01
       -1   -1    0    0    0  501  0.00000000000E+00  0.00000000000E+00  0.98425415715E+03  0.98425415717E+03  0.50400001928E-02 0.  1.
        1   -1    0    0  501    0  0.00000000000E+00  0.00000000000E+00 -0.24429982626E+04  0.24429982626E+04  0.50400001928E-02 0. -1.
    10030    2    1    2    0    0  0.00000000000E+00  0.00000000000E+00 -0.14587441054E+04  0.34272524197E+04  0.31013101721E+04 0.  0.
        1    1    3    3  502    0  0.34911001952E+03 -0.99925006425E+03 -0.19816744807E+04  0.22466446635E+04  0.50400001928E-02 0. -1.
       -1    1    3    3    0  502 -0.34911001952E+03  0.99925006425E+03  0.52293037528E+03  0.11806077562E+04  0.50400001928E-02 0.  1.
</event>
<event>
 5   0  0.4517409E-08  0.3104308E+04  0.7818609E-02  0.8214557E-01
        1   -1    0    0  501    0  0.00000000000E+00  0.00000000000E+00  0.11418510512E+04  0.11418510512E+04  0.50400001928E-02 0.  1.
       -1   -1    0    0    0  501  0.00000000000E+00  0.00000000000E+00 -0.21098911923E+04  0.21098911923E+04  0.50400001928E-02 0. -1.
    10030    2    1    2    0    0  0.00000000000E+00  0.00000000000E+00 -0.96804014115E+03  0.32517422435E+04  0.31043076367E+04 0.  0.
        2    1    3    3  502    0  0.97450570544E+03 -0.12051854193E+04 -0.57196095041E+03  0.16520510263E+04  0.25500000920E-02 0. -1.
       -2    1    3    3    0  502 -0.97450570544E+03  0.12051854193E+04 -0.39607919074E+03  0.15996912171E+04  0.25500000920E-02 0.  1.
</event>
<event>
 5   0  0.1329777E-07  0.3103855E+04  0.7818609E-02  0.8214681E-01
        2   -1    0    0  501    0  0.00000000000E+00  0.00000000000E+00  0.16788412999E+04  0.16788412999E+04  0.25500000920E-02 0. -1.
       -2   -1    0    0    0  501  0.00000000000E+00  0.00000000000E+00 -0.14346082041E+04  0.14346082041E+04  0.25500000920E-02 0.  1.
    10030    2    1    2    0    0  0.00000000000E+00  0.00000000000E+00  0.24423309578E+03  0.31134495040E+04  0.31038553460E+04 0.  0.
        1    1    3    3  502    0 -0.86632072259E+03  0.12726602974E+04 -0.74201658387E+02  0.15413246618E+04  0.50400001928E-02 0.  1.
       -1    1    3    3    0  502  0.86632072259E+03 -0.12726602974E+04  0.31843475417E+03  0.15721248422E+04  0.50400001928E-02 0. -1.
</event>
<event>
 5   0  0.4838602E-08  0.3100042E+04  0.7818609E-02  0.8215727E-01
       -1   -1    0    0    0  501  0.00000000000E+00  0.00000000000E+00  0.13499568567E+04  0.13499568567E+04  0.50400001928E-02 0.  1.
        1   -1    0    0  501    0  0.00000000000E+00  0.00000000000E+00 -0.17797341884E+04  0.17797341884E+04  0.50400001928E-02 0. -1.
    10030    2    1    2    0    0  0.00000000000E+00  0.00000000000E+00 -0.42977733173E+03  0.31296910451E+04  0.31000415292E+04 0.  0.
        5    1    3    3  502    0 -0.26749352081E+03 -0.87414115120E+03 -0.14786061291E+04  0.17383824984E+04  0.46999998093E+01 0. -1.
       -5    1    3    3    0  502  0.26749352081E+03  0.87414115120E+03  0.10488287973E+04  0.13913085467E+04  0.46999998093E+01 0.  1.
</event>
<event>
 5   0  0.1318916E-07  0.3098948E+04  0.7818609E-02  0.8216027E-01
        2   -1    0    0  501    0  0.00000000000E+00  0.00000000000E+00  0.18086985324E+04  0.18086985324E+04  0.25500000920E-02 0.  1.
       -2   -1    0    0    0  501  0.00000000000E+00  0.00000000000E+00 -0.13274022041E+04  0.13274022041E+04  0.25500000920E-02 0. -1.
    10030    2    1    2    0    0  0.00000000000E+00  0.00000000000E+00  0.48129632832E+03  0.31361007365E+04  0.30989484787E+04 0.  0.
        5    1    3    3  502    0  0.75272746776E+03  0.45937992126E+02 -0.11291447152E+04  0.13578287144E+04  0.46999998093E+01 0. -1.
       -5    1    3    3    0  502 -0.75272746776E+03 -0.45937992126E+02  0.16104410435E+04  0.17782720221E+04  0.46999998093E+01 0.  1.
</event>
<event>
 5   0  0.4436241E-08  0.3101856E+04  0.7818609E-02  0.8215229E-01
       -1   -1    0    0    0  501  0.00000000000E+00  0.00000000000E+00  0.79648160791E+03  0.79648160792E+03  0.50400001928E-02 0.  1.
        1   -1    0    0  501    0  0.00000000000E+00  0.00000000000E+00 -0.30200035879E+04  0.30200035879E+04  0.50400001928E-02 0. -1.
    10030    2    1    2    0    0  0.00000000000E+00  0.00000000000E+00 -0.22235219800E+04  0.38164851958E+04  0.31018557759E+04 0.  0.
        3    1    3    3  502    0 -0.22626933447E+03  0.11699704229E+04 -0.23331020432E+04  0.26198079617E+04  0.10100000352E+00 0. -1.
       -3    1    3    3    0  502  0.22626933447E+03 -0.11699704229E+04  0.10958006319E+03  0.11966772341E+04  0.10100000352E+00 0.  1.
</event>
<event>
 5   0  0.1377237E-07  0.3100622E+04  0.7818609E-02  0.8215567E-01
        2   -1    0    0  501    0  0.00000000000E+00  0.00000000000E+00  0.91995887340E+03  0.91995887340E+03  0.25500000920E-02 0. -1.
       -2   -1    0    0    0  501  0.00000000000E+00  0.00000000000E+00 -0.26125770467E+04  0.26125770467E+04  0.25500000920E-02 0.  1.
    10030    2    1    2    0    0  0.00000000000E+00  0.00000000000E+00 -0.16926181733E+04  0.35325359201E+04  0.31006215097E+04 0.  0.
        2    1    3    3  502    0  0.11162218671E+04  0.18504949041E+03  0.36117020672E+03  0.11877030305E+04  0.25500000920E-02 0. -1.
       -2    1    3    3    0  502 -0.11162218671E+04 -0.18504949041E+03 -0.20537883800E+04  0.23448328896E+04  0.25500000920E-02 0.  1.
</event>
<event>
 5   0  0.4450600E-08  0.3097764E+04  0.7818609E-02  0.8216352E-01
        1   -1    0    0  501    0  0.00000000000E+00  0.00000000000E+00  0.10129831916E+04  0.10129831916E+04  0.50400001928E-02 0. -1.
       -1   -1    0    0    0  501  0.00000000000E+00  0.00000000000E+00 -0.23682871179E+04  0.23682871180E+04  0.50400001928E-02 0.  1.
    10030    2    1    2    0    0  0.00000000000E+00  0.00000000000E+00 -0.13553039263E+04  0.33812703096E+04  0.30977637376E+04 0.  0.
        4    1    3    3  502    0 -0.70441065457E+03 -0.10122706789E+04  0.34520579437E+03  0.12806463021E+04  0.12699999809E+01 0. -1.
       -4    1    3    3    0  502  0.70441065457E+03  0.10122706789E+04 -0.17005097207E+04  0.21006240075E+04  0.12699999809E+01 0.  1.
</event>
<event>
 5   0  0.4838602E-08  0.3097904E+04  0.7818609E-02  0.8216313E-01
        1   -1    0    0  501    0  0.00000000000E+00  0.00000000000E+00  0.28812756731E+04  0.28812756731E+04  0.50400001928E-02 0. -1.
       -1   -1    0    0    0  501  0.00000000000E+00  0.00000000000E+00 -0.83270480021E+03  0.83270480022E+03  0.50400001928E-02 0.  1.
    10030    2    1    2    0    0  0.00000000000E+00  0.00000000000E+00  0.20485708729E+04  0.37139804733E+04  0.30979038615E+04 0.  0.
        5    1    3    3  502    0  0.10649167654E+04 -0.10974824879E+04  0.13196903854E+04  0.20199307741E+04  0.46999998093E+01 0. -1.
       -5    1    3    3    0  502 -0.10649167654E+04  0.10974824879E+04  0.72888048747E+03  0.16940496993E+04  0.46999998093E+01 0.  1.
</event>
<event>
 5   0  0.4470354E-08  0.3099442E+04  0.7818609E-02  0.8215891E-01
       -1   -1    0    0    0  501  0.00000000000E+00  0.00000000000E+00  0.23622608274E+04  0.23622608274E+04  0.50400001928E-02 0. -1.
        1   -1    0    0  501    0  0.00000000000E+00  0.00000000000E+00 -0.10166681798E+04  0.10166681798E+04  0.50400001928E-02 0.  1.
    10030    2    1    2    0    0  0.00000000000E+00  0.00000000000E+00  0.13455926477E+04  0.33789290072E+04  0.30994421534E+04 0.  0.
        1    1    3    3  502    0  0.12216520327E+04 -0.93576356861E+03  0.47311814896E+03  0.16099465607E+04  0.50400001928E-02 0.  1.
       -1    1    3    3    0  502 -0.12216520327E+04  0.93576356861E+03  0.87247449870E+03  0.17689824465E+04  0.50400001928E-02 0. -1.
</event>
<event>
 5   0  0.4517409E-08  0.3099651E+04  0.7818609E-02  0.8215834E-01
       -1   -1    0    0    0  501  0.00000000000E+00  0.00000000000E+00  0.23753654256E+04  0.23753654256E+04  0.50400001928E-02 0.  1.
        1   -1    0    0  501    0  0.00000000000E+00  0.00000000000E+00 -0.10111953530E+04  0.10111953530E+04  0.50400001928E-02 0. -1.
    10030    2    1    2    0    0  0.00000000000E+00  0.00000000000E+00  0.13641700727E+04  0.33865607786E+04  0.30996506126E+04 0.  0.
        2    1    3    3  502    0  0.14232460426E+03 -0.47713471209E+03 -0.92143164286E+03  0.10473538556E+04  0.25500000920E-02 0. -1.
       -2    1    3    3    0  502 -0.14232460426E+03  0.47713471209E+03  0.22856017155E+04  0.23392069230E+04  0.25500000920E-02 0.  1.
</event>
<event>
 5   0  0.1398931E-07  0.3091704E+04  0.7818609E-02  0.8218018E-01
       -2   -1    0    0    0  501  0.00000000000E+00  0.00000000000E+00  0.78983499356E+03  0.78983499356E+03  0.25500000920E-02 0.  1.
        2   -1    0    0  501    0  0.00000000000E+00  0.00000000000E+00 -0.30255153950E+04  0.30255153950E+04  0.25500000920E-02 0. -1.
    10030    2    1    2    0    0  0.00000000000E+00  0.00000000000E+00 -0.22356804015E+04  0.38153503886E+04  0.30917036938E+04 0.  0.
        3    1    3    3  502    0  0.13154540361E+04 -0.26364119473E+02 -0.11639126686E+03  0.13208562848E+04  0.10100000352E+00 0.  1.
       -3    1    3    3    0  502 -0.13154540361E+04  0.26364119473E+02 -0.21192891346E+04  0.24944941038E+04  0.10100000352E+00 0. -1.
</event>
<event>
 5   0  0.1329777E-07  0.3098922E+04  0.7818609E-02  0.8216034E-01
       -2   -1    0    0    0  501  0.00000000000E+00  0.00000000000E+00  0.82223608433E+03  0.82223608433E+03  0.25500000920E-02 0.  1.
        2   -1    0    0  501    0  0.00000000000E+00  0.00000000000E+00 -0.29198783682E+04  0.29198783682E+04  0.25500000920E-02 0. -1.
    10030    2    1    2    0    0  0.00000000000E+00  0.00000000000E+00 -0.20976422838E+04  0.37421144525E+04  0.30989219778E+04 0.  0.
        1    1    3    3  502    0 -0.11521166253E+04  0.10261554342E+04 -0.87608751841E+03  0.17742313923E+04  0.50400001928E-02 0.  1.
       -1    1    3    3    0  502  0.11521166253E+04 -0.10261554342E+04 -0.12215547654E+04  0.19678830602E+04  0.50400001928E-02 0. -1.
</event>
<event>
 5   0  0.4517409E-08  0.3091666E+04  0.7818609E-02  0.8218029E-01
        1   -1    0    0  501    0  0.00000000000E+00  0.00000000000E+00  0.21737236799E+04  0.21737236799E+04  0.50400001928E-02 0. -1.
       -1   -1    0    0    0  501  0.00000000000E+00  0.00000000000E+00 -0.10993118102E+04  0.10993118102E+04  0.50400001928E-02 0.  1.
    10030    2    1    2    0    0  0.00000000000E+00  0.00000000000E+00  0.10744118697E+04  0.32730354902E+04  0.30916662909E+04 0.  0.
        2    1    3    3  502    0  0.40970042311E+03  0.12375336539E+03 -0.10353397003E+04  0.11203113974E+04  0.25500000920E-02 0.  1.
       -2    1    3    3    0  502 -0.40970042311E+03 -0.12375336539E+03  0.21097515700E+04  0.21527240927E+04  0.25500000920E-02 0. -1.
</event>
<event>
 5   0  0.4450600E-08  0.3099195E+04  0.7818609E-02  0.8215959E-01
       -1   -1    0    0    0  501  0.00000000000E+00  0.00000000000E+00  0.21083174409E+04  0.21083174409E+04  0.50400001928E-02 0.  1.
        1   -1    0    0  501    0  0.00000000000E+00  0.00000000000E+00 -0.11389428804E+04  0.11389428804E+04  0.50400001928E-02 0. -1.
    10030    2    1    2    0    0  0.00000000000E+00  0.00000000000E+00  0.96937456049E+03  0.32472603213E+04  0.30991954691E+04 0.  0.
        4    1    3    3  502    0 -0.48636852794E+03  0.22861091158E+02  0.20260834673E+04  0.20837688941E+04  0.12699999809E+01 0.  1.
       -4    1    3    3    0  502  0.48636852794E+03 -0.22861091158E+02 -0.10567089068E+04  0.11634914272E+04  0.12699999809E+01 0. -1.
</event>
<event>
 5   0  0.4436241E-08  0.3099988E+04  0.7818609E-02  0.8215741E-01
       -1   -1    0    0    0  501  0.00000000000E+00  0.00000000000E+00  0.11078376438E+04  0.11078376438E+04  0.50400001928E-02 0. -1.
        1   -1    0    0  501    0  0.00000000000E+00  0.00000000000E+00 -0.21686222868E+04  0.21686222868E+04  0.50400001928E-02 0.  1.
    10030    2    1    2    0    0  0.00000000000E+00  0.00000000000E+00 -0.10607846430E+04  0.32764599306E+04  0.30999880028E+04 0.  0.
        3    1    3    3  502    0  0.85801883429E+03  0.90743203830E+03 -0.15007247656E+04  0.19523841979E+04  0.10100000352E+00 0.  1.
       -3    1    3    3    0  502 -0.85801883429E+03 -0.90743203830E+03  0.43994012255E+03  0.13240757326E+04  0.10100000352E+00 0. -1.
</event>
<event>
 5   0  0.4450600E-08  0.3098737E+04  0.7818609E-02  0.8216085E-01
       -1   -1    0    0    0  501  0.00000000000E+00  0.00000000000E+00  0.19350373626E+04  0.19350373626E+04  0.50400001928E-02 0.  1.
        1   -1    0    0  501    0  0.00000000000E+00  0.00000000000E+00 -0.12405663792E+04  0.12405663792E+04  0.50400001928E-02 0. -1.
    10030    2    1    2    0    0  0.00000000000E+00  0.00000000000E+00  0.69447098346E+03  0.31756037418E+04  0.30987367068E+04 0.  0.
        4    1    3    3  502    0 -0.14982220821E+04  0.30256403039E+03  0.60715319049E+03  0.16446431252E+04  0.12699999809E+01 0.  1.
       -4    1    3    3    0  502  0.14982220821E+04 -0.30256403039E+03  0.87317792969E+02  0.15309606166E+04  0.12699999809E+01 0. -1.
</event>
<event>
 5   0  0.1377237E-07  0.3119599E+04  0.7818609E-02  0.8210380E-01
       -2   -1    0    0    0  501  0.00000000000E+00  0.00000000000E+00  0.21014184417E+04  0.21014184417E+04  0.25500000920E-02 0.  1.
        2   -1    0    0  501    0  0.00000000000E+00  0.00000000000E+00 -0.11577771375E+04  0.11577771375E+04  0.25500000920E-02 0. -1.
    10030    2    1    2    0    0  0.00000000000E+00  0.00000000000E+00  0.94364130414E+03  0.32591955792E+04  0.31195988384E+04 0.  0.
        2    1    3    3  502    0 -0.31025021481E+03 -0.24218674541E+03  0.20486862977E+04  0.20861508003E+04  0.25500000920E-02 0.  1.
       -2    1    3    3    0  502  0.31025021481E+03  0.24218674541E+03 -0.11050449935E+04  0.11730447788E+04  0.25500000920E-02 0. -1.
</event>
<event>
 5   0  0.1329777E-07  0.3097491E+04  0.7818609E-02  0.8216427E-01
        2   -1    0    0  501    0  0.00000000000E+00  0.00000000000E+00  0.28988076168E+04  0.28988076168E+04  0.25500000920E-02 0. -1.
       -2   -1    0    0    0  501  0.00000000000E+00  0.00000000000E+00 -0.82744821247E+03  0.82744821247E+03  0.25500000920E-02 0.  1.
    10030    2    1    2    0    0  0.00000000000E+00  0.00000000000E+00  0.20713594043E+04  0.37262558293E+04  0.30974913597E+04 0.  0.
        1    1    3    3  502    0  0.98397958280E+03 -0.11442426604E+04  0.61703503222E+03  0.16304107814E+04  0.50400001928E-02 0.  1.
       -1    1    3    3    0  502 -0.98397958280E+03  0.11442426604E+04  0.14543243721E+04  0.20958450478E+04  0.50400001928E-02 0. -1.
</event>
<event>
 5   0  0.4470354E-08  0.3100949E+04  0.7818609E-02  0.8215477E-01
        1   -1    0    0  501    0  0.00000000000E+00  0.00000000000E+00  0.22148048544E+04  0.22148048545E+04  0.50400001928E-02 0.  1.
       -1   -1    0    0    0  501  0.00000000000E+00  0.00000000000E+00 -0.10854101939E+04  0.10854101939E+04  0.50400001928E-02 0. -1.
    10030    2    1    2    0    0  0.00000000000E+00  0.00000000000E+00  0.11293946605E+04  0.33002150484E+04  0.31009493814E+04 0.  0.
        1    1    3    3  502    0  0.12375521676E+04  0.40230506023E+03 -0.33243437166E+03  0.13430924542E+04  0.50400001928E-02 0. -1.
       -1    1    3    3    0  502 -0.12375521676E+04 -0.40230506023E+03  0.14618290322E+04  0.19571225941E+04  0.50400001928E-02 0.  1.
</event>
<event>
 5   0  0.1377237E-07  0.3100561E+04  0.7818609E-02  0.8215584E-01
       -2   -1    0    0    0  501  0.00000000000E+00  0.00000000000E+00  0.17667869290E+04  0.17667869290E+04  0.25500000920E-02 0. -1.
        2   -1    0    0  501    0  0.00000000000E+00  0.00000000000E+00 -0.13603048797E+04  0.13603048797E+04  0.25500000920E-02 0.  1.
    10030    2    1    2    0    0  0.00000000000E+00  0.00000000000E+00  0.40648204925E+03  0.31270918087E+04  0.31005605177E+04 0.  0.
        2    1    3    3  502    0  0.12378305164E+02 -0.94612473263E+03 -0.10352995974E+04  0.14025514210E+04  0.25500000920E-02 0.  1.
       -2    1    3    3    0  502 -0.12378305164E+02  0.94612473263E+03  0.14417816467E+04  0.17245403877E+04  0.25500000920E-02 0. -1.
</event>
<event>
 5   0  0.4436241E-08  0.3100458E+04  0.7818609E-02  0.8215612E-01
        1   -1    0    0  501    0  0.00000000000E+00  0.00000000000E+00  0.22086278768E+04  0.22086278768E+04  0.50400001928E-02 0. -1.
       -1   -1    0    0    0  501  0.00000000000E+00  0.00000000000E+00 -0.10881006438E+04  0.10881006438E+04  0.50400001928E-02 0.  1.
    10030    2    1    2    0    0  0.00000000000E+00  0.00000000000E+00  0.11205272329E+04  0.32967285206E+04  0.31004576531E+04 0.  0.
        3    1    3    3  502    0 -0.76425832833E+01  0.83612028858E+03  0.19482942140E+04  0.21201428963E+04  0.10100000352E+00 0. -1.
       -3    1    3    3    0  502  0.76425832833E+01 -0.83612028858E+03 -0.82776698110E+03  0.11765856243E+04  0.10100000352E+00 0.  1.
</event>
<event>
 5   0  0.1329777E-07  0.3098996E+04  0.7818609E-02  0.8216014E-01
        2   -1    0    0  501    0  0.00000000000E+00  0.00000000000E+00  0.16971449696E+04  0.16971449696E+04  0.25500000920E-02 0. -1.
       -2   -1    0    0    0  501  0.00000000000E+00  0.00000000000E+00 -0.14146958652E+04  0.14146958652E+04  0.25500000920E-02 0.  1.
    10030    2    1    2    0    0  0.00000000000E+00  0.00000000000E+00  0.28244910439E+03  0.31118408348E+04  0.30989959478E+04 0.  0.
        1    1    3    3  502    0  0.40267737329E+03 -0.11653419853E+04  0.10836095290E+04  0.16414568593E+04  0.50400001928E-02 0. -1.
       -1    1    3    3    0  502 -0.40267737329E+03  0.11653419853E+04 -0.80116042458E+03  0.14703839755E+04  0.50400001928E-02 0.  1.
</event>
<event>
 5   0  0.4436241E-08  0.3100281E+04  0.7818609E-02  0.8215661E-01
       -1   -1    0    0    0  501  0.00000000000E+00  0.00000000000E+00  0.14183851737E+04  0.14183851737E+04  0.50400001928E-02 0. -1.
        1   -1    0    0  501    0  0.00000000000E+00  0.00000000000E+00 -0.16941341955E+04  0.16941341955E+04  0.50400001928E-02 0.  1.
    10030    2    1    2    0    0  0.00000000000E+00  0.00000000000E+00 -0.27574902175E+03  0.31125193692E+04  0.31002805197E+04 0.  0.
        3    1    3    3  502    0 -0.18747761668E+03 -0.10944208928E+03 -0.16787982479E+04  0.16927755300E+04  0.10100000352E+00 0.  1.
       -3    1    3    3    0  502  0.18747761668E+03  0.10944208928E+03  0.14030492262E+04  0.14197438392E+04  0.10100000352E+00 0. -1.
</event>
<event>
 5   0  0.4305500E-08  0.3101728E+04  0.7818609E-02  0.8215264E-01
       -4   -1    0    0    0  501  0.00000000000E+00  0.00000000000E+00  0.13078154115E+04  0.13078160282E+04  0.12699999809E+01 0. -1.
        4   -1    0    0  501    0  0.00000000000E+00  0.00000000000E+00 -0.18390802625E+04  0.18390807010E+04  0.12699999809E+01 0.  1.
    10030    2    1    2    0    0  0.00000000000E+00  0.00000000000E+00 -0.53126485094E+03  0.31468967291E+04  0.31017280155E+04 0.  0.
        2    1    3    3  502    0 -0.11768637067E+04 -0.20526861466E+03 -0.12689909629E+04  0.17428371846E+04  0.25500000920E-02 0.  1.
       -2    1    3    3    0  502  0.11768637067E+04  0.20526861466E+03  0.73772611198E+03  0.14040595445E+04  0.25500000920E-02 0. -1.
</event>
<event>
 5   0  0.1329777E-07  0.3100719E+04  0.7818609E-02  0.8215541E-01
        2   -1    0    0  501    0  0.00000000000E+00  0.00000000000E+00  0.15862340946E+04  0.15862340946E+04  0.25500000920E-02 0.  1.
       -2   -1    0    0    0  501  0.00000000000E+00  0.00000000000E+00 -0.15152966194E+04  0.15152966194E+04  0.25500000920E-02 0. -1.
    10030    2    1    2    0    0  0.00000000000E+00  0.00000000000E+00  0.70937475131E+02  0.31015307140E+04  0.31007193753E+04 0.  0.
        1    1    3    3  502    0  0.38350955917E+03  0.14344370176E+02  0.15379702389E+04  0.15851302151E+04  0.50400001928E-02 0.  1.
       -1    1    3    3    0  502 -0.38350955917E+03 -0.14344370176E+02 -0.14670327638E+04  0.15164004989E+04  0.50400001928E-02 0. -1.
</event>
<event>
 5   0  0.4517409E-08  0.3100093E+04  0.7818609E-02  0.8215713E-01
        1   -1    0    0  501    0  0.00000000000E+00  0.00000000000E+00  0.17473316476E+04  0.17473316476E+04  0.50400001928E-02 0. -1.
       -1   -1    0    0    0  501  0.00000000000E+00  0.00000000000E+00 -0.13750357200E+04  0.13750357200E+04  0.50400001928E-02 0.  1.
    10030    2    1    2    0    0  0.00000000000E+00  0.00000000000E+00  0.37229592766E+03  0.31223673676E+04  0.31000925342E+04 0.  0.
        2    1    3    3  502    0 -0.10218361637E+04 -0.90411722101E+03 -0.55470939479E+03  0.14728474488E+04  0.25500000920E-02 0.  1.
       -2    1    3    3    0  502  0.10218361637E+04  0.90411722101E+03  0.92700532245E+03  0.16495199188E+04  0.25500000920E-02 0. -1.
</event>
<event>
 5   0  0.1377237E-07  0.3099767E+04  0.7818609E-02  0.8215802E-01
       -2   -1    0    0    0  501  0.00000000000E+00  0.00000000000E+00  0.14629504178E+04  0.14629504178E+04  0.25500000920E-02 0.  1.
        2   -1    0    0  501    0  0.00000000000E+00  0.00000000000E+00 -0.16419822370E+04  0.16419822370E+04  0.25500000920E-02 0. -1.
    10030    2    1    2    0    0  0.00000000000E+00  0.00000000000E+00 -0.17903181922E+03  0.31049326547E+04  0.30997668296E+04 0.  0.
        2    1    3    3  502    0 -0.86786119157E+03  0.98210759904E+03  0.73915973087E+03  0.15046845157E+04  0.25500000920E-02 0. -1.
       -2    1    3    3    0  502  0.86786119157E+03 -0.98210759904E+03 -0.91819155010E+03  0.16002481391E+04  0.25500000920E-02 0.  1.
</event>
<event>
 5   0  0.1329777E-07  0.3100040E+04  0.7818609E-02  0.8215727E-01
       -2   -1    0    0    0  501  0.00000000000E+00  0.00000000000E+00  0.10347734615E+04  0.10347734615E+04  0.25500000920E-02 0. -1.
        2   -1    0    0  501    0  0.00000000000E+00  0.00000000000E+00 -0.23218234113E+04  0.23218234113E+04  0.25500000920E-02 0.  1.
    10030    2    1    2    0    0  0.00000000000E+00  0.00000000000E+00 -0.12870499498E+04  0.33565968728E+04  0.31000395148E+04 0.  0.
        1    1    3    3  502    0  0.32128584309E+03 -0.83513925874E+03  0.72687335287E+03  0.11528343531E+04  0.50400001928E-02 0. -1.
       -1    1    3    3    0  502 -0.32128584309E+03  0.83513925874E+03 -0.20139233027E+04  0.22037625198E+04  0.50400001928E-02 0.  1.
</event>
<event>
 5   0  0.4517409E-08  0.3100420E+04  0.7818609E-02  0.8215623E-01
       -1   -1    0    0    0  501  0.00000000000E+00  0.00000000000E+00  0.18836460082E+04  0.18836460082E+04  0.50400001928E-02 0.  1.
        1   -1    0    0  501    0  0.00000000000E+00  0.00000000000E+00 -0.12757974425E+04  0.12757974425E+04  0.50400001928E-02 0. -1.
    10030    2    1    2    0    0  0.00000000000E+00  0.00000000000E+00  0.60784856567E+03  0.31594434507E+04  0.31004198166E+04 0.  0.
        2    1    3    3  502    0 -0.65726727793E+03  0.99621031297E+03 -0.70420984075E+03  0.13857657674E+04  0.25500000920E-02 0. -1.
       -2    1    3    3    0  502  0.65726727793E+03 -0.99621031297E+03  0.13120584064E+04  0.17736776833E+04  0.25500000920E-02 0.  1.
</event>
<event>
 5   0  0.4450600E-08  0.3099621E+04  0.7818609E-02  0.8215842E-01
        1   -1    0    0  501    0  0.00000000000E+00  0.00000000000E+00  0.24239182772E+04  0.24239182773E+04  0.50400001928E-02 0. -1.
       -1   -1    0    0    0  501  0.00000000000E+00  0.00000000000E+00 -0.99092117496E+03  0.99092117498E+03  0.50400001928E-02 0.  1.
    10030    2    1    2    0    0  0.00000000000E+00  0.00000000000E+00  0.14329971023E+04  0.34148394522E+04  0.30996205880E+04 0.  0.
        4    1    3    3  502    0  0.13748784825E+04 -0.66915308837E+03  0.99488915547E+03  0.18242430599E+04  0.12699999809E+01 0. -1.
       -4    1    3    3    0  502 -0.13748784825E+04  0.66915308837E+03  0.43810794681E+03  0.15905963923E+04  0.12699999809E+01 0.  1.
</event>
<event>
 5   0  0.1318916E-07  0.3100854E+04  0.7818609E-02  0.8215504E-01
        2   -1    0    0  501    0  0.00000000000E+00  0.00000000000E+00  0.20029544257E+04  0.20029544257E+04  0.25500000920E-02 0. -1.
       -2   -1    0    0    0  501  0.00000000000E+00  0.00000000000E+00 -0.12001390521E+04  0.12001390521E+04  0.25500000920E-02 0.  1.
    10030    2    1    2    0    0  0.00000000000E+00  0.00000000000E+00  0.80281537351E+03  0.32030934778E+04  0.31008539636E+04 0.  0.
        5    1    3    3  502    0 -0.14093429769E+04 -0.49574516393E+03  0.82955015027E+03  0.17088552999E+04  0.46999998093E+01 0. -1.
       -5    1    3    3    0  502  0.14093429769E+04  0.49574516393E+03 -0.26734776758E+02  0.14942381779E+04  0.46999998093E+01 0.  1.
</event>
<event>
 5   0  0.4436241E-08  0.3089599E+04  0.7818609E-02  0.8218598E-01
        1   -1    0    0  501    0  0.00000000000E+00  0.00000000000E+00  0.12037318915E+04  0.12037318915E+04  0.50400001928E-02 0.  1.
       -1   -1    0    0    0  501  0.00000000000E+00  0.00000000000E+00 -0.19825061671E+04  0.19825061671E+04  0.50400001928E-02 0. -1.
    10030    2    1    2    0    0  0.00000000000E+00  0.00000000000E+00 -0.77877427556E+03  0.31862380586E+04  0.30895992610E+04 0.  0.
        3    1    3    3  502    0  0.28558641977E+03  0.28910591086E+03  0.11476209858E+04  0.12174464129E+04  0.10100000352E+00 0.  1.
       -3    1    3    3    0  502 -0.28558641977E+03 -0.28910591086E+03 -0.19263952614E+04  0.19687916457E+04  0.10100000352E+00 0. -1.
</event>
<event>
 5   0  0.4436241E-08  0.3098375E+04  0.7818609E-02  0.8216184E-01
        1   -1    0    0  501    0  0.00000000000E+00  0.00000000000E+00  0.17150612607E+04  0.17150612607E+04  0.50400001928E-02 0.  1.
       -1   -1    0    0    0  501  0.00000000000E+00  0.00000000000E+00 -0.13993567970E+04  0.13993567970E+04  0.50400001928E-02 0. -1.
    10030    2    1    2    0    0  0.00000000000E+00  0.00000000000E+00  0.31570446367E+03  0.31144180578E+04  0.30983754663E+04 0.  0.
        3    1    3    3  502    0  0.82728189330E+03  0.13097419479E+04  0.17069811907E+03  0.15585111996E+04  0.10100000352E+00 0. -1.
       -3    1    3    3    0  502 -0.82728189330E+03 -0.13097419479E+04  0.14500634459E+03  0.15559068582E+04  0.10100000352E+00 0.  1.
</event>
<event>
 5   0  0.1398931E-07  0.3100619E+04  0.7818609E-02  0.8215568E-01
        2   -1    0    0  501    0  0.00000000000E+00  0.00000000000E+00  0.26538981408E+04  0.26538981408E+04  0.25500000920E-02 0.  1.
       -2   -1    0    0    0  501  0.00000000000E+00  0.00000000000E+00 -0.90563350716E+03  0.90563350716E+03  0.25500000920E-02 0. -1.
    10030    2    1    2    0    0  0.00000000000E+00  0.00000000000E+00  0.17482646336E+04  0.35595316479E+04  0.31006187001E+04 0.  0.
        3    1    3    3  502    0  0.40256740615E+03  0.12061844922E+03  0.25872608702E+04  0.26211692329E+04  0.10100000352E+00 0.  1.
       -3    1    3    3    0  502 -0.40256740615E+03 -0.12061844922E+03 -0.83899623658E+03  0.93836241505E+03  0.10100000352E+00 0. -1.
</event>
<event>
 5   0  0.1318916E-07  0.3100702E+04  0.7818609E-02  0.8215545E-01
       -2   -1    0    0    0  501  0.00000000000E+00  0.00000000000E+00  0.17329898514E+04  0.17329898514E+04  0.25500000920E-02 0.  1.
        2   -1    0    0  501    0  0.00000000000E+00  0.00000000000E+00 -0.13869604072E+04  0.13869604072E+04  0.25500000920E-02 0. -1.
    10030    2    1    2    0    0  0.00000000000E+00  0.00000000000E+00  0.34602944424E+03  0.31199502586E+04  0.31007020559E+04 0.  0.
        5    1    3    3  502    0  0.13321445862E+04 -0.25301945580E+03 -0.58327481946E+03  0.14760960838E+04  0.46999998093E+01 0. -1.
       -5    1    3    3    0  502 -0.13321445862E+04  0.25301945580E+03  0.92930426369E+03  0.16438541748E+04  0.46999998093E+01 0.  1.
</event>
<event>
 5   0  0.4838602E-08  0.3099128E+04  0.7818609E-02  0.8215977E-01
        1   -1    0    0  501    0  0.00000000000E+00  0.00000000000E+00  0.16926885282E+04  0.16926885282E+04  0.50400001928E-02 0. -1.
       -1   -1    0    0    0  501  0.00000000000E+00  0.00000000000E+00 -0.14185414870E+04  0.14185414870E+04  0.50400001928E-02 0.  1.
    10030    2    1    2    0    0  0.00000000000E+00  0.00000000000E+00  0.27414704122E+03  0.31112300152E+04  0.30991282012E+04 0.  0.
        5    1    3    3  502    0  0.12139763709E+04 -0.26640832652E+03 -0.79196700010E+03  0.14737523010E+04  0.46999998093E+01 0.  1.
       -5    1    3    3    0  502 -0.12139763709E+04  0.26640832652E+03  0.10661140413E+04  0.16374777142E+04  0.46999998093E+01 0. -1.
</event>
<event>
 5   0  0.4517409E-08  0.3099722E+04  0.7818609E-02  0.8215814E-01
        1   -1    0    0  501    0  0.00000000000E+00  0.00000000000E+00  0.18434287436E+04  0.18434287436E+04  0.50400001928E-02 0.  1.
       -1   -1    0    0    0  501  0.00000000000E+00  0.00000000000E+00 -0.13030440497E+04  0.13030440497E+04  0.50400001928E-02 0. -1.
    10030    2    1    2    0    0  0.00000000000E+00  0.00000000000E+00  0.54038469392E+03  0.31464727933E+04  0.30997218298E+04 0.  0.
        2    1    3    3  502    0 -0.67435813791E+03  0.32263191792E+03  0.16483207435E+04  0.18099203093E+04  0.25500000920E-02 0.  1.
       -2    1    3    3    0  502  0.67435813791E+03 -0.32263191792E+03 -0.11079360496E+04  0.13365524840E+04  0.25500000920E-02 0. -1.
</event>
<event>
 5   0  0.1325713E-07  0.3100767E+04  0.7818609E-02  0.8215527E-01
       -2   -1    0    0    0  501  0.00000000000E+00  0.00000000000E+00  0.10490576279E+04  0.10490576279E+04  0.25500000920E-02 0. -1.
        2   -1    0    0  501    0  0.00000000000E+00  0.00000000000E+00 -0.22912842105E+04  0.22912842105E+04  0.25500000920E-02 0.  1.
    10030    2    1    2    0    0  0.00000000000E+00  0.00000000000E+00 -0.12422265826E+04  0.33403418384E+04  0.31007671172E+04 0.  0.
        4    1    3    3  502    0 -0.74336140094E+03  0.42023567839E+03 -0.20151197184E+04  0.21885824842E+04  0.12699999809E+01 0.  1.
       -4    1    3    3    0  502  0.74336140094E+03 -0.42023567839E+03  0.77289313576E+03  0.11517593542E+04  0.12699999809E+01 0. -1.
</event>
<event>
 5   0  0.4305500E-08  0.3099714E+04  0.7818609E-02  0.8215816E-01
        4   -1    0    0  501    0  0.00000000000E+00  0.00000000000E+00  0.21987405323E+04  0.21987408990E+04  0.12699999809E+01 0. -1.
       -4   -1    0    0    0  501  0.00000000000E+00  0.00000000000E+00 -0.10924685835E+04  0.10924693217E+04  0.12699999809E+01 0.  1.
    10030    2    1    2    0    0  0.00000000000E+00  0.00000000000E+00  0.11062719487E+04  0.32912102207E+04  0.30997140340E+04 0.  0.
        4    1    3    3  502    0 -0.39408272455E+03  0.14246347791E+04  0.10479404528E+04  0.18119233574E+04  0.12699999809E+01 0. -1.
       -4    1    3    3    0  502  0.39408272455E+03 -0.14246347791E+04  0.58331495953E+02  0.14792868633E+04  0.12699999809E+01 0.  1.
</event>
<event>
 5   0  0.4470354E-08  0.3098059E+04  0.7818609E-02  0.8216271E-01
        1   -1    0    0  501    0  0.00000000000E+00  0.00000000000E+00  0.11397090215E+04  0.11397090215E+04  0.50400001928E-02 0. -1.
       -1   -1    0    0    0  501  0.00000000000E+00  0.00000000000E+00 -0.21053550018E+04  0.21053550018E+04  0.50400001928E-02 0.  1.
    10030    2    1    2    0    0  0.00000000000E+00  0.00000000000E+00 -0.96564598031E+03  0.32450640233E+04  0.30980588044E+04 0.  0.
        1    1    3    3  502    0 -0.53719183527E+03 -0.64932987228E+03 -0.18442219911E+04  0.20276486637E+04  0.50400001928E-02 0.  1.
       -1    1    3    3    0  502  0.53719183527E+03  0.64932987228E+03  0.87857601079E+03  0.12174153596E+04  0.50400001928E-02 0. -1.
</event>
<event>
 5   0  0.1377237E-07  0.3100265E+04  0.7818609E-02  0.8215665E-01
        2   -1    0    0  501    0  0.00000000000E+00  0.00000000000E+00  0.20611098568E+04  0.20611098568E+04  0.25500000920E-02 0. -1.
       -2   -1    0    0    0  501  0.00000000000E+00  0.00000000000E+00 -0.11658336733E+04  0.11658336733E+04  0.25500000920E-02 0.  1.
    10030    2    1    2    0    0  0.00000000000E+00  0.00000000000E+00  0.89527618346E+03  0.32269435301E+04  0.31002653277E+04 0.  0.
        2    1    3    3  502    0  0.56695655715E+03  0.13679659123E+04 -0.29503959635E+02  0.14810945137E+04  0.25500000920E-02 0.  1.
       -2    1    3    3    0  502 -0.56695655715E+03 -0.13679659123E+04  0.92478014310E+03  0.17458490164E+04  0.25500000920E-02 0. -1.
</event>
<event>
 5   0  0.4517409E-08  0.3100087E+04  0.7818609E-02  0.8215714E-01
       -1   -1    0    0    0  501  0.00000000000E+00  0.00000000000E+00  0.20688901903E+04  0.20688901903E+04  0.50400001928E-02 0. -1.
        1   -1    0    0  501    0  0.00000000000E+00  0.00000000000E+00 -0.11613158474E+04  0.11613158474E+04  0.50400001928E-02 0.  1.
    10030    2    1    2    0    0  0.00000000000E+00  0.00000000000E+00  0.90757434296E+03  0.32302060377E+04  0.31000870727E+04 0.  0.
        2    1    3    3  502    0 -0.12577024459E+04 -0.87852621772E+03  0.68446403161E+03  0.16799151074E+04  0.25500000920E-02 0. -1.
       -2    1    3    3    0  502  0.12577024459E+04  0.87852621772E+03  0.22311031135E+03  0.15502909303E+04  0.25500000920E-02 0.  1.
</event>
<event>
 5   0  0.1329777E-07  0.3098660E+04  0.7818609E-02  0.8216106E-01
        2   -1    0    0  501    0  0.00000000000E+00  0.00000000000E+00  0.14495481090E+04  0.14495481090E+04  0.25500000920E-02 0.  1.
       -2   -1    0    0    0  501  0.00000000000E+00  0.00000000000E+00 -0.16559801397E+04  0.16559801397E+04  0.25500000920E-02 0. -1.
    10030    2    1    2    0    0  0.00000000000E+00  0.00000000000E+00 -0.20643203072E+03  0.31055282487E+04  0.30986596328E+04 0.  0.
        1    1    3    3  502    0  0.41800992731E+03  0.79238280447E+03  0.11636350057E+04  0.14685534497E+04  0.50400001928E-02 0.  1.
       -1    1    3    3    0  502 -0.41800992731E+03 -0.79238280447E+03 -0.13700670364E+04  0.16369747990E+04  0.50400001928E-02 0. -1.
</event>
<event>
 5   0  0.4436241E-08  0.3095824E+04  0.7818609E-02  0.8216885E-01
        1   -1    0    0  501    0  0.00000000000E+00  0.00000000000E+00  0.20763770077E+04  0.20763770077E+04  0.50400001928E-02 0.  1.
       -1   -1    0    0    0  501  0.00000000000E+00  0.00000000000E+00 -0.11539483133E+04  0.11539483133E+04  0.50400001928E-02 0. -1.
    10030    2    1    2    0    0  0.00000000000E+00  0.00000000000E+00  0.92242869439E+03  0.32303253210E+04  0.30958241202E+04 0.  0.
        3    1    3    3  502    0  0.10987874418E+04 -0.23159264909E+03  0.15728946622E+04  0.19326061746E+04  0.10100000352E+00 0. -1.
       -3    1    3    3    0  502 -0.10987874418E+04  0.23159264909E+03 -0.65046596783E+03  0.12977191464E+04  0.10100000352E+00 0.  1.
</event>
<event>
 5   0  0.4436241E-08  0.3100325E+04  0.7818609E-02  0.8215649E-01
       -1   -1    0    0    0  501  0.00000000000E+00  0.00000000000E+00  0.18115531956E+04  0.18115531956E+04  0.50400001928E-02 0.  1.
        1   -1    0    0  501    0  0.00000000000E+00  0.00000000000E+00 -0.13264883780E+04  0.13264883780E+04  0.50400001928E-02 0. -1.
    10030    2    1    2    0    0  0.00000000000E+00  0.00000000000E+00  0.48506481763E+03  0.31380415736E+04  0.31003253120E+04 0.  0.
        3    1    3    3  502    0 -0.63840084377E+03 -0.55445034231E+02 -0.11861539891E+04  0.13481806574E+04  0.10100000352E+00 0. -1.
       -3    1    3    3    0  502  0.63840084377E+03  0.55445034231E+02  0.16712188067E+04  0.17898609162E+04  0.10100000352E+00 0.  1.
</event>
<event>
 5   0  0.1325713E-07  0.3088185E+04  0.7818609E-02  0.8218988E-01
        2   -1    0    0  501    0  0.00000000000E+00  0.00000000000E+00  0.18961458805E+04  0.18961458805E+04  0.25500000920E-02 0. -1.
       -2   -1    0    0    0  501  0.00000000000E+00  0.00000000000E+00 -0.12574042035E+04  0.12574042035E+04  0.25500000920E-02 0.  1.
    10030    2    1    2    0    0  0.00000000000E+00  0.00000000000E+00  0.63874167703E+03  0.31535500840E+04  0.30881850984E+04 0.  0.
        4    1    3    3  502    0 -0.97327811938E+03 -0.65893937654E+03 -0.70319783186E+03  0.13696569655E+04  0.12699999809E+01 0.  1.
       -4    1    3    3    0  502  0.97327811938E+03  0.65893937654E+03  0.13419395089E+04  0.17838931184E+04  0.12699999809E+01 0. -1.
</event>
<event>
 5   0  0.1329777E-07  0.3098987E+04  0.7818609E-02  0.8216016E-01
        2   -1    0    0  501    0  0.00000000000E+00  0.00000000000E+00  0.23709894421E+04  0.23709894421E+04  0.25500000920E-02 0. -1.
       -2   -1    0    0    0  501  0.00000000000E+00  0.00000000000E+00 -0.10126281907E+04  0.10126281907E+04  0.25500000920E-02 0.  1.
    10030    2    1    2    0    0  0.00000000000E+00  0.00000000000E+00  0.13583612514E+04  0.33836176328E+04  0.30989874146E+04 0.  0.
        1    1    3    3  502    0 -0.24861474000E+03 -0.10292397334E+04 -0.55599956896E+03  0.11959428241E+04  0.50400001928E-02 0.  1.
       -1    1    3    3    0  502  0.24861474000E+03  0.10292397334E+04  0.19143608204E+04  0.21876748087E+04  0.50400001928E-02 0. -1.
</event>
<event>
 5   0  0.4517409E-08  0.3100878E+04  0.7818609E-02  0.8215497E-01
       -1   -1    0    0    0  501  0.00000000000E+00  0.00000000000E+00  0.17735842082E+04  0.17735842082E+04  0.50400001928E-02 0. -1.
        1   -1    0    0  501    0  0.00000000000E+00  0.00000000000E+00 -0.13553688124E+04  0.13553688124E+04  0.50400001928E-02 0.  1.
    10030    2    1    2    0    0  0.00000000000E+00  0.00000000000E+00  0.41821539580E+03  0.31289530206E+04  0.31008777608E+04 0.  0.
        2    1    3    3  502    0  0.11638522655E+04 -0.32588141416E+03  0.11890388292E+04  0.16954539597E+04  0.25500000920E-02 0. -1.
       -2    1    3    3    0  502 -0.11638522655E+04  0.32588141416E+03 -0.77082343339E+03  0.14334990609E+04  0.25500000920E-02 0.  1.
</event>
<event>
 5   0  0.4450600E-08  0.3100532E+04  0.7818609E-02  0.8215592E-01
       -1   -1    0    0    0  501  0.00000000000E+00  0.00000000000E+00  0.11246870650E+04  0.11246870650E+04  0.50400001928E-02 0.  1.
        1   -1    0    0  501    0  0.00000000000E+00  0.00000000000E+00 -0.21368826659E+04  0.21368826659E+04  0.50400001928E-02 0. -1.
    10030    2    1    2    0    0  0.00000000000E+00  0.00000000000E+00 -0.10121956010E+04  0.32615697309E+04  0.31005317568E+04 0.  0.
        4    1    3    3  502    0 -0.43613983953E+03 -0.14462587306E+04 -0.13951499697E+03  0.15170195525E+04  0.12699999809E+01 0.  1.
       -4    1    3    3    0  502  0.43613983953E+03  0.14462587306E+04 -0.87268060398E+03  0.17445501784E+04  0.12699999809E+01 0. -1.
</event>
<event>
 5   0  0.4838602E-08  0.3100131E+04  0.7818609E-02  0.8215702E-01
        1   -1    0    0  501    0  0.00000000000E+00  0.00000000000E+00  0.15865176031E+04  0.15865176031E+04  0.50400001928E-02 0. -1.
       -1   -1    0    0    0  501  0.00000000000E+00  0.00000000000E+00 -0.15144513813E+04  0.15144513813E+04  0.50400001928E-02 0.  1.
    10030    2    1    2    0    0  0.00000000000E+00  0.00000000000E+00  0.72066221804E+02  0.31009689844E+04  0.31001314653E+04 0.  0.
        5    1    3    3  502    0 -0.36531968250E+03 -0.14346726282E+04 -0.42337047274E+03  0.15398079970E+04  0.46999998093E+01 0.  1.
       -5    1    3    3    0  502  0.36531968250E+03  0.14346726282E+04  0.49543669455E+03  0.15611609874E+04  0.46999998093E+01 0. -1.
</event>
<event>
 5   0  0.1377237E-07  0.3100449E+04  0.7818609E-02  0.8215615E-01
       -2   -1    0    0    0  501  0.00000000000E+00  0.00000000000E+00  0.17607247584E+04  0.17607247584E+04  0.25500000920E-02 0.  1.
        2   -1    0    0  501    0  0.00000000000E+00  0.00000000000E+00 -0.13648899639E+04  0.13648899639E+04  0.25500000920E-02 0. -1.
    10030    2    1    2    0    0  0.00000000000E+00  0.00000000000E+00  0.39583479448E+03  0.31256147222E+04  0.31004487107E+04 0.  0.
        2    1    3    3  502    0 -0.14535204506E+04  0.39396478007E+03 -0.17285259681E+03  0.15158522251E+04  0.25500000920E-02 0. -1.
       -2    1    3    3    0  502  0.14535204506E+04 -0.39396478007E+03  0.56868739129E+03  0.16097624971E+04  0.25500000920E-02 0.  1.
</event>
<event>
 5   0  0.4450600E-08  0.3100521E+04  0.7818609E-02  0.8215595E-01
       -1   -1    0    0    0  501  0.00000000000E+00  0.00000000000E+00  0.10614709118E+04  0.10614709118E+04  0.50400001928E-02 0. -1.
        1   -1    0    0  501    0  0.00000000000E+00  0.00000000000E+00 -0.22641289097E+04  0.22641289097E+04  0.50400001928E-02 0.  1.
    10030    2    1    2    0    0  0.00000000000E+00  0.00000000000E+00 -0.12026579979E+04  0.33255998215E+04  0.31005205874E+04 0.  0.
        4    1    3    3  502    0  0.40591882104E+02  0.10011376728E+03  0.10574281581E+04  0.10629329188E+04  0.12699999809E+01 0. -1.
       -4    1    3    3    0  502 -0.40591882104E+02 -0.10011376728E+03 -0.22600861560E+04  0.22626669028E+04  0.12699999809E+01 0.  1.
</event>
<event>
 5   0  0.1318916E-07  0.3097399E+04  0.7818609E-02  0.8216452E-01
        2   -1    0    0  501    0  0.00000000000E+00  0.00000000000E+00  0.19690006125E+04  0.19690006125E+04  0.25500000920E-02 0.  1.
       -2   -1    0    0    0  501  0.00000000000E+00  0.00000000000E+00 -0.12181154976E+04  0.12181154976E+04  0.25500000920E-02 0. -1.
    10030    2    1    2    0    0  0.00000000000E+00  0.00000000000E+00  0.75088511492E+03  0.31871161101E+04  0.30973990126E+04 0.  0.
        5    1    3    3  502    0 -0.78202330778E+03 -0.35835764494E+03 -0.94967436923E+03  0.12813602745E+04  0.46999998093E+01 0. -1.
       -5    1    3    3    0  502  0.78202330778E+03  0.35835764494E+03  0.17005594842E+04  0.19057558355E+04  0.46999998093E+01 0.  1.
</event>
<event>
 5   0  0.4838602E-08  0.3100849E+04  0.7818609E-02  0.8215505E-01
        1   -1    0    0  501    0  0.00000000000E+00  0.00000000000E+00  0.16631700286E+04  0.16631700287E+04  0.50400001928E-02 0. -1.
       -1   -1    0    0    0  501  0.00000000000E+00  0.00000000000E+00 -0.14453223577E+04  0.14453223577E+04  0.50400001928E-02 0.  1.
    10030    2    1    2    0    0  0.00000000000E+00  0.00000000000E+00  0.21784767095E+03  0.31084923864E+04  0.31008494495E+04 0.  0.
        5    1    3    3  502    0 -0.10603976553E+04  0.82933328273E+03  0.87994755703E+03  0.16082806578E+04  0.46999998093E+01 0. -1.
       -5    1    3    3    0  502  0.10603976553E+04 -0.82933328273E+03 -0.66209988608E+03  0.15002117285E+04  0.46999998093E+01 0.  1.
</event>
<event>
 5   0  0.4470354E-08  0.3094962E+04  0.7818609E-02  0.8217122E-01
        1   -1    0    0  501    0  0.00000000000E+00  0.00000000000E+00  0.82251772023E+03  0.82251772025E+03  0.50400001928E-02 0. -1.
       -1   -1    0    0    0  501  0.00000000000E+00  0.00000000000E+00 -0.29114235829E+04  0.29114235829E+04  0.50400001928E-02 0.  1.
    10030    2    1    2    0    0  0.00000000000E+00  0.00000000000E+00 -0.20889058627E+04  0.37339413032E+04  0.30949620276E+04 0.  0.
        1    1    3    3  502    0  0.66547288504E+03  0.75184441516E+03  0.37618556393E+03  0.10722125554E+04  0.50400001928E-02 0. -1.
       -1    1    3    3    0  502 -0.66547288504E+03 -0.75184441516E+03 -0.24650914266E+04  0.26617287478E+04  0.50400001928E-02 0.  1.
</event>
<event>
 5   0  0.1377237E-07  0.3098639E+04  0.7818609E-02  0.8216112E-01
        2   -1    0    0  501    0  0.00000000000E+00  0.00000000000E+00  0.18825623670E+04  0.18825623670E+04  0.25500000920E-02 0.  1.
       -2   -1    0    0    0  501  0.00000000000E+00  0.00000000000E+00 -0.12750656423E+04  0.12750656423E+04  0.25500000920E-02 0. -1.
    10030    2    1    2    0    0  0.00000000000E+00  0.00000000000E+00  0.60749672474E+03  0.31576280093E+04  0.30986387938E+04 0.  0.
        2    1    3    3  502    0 -0.16966318674E+03 -0.69651230462E+03 -0.10958892632E+04  0.13095374239E+04  0.25500000920E-02 0. -1.
       -2    1    3    3    0  502  0.16966318674E+03  0.69651230462E+03  0.17033859880E+04  0.18480905853E+04  0.25500000920E-02 0.  1.
</event>
<event>
 5   0  0.4838602E-08  0.3096978E+04  0.7818609E-02  0.8216568E-01
        1   -1    0    0  501    0  0.00000000000E+00  0.00000000000E+00  0.18371098027E+04  0.18371098028E+04  0.50400001928E-02 0. -1.
       -1   -1    0    0    0  501  0.00000000000E+00  0.00000000000E+00 -0.13052118152E+04  0.13052118152E+04  0.50400001928E-02 0.  1.
    10030    2    1    2    0    0  0.00000000000E+00  0.00000000000E+00  0.53189798756E+03  0.31423216180E+04  0.30969775074E+04 0.  0.
        5    1    3    3  502    0  0.14726081095E+03 -0.88765844440E+03 -0.10127294949E+04  0.13547200376E+04  0.46999998093E+01 0.  1.
       -5    1    3    3    0  502 -0.14726081095E+03  0.88765844440E+03  0.15446274825E+04  0.17876015803E+04  0.46999998093E+01 0. -1.
</event>
<event>
 5   0  0.1329777E-07  0.3100806E+04  0.7818609E-02  0.8215517E-01
       -2   -1    0    0    0  501  0.00000000000E+00  0.00000000000E+00  0.10408536398E+04  0.10408536398E+04  0.25500000920E-02 0. -1.
        2   -1    0    0  501    0  0.00000000000E+00  0.00000000000E+00 -0.23094027069E+04  0.23094027069E+04  0.25500000920E-02 0.  1.
    10030    2    1    2    0    0  0.00000000000E+00  0.00000000000E+00 -0.12685490671E+04  0.33502563468E+04  0.31008064843E+04 0.  0.
        1    1    3    3  502    0  0.13179928231E+04 -0.28486575503E+03  0.19245904276E+03  0.13620917969E+04  0.50400001928E-02 0. -1.
       -1    1    3    3    0  502 -0.13179928231E+04  0.28486575503E+03 -0.14610081098E+04  0.19881645498E+04  0.50400001928E-02 0.  1.
</event>
<event>
 5   0  0.4470354E-08  0.3100903E+04  0.7818609E-02  0.8215490E-01
        1   -1    0    0  501    0  0.00000000000E+00  0.00000000000E+00  0.17294530818E+04  0.17294530818E+04  0.50400001928E-02 0. -1.
       -1   -1    0    0    0  501  0.00000000000E+00  0.00000000000E+00 -0.13899768534E+04  0.13899768534E+04  0.50400001928E-02 0.  1.
    10030    2    1    2    0    0  0.00000000000E+00  0.00000000000E+00  0.33947622837E+03  0.31194299352E+04  0.31009029348E+04 0.  0.
        1    1    3    3  502    0 -0.11347166371E+04  0.10416166274E+04 -0.83867679189E+01  0.15403302837E+04  0.50400001928E-02 0.  1.
       -1    1    3    3    0  502  0.11347166371E+04 -0.10416166274E+04  0.34786299628E+03  0.15790996515E+04  0.50400001928E-02 0. -1.
</event>
<event>
 5   0  0.4517409E-08  0.3101327E+04  0.7818609E-02  0.8215374E-01
       -1   -1    0    0    0  501  0.00000000000E+00  0.00000000000E+00  0.97176304282E+03  0.97176304283E+03  0.50400001928E-02 0.  1.
        1   -1    0    0  501    0  0.00000000000E+00  0.00000000000E+00 -0.24744277715E+04  0.24744277715E+04  0.50400001928E-02 0. -1.
    10030    2    1    2    0    0  0.00000000000E+00  0.00000000000E+00 -0.15026647287E+04  0.34461908144E+04  0.31013271098E+04 0.  0.
        2    1    3    3  502    0  0.48388525874E+03 -0.13915882679E+04 -0.21392718036E+03  0.14887671710E+04  0.25500000920E-02 0.  1.
       -2    1    3    3    0  502 -0.48388525874E+03  0.13915882679E+04 -0.12887375484E+04  0.19574236434E+04  0.25500000920E-02 0. -1.
</event>
<event>
 5   0  0.1325713E-07  0.3100241E+04  0.7818609E-02  0.8215672E-01
       -2   -1    0    0    0  501  0.00000000000E+00  0.00000000000E+00  0.99345954004E+03  0.99345954005E+03  0.25500000920E-02 0.  1.
        2   -1    0    0  501    0  0.00000000000E+00  0.00000000000E+00 -0.24186927461E+04  0.24186927461E+04  0.25500000920E-02 0. -1.
    10030    2    1    2    0    0  0.00000000000E+00  0.00000000000E+00 -0.14252332060E+04  0.34121522861E+04  0.31002408829E+04 0.  0.
        4    1    3    3  502    0 -0.10633040187E+04 -0.62261813575E+03  0.32254264980E+03  0.12736970413E+04  0.12699999809E+01 0.  1.
       -4    1    3    3    0  502  0.10633040187E+04  0.62261813575E+03 -0.17477758558E+04  0.21384552448E+04  0.12699999809E+01 0. -1.
</event>
<event>
 5   0  0.1377237E-07  0.3099007E+04  0.7818609E-02  0.8216010E-01
        2   -1    0    0  501    0  0.00000000000E+00  0.00000000000E+00  0.15641356164E+04  0.15641356164E+04  0.25500000920E-02 0. -1.
       -2   -1    0    0    0  501  0.00000000000E+00  0.00000000000E+00 -0.15350083192E+04  0.15350083192E+04  0.25500000920E-02 0.  1.
    10030    2    1    2    0    0  0.00000000000E+00  0.00000000000E+00  0.29127297245E+02  0.30991439356E+04  0.30990070562E+04 0.  0.
        2    1    3    3  502    0 -0.10463573888E+04  0.32728153692E+03  0.11095933796E+04  0.15598636023E+04  0.25500000920E-02 0. -1.
       -2    1    3    3    0  502  0.10463573888E+04 -0.32728153692E+03 -0.10804660824E+04  0.15392803334E+04  0.25500000920E-02 0.  1.
</event>
<event>
 5   0  0.1325713E-07  0.3099725E+04  0.7818609E-02  0.8215813E-01
       -2   -1    0    0    0  501  0.00000000000E+00  0.00000000000E+00  0.14329328406E+04  0.14329328406E+04  0.25500000920E-02 0.  1.
        2   -1    0    0  501    0  0.00000000000E+00  0.00000000000E+00 -0.16763340085E+04  0.16763340085E+04  0.25500000920E-02 0. -1.
    10030    2    1    2    0    0  0.00000000000E+00  0.00000000000E+00 -0.24340116784E+03  0.31092668491E+04  0.30997251830E+04 0.  0.
        4    1    3    3  502    0  0.13517139124E+04  0.26296159683E+03 -0.83508114489E+03  0.16104786350E+04  0.12699999809E+01 0. -1.
       -4    1    3    3    0  502 -0.13517139124E+04 -0.26296159683E+03  0.59167997704E+03  0.14987882141E+04  0.12699999809E+01 0.  1.
</event>
<event>
 5   0  0.4517409E-08  0.3100929E+04  0.7818609E-02  0.8215483E-01
       -1   -1    0    0    0  501  0.00000000000E+00  0.00000000000E+00  0.15333647896E+04  0.15333647896E+04  0.50400001928E-02 0.  1.
        1   -1    0    0  501    0  0.00000000000E+00  0.00000000000E+00 -0.15677548263E+04  0.15677548263E+04  0.50400001928E-02 0. -1.
    10030    2    1    2    0    0  0.00000000000E+00  0.00000000000E+00 -0.34390036725E+02  0.31011196158E+04  0.31009289249E+04 0.  0.
        2    1    3    3  502    0  0.13098745466E+03 -0.65548349733E+03 -0.14162534281E+04  0.15660747432E+04  0.25500000920E-02 0. -1.
       -2    1    3    3    0  502 -0.13098745466E+03  0.65548349733E+03  0.13818633914E+04  0.15350448727E+04  0.25500000920E-02 0.  1.
</event>
<event>
 5   0  0.1329777E-07  0.3099898E+04  0.7818609E-02  0.8215766E-01
        2   -1    0    0  501    0  0.00000000000E+00  0.00000000000E+00  0.17525847522E+04  0.17525847522E+04  0.25500000920E-02 0. -1.
       -2   -1    0    0    0  501  0.00000000000E+00  0.00000000000E+00 -0.13707419982E+04  0.13707419982E+04  0.25500000920E-02 0.  1.
    10030    2    1    2    0    0  0.00000000000E+00  0.00000000000E+00  0.38184275408E+03  0.31233267504E+04  0.30998977565E+04 0.  0.
        1    1    3    3  502    0 -0.10463233587E+04 -0.11180838828E+04 -0.50550957640E+02  0.15321421407E+04  0.50400001928E-02 0.  1.
       -1    1    3    3    0  502  0.10463233587E+04  0.11180838828E+04  0.43239371172E+03  0.15911846097E+04  0.50400001928E-02 0. -1.
</event>
<event>
 5   0  0.4450600E-08  0.3105200E+04  0.7818609E-02  0.8214312E-01
       -1   -1    0    0    0  501  0.00000000000E+00  0.00000000000E+00  0.18148085337E+04  0.18148085337E+04  0.50400001928E-02 0. -1.
        1   -1    0    0  501    0  0.00000000000E+00  0.00000000000E+00 -0.13282764436E+04  0.13282764437E+04  0.50400001928E-02 0.  1.
    10030    2    1    2    0    0  0.00000000000E+00  0.00000000000E+00  0.48653209001E+03  0.31430849773E+04  0.31052004283E+04 0.  0.
        4    1    3    3  502    0  0.14678804924E+03  0.83017410530E+03 -0.10764157781E+04  0.13672630752E+04  0.12699999809E+01 0.  1.
       -4    1    3    3    0  502 -0.14678804924E+03 -0.83017410530E+03  0.15629478682E+04  0.17758219021E+04  0.12699999809E+01 0. -1.
</event>
<event>
 5   0  0.4517409E-08  0.3099776E+04  0.7818609E-02  0.8215799E-01
        1   -1    0    0  501    0  0.00000000000E+00  0.00000000000E+00  0.19682134428E+04  0.19682134428E+04  0.50400001928E-02 0. -1.
       -1   -1    0    0    0  501  0.00000000000E+00  0.00000000000E+00 -0.12204740258E+04  0.12204740258E+04  0.50400001928E-02 0.  1.
    10030    2    1    2    0    0  0.00000000000E+00  0.00000000000E+00  0.74773941693E+03  0.31886874686E+04  0.30997763689E+04 0.  0.
        2    1    3    3  502    0 -0.64044521414E+03  0.65674885491E+03  0.16589679623E+04  0.18956961335E+04  0.25500000920E-02 0. -1.
       -2    1    3    3    0  502  0.64044521414E+03 -0.65674885491E+03 -0.91122854537E+03  0.12929913351E+04  0.25500000920E-02 0.  1.
</event>
<event>
 5   0  0.4470354E-08  0.3112816E+04  0.7818609E-02  0.8212229E-01
       -1   -1    0    0    0  501  0.00000000000E+00  0.00000000000E+00  0.14510185931E+04  0.14510185931E+04  0.50400001928E-02 0.  1.
        1   -1    0    0  501    0  0.00000000000E+00  0.00000000000E+00 -0.16694520750E+04  0.16694520750E+04  0.50400001928E-02 0. -1.
    10030    2    1    2    0    0  0.00000000000E+00  0.00000000000E+00 -0.21843348188E+03  0.31204706681E+04  0.31128160890E+04 0.  0.
        1    1    3    3  502    0  0.11377569625E+04  0.92691417612E+00  0.95542792181E+03  0.14857100251E+04  0.50400001928E-02 0.  1.
       -1    1    3    3    0  502 -0.11377569625E+04 -0.92691417612E+00 -0.11738614037E+04  0.16347606430E+04  0.50400001928E-02 0. -1.
</event>
<event>
 5   0  0.1329777E-07  0.3100459E+04  0.7818609E-02  0.8215612E-01
       -2   -1    0    0    0  501  0.00000000000E+00  0.00000000000E+00  0.10899410809E+04  0.10899410809E+04  0.25500000920E-02 0. -1.
        2   -1    0    0  501    0  0.00000000000E+00  0.00000000000E+00 -0.22049005015E+04  0.22049005015E+04  0.25500000920E-02 0.  1.
    10030    2    1    2    0    0  0.00000000000E+00  0.00000000000E+00 -0.11149594206E+04  0.32948415824E+04  0.31004590859E+04 0.  0.
        1    1    3    3  502    0 -0.79438019374E+03 -0.84161867023E+03  0.53861651740E+03  0.12765068081E+04  0.50400001928E-02 0. -1.
       -1    1    3    3    0  502  0.79438019374E+03  0.84161867023E+03 -0.16535759381E+04  0.20183347743E+04  0.50400001928E-02 0.  1.
</event>
<event>
 5   0  0.4436241E-08  0.3097972E+04  0.7818609E-02  0.8216295E-01
        1   -1    0    0  501    0  0.00000000000E+00  0.00000000000E+00  0.28291268619E+04  0.28291268619E+04  0.50400001928E-02 0.  1.
       -1   -1    0    0    0  501  0.00000000000E+00  0.00000000000E+00 -0.84809129496E+03  0.84809129498E+03  0.50400001928E-02 0. -1.
    10030    2    1    2    0    0  0.00000000000E+00  0.00000000000E+00  0.19810355670E+04  0.36772181569E+04  0.30979721522E+04 0.  0.
        3    1    3    3  502    0  0.32182999338E+03  0.14681545109E+04  0.54590755168E+03  0.15990832616E+04  0.10100000352E+00 0. -1.
       -3    1    3    3    0  502 -0.32182999338E+03 -0.14681545109E+04  0.14351280153E+04  0.20781348953E+04  0.10100000352E+00 0.  1.
</event>
<event>
 5   0  0.4838602E-08  0.3100105E+04  0.7818609E-02  0.8215709E-01
        1   -1    0    0  501    0  0.00000000000E+00  0.00000000000E+00  0.21692535817E+04  0.21692535817E+04  0.50400001928E-02 0. -1.
       -1   -1    0    0    0  501  0.00000000000E+00  0.00000000000E+00 -0.11075991277E+04  0.11075991277E+04  0.50400001928E-02 0.  1.
    10030    2    1    2    0    0  0.00000000000E+00  0.00000000000E+00  0.10616544540E+04  0.32768527094E+04  0.31001054013E+04 0.  0.
        5    1    3    3  502    0 -0.88338602344E+03  0.10937353390E+04  0.12207366941E+04  0.18619473743E+04  0.46999998093E+01 0.  1.
       -5    1    3    3    0  502  0.88338602344E+03 -0.10937353390E+04 -0.15908224007E+03  0.14149053351E+04  0.46999998093E+01 0. -1.
</event>
<event>
 5   0  0.4436241E-08  0.3100604E+04  0.7818609E-02  0.8215572E-01
       -1   -1    0    0    0  501  0.00000000000E+00  0.00000000000E+00  0.18838060446E+04  0.18838060446E+04  0.50400001928E-02 0.  1.
        1   -1    0    0  501    0  0.00000000000E+00  0.00000000000E+00 -0.12758407354E+04  0.12758407354E+04  0.50400001928E-02 0. -1.
    10030    2    1    2    0    0  0.00000000000E+00  0.00000000000E+00  0.60796530918E+03  0.31596467801E+04  0.31006041278E+04 0.  0.
        3    1    3    3  502    0 -0.56039637721E+03 -0.74159104270E+03 -0.96038363211E+03  0.13365396011E+04  0.10100000352E+00 0. -1.
       -3    1    3    3    0  502  0.56039637721E+03  0.74159104270E+03  0.15683489413E+04  0.18231071790E+04  0.10100000352E+00 0.  1.
</event>
<event>
 5   0  0.1377237E-07  0.3100887E+04  0.7818609E-02  0.8215494E-01
       -2   -1    0    0    0  501  0.00000000000E+00  0.00000000000E+00  0.79883390642E+03  0.79883390642E+03  0.25500000920E-02 0. -1.
        2   -1    0    0  501    0  0.00000000000E+00  0.00000000000E+00 -0.30092310140E+04  0.30092310140E+04  0.25500000920E-02 0.  1.
    10030    2    1    2    0    0  0.00000000000E+00  0.00000000000E+00 -0.22103971076E+04  0.38080649205E+04  0.31008874641E+04 0.  0.
        2    1    3    3  502    0  0.15366572224E+03 -0.84804389549E+03 -0.26879552415E+04  0.28227460005E+04  0.25500000920E-02 0.  1.
       -2    1    3    3    0  502 -0.15366572224E+03  0.84804389549E+03  0.47755813387E+03  0.98531892000E+03  0.25500000920E-02 0. -1.
</event>
<event>
 5   0  0.1325713E-07  0.3099527E+04  0.7818609E-02  0.8215868E-01
        2   -1    0    0  501    0  0.00000000000E+00  0.00000000000E+00  0.17889671120E+04  0.17889671120E+04  0.25500000920E-02 0.  1.
       -2   -1    0    0    0  501  0.00000000000E+00  0.00000000000E+00 -0.13425440982E+04  0.13425440982E+04  0.25500000920E-02 0. -1.
    10030    2    1    2    0    0  0.00000000000E+00  0.00000000000E+00  0.44642301384E+03  0.31315112101E+04  0.30995272143E+04 0.  0.
        4    1    3    3  502    0 -0.12367206184E+03 -0.27088931322E+03 -0.13133670422E+04  0.13467035306E+04  0.12699999809E+01 0. -1.
       -4    1    3    3    0  502  0.12367206184E+03  0.27088931322E+03  0.17597900560E+04  0.17848076796E+04  0.12699999809E+01 0.  1.
</event>
<event>
 5   0  0.1325713E-07  0.3099702E+04  0.7818609E-02  0.8215820E-01
        2   -1    0    0  501    0  0.00000000000E+00  0.00000000000E+00  0.29033388808E+04  0.29033388808E+04  0.25500000920E-02 0.  1.
       -2   -1    0    0    0  501  0.00000000000E+00  0.00000000000E+00 -0.82733671199E+03  0.82733671199E+03  0.25500000920E-02 0. -1.
    10030    2    1    2    0    0  0.00000000000E+00  0.00000000000E+00  0.20760021688E+04  0.37306755928E+04  0.30997024653E+04 0.  0.
        4    1    3    3  502    0 -0.23046453926E+03 -0.62798141458E+03  0.27206452233E+04  0.28016756780E+04  0.12699999809E+01 0.  1.
       -4    1    3    3    0  502  0.23046453926E+03  0.62798141458E+03 -0.64464305453E+03  0.92899991473E+03  0.12699999809E+01 0. -1.
</event>
<event>
 5   0  0.4305500E-08  0.3106269E+04  0.7818609E-02  0.8214020E-01
        3   -1    0    0  501    0  0.00000000000E+00  0.00000000000E+00  0.21300256593E+04  0.21300256617E+04  0.10100000352E+00 0. -1.
       -3   -1    0    0    0  501  0.00000000000E+00  0.00000000000E+00 -0.11324871120E+04  0.11324871165E+04  0.10100000352E+00 0.  1.
    10030    2    1    2    0    0  0.00000000000E+00  0.00000000000E+00  0.99753854725E+03  0.32625127782E+04  0.31062688993E+04 0.  0.
        3    1    3    3  502    0  0.11882839502E+04 -0.99098319185E+03  0.64030731999E+03  0.16745327429E+04  0.10100000352E+00 0.  1.
       -3    1    3    3    0  502 -0.11882839502E+04  0.99098319185E+03  0.35723122725E+03  0.15879800354E+04  0.10100000352E+00 0. -1.
</event>
<event>
 5   0  0.4436241E-08  0.3096182E+04  0.7818609E-02  0.8216786E-01
        1   -1    0    0  501    0  0.00000000000E+00  0.00000000000E+00  0.28067675974E+04  0.28067675974E+04  0.50400001928E-02 0.  1.
       -1   -1    0    0    0  501  0.00000000000E+00  0.00000000000E+00 -0.85385987963E+03  0.85385987964E+03  0.50400001928E-02 0. -1.
    10030    2    1    2    0    0  0.00000000000E+00  0.00000000000E+00  0.19529077178E+04  0.36606274771E+04  0.30961823221E+04 0.  0.
        3    1    3    3  502    0 -0.14931613505E+04 -0.40827286153E+03  0.99915545972E+03  0.18424248129E+04  0.10100000352E+00 0.  1.
       -3    1    3    3    0  502  0.14931613505E+04  0.40827286153E+03  0.95375225808E+03  0.18182026642E+04  0.10100000352E+00 0. -1.
</event>
<event>
 5   0  0.4450600E-08  0.3103930E+04  0.7818609E-02  0.8214660E-01
       -1   -1    0    0    0  501  0.00000000000E+00  0.00000000000E+00  0.17595555996E+04  0.17595555996E+04  0.50400001928E-02 0. -1.
        1   -1    0    0  501    0  0.00000000000E+00  0.00000000000E+00 -0.13688658598E+04  0.13688658598E+04  0.50400001928E-02 0.  1.
    10030    2    1    2    0    0  0.00000000000E+00  0.00000000000E+00  0.39068973981E+03  0.31284214594E+04  0.31039301466E+04 0.  0.
        4    1    3    3  502    0  0.69465102295E+03  0.13715332039E+04 -0.18343594102E+02  0.15375244627E+04  0.12699999809E+01 0.  1.
       -4    1    3    3    0  502 -0.69465102295E+03 -0.13715332039E+04  0.40903333391E+03  0.15908969967E+04  0.12699999809E+01 0. -1.
</event>
<event>
 5   0  0.1318916E-07  0.3100779E+04  0.7818609E-02  0.8215524E-01
        2   -1    0    0  501    0  0.00000000000E+00  0.00000000000E+00  0.72843134527E+03  0.72843134528E+03  0.25500000920E-02 0. -1.
       -2   -1    0    0    0  501  0.00000000000E+00  0.00000000000E+00 -0.32998409377E+04  0.32998409377E+04  0.25500000920E-02 0.  1.
    10030    2    1    2    0    0  0.00000000000E+00  0.00000000000E+00 -0.25714095924E+04  0.40282722830E+04  0.31007789818E+04 0.  0.
        5    1    3    3  502    0 -0.12776885609E+04 -0.66186048700E+03 -0.20355302383E+04  0.24927801355E+04  0.46999998093E+01 0. -1.
       -5    1    3    3    0  502  0.12776885609E+04  0.66186048700E+03 -0.53587935418E+03  0.15354921475E+04  0.46999998093E+01 0.  1.
</event>
<event>
 5   0  0.4838602E-08  0.3099724E+04  0.7818609E-02  0.8215814E-01
        1   -1    0    0  501    0  0.00000000000E+00  0.00000000000E+00  0.16939739232E+04  0.16939739232E+04  0.50400001928E-02 0.  1.
       -1   -1    0    0    0  501  0.00000000000E+00  0.00000000000E+00 -0.14180105859E+04  0.14180105859E+04  0.50400001928E-02 0. -1.
    10030    2    1    2    0    0  0.00000000000E+00  0.00000000000E+00  0.27596333731E+03  0.31119845092E+04  0.30997244752E+04 0.  0.
        5    1    3    3  502    0 -0.10313509998E+04 -0.85887195963E+03 -0.64013538724E+03  0.14869906966E+04  0.46999998093E+01 0. -1.
       -5    1    3    3    0  502  0.10313509998E+04  0.85887195963E+03  0.91609872455E+03  0.16249938126E+04  0.46999998093E+01 0.  1.
</event>
<event>
 5   0  0.4517409E-08  0.3099977E+04  0.7818609E-02  0.8215744E-01
        1   -1    0    0  501    0  0.00000000000E+00  0.00000000000E+00  0.15134297803E+04  0.15134297803E+04  0.50400001928E-02 0. -1.
       -1   -1    0    0    0  501  0.00000000000E+00  0.00000000000E+00 -0.15874298881E+04  0.15874298882E+04  0.50400001928E-02 0.  1.
    10030    2    1    2    0    0  0.00000000000E+00  0.00000000000E+00 -0.74000107818E+02  0.31008596685E+04  0.30999765592E+04 0.  0.
        2    1    3    3  502    0  0.32137349902E+03 -0.28177928358E+03 -0.15273181686E+04  0.15859953590E+04  0.25500000920E-02 0.  1.
       -2    1    3    3    0  502 -0.32137349902E+03  0.28177928358E+03  0.14533180608E+04  0.15148643095E+04  0.25500000920E-02 0. -1.
</event>
<event>
 5   0  0.1318916E-07  0.3099186E+04  0.7818609E-02  0.8215961E-01
        2   -1    0    0  501    0  0.00000000000E+00  0.00000000000E+00  0.33665329678E+04  0.33665329678E+04  0.25500000920E-02 0.  1.
       -2   -1    0    0    0  501  0.00000000000E+00  0.00000000000E+00 -0.71326764834E+03  0.71326764835E+03  0.25500000920E-02 0. -1.
    10030    2    1    2    0    0  0.00000000000E+00  0.00000000000E+00  0.26532653195E+04  0.40798006162E+04  0.30991863791E+04 0.  0.
        5    1    3    3  502    0  0.52250320146E+03  0.12327573259E+04  0.23535311387E+04  0.27077354248E+04  0.46999998093E+01 0.  1.
       -5    1    3    3    0  502 -0.52250320146E+03 -0.12327573259E+04  0.29973418077E+03  0.13720651913E+04  0.46999998093E+01 0. -1.
</event>
<event>
 5   0  0.4436241E-08  0.3103102E+04  0.7818609E-02  0.8214887E-01
        1   -1    0    0  501    0  0.00000000000E+00  0.00000000000E+00  0.13955112903E+04  0.13955112904E+04  0.50400001928E-02 0. -1.
       -1   -1    0    0    0  501  0.00000000000E+00  0.00000000000E+00 -0.17250379395E+04  0.17250379395E+04  0.50400001928E-02 0.  1.
    10030    2    1    2    0    0  0.00000000000E+00  0.00000000000E+00 -0.32952664913E+03  0.31205492298E+04  0.31031016231E+04 0.  0.
        3    1    3    3  502    0  0.17159441064E+03 -0.42327331383E+03  0.13263770143E+04  0.14028117957E+04  0.10100000352E+00 0. -1.
       -3    1    3    3    0  502 -0.17159441064E+03  0.42327331383E+03 -0.16559036634E+04  0.17177374341E+04  0.10100000352E+00 0.  1.
</event>
<event>
 5   0  0.4436241E-08  0.3099446E+04  0.7818609E-02  0.8215890E-01
        1   -1    0    0  501    0  0.00000000000E+00  0.00000000000E+00  0.20167275430E+04  0.20167275430E+04  0.50400001928E-02 0.  1.
       -1   -1    0    0    0  501  0.00000000000E+00  0.00000000000E+00 -0.11908606137E+04  0.11908606137E+04  0.50400001928E-02 0. -1.
    10030    2    1    2    0    0  0.00000000000E+00  0.00000000000E+00  0.82586692933E+03  0.32075881567E+04  0.30994460147E+04 0.  0.
        3    1    3    3  502    0  0.11458105267E+04  0.68741696251E+03 -0.39945089757E+03  0.13946271449E+04  0.10100000352E+00 0. -1.
       -3    1    3    3    0  502 -0.11458105267E+04 -0.68741696251E+03  0.12253178269E+04  0.18129610119E+04  0.10100000352E+00 0.  1.
</event>
<event>
 5   0  0.4436241E-08  0.3101953E+04  0.7818609E-02  0.8215202E-01
       -1   -1    0    0    0  501  0.00000000000E+00  0.00000000000E+00  0.24098387252E+04  0.24098387252E+04  0.50400001928E-02 0.  1.
        1   -1    0    0  501    0  0.00000000000E+00  0.00000000000E+00 -0.99821144726E+03  0.99821144727E+03  0.50400001928E-02 0. -1.
    10030    2    1    2    0    0  0.00000000000E+00  0.00000000000E+00  0.14116272779E+04  0.34080501724E+04  0.31019533211E+04 0.  0.
        3    1    3    3  502    0  0.11098496048E+04 -0.10780250005E+04  0.82427008249E+03  0.17530901934E+04  0.10100000352E+00 0.  1.
       -3    1    3    3    0  502 -0.11098496048E+04  0.10780250005E+04  0.58735719541E+03  0.16549599790E+04  0.10100000352E+00 0. -1.
</event>
<event>
 5   0  0.4517409E-08  0.3099162E+04  0.7818609E-02  0.8215968E-01
       -1   -1    0    0    0  501  0.00000000000E+00  0.00000000000E+00  0.12060534355E+04  0.12060534355E+04  0.50400001928E-02 0. -1.
        1   -1    0    0  501    0  0.00000000000E+00  0.00000000000E+00 -0.19909572538E+04  0.19909572538E+04  0.50400001928E-02 0.  1.
    10030    2    1    2    0    0  0.00000000000E+00  0.00000000000E+00 -0.78490381831E+03  0.31970106893E+04  0.30991617163E+04 0.  0.
        2    1    3    3  502    0  0.91341937706E+03 -0.41011693784E+03 -0.16124452939E+04  0.18980281048E+04  0.25500000920E-02 0.  1.
       -2    1    3    3    0  502 -0.91341937706E+03  0.41011693784E+03  0.82754147554E+03  0.12989825845E+04  0.25500000920E-02 0. -1.
</event>
<event>
 5   0  0.4450600E-08  0.3099299E+04  0.7818609E-02  0.8215930E-01
        1   -1    0    0  501    0  0.00000000000E+00  0.00000000000E+00  0.14921923327E+04  0.14921923327E+04  0.50400001928E-02 0. -1.
       -1   -1    0    0    0  501  0.00000000000E+00  0.00000000000E+00 -0.16093188919E+04  0.16093188920E+04  0.50400001928E-02 0.  1.
    10030    2    1    2    0    0  0.00000000000E+00  0.00000000000E+00 -0.11712655924E+03  0.31015112247E+04  0.30992988313E+04 0.  0.
        4    1    3    3  502    0 -0.57764219399E+03 -0.10907577152E+04  0.87911615908E+03  0.15153447567E+04  0.12699999809E+01 0. -1.
       -4    1    3    3    0  502  0.57764219399E+03  0.10907577152E+04 -0.99624271832E+03  0.15861664680E+04  0.12699999809E+01 0.  1.
</event>
<event>
 5   0  0.4450600E-08  0.3099477E+04  0.7818609E-02  0.8215881E-01
        1   -1    0    0  501    0  0.00000000000E+00  0.00000000000E+00  0.13118332007E+04  0.13118332007E+04  0.50400001928E-02 0. -1.
       -1   -1    0    0    0  501  0.00000000000E+00  0.00000000000E+00 -0.18307886690E+04  0.18307886690E+04  0.50400001928E-02 0.  1.
    10030    2    1    2    0    0  0.00000000000E+00  0.00000000000E+00 -0.51895546831E+03  0.31426218697E+04  0.30994769620E+04 0.  0.
        4    1    3    3  502    0  0.15428033522E+04 -0.14608901069E+02 -0.40721859760E+03  0.15957080568E+04  0.12699999809E+01 0.  1.
       -4    1    3    3    0  502 -0.15428033522E+04  0.14608901069E+02 -0.11173687071E+03  0.15469138129E+04  0.12699999809E+01 0. -1.
</event>
<event>
 5   0  0.1398931E-07  0.3099198E+04  0.7818609E-02  0.8215958E-01
       -2   -1    0    0    0  501  0.00000000000E+00  0.00000000000E+00  0.11846104914E+04  0.11846104914E+04  0.25500000920E-02 0. -1.
        2   -1    0    0  501    0  0.00000000000E+00  0.00000000000E+00 -0.20270437406E+04  0.20270437406E+04  0.25500000920E-02 0.  1.
    10030    2    1    2    0    0  0.00000000000E+00  0.00000000000E+00 -0.84243324916E+03  0.32116542320E+04  0.30991981425E+04 0.  0.
        3    1    3    3  502    0  0.80001950724E+03  0.11105103172E+04  0.33178077930E+03  0.14083120649E+04  0.10100000352E+00 0. -1.
       -3    1    3    3    0  502 -0.80001950724E+03 -0.11105103172E+04 -0.11742140285E+04  0.18033421670E+04  0.10100000352E+00 0.  1.
</event>
<event>
 5   0  0.1325713E-07  0.3100465E+04  0.7818609E-02  0.8215610E-01
       -2   -1    0    0    0  501  0.00000000000E+00  0.00000000000E+00  0.15929071177E+04  0.15929071177E+04  0.25500000920E-02 0. -1.
        2   -1    0    0  501    0  0.00000000000E+00  0.00000000000E+00 -0.15087015877E+04  0.15087015877E+04  0.25500000920E-02 0.  1.
    10030    2    1    2    0    0  0.00000000000E+00  0.00000000000E+00  0.84205529970E+02  0.31016087053E+04  0.31004654473E+04 0.  0.
        4    1    3    3  502    0 -0.55887181618E+03 -0.38869453093E+03  0.14353829078E+04  0.15886304952E+04  0.12699999809E+01 0. -1.
       -4    1    3    3    0  502  0.55887181618E+03  0.38869453093E+03 -0.13511773778E+04  0.15129782102E+04  0.12699999809E+01 0.  1.
</event>
<event>
 5   0  0.1325713E-07  0.3101231E+04  0.7818609E-02  0.8215400E-01
        2   -1    0    0  501    0  0.00000000000E+00  0.00000000000E+00  0.11096572796E+04  0.11096572796E+04  0.25500000920E-02 0.  1.
       -2   -1    0    0    0  501  0.00000000000E+00  0.00000000000E+00 -0.21668023648E+04  0.21668023648E+04  0.25500000920E-02 0. -1.
    10030    2    1    2    0    0  0.00000000000E+00  0.00000000000E+00 -0.10571450852E+04  0.32764596444E+04  0.31012307347E+04 0.  0.
        4    1    3    3  502    0  0.15014710505E+03  0.98197788609E+03  0.72932361410E+03  0.12323714006E+04  0.12699999809E+01 0.  1.
       -4    1    3    3    0  502 -0.15014710505E+03 -0.98197788609E+03 -0.17864686993E+04  0.20440882438E+04  0.12699999809E+01 0. -1.
</event>
<event>
 5   0  0.4838602E-08  0.3095678E+04  0.7818609E-02  0.8216925E-01
        1   -1    0    0  501    0  0.00000000000E+00  0.00000000000E+00  0.24563423797E+04  0.24563423797E+04  0.50400001928E-02 0.  1.
       -1   -1    0    0    0  501  0.00000000000E+00  0.00000000000E+00 -0.97535498081E+03  0.97535498082E+03  0.50400001928E-02 0. -1.
    10030    2    1    2    0    0  0.00000000000E+00  0.00000000000E+00  0.14809873989E+04  0.34316973606E+04  0.30956781323E+04 0.  0.
        5    1    3    3  502    0 -0.14195620540E+03  0.11891428169E+03 -0.96302292427E+03  0.98067701783E+03  0.46999998093E+01 0. -1.
       -5    1    3    3    0  502  0.14195620540E+03 -0.11891428169E+03  0.24440103232E+04  0.24510203427E+04  0.46999998093E+01 0.  1.
</event>
<event>
 5   0  0.4436241E-08  0.3110902E+04  0.7818609E-02  0.8212752E-01
       -1   -1    0    0    0  501  0.00000000000E+00  0.00000000000E+00  0.17615806861E+04  0.17615806861E+04  0.50400001928E-02 0.  1.
        1   -1    0    0  501    0  0.00000000000E+00  0.00000000000E+00 -0.13734412045E+04  0.13734412046E+04  0.50400001928E-02 0. -1.
    10030    2    1    2    0    0  0.00000000000E+00  0.00000000000E+00  0.38813948159E+03  0.31350218907E+04  0.31109017982E+04 0.  0.
        3    1    3    3  502    0 -0.13208575546E+04 -0.47716005376E+03  0.86789521818E+03  0.16509356488E+04  0.10100000352E+00 0.  1.
       -3    1    3    3    0  502  0.13208575546E+04  0.47716005376E+03 -0.47975573659E+03  0.14840862419E+04  0.10100000352E+00 0. -1.
</event>
<event>
 5   0  0.1325713E-07  0.3100104E+04  0.7818609E-02  0.8215709E-01
        2   -1    0    0  501    0  0.00000000000E+00  0.00000000000E+00  0.11603617014E+04  0.11603617014E+04  0.25500000920E-02 0.  1.
       -2   -1    0    0    0  501  0.00000000000E+00  0.00000000000E+00 -0.20706139252E+04  0.20706139252E+04  0.25500000920E-02 0. -1.
    10030    2    1    2    0    0  0.00000000000E+00  0.00000000000E+00 -0.91025222384E+03  0.32309756266E+04  0.31001039320E+04 0.  0.
        4    1    3    3  502    0  0.73677036299E+03  0.12629109922E+04  0.81270343679E+02  0.14643705896E+04  0.12699999809E+01 0.  1.
       -4    1    3    3    0  502 -0.73677036299E+03 -0.12629109922E+04 -0.99152256752E+03  0.17666050370E+04  0.12699999809E+01 0. -1.
</event>
<event>
 5   0  0.1318916E-07  0.3098473E+04  0.7818609E-02  0.8216157E-01
       -2   -1    0    0    0  501  0.00000000000E+00  0.00000000000E+00  0.20175474173E+04  0.20175474173E+04  0.25500000920E-02 0. -1.
        2   -1    0    0  501    0  0.00000000000E+00  0.00000000000E+00 -0.11896296115E+04  0.11896296115E+04  0.25500000920E-02 0.  1.
    10030    2    1    2    0    0  0.00000000000E+00  0.00000000000E+00  0.82791780580E+03  0.32071770289E+04  0.30984732694E+04 0.  0.
        5    1    3    3  502    0  0.14242189821E+04 -0.42636500160E+03  0.86505234883E+03  0.17200361856E+04  0.46999998093E+01 0. -1.
       -5    1    3    3    0  502 -0.14242189821E+04  0.42636500160E+03 -0.37134543029E+02  0.14871408433E+04  0.46999998093E+01 0.  1.
</event>
<event>
 5   0  0.4838602E-08  0.3100376E+04  0.7818609E-02  0.8215635E-01
       -1   -1    0    0    0  501  0.00000000000E+00  0.00000000000E+00  0.18007278231E+04  0.18007278231E+04  0.50400001928E-02 0.  1.
        1   -1    0    0  501    0  0.00000000000E+00  0.00000000000E+00 -0.13345063497E+04  0.13345063497E+04  0.50400001928E-02 0. -1.
    10030    2    1    2    0    0  0.00000000000E+00  0.00000000000E+00  0.46622147343E+03  0.31352341728E+04  0.31003759217E+04 0.  0.
        5    1    3    3  502    0  0.63718651997E+03 -0.13831472697E+04  0.52612287974E+03  0.16111891278E+04  0.46999998093E+01 0.  1.
       -5    1    3    3    0  502 -0.63718651997E+03  0.13831472697E+04 -0.59901406302E+02  0.15240450450E+04  0.46999998093E+01 0. -1.
</event>
<event>
 5   0  0.4436241E-08  0.3101200E+04  0.7818609E-02  0.8215409E-01
       -1   -1    0    0    0  501  0.00000000000E+00  0.00000000000E+00  0.26204900458E+04  0.26204900458E+04  0.50400001928E-02 0.  1.
        1   -1    0    0  501    0  0.00000000000E+00  0.00000000000E+00 -0.91752320046E+03  0.91752320047E+03  0.50400001928E-02 0. -1.
    10030    2    1    2    0    0  0.00000000000E+00  0.00000000000E+00  0.17029668453E+04  0.35380132463E+04  0.31012000346E+04 0.  0.
        3    1    3    3  502    0 -0.44568091249E+02 -0.14838097457E+04  0.13625584630E+04  0.20150045289E+04  0.10100000352E+00 0. -1.
       -3    1    3    3    0  502  0.44568091249E+02  0.14838097457E+04  0.34040838234E+03  0.15230087174E+04  0.10100000352E+00 0.  1.
</event>
<event>
 5   0  0.1377237E-07  0.3105835E+04  0.7818609E-02  0.8214138E-01
        2   -1    0    0  501    0  0.00000000000E+00  0.00000000000E+00  0.10301571105E+04  0.10301571105E+04  0.25500000920E-02 0.  1.
       -2   -1    0    0    0  501  0.00000000000E+00  0.00000000000E+00 -0.23409556809E+04  0.23409556809E+04  0.25500000920E-02 0. -1.
    10030    2    1    2    0    0  0.00000000000E+00  0.00000000000E+00 -0.13107985703E+04  0.33711127914E+04  0.31058345996E+04 0.  0.
        2    1    3    3  502    0  0.92645544179E+03 -0.83204918254E+03  0.35171330680E+03  0.12939581825E+04  0.25500000920E-02 0.  1.
       -2    1    3    3    0  502 -0.92645544179E+03  0.83204918254E+03 -0.16625118771E+04  0.20771546089E+04  0.25500000920E-02 0. -1.
</event>
<event>
 5   0  0.1318916E-07  0.3097472E+04  0.7818609E-02  0.8216432E-01
        2   -1    0    0  501    0  0.00000000000E+00  0.00000000000E+00  0.14074819758E+04  0.14074819758E+04  0.25500000920E-02 0.  1.
       -2   -1    0    0    0  501  0.00000000000E+00  0.00000000000E+00 -0.17041661984E+04  0.17041661984E+04  0.25500000920E-02 0. -1.
    10030    2    1    2    0    0  0.00000000000E+00  0.00000000000E+00 -0.29668422264E+03  0.31116481742E+04  0.30974720066E+04 0.  0.
        5    1    3    3  502    0 -0.14387175357E+04 -0.46073098660E+03  0.19436422892E+03  0.15231482965E+04  0.46999998093E+01 0.  1.
       -5    1    3    3    0  502  0.14387175357E+04  0.46073098660E+03 -0.49104845156E+03  0.15884998777E+04  0.46999998093E+01 0. -1.
</event>
<event>
 5   0  0.1329777E-07  0.3101765E+04  0.7818609E-02  0.8215254E-01
        2   -1    0    0  501    0  0.00000000000E+00  0.00000000000E+00  0.17493133774E+04  0.17493133774E+04  0.25500000920E-02 0.  1.
       -2   -1    0    0    0  501  0.00000000000E+00  0.00000000000E+00 -0.13749599086E+04  0.13749599086E+04  0.25500000920E-02 0. -1.
    10030    2    1    2    0    0  0.00000000000E+00  0.00000000000E+00  0.37435346885E+03  0.31242732860E+04  0.31017645053E+04 0.  0.
        1    1    3    3  502    0 -0.38381202640E+03  0.13426455062E+04  0.86677813322E+03  0.16435671447E+04  0.50400001928E-02 0.  1.
       -1    1    3    3    0  502  0.38381202640E+03 -0.13426455062E+04 -0.49242466437E+03  0.14807061413E+04  0.50400001928E-02 0. -1.
</event>
<event>
 5   0  0.1325713E-07  0.3101298E+04  0.7818609E-02  0.8215382E-01
        2   -1    0    0  501    0  0.00000000000E+00  0.00000000000E+00  0.21382411105E+04  0.21382411105E+04  0.25500000920E-02 0. -1.
       -2   -1    0    0    0  501  0.00000000000E+00  0.00000000000E+00 -0.11245284332E+04  0.11245284332E+04  0.25500000920E-02 0.  1.
    10030    2    1    2    0    0  0.00000000000E+00  0.00000000000E+00  0.10137126773E+04  0.32627695437E+04  0.31012983899E+04 0.  0.
        4    1    3    3  502    0 -0.68409783365E+03  0.17976897433E+03  0.19586324606E+04  0.20824383445E+04  0.12699999809E+01 0. -1.
       -4    1    3    3    0  502  0.68409783365E+03 -0.17976897433E+03 -0.94491978326E+03  0.11803311992E+04  0.12699999809E+01 0.  1.
</event>
<event>
 5   0  0.1318916E-07  0.3104124E+04  0.7818609E-02  0.8214607E-01
        2   -1    0    0  501    0  0.00000000000E+00  0.00000000000E+00  0.18416573917E+04  0.18416573917E+04  0.25500000920E-02 0. -1.
       -2   -1    0    0    0  501  0.00000000000E+00  0.00000000000E+00 -0.13080045440E+04  0.13080045440E+04  0.25500000920E-02 0.  1.
    10030    2    1    2    0    0  0.00000000000E+00  0.00000000000E+00  0.53365284766E+03  0.31496619358E+04  0.31041238615E+04 0.  0.
        5    1    3    3  502    0 -0.13267648860E+03  0.12940531609E+04  0.11258258000E+04  0.17203727665E+04  0.46999998093E+01 0. -1.
       -5    1    3    3    0  502  0.13267648860E+03 -0.12940531609E+04 -0.59217295233E+03  0.14292891692E+04  0.46999998093E+01 0.  1.
</event>
<event>
 5   0  0.1398931E-07  0.3098436E+04  0.7818609E-02  0.8216167E-01
       -2   -1    0    0    0  501  0.00000000000E+00  0.00000000000E+00  0.13143595541E+04  0.13143595541E+04  0.25500000920E-02 0.  1.
        2   -1    0    0  501    0  0.00000000000E+00  0.00000000000E+00 -0.18260425479E+04  0.18260425479E+04  0.25500000920E-02 0. -1.
    10030    2    1    2    0    0  0.00000000000E+00  0.00000000000E+00 -0.51168299376E+03  0.31404021021E+04  0.30984360372E+04 0.  0.
        3    1    3    3  502    0 -0.89822382754E+03  0.28125586313E+03  0.99133927117E+03  0.13669910262E+04  0.10100000352E+00 0.  1.
       -3    1    3    3    0  502  0.89822382754E+03 -0.28125586313E+03 -0.15030222649E+04  0.17734110759E+04  0.10100000352E+00 0. -1.
</event>
<event>
 5   0  0.4450600E-08  0.3099497E+04  0.7818609E-02  0.8215876E-01
       -1   -1    0    0    0  501  0.00000000000E+00  0.00000000000E+00  0.10364034392E+04  0.10364034392E+04  0.50400001928E-02 0.  1.
        1   -1    0    0  501    0  0.00000000000E+00  0.00000000000E+00 -0.23173600714E+04  0.23173600714E+04  0.50400001928E-02 0. -1.
    10030    2    1    2    0    0  0.00000000000E+00  0.00000000000E+00 -0.12809566322E+04  0.33537635106E+04  0.30994966997E+04 0.  0.
        4    1    3    3  502    0 -0.46629293973E+03 -0.14738993266E+04 -0.52239264129E+03  0.16317794015E+04  0.12699999809E+01 0.  1.
       -4    1    3    3    0  502  0.46629293973E+03  0.14738993266E+04 -0.75856399088E+03  0.17219841091E+04  0.12699999809E+01 0. -1.
</event>
<event>
 5   0  0.1318916E-07  0.3099332E+04  0.7818609E-02  0.8215921E-01
        2   -1    0    0  501    0  0.00000000000E+00  0.00000000000E+00  0.16376429302E+04  0.16376429302E+04  0.25500000920E-02 0.  1.
       -2   -1    0    0    0  501  0.00000000000E+00  0.00000000000E+00 -0.14664151782E+04  0.14664151782E+04  0.25500000920E-02 0. -1.
    10030    2    1    2    0    0  0.00000000000E+00  0.00000000000E+00  0.17122775202E+03  0.31040581083E+04  0.30993318307E+04 0.  0.
        5    1    3    3  502    0  0.31833951655E+03 -0.36118428860E+03 -0.13896048904E+04  0.14706522293E+04  0.46999998093E+01 0. -1.
       -5    1    3    3    0  502 -0.31833951655E+03  0.36118428860E+03  0.15608326424E+04  0.16334058790E+04  0.46999998093E+01 0.  1.
</event>
<event>
 5   0  0.4838602E-08  0.3100095E+04  0.7818609E-02  0.8215712E-01
        1   -1    0    0  501    0  0.00000000000E+00  0.00000000000E+00  0.21341731113E+04  0.21341731113E+04  0.50400001928E-02 0.  1.
       -1   -1    0    0    0  501  0.00000000000E+00  0.00000000000E+00 -0.11257979144E+04  0.11257979145E+04  0.50400001928E-02 0. -1.
    10030    2    1    2    0    0  0.00000000000E+00  0.00000000000E+00  0.10083751968E+04  0.32599710257E+04  0.31000952487E+04 0.  0.
        5    1    3    3  502    0 -0.28753125402E+03  0.67347464149E+03 -0.93242316104E+03  0.11856126501E+04  0.46999998093E+01 0. -1.
       -5    1    3    3    0  502  0.28753125402E+03 -0.67347464149E+03  0.19407983579E+04  0.20743583756E+04  0.46999998093E+01 0.  1.
</event>
<event>
 5   0  0.4838602E-08  0.3097056E+04  0.7818609E-02  0.8216546E-01
       -1   -1    0    0    0  501  0.00000000000E+00  0.00000000000E+00  0.21615043148E+04  0.21615043148E+04  0.50400001928E-02 0. -1.
        1   -1    0    0  501    0  0.00000000000E+00  0.00000000000E+00 -0.11093839905E+04  0.11093839905E+04  0.50400001928E-02 0.  1.
    10030    2    1    2    0    0  0.00000000000E+00  0.00000000000E+00  0.10521203243E+04  0.32708883053E+04  0.30970555579E+04 0.  0.
        5    1    3    3  502    0  0.74399334587E+03 -0.25648934928E+03  0.19345582625E+04  0.20885044041E+04  0.46999998093E+01 0. -1.
       -5    1    3    3    0  502 -0.74399334587E+03  0.25648934928E+03 -0.88243793820E+03  0.11823839012E+04  0.46999998093E+01 0.  1.
</event>
<event>
 5   0  0.4838602E-08  0.3099999E+04  0.7818609E-02  0.8215738E-01
       -1   -1    0    0    0  501  0.00000000000E+00  0.00000000000E+00  0.10710689377E+04  0.10710689377E+04  0.50400001928E-02 0. -1.
        1   -1    0    0  501    0  0.00000000000E+00  0.00000000000E+00 -0.22430851600E+04  0.22430851600E+04  0.50400001928E-02 0.  1.
    10030    2    1    2    0    0  0.00000000000E+00  0.00000000000E+00 -0.11720162223E+04  0.33141540977E+04  0.30999992513E+04 0.  0.
        5    1    3    3  502    0 -0.12249335668E+04  0.92535099452E+03 -0.35736432947E+03  0.15762195469E+04  0.46999998093E+01 0.  1.
       -5    1    3    3    0  502  0.12249335668E+04 -0.92535099452E+03 -0.81465189287E+03  0.17379345508E+04  0.46999998093E+01 0. -1.
</event>
<event>
 5   0  0.4470354E-08  0.3099283E+04  0.7818609E-02  0.8215935E-01
       -1   -1    0    0    0  501  0.00000000000E+00  0.00000000000E+00  0.29668603194E+04  0.29668603194E+04  0.50400001928E-02 0. -1.
        1   -1    0    0  501    0  0.00000000000E+00  0.00000000000E+00 -0.80940382216E+03  0.80940382218E+03  0.50400001928E-02 0.  1.
    10030    2    1    2    0    0  0.00000000000E+00  0.00000000000E+00  0.21574564972E+04  0.37762641416E+04  0.30992825508E+04 0.  0.
        1    1    3    3  502    0 -0.12045112312E+04 -0.20811339294E+03  0.22392674030E+04  0.25511716901E+04  0.50400001928E-02 0. -1.
       -1    1    3    3    0  502  0.12045112312E+04  0.20811339294E+03 -0.81810905721E+02  0.12250924515E+04  0.50400001928E-02 0.  1.
</event>
<event>
 5   0  0.1398931E-07  0.3078060E+04  0.7818609E-02  0.8221785E-01
       -2   -1    0    0    0  501  0.00000000000E+00  0.00000000000E+00  0.13982008412E+04  0.13982008413E+04  0.25500000920E-02 0.  1.
        2   -1    0    0  501    0  0.00000000000E+00  0.00000000000E+00 -0.16940441199E+04  0.16940441199E+04  0.25500000920E-02 0. -1.
    10030    2    1    2    0    0  0.00000000000E+00  0.00000000000E+00 -0.29584327864E+03  0.30922449611E+04  0.30780603721E+04 0.  0.
        3    1    3    3  502    0 -0.22825670312E+03  0.15162823340E+04 -0.28044110413E+03  0.15588009693E+04  0.10100000352E+00 0. -1.
       -3    1    3    3    0  502  0.22825670312E+03 -0.15162823340E+04 -0.15402174516E+02  0.15334439918E+04  0.10100000352E+00 0.  1.
</event>
<event>
 5   0  0.4517409E-08  0.3102341E+04  0.7818609E-02  0.8215096E-01
        1   -1    0    0  501    0  0.00000000000E+00  0.00000000000E+00  0.23550803892E+04  0.23550803892E+04  0.50400001928E-02 0. -1.
       -1   -1    0    0    0  501  0.00000000000E+00  0.00000000000E+00 -0.10216763814E+04  0.10216763814E+04  0.50400001928E-02 0.  1.
    10030    2    1    2    0    0  0.00000000000E+00  0.00000000000E+00  0.13334040078E+04  0.33767567706E+04  0.31023410579E+04 0.  0.
        2    1    3    3  502    0  0.14220360407E+03  0.40470908758E+03  0.22892362266E+04  0.23290800355E+04  0.25500000920E-02 0. -1.
       -2    1    3    3    0  502 -0.14220360407E+03 -0.40470908758E+03 -0.95583221884E+03  0.10476767350E+04  0.25500000920E-02 0.  1.
</event>
<event>
 5   0  0.4450600E-08  0.3099992E+04  0.7818609E-02  0.8215740E-01
       -1   -1    0    0    0  501  0.00000000000E+00  0.00000000000E+00  0.18499191760E+04  0.18499191760E+04  0.50400001928E-02 0. -1.
        1   -1    0    0  501    0  0.00000000000E+00  0.00000000000E+00 -0.12986984926E+04  0.12986984926E+04  0.50400001928E-02 0.  1.
    10030    2    1    2    0    0  0.00000000000E+00  0.00000000000E+00  0.55122068344E+03  0.31486176687E+04  0.30999917712E+04 0.  0.
        4    1    3    3  502    0 -0.80706401175E+03  0.12538846714E+04 -0.15399779742E+03  0.14990984033E+04  0.12699999809E+01 0.  1.
       -4    1    3    3    0  502  0.80706401175E+03 -0.12538846714E+04  0.70521848086E+03  0.16495192654E+04  0.12699999809E+01 0. -1.
</event>
<event>
 5   0  0.1325713E-07  0.3100129E+04  0.7818609E-02  0.8215703E-01
       -2   -1    0    0    0  501  0.00000000000E+00  0.00000000000E+00  0.16207724848E+04  0.16207724848E+04  0.25500000920E-02 0.  1.
        2   -1    0    0  501    0  0.00000000000E+00  0.00000000000E+00 -0.14824410361E+04  0.14824410361E+04  0.25500000920E-02 0. -1.
    10030    2    1    2    0    0  0.00000000000E+00  0.00000000000E+00  0.13833144873E+03  0.31032135209E+04  0.31001287984E+04 0.  0.
        4    1    3    3  502    0 -0.89709703077E+03  0.11560717095E+04  0.58096024895E+03  0.15744209424E+04  0.12699999809E+01 0. -1.
       -4    1    3    3    0  502  0.89709703077E+03 -0.11560717095E+04 -0.44262880022E+03  0.15287925784E+04  0.12699999809E+01 0.  1.
</event>
<event>
 5   0  0.1377237E-07  0.3084786E+04  0.7818609E-02  0.8219926E-01
       -2   -1    0    0    0  501  0.00000000000E+00  0.00000000000E+00  0.15036951958E+04  0.15036951958E+04  0.25500000920E-02 0. -1.
        2   -1    0    0  501    0  0.00000000000E+00  0.00000000000E+00 -0.15820868232E+04  0.15820868232E+04  0.25500000920E-02 0.  1.
    10030    2    1    2    0    0  0.00000000000E+00  0.00000000000E+00 -0.78391627337E+02  0.30857820190E+04  0.30847861225E+04 0.  0.
        2    1    3    3  502    0 -0.69211517434E+03 -0.12190473689E+04  0.60434418441E+03  0.15265424316E+04  0.25500000920E-02 0. -1.
       -2    1    3    3    0  502  0.69211517434E+03  0.12190473689E+04 -0.68273581175E+03  0.15592395874E+04  0.25500000920E-02 0.  1.
</event>
<event>
 5   0  0.4470354E-08  0.3099986E+04  0.7818609E-02  0.8215742E-01
        1   -1    0    0  501    0  0.00000000000E+00  0.00000000000E+00  0.24977677957E+04  0.24977677957E+04  0.50400001928E-02 0.  1.
       -1   -1    0    0    0  501  0.00000000000E+00  0.00000000000E+00 -0.96185013908E+03  0.96185013909E+03  0.50400001928E-02 0. -1.
    10030    2    1    2    0    0  0.00000000000E+00  0.00000000000E+00  0.15359176566E+04  0.34596179348E+04  0.30999860011E+04 0.  0.
        1    1    3    3  502    0  0.18388336604E+02  0.67743968241E+03 -0.78775211489E+03  0.10391419772E+04  0.50400001928E-02 0. -1.
       -1    1    3    3    0  502 -0.18388336604E+02 -0.67743968241E+03  0.23236697715E+04  0.24204759576E+04  0.50400001928E-02 0.  1.
</event>
<event>
 5   0  0.1318916E-07  0.3104590E+04  0.7818609E-02  0.8214479E-01
        2   -1    0    0  501    0  0.00000000000E+00  0.00000000000E+00  0.22210630719E+04  0.22210630719E+04  0.25500000920E-02 0.  1.
       -2   -1    0    0    0  501  0.00000000000E+00  0.00000000000E+00 -0.10848945415E+04  0.10848945415E+04  0.25500000920E-02 0. -1.
    10030    2    1    2    0    0  0.00000000000E+00  0.00000000000E+00  0.11361685304E+04  0.33059576134E+04  0.31045896367E+04 0.  0.
        5    1    3    3  502    0  0.63451064861E+03  0.53561576449E+02 -0.93940916121E+03  0.11348939456E+04  0.46999998093E+01 0. -1.
       -5    1    3    3    0  502 -0.63451064861E+03 -0.53561576449E+02  0.20755776916E+04  0.21710636678E+04  0.46999998093E+01 0.  1.
</event>
<event>
 5   0  0.4436241E-08  0.3094821E+04  0.7818609E-02  0.8217161E-01
       -1   -1    0    0    0  501  0.00000000000E+00  0.00000000000E+00  0.20490330841E+04  0.20490330841E+04  0.50400001928E-02 0.  1.
        1   -1    0    0  501    0  0.00000000000E+00  0.00000000000E+00 -0.11685896785E+04  0.11685896786E+04  0.50400001928E-02 0. -1.
    10030    2    1    2    0    0  0.00000000000E+00  0.00000000000E+00  0.88044340559E+03  0.32176227627E+04  0.30948207788E+04 0.  0.
        3    1    3    3  502    0  0.15014612311E+04  0.26194631151E+03  0.16226100066E+03  0.15327525375E+04  0.10100000352E+00 0. -1.
       -3    1    3    3    0  502 -0.15014612311E+04 -0.26194631151E+03  0.71818240494E+03  0.16848702252E+04  0.10100000352E+00 0.  1.
</event>
<event>
 5   0  0.1325713E-07  0.3100834E+04  0.7818609E-02  0.8215509E-01
       -2   -1    0    0    0  501  0.00000000000E+00  0.00000000000E+00  0.17205986790E+04  0.17205986790E+04  0.25500000920E-02 0. -1.
        2   -1    0    0  501    0  0.00000000000E+00  0.00000000000E+00 -0.13970677964E+04  0.13970677964E+04  0.25500000920E-02 0.  1.
    10030    2    1    2    0    0  0.00000000000E+00  0.00000000000E+00  0.32353088256E+03  0.31176664754E+04  0.31008340845E+04 0.  0.
        4    1    3    3  502    0  0.32554825876E+03  0.31988896829E+03  0.16515241836E+04  0.17134305830E+04  0.12699999809E+01 0. -1.
       -4    1    3    3    0  502 -0.32554825876E+03 -0.31988896829E+03 -0.13279933011E+04  0.14042358924E+04  0.12699999809E+01 0.  1.
</event>
<event>
 5   0  0.4517409E-08  0.3099861E+04  0.7818609E-02  0.8215776E-01
       -1   -1    0    0    0  501  0.00000000000E+00  0.00000000000E+00  0.25736729354E+04  0.25736729354E+04  0.50400001928E-02 0. -1.
        1   -1    0    0  501    0  0.00000000000E+00  0.00000000000E+00 -0.93340718412E+03  0.93340718414E+03  0.50400001928E-02 0.  1.
    10030    2    1    2    0    0  0.00000000000E+00  0.00000000000E+00  0.16402657512E+04  0.35070801195E+04  0.30998611630E+04 0.  0.
        2    1    3    3  502    0  0.15483282052E+04 -0.54868705115E+02  0.87014391947E+03  0.17769302874E+04  0.25500000920E-02 0. -1.
       -2    1    3    3    0  502 -0.15483282052E+04  0.54868705115E+02  0.77012183177E+03  0.17301498321E+04  0.25500000920E-02 0.  1.
</event>
<event>
 5   0  0.4470354E-08  0.3103433E+04  0.7818609E-02  0.8214796E-01
       -1   -1    0    0    0  501  0.00000000000E+00  0.00000000000E+00  0.16945073488E+04  0.16945073488E+04  0.50400001928E-02 0.  1.
        1   -1    0    0  501    0  0.00000000000E+00  0.00000000000E+00 -0.14209583647E+04  0.14209583647E+04  0.50400001928E-02 0. -1.
    10030    2    1    2    0    0  0.00000000000E+00  0.00000000000E+00  0.27354898417E+03  0.31154657135E+04  0.31034331901E+04 0.  0.
        1    1    3    3  502    0 -0.11593871289E+03  0.14471184750E+04 -0.41328307483E+03  0.15094358436E+04  0.50400001928E-02 0. -1.
       -1    1    3    3    0  502  0.11593871289E+03 -0.14471184750E+04  0.68683205900E+03  0.16060298700E+04  0.50400001928E-02 0.  1.
</event>
<event>
 5   0  0.4470354E-08  0.3099836E+04  0.7818609E-02  0.8215783E-01
        1   -1    0    0  501    0  0.00000000000E+00  0.00000000000E+00  0.21590989582E+04  0.21590989582E+04  0.50400001928E-02 0.  1.
       -1   -1    0    0    0  501  0.00000000000E+00  0.00000000000E+00 -0.11126151757E+04  0.11126151757E+04  0.50400001928E-02 0. -1.
    10030    2    1    2    0    0  0.00000000000E+00  0.00000000000E+00  0.10464837825E+04  0.32717141339E+04  0.30998362968E+04 0.  0.
        1    1    3    3  502    0  0.22257656606E+03  0.35867010716E+03 -0.10507772374E+04  0.11323945320E+04  0.50400001928E-02 0. -1.
       -1    1    3    3    0  502 -0.22257656606E+03 -0.35867010716E+03  0.20972610199E+04  0.21393196019E+04  0.50400001928E-02 0.  1.
</event>
<event>
 5   0  0.4436241E-08  0.3101071E+04  0.7818609E-02  0.8215444E-01
       -1   -1    0    0    0  501  0.00000000000E+00  0.00000000000E+00  0.15703648731E+04  0.15703648731E+04  0.50400001928E-02 0. -1.
        1   -1    0    0  501    0  0.00000000000E+00  0.00000000000E+00 -0.15309567082E+04  0.15309567082E+04  0.50400001928E-02 0.  1.
    10030    2    1    2    0    0  0.00000000000E+00  0.00000000000E+00  0.39408164851E+02  0.31013215813E+04  0.31010711935E+04 0.  0.
        3    1    3    3  502    0  0.99516171877E+03 -0.10454363324E+04 -0.54680141073E+03  0.15434622653E+04  0.10100000352E+00 0.  1.
       -3    1    3    3    0  502 -0.99516171877E+03  0.10454363324E+04  0.58620957559E+03  0.15578593159E+04  0.10100000352E+00 0. -1.
</event>
<event>
 5   0  0.1325713E-07  0.3097515E+04  0.7818609E-02  0.8216420E-01
       -2   -1    0    0    0  501  0.00000000000E+00  0.00000000000E+00  0.11469908748E+04  0.11469908748E+04  0.25500000920E-02 0. -1.
        2   -1    0    0  501    0  0.00000000000E+00  0.00000000000E+00 -0.20912547154E+04  0.20912547154E+04  0.25500000920E-02 0.  1.
    10030    2    1    2    0    0  0.00000000000E+00  0.00000000000E+00 -0.94426384063E+03  0.32382455902E+04  0.30975151818E+04 0.  0.
        4    1    3    3  502    0 -0.31241455997E+03  0.23495590367E+03 -0.20388320303E+04  0.20759683992E+04  0.12699999809E+01 0.  1.
       -4    1    3    3    0  502  0.31241455997E+03 -0.23495590367E+03  0.10945681897E+04  0.11622771910E+04  0.12699999809E+01 0. -1.
</event>
<event>
 5   0  0.1329777E-07  0.3099553E+04  0.7818609E-02  0.8215861E-01
        2   -1    0    0  501    0  0.00000000000E+00  0.00000000000E+00  0.17701243745E+04  0.17701243745E+04  0.25500000920E-02 0. -1.
       -2   -1    0    0    0  501  0.00000000000E+00  0.00000000000E+00 -0.13568579713E+04  0.13568579713E+04  0.25500000920E-02 0.  1.
    10030    2    1    2    0    0  0.00000000000E+00  0.00000000000E+00  0.41326640325E+03  0.31269823458E+04  0.30995531082E+04 0.  0.
        1    1    3    3  502    0  0.14319329257E+04  0.32045853404E+03 -0.29645987561E+03  0.14970016813E+04  0.50400001928E-02 0.  1.
       -1    1    3    3    0  502 -0.14319329257E+04 -0.32045853404E+03  0.70972627887E+03  0.16299806645E+04  0.50400001928E-02 0. -1.
</event>
<event>
 5   0  0.4517409E-08  0.3097027E+04  0.7818609E-02  0.8216554E-01
       -1   -1    0    0    0  501  0.00000000000E+00  0.00000000000E+00  0.86569402538E+03  0.86569402539E+03  0.50400001928E-02 0. -1.
        1   -1    0    0  501    0  0.00000000000E+00  0.00000000000E+00 -0.27699099767E+04  0.27699099767E+04  0.50400001928E-02 0.  1.
    10030    2    1    2    0    0  0.00000000000E+00  0.00000000000E+00 -0.19042159513E+04  0.36356040021E+04  0.30970272958E+04 0.  0.
        2    1    3    3  502    0  0.13589363927E+04 -0.46966780550E+03 -0.27714179573E+03  0.14642757739E+04  0.25500000920E-02 0. -1.
       -2    1    3    3    0  502 -0.13589363927E+04  0.46966780550E+03 -0.16270741556E+04  0.21713282282E+04  0.25500000920E-02 0.  1.
</event>
<event>
 5   0  0.4517409E-08  0.3100075E+04  0.7818609E-02  0.8215717E-01
        1   -1    0    0  501    0  0.00000000000E+00  0.00000000000E+00  0.26991512381E+04  0.26991512381E+04  0.50400001928E-02 0. -1.
       -1   -1    0    0    0  501  0.00000000000E+00  0.00000000000E+00 -0.89013792608E+03  0.89013792609E+03  0.50400001928E-02 0.  1.
    10030    2    1    2    0    0  0.00000000000E+00  0.00000000000E+00  0.18090133120E+04  0.35892891642E+04  0.31000754089E+04 0.  0.
        2    1    3    3  502    0 -0.90894411330E+03  0.10580580767E+04  0.12185085030E+03  0.14001835324E+04  0.25500000920E-02 0.  1.
       -2    1    3    3    0  502  0.90894411330E+03 -0.10580580767E+04  0.16871624617E+04  0.21891056318E+04  0.25500000920E-02 0. -1.
</event>
<event>
 5   0  0.4305500E-08  0.3095492E+04  0.7818609E-02  0.8216976E-01
       -3   -1    0    0    0  501  0.00000000000E+00  0.00000000000E+00  0.22983725332E+04  0.22983725354E+04  0.10100000352E+00 0.  1.
        3   -1    0    0  501    0  0.00000000000E+00  0.00000000000E+00 -0.10422668462E+04  0.10422668511E+04  0.10100000352E+00 0. -1.
    10030    2    1    2    0    0  0.00000000000E+00  0.00000000000E+00  0.12561056870E+04  0.33406393865E+04  0.30954918856E+04 0.  0.
        2    1    3    3  502    0 -0.12457263226E+04  0.91813031860E+03  0.65701371489E+03  0.16812092000E+04  0.25500000920E-02 0. -1.
       -2    1    3    3    0  502  0.12457263226E+04 -0.91813031860E+03  0.59909197212E+03  0.16594301865E+04  0.25500000920E-02 0.  1.
</event>
<event>
 5   0  0.1325713E-07  0.3101298E+04  0.7818609E-02  0.8215382E-01
        2   -1    0    0  501    0  0.00000000000E+00  0.00000000000E+00  0.23163116566E+04  0.23163116566E+04  0.25500000920E-02 0. -1.
       -2   -1    0    0    0  501  0.00000000000E+00  0.00000000000E+00 -0.10380778557E+04  0.10380778557E+04  0.25500000920E-02 0.  1.
    10030    2    1    2    0    0  0.00000000000E+00  0.00000000000E+00  0.12782338010E+04  0.33543895123E+04  0.31012976881E+04 0.  0.
        4    1    3    3  502    0  0.10664086373E+04  0.73344178271E+03  0.15628294355E+04  0.20291874452E+04  0.12699999809E+01 0. -1.
       -4    1    3    3    0  502 -0.10664086373E+04 -0.73344178271E+03 -0.28459563459E+03  0.13252020671E+04  0.12699999809E+01 0.  1.
</event>
<event>
 5   0  0.4436241E-08  0.3102351E+04  0.7818609E-02  0.8215093E-01
       -1   -1    0    0    0  501  0.00000000000E+00  0.00000000000E+00  0.10831248592E+04  0.10831248592E+04  0.50400001928E-02 0. -1.
        1   -1    0    0  501    0  0.00000000000E+00  0.00000000000E+00 -0.22214853142E+04  0.22214853142E+04  0.50400001928E-02 0.  1.
    10030    2    1    2    0    0  0.00000000000E+00  0.00000000000E+00 -0.11383604550E+04  0.33046101734E+04  0.31023513458E+04 0.  0.
        3    1    3    3  502    0  0.25992113513E+03  0.28738168082E+03 -0.21691017486E+04  0.22034404084E+04  0.10100000352E+00 0.  1.
       -3    1    3    3    0  502 -0.25992113513E+03 -0.28738168082E+03  0.10307412936E+04  0.11011697651E+04  0.10100000352E+00 0. -1.
</event>
<event>
 5   0  0.1325713E-07  0.3100284E+04  0.7818609E-02  0.8215660E-01
       -2   -1    0    0    0  501  0.00000000000E+00  0.00000000000E+00  0.31026187241E+04  0.31026187241E+04  0.25500000920E-02 0. -1.
        2   -1    0    0  501    0  0.00000000000E+00  0.00000000000E+00 -0.77448757450E+03  0.77448757451E+03  0.25500000920E-02 0.  1.
    10030    2    1    2    0    0  0.00000000000E+00  0.00000000000E+00  0.23281311496E+04  0.38771062986E+04  0.31002836323E+04 0.  0.
        4    1    3    3  502    0 -0.10256665515E+04  0.78707360113E+03  0.22336177127E+04  0.25807995714E+04  0.12699999809E+01 0. -1.
       -4    1    3    3    0  502  0.10256665515E+04 -0.78707360113E+03  0.94513436949E+02  0.12963067272E+04  0.12699999809E+01 0.  1.
</event>
<event>
 5   0  0.4436241E-08  0.3099755E+04  0.7818609E-02  0.8215805E-01
        1   -1    0    0  501    0  0.00000000000E+00  0.00000000000E+00  0.81791564247E+03  0.81791564249E+03  0.50400001928E-02 0. -1.
       -1   -1    0    0    0  501  0.00000000000E+00  0.00000000000E+00 -0.29368799429E+04  0.29368799429E+04  0.50400001928E-02 0.  1.
    10030    2    1    2    0    0  0.00000000000E+00  0.00000000000E+00 -0.21189643004E+04  0.37547955854E+04  0.30997548583E+04 0.  0.
        3    1    3    3  502    0 -0.12762152860E+04 -0.15274384769E+03 -0.21085608755E+04  0.24694301195E+04  0.10100000352E+00 0. -1.
       -3    1    3    3    0  502  0.12762152860E+04  0.15274384769E+03 -0.10403424918E+02  0.12853654658E+04  0.10100000352E+00 0.  1.
</event>
<event>
 5   0  0.4436241E-08  0.3100102E+04  0.7818609E-02  0.8215710E-01
        1   -1    0    0  501    0  0.00000000000E+00  0.00000000000E+00  0.21122396546E+04  0.21122396546E+04  0.50400001928E-02 0.  1.
       -1   -1    0    0    0  501  0.00000000000E+00  0.00000000000E+00 -0.11374934935E+04  0.11374934935E+04  0.50400001928E-02 0. -1.
    10030    2    1    2    0    0  0.00000000000E+00  0.00000000000E+00  0.97474616107E+03  0.32497331481E+04  0.31001024911E+04 0.  0.
        3    1    3    3  502    0  0.69974991001E+02 -0.12275238590E+04 -0.50208571254E+03  0.13280818486E+04  0.10100000352E+00 0. -1.
       -3    1    3    3    0  502 -0.69974991001E+02  0.12275238590E+04  0.14768318736E+04  0.19216512995E+04  0.10100000352E+00 0.  1.
</event>
<event>
 5   0  0.1329777E-07  0.3100325E+04  0.7818609E-02  0.8215649E-01
       -2   -1    0    0    0  501  0.00000000000E+00  0.00000000000E+00  0.19761226770E+04  0.19761226770E+04  0.25500000920E-02 0. -1.
        2   -1    0    0  501    0  0.00000000000E+00  0.00000000000E+00 -0.12160193942E+04  0.12160193942E+04  0.25500000920E-02 0.  1.
    10030    2    1    2    0    0  0.00000000000E+00  0.00000000000E+00  0.76010328279E+03  0.31921420712E+04  0.31003248221E+04 0.  0.
        1    1    3    3  502    0 -0.10800290056E+04  0.76110554779E+02 -0.76219421029E+03  0.13240828840E+04  0.50400001928E-02 0.  1.
       -1    1    3    3    0  502  0.10800290056E+04 -0.76110554779E+02  0.15222974931E+04  0.18680591872E+04  0.50400001928E-02 0. -1.
</event>
<event>
 5   0  0.1329777E-07  0.3098810E+04  0.7818609E-02  0.8216065E-01
       -2   -1    0    0    0  501  0.00000000000E+00  0.00000000000E+00  0.28204209608E+04  0.28204209608E+04  0.25500000920E-02 0. -1.
        2   -1    0    0  501    0  0.00000000000E+00  0.00000000000E+00 -0.85116912563E+03  0.85116912564E+03  0.25500000920E-02 0.  1.
    10030    2    1    2    0    0  0.00000000000E+00  0.00000000000E+00  0.19692518351E+04  0.36715900864E+04  0.30988096057E+04 0.  0.
        1    1    3    3  502    0  0.18422367518E+03  0.12164393221E+04 -0.13125849009E+03  0.12372921151E+04  0.50400001928E-02 0.  1.
       -1    1    3    3    0  502 -0.18422367518E+03 -0.12164393221E+04  0.21005103252E+04  0.24342979713E+04  0.50400001928E-02 0. -1.
</event>
<event>
 5   0  0.1325713E-07  0.3101506E+04  0.7818609E-02  0.8215325E-01
       -2   -1    0    0    0  501  0.00000000000E+00  0.00000000000E+00  0.10797021483E+04  0.10797021483E+04  0.25500000920E-02 0. -1.
        2   -1    0    0  501    0  0.00000000000E+00  0.00000000000E+00 -0.22273137215E+04  0.22273137215E+04  0.25500000920E-02 0.  1.
    10030    2    1    2    0    0  0.00000000000E+00  0.00000000000E+00 -0.11476115732E+04  0.33070158698E+04  0.31015063502E+04 0.  0.
        4    1    3    3  502    0 -0.60320132690E+03  0.70918557457E+03  0.74854630257E+03  0.11946209440E+04  0.12699999809E+01 0. -1.
       -4    1    3    3    0  502  0.60320132690E+03 -0.70918557457E+03 -0.18961578757E+04  0.21123949258E+04  0.12699999809E+01 0.  1.
</event>
<event>
 5   0  0.1325713E-07  0.3099909E+04  0.7818609E-02  0.8215763E-01
        2   -1    0    0  501    0  0.00000000000E+00  0.00000000000E+00  0.24299954703E+04  0.24299954703E+04  0.25500000920E-02 0.  1.
       -2   -1    0    0    0  501  0.00000000000E+00  0.00000000000E+00 -0.98862724190E+03  0.98862724191E+03  0.25500000920E-02 0. -1.
    10030    2    1    2    0    0  0.00000000000E+00  0.00000000000E+00  0.14413682284E+04  0.34186227122E+04  0.30999094952E+04 0.  0.
        4    1    3    3  502    0 -0.63328421720E+03 -0.10908246729E+04 -0.27271217898E+03  0.12904731351E+04  0.12699999809E+01 0. -1.
       -4    1    3    3    0  502  0.63328421720E+03  0.10908246729E+04  0.17140804074E+04  0.21281495772E+04  0.12699999809E+01 0.  1.
</event>
<event>
 5   0  0.4470354E-08  0.3101646E+04  0.7818609E-02  0.8215286E-01
       -1   -1    0    0    0  501  0.00000000000E+00  0.00000000000E+00  0.13764574292E+04  0.13764574292E+04  0.50400001928E-02 0. -1.
        1   -1    0    0  501    0  0.00000000000E+00  0.00000000000E+00 -0.17472769976E+04  0.17472769976E+04  0.50400001928E-02 0.  1.
    10030    2    1    2    0    0  0.00000000000E+00  0.00000000000E+00 -0.37081956840E+03  0.31237344268E+04  0.31016462753E+04 0.  0.
        1    1    3    3  502    0 -0.12798686064E+04 -0.84942343918E+03  0.29342360954E+02  0.15363739138E+04  0.50400001928E-02 0. -1.
       -1    1    3    3    0  502  0.12798686064E+04  0.84942343918E+03 -0.40016192936E+03  0.15873605131E+04  0.50400001928E-02 0.  1.
</event>
<event>
 5   0  0.4436241E-08  0.3105559E+04  0.7818609E-02  0.8214214E-01
        1   -1    0    0  501    0  0.00000000000E+00  0.00000000000E+00  0.19962800901E+04  0.19962800901E+04  0.50400001928E-02 0. -1.
       -1   -1    0    0    0  501  0.00000000000E+00  0.00000000000E+00 -0.12078086905E+04  0.12078086905E+04  0.50400001928E-02 0.  1.
    10030    2    1    2    0    0  0.00000000000E+00  0.00000000000E+00  0.78847139964E+03  0.32040887806E+04  0.31055591712E+04 0.  0.
        3    1    3    3  502    0 -0.85962237621E+03  0.73226482123E+03 -0.70539445536E+03  0.13314442331E+04  0.10100000352E+00 0. -1.
       -3    1    3    3    0  502  0.85962237621E+03 -0.73226482123E+03  0.14938658550E+04  0.18726445474E+04  0.10100000352E+00 0.  1.
</event>
<event>
 5   0  0.1377237E-07  0.3101815E+04  0.7818609E-02  0.8215240E-01
       -2   -1    0    0    0  501  0.00000000000E+00  0.00000000000E+00  0.10355011438E+04  0.10355011438E+04  0.25500000920E-02 0. -1.
        2   -1    0    0  501    0  0.00000000000E+00  0.00000000000E+00 -0.23228499643E+04  0.23228499643E+04  0.25500000920E-02 0.  1.
    10030    2    1    2    0    0  0.00000000000E+00  0.00000000000E+00 -0.12873488204E+04  0.33583511081E+04  0.31018148204E+04 0.  0.
        2    1    3    3  502    0 -0.89735193706E+03 -0.12537448483E+04 -0.46186646886E+03  0.16094835441E+04  0.25500000920E-02 0.  1.
       -2    1    3    3    0  502  0.89735193706E+03  0.12537448483E+04 -0.82548235157E+03  0.17488675640E+04  0.25500000920E-02 0. -1.
</event>
<event>
 5   0  0.4517409E-08  0.3103455E+04  0.7818609E-02  0.8214790E-01
        1   -1    0    0  501    0  0.00000000000E+00  0.00000000000E+00  0.12691537489E+04  0.12691537489E+04  0.50400001928E-02 0. -1.
       -1   -1    0    0    0  501  0.00000000000E+00  0.00000000000E+00 -0.18972150558E+04  0.18972150559E+04  0.50400001928E-02 0.  1.
    10030    2    1    2    0    0  0.00000000000E+00  0.00000000000E+00 -0.62806130692E+03  0.31663688048E+04  0.31034545917E+04 0.  0.
        2    1    3    3  502    0 -0.22177804947E+03  0.14923006036E+04  0.56246687440E+02  0.15097384822E+04  0.25500000920E-02 0. -1.
       -2    1    3    3    0  502  0.22177804947E+03 -0.14923006036E+04 -0.68430799436E+03  0.16566303226E+04  0.25500000920E-02 0.  1.
</event>
<event>
 5   0  0.4450600E-08  0.3104094E+04  0.7818609E-02  0.8214615E-01
        1   -1    0    0  501    0  0.00000000000E+00  0.00000000000E+00  0.19808508616E+04  0.19808508616E+04  0.50400001928E-02 0. -1.
       -1   -1    0    0    0  501  0.00000000000E+00  0.00000000000E+00 -0.12160686006E+04  0.12160686007E+04  0.50400001928E-02 0.  1.
    10030    2    1    2    0    0  0.00000000000E+00  0.00000000000E+00  0.76478226095E+03  0.31969194623E+04  0.31040944157E+04 0.  0.
        4    1    3    3  502    0  0.16960030267E+03 -0.62156042862E+03  0.18366168738E+04  0.19463465219E+04  0.12699999809E+01 0. -1.
       -4    1    3    3    0  502 -0.16960030267E+03  0.62156042862E+03 -0.10718346129E+04  0.12505729404E+04  0.12699999809E+01 0.  1.
</event>
<event>
 5   0  0.4450600E-08  0.3100094E+04  0.7818609E-02  0.8215712E-01
        1   -1    0    0  501    0  0.00000000000E+00  0.00000000000E+00  0.18726284558E+04  0.18726284558E+04  0.50400001928E-02 0.  1.
       -1   -1    0    0    0  501  0.00000000000E+00  0.00000000000E+00 -0.12830336456E+04  0.12830336456E+04  0.50400001928E-02 0. -1.
    10030    2    1    2    0    0  0.00000000000E+00  0.00000000000E+00  0.58959481016E+03  0.31556621014E+04  0.31000937499E+04 0.  0.
        4    1    3    3  502    0  0.39752359074E+02 -0.77894700182E+03  0.16583245953E+04  0.18325885403E+04  0.12699999809E+01 0.  1.
       -4    1    3    3    0  502 -0.39752359074E+02  0.77894700182E+03 -0.10687297851E+04  0.13230735611E+04  0.12699999809E+01 0. -1.
</event>
<event>
 5   0  0.1377237E-07  0.3100591E+04  0.7818609E-02  0.8215576E-01
       -2   -1    0    0    0  501  0.00000000000E+00  0.00000000000E+00  0.12555487581E+04  0.12555487581E+04  0.25500000920E-02 0. -1.
        2   -1    0    0  501    0  0.00000000000E+00  0.00000000000E+00 -0.19142360870E+04  0.19142360870E+04  0.25500000920E-02 0.  1.
    10030    2    1    2    0    0  0.00000000000E+00  0.00000000000E+00 -0.65868732884E+03  0.31697848451E+04  0.31005913899E+04 0.  0.
        2    1    3    3  502    0 -0.14577184409E+04 -0.29728454083E+02 -0.86796938045E+03  0.16968198724E+04  0.25500000920E-02 0.  1.
       -2    1    3    3    0  502  0.14577184409E+04  0.29728454083E+02  0.20928205162E+03  0.14729649728E+04  0.25500000920E-02 0. -1.
</event>
<event>
 5   0  0.4470354E-08  0.3098955E+04  0.7818609E-02  0.8216025E-01
        1   -1    0    0  501    0  0.00000000000E+00  0.00000000000E+00  0.14556495001E+04  0.14556495002E+04  0.50400001928E-02 0.  1.
       -1   -1    0    0    0  501  0.00000000000E+00  0.00000000000E+00 -0.16493539270E+04  0.16493539270E+04  0.50400001928E-02 0. -1.
    10030    2    1    2    0    0  0.00000000000E+00  0.00000000000E+00 -0.19370442688E+03  0.31050034272E+04  0.30989554495E+04 0.  0.
        1    1    3    3  502    0 -0.16053695747E+03 -0.14067591549E+04 -0.72747532826E+03  0.15918428905E+04  0.50400001928E-02 0. -1.
       -1    1    3    3    0  502  0.16053695747E+03  0.14067591549E+04  0.53377090137E+03  0.15131605367E+04  0.50400001928E-02 0.  1.
</event>
<event>
 5   0  0.1377237E-07  0.3100153E+04  0.7818609E-02  0.8215696E-01
        2   -1    0    0  501    0  0.00000000000E+00  0.00000000000E+00  0.15322328407E+04  0.15322328407E+04  0.25500000920E-02 0.  1.
       -2   -1    0    0    0  501  0.00000000000E+00  0.00000000000E+00 -0.15681277925E+04  0.15681277925E+04  0.25500000920E-02 0. -1.
    10030    2    1    2    0    0  0.00000000000E+00  0.00000000000E+00 -0.35894951816E+02  0.31003606332E+04  0.31001528363E+04 0.  0.
        2    1    3    3  502    0 -0.13001796393E+04 -0.84313644197E+03  0.19347755044E+02  0.15497485247E+04  0.25500000920E-02 0.  1.
       -2    1    3    3    0  502  0.13001796393E+04  0.84313644197E+03 -0.55242706859E+02  0.15506121085E+04  0.25500000920E-02 0. -1.
</event>
<event>
 5   0  0.1377237E-07  0.3098724E+04  0.7818609E-02  0.8216088E-01
       -2   -1    0    0    0  501  0.00000000000E+00  0.00000000000E+00  0.10292960201E+04  0.10292960201E+04  0.25500000920E-02 0.  1.
        2   -1    0    0  501    0  0.00000000000E+00  0.00000000000E+00 -0.23321991258E+04  0.23321991258E+04  0.25500000920E-02 0. -1.
    10030    2    1    2    0    0  0.00000000000E+00  0.00000000000E+00 -0.13029031057E+04  0.33614951460E+04  0.30987244333E+04 0.  0.
        2    1    3    3  502    0 -0.38774212025E+03 -0.14885022181E+04 -0.85306229799E+03  0.17588911533E+04  0.25500000920E-02 0. -1.
       -2    1    3    3    0  502  0.38774212025E+03  0.14885022181E+04 -0.44984080772E+03  0.16026039927E+04  0.25500000920E-02 0.  1.
</event>
<event>
 5   0  0.1377237E-07  0.3100888E+04  0.7818609E-02  0.8215494E-01
       -2   -1    0    0    0  501  0.00000000000E+00  0.00000000000E+00  0.82540366225E+03  0.82540366225E+03  0.25500000920E-02 0.  1.
        2   -1    0    0  501    0  0.00000000000E+00  0.00000000000E+00 -0.29123652275E+04  0.29123652275E+04  0.25500000920E-02 0. -1.
    10030    2    1    2    0    0  0.00000000000E+00  0.00000000000E+00 -0.20869615652E+04  0.37377688897E+04  0.31008882112E+04 0.  0.
        2    1    3    3  502    0  0.87552193669E+03 -0.82016458066E+03  0.14042009917E+03  0.12078602590E+04  0.25500000920E-02 0.  1.
       -2    1    3    3    0  502 -0.87552193669E+03  0.82016458066E+03 -0.22273816644E+04  0.25299086307E+04  0.25500000920E-02 0. -1.
</event>
<event>
 5   0  0.1329777E-07  0.3099959E+04  0.7818609E-02  0.8215749E-01
       -2   -1    0    0    0  501  0.00000000000E+00  0.00000000000E+00  0.13774110211E+04  0.13774110211E+04  0.25500000920E-02 0. -1.
        2   -1    0    0  501    0  0.00000000000E+00  0.00000000000E+00 -0.17441679212E+04  0.17441679212E+04  0.25500000920E-02 0.  1.
    10030    2    1    2    0    0  0.00000000000E+00  0.00000000000E+00 -0.36675690002E+03  0.31215789423E+04  0.30999587851E+04 0.  0.
        1    1    3    3  502    0  0.15380066629E+04 -0.32864619028E+01  0.10214353433E+02  0.15380440921E+04  0.50400001928E-02 0. -1.
       -1    1    3    3    0  502 -0.15380066629E+04  0.32864619028E+01 -0.37697125345E+03  0.15835348503E+04  0.50400001928E-02 0.  1.
</event>
<event>
 5   0  0.4517409E-08  0.3099104E+04  0.7818609E-02  0.8215984E-01
        1   -1    0    0  501    0  0.00000000000E+00  0.00000000000E+00  0.26529712927E+04  0.26529712927E+04  0.50400001928E-02 0. -1.
       -1   -1    0    0    0  501  0.00000000000E+00  0.00000000000E+00 -0.90506489319E+03  0.90506489320E+03  0.50400001928E-02 0.  1.
    10030    2    1    2    0    0  0.00000000000E+00  0.00000000000E+00  0.17479063995E+04  0.35580361859E+04  0.30991038573E+04 0.  0.
        2    1    3    3  502    0 -0.10001503807E+04  0.69952243601E+03 -0.22214005657E+03  0.12405557735E+04  0.25500000920E-02 0.  1.
       -2    1    3    3    0  502  0.10001503807E+04 -0.69952243601E+03  0.19700464560E+04  0.23174804123E+04  0.25500000920E-02 0. -1.
</event>
<event>
 5   0  0.1325713E-07  0.3100317E+04  0.7818609E-02  0.8215651E-01
       -2   -1    0    0    0  501  0.00000000000E+00  0.00000000000E+00  0.17522239475E+04  0.17522239475E+04  0.25500000920E-02 0. -1.
        2   -1    0    0  501    0  0.00000000000E+00  0.00000000000E+00 -0.13713954637E+04  0.13713954637E+04  0.25500000920E-02 0.  1.
    10030    2    1    2    0    0  0.00000000000E+00  0.00000000000E+00  0.38082848371E+03  0.31236194112E+04  0.31003173857E+04 0.  0.
        4    1    3    3  502    0  0.43906547799E+03 -0.10925400232E+04 -0.82541382880E+03  0.14379609862E+04  0.12699999809E+01 0.  1.
       -4    1    3    3    0  502 -0.43906547799E+03  0.10925400232E+04  0.12062423125E+04  0.16856584250E+04  0.12699999809E+01 0. -1.
</event>
<event>
 5   0  0.1318916E-07  0.3113787E+04  0.7818609E-02  0.8211964E-01
        2   -1    0    0  501    0  0.00000000000E+00  0.00000000000E+00  0.18869893074E+04  0.18869893074E+04  0.25500000920E-02 0.  1.
       -2   -1    0    0    0  501  0.00000000000E+00  0.00000000000E+00 -0.12845423602E+04  0.12845423602E+04  0.25500000920E-02 0. -1.
    10030    2    1    2    0    0  0.00000000000E+00  0.00000000000E+00  0.60244694713E+03  0.31715316676E+04  0.31137872108E+04 0.  0.
        5    1    3    3  502    0  0.90955319342E+03 -0.49667384627E+01 -0.98576897370E+03  0.13412957316E+04  0.46999998093E+01 0. -1.
       -5    1    3    3    0  502 -0.90955319342E+03  0.49667384627E+01  0.15882159208E+04  0.18302359360E+04  0.46999998093E+01 0.  1.
</event>
<event>
 5   0  0.4436241E-08  0.3100878E+04  0.7818609E-02  0.8215497E-01
       -1   -1    0    0    0  501  0.00000000000E+00  0.00000000000E+00  0.10680411706E+04  0.10680411706E+04  0.50400001928E-02 0. -1.
        1   -1    0    0  501    0  0.00000000000E+00  0.00000000000E+00 -0.22507188790E+04  0.22507188790E+04  0.50400001928E-02 0.  1.
    10030    2    1    2    0    0  0.00000000000E+00  0.00000000000E+00 -0.11826777084E+04  0.33187600497E+04  0.31008775702E+04 0.  0.
        3    1    3    3  502    0 -0.29143124032E+03 -0.24510883618E+03 -0.21998901731E+04  0.22326054944E+04  0.10100000352E+00 0.  1.
       -3    1    3    3    0  502  0.29143124032E+03  0.24510883618E+03  0.10172124647E+04  0.10861545553E+04  0.10100000352E+00 0. -1.
</event>
<event>
 5   0  0.1318916E-07  0.3118420E+04  0.7818609E-02  0.8210701E-01
       -2   -1    0    0    0  501  0.00000000000E+00  0.00000000000E+00  0.16633170372E+04  0.16633170372E+04  0.25500000920E-02 0.  1.
        2   -1    0    0  501    0  0.00000000000E+00  0.00000000000E+00 -0.14616190470E+04  0.14616190470E+04  0.25500000920E-02 0. -1.
    10030    2    1    2    0    0  0.00000000000E+00  0.00000000000E+00  0.20169799018E+03  0.31249360841E+04  0.31184200247E+04 0.  0.
        5    1    3    3  502    0 -0.13784386183E+04  0.37837056307E+03  0.72493155449E+03  0.16027492493E+04  0.46999998093E+01 0.  1.
       -5    1    3    3    0  502  0.13784386183E+04 -0.37837056307E+03 -0.52323356431E+03  0.15221868349E+04  0.46999998093E+01 0. -1.
</event>
<event>
 5   0  0.4838602E-08  0.3095638E+04  0.7818609E-02  0.8216936E-01
       -1   -1    0    0    0  501  0.00000000000E+00  0.00000000000E+00  0.14963857505E+04  0.14963857505E+04  0.50400001928E-02 0.  1.
        1   -1    0    0  501    0  0.00000000000E+00  0.00000000000E+00 -0.16010201379E+04  0.16010201379E+04  0.50400001928E-02 0. -1.
    10030    2    1    2    0    0  0.00000000000E+00  0.00000000000E+00 -0.10463438737E+03  0.30974058884E+04  0.30956380412E+04 0.  0.
        5    1    3    3  502    0 -0.15540743990E+03  0.11734923194E+04 -0.10501258500E+04  0.15824102145E+04  0.46999998093E+01 0. -1.
       -5    1    3    3    0  502  0.15540743990E+03 -0.11734923194E+04  0.94549146261E+03  0.15149956739E+04  0.46999998093E+01 0.  1.
</event>
<event>
 5   0  0.1318916E-07  0.3099965E+04  0.7818609E-02  0.8215747E-01
       -2   -1    0    0    0  501  0.00000000000E+00  0.00000000000E+00  0.13243284204E+04  0.13243284205E+04  0.25500000920E-02 0. -1.
        2   -1    0    0  501    0  0.00000000000E+00  0.00000000000E+00 -0.18140862487E+04  0.18140862487E+04  0.25500000920E-02 0.  1.
    10030    2    1    2    0    0  0.00000000000E+00  0.00000000000E+00 -0.48975782822E+03  0.31384146691E+04  0.30999651458E+04 0.  0.
        5    1    3    3  502    0  0.86620918115E+03 -0.10812243405E+04  0.45876642081E+03  0.14594016373E+04  0.46999998093E+01 0. -1.
       -5    1    3    3    0  502 -0.86620918115E+03  0.10812243405E+04 -0.94852424904E+03  0.16790130318E+04  0.46999998093E+01 0.  1.
</event>
<event>
 5   0  0.1377237E-07  0.3099825E+04  0.7818609E-02  0.8215786E-01
       -2   -1    0    0    0  501  0.00000000000E+00  0.00000000000E+00  0.14151462968E+04  0.14151462968E+04  0.25500000920E-02 0.  1.
        2   -1    0    0  501    0  0.00000000000E+00  0.00000000000E+00 -0.16975128297E+04  0.16975128297E+04  0.25500000920E-02 0. -1.
    10030    2    1    2    0    0  0.00000000000E+00  0.00000000000E+00 -0.28236653284E+03  0.31126591265E+04  0.30998251530E+04 0.  0.
        2    1    3    3  502    0  0.65271975579E+03  0.22945653955E+03 -0.15338412733E+04  0.16826652771E+04  0.25500000920E-02 0. -1.
       -2    1    3    3    0  502 -0.65271975579E+03 -0.22945653955E+03  0.12514747405E+04  0.14299938494E+04  0.25500000920E-02 0.  1.
</event>
<event>
 5   0  0.4470354E-08  0.3103216E+04  0.7818609E-02  0.8214856E-01
       -1   -1    0    0    0  501  0.00000000000E+00  0.00000000000E+00  0.10087176177E+04  0.10087176177E+04  0.50400001928E-02 0. -1.
        1   -1    0    0  501    0  0.00000000000E+00  0.00000000000E+00 -0.23866808086E+04  0.23866808086E+04  0.50400001928E-02 0.  1.
    10030    2    1    2    0    0  0.00000000000E+00  0.00000000000E+00 -0.13779631909E+04  0.33953984264E+04  0.31032157383E+04 0.  0.
        1    1    3    3  502    0 -0.12582986833E+04  0.32858504780E+03 -0.16149516106E+04  0.20734879827E+04  0.50400001928E-02 0. -1.
       -1    1    3    3    0  502  0.12582986833E+04 -0.32858504780E+03  0.23698841968E+03  0.13219104436E+04  0.50400001928E-02 0.  1.
</event>
<event>
 5   0  0.4436241E-08  0.3097195E+04  0.7818609E-02  0.8216508E-01
        1   -1    0    0  501    0  0.00000000000E+00  0.00000000000E+00  0.21581110868E+04  0.21581110868E+04  0.50400001928E-02 0. -1.
       -1   -1    0    0    0  501  0.00000000000E+00  0.00000000000E+00 -0.11112281008E+04  0.11112281008E+04  0.50400001928E-02 0.  1.
    10030    2    1    2    0    0  0.00000000000E+00  0.00000000000E+00  0.10468829860E+04  0.32693391876E+04  0.30971946560E+04 0.  0.
        3    1    3    3  502    0 -0.19563296909E+03  0.80514114325E+03 -0.85756689553E+03  0.11924535671E+04  0.10100000352E+00 0.  1.
       -3    1    3    3    0  502  0.19563296909E+03 -0.80514114325E+03  0.19044498815E+04  0.20768856205E+04  0.10100000352E+00 0. -1.
</event>
<event>
 5   0  0.1325713E-07  0.3099201E+04  0.7818609E-02  0.8215957E-01
       -2   -1    0    0    0  501  0.00000000000E+00  0.00000000000E+00  0.69574257170E+03  0.69574257170E+03  0.25500000920E-02 0.  1.
        2   -1    0    0  501    0  0.00000000000E+00  0.00000000000E+00 -0.34513645257E+04  0.34513645257E+04  0.25500000920E-02 0. -1.
    10030    2    1    2    0    0  0.00000000000E+00  0.00000000000E+00 -0.27556219540E+04  0.41471070974E+04  0.30992006911E+04 0.  0.
        4    1    3    3  502    0  0.18043758740E+03  0.10147964924E+04 -0.29261569022E+04  0.31023806138E+04  0.12699999809E+01 0. -1.
       -4    1    3    3    0  502 -0.18043758740E+03 -0.10147964924E+04  0.17053494824E+03  0.10447264835E+04  0.12699999809E+01 0.  1.
</event>
<event>
 5   0  0.1325713E-07  0.3099702E+04  0.7818609E-02  0.8215820E-01
       -2   -1    0    0    0  501  0.00000000000E+00  0.00000000000E+00  0.11943918685E+04  0.11943918685E+04  0.25500000920E-02 0. -1.
        2   -1    0    0  501    0  0.00000000000E+00  0.00000000000E+00 -0.20110973698E+04  0.20110973698E+04  0.25500000920E-02 0.  1.
    10030    2    1    2    0    0  0.00000000000E+00  0.00000000000E+00 -0.81670550137E+03  0.32054892383E+04  0.30997021439E+04 0.  0.
        4    1    3    3  502    0 -0.28434411440E+03  0.91447130265E+03  0.85181096025E+03  0.12816758029E+04  0.12699999809E+01 0. -1.
       -4    1    3    3    0  502  0.28434411440E+03 -0.91447130265E+03 -0.16685164616E+04  0.19238134354E+04  0.12699999809E+01 0.  1.
</event>
<event>
 5   0  0.1329777E-07  0.3098717E+04  0.7818609E-02  0.8216090E-01
       -2   -1    0    0    0  501  0.00000000000E+00  0.00000000000E+00  0.12970617902E+04  0.12970617902E+04  0.25500000920E-02 0. -1.
        2   -1    0    0  501    0  0.00000000000E+00  0.00000000000E+00 -0.18507304821E+04  0.18507304821E+04  0.25500000920E-02 0.  1.
    10030    2    1    2    0    0  0.00000000000E+00  0.00000000000E+00 -0.55366869192E+03  0.31477922723E+04  0.30987170199E+04 0.  0.
        1    1    3    3  502    0  0.10795405569E+04 -0.89396379320E+03 -0.94754295110E+03  0.16918678204E+04  0.50400001928E-02 0.  1.
       -1    1    3    3    0  502 -0.10795405569E+04  0.89396379320E+03  0.39387425918E+03  0.14559244519E+04  0.50400001928E-02 0. -1.
</event>
<event>
 5   0  0.4517409E-08  0.3101672E+04  0.7818609E-02  0.8215279E-01
       -1   -1    0    0    0  501  0.00000000000E+00  0.00000000000E+00  0.13692323149E+04  0.13692323149E+04  0.50400001928E-02 0.  1.
        1   -1    0    0  501    0  0.00000000000E+00  0.00000000000E+00 -0.17565262076E+04  0.17565262076E+04  0.50400001928E-02 0. -1.
    10030    2    1    2    0    0  0.00000000000E+00  0.00000000000E+00 -0.38729389275E+03  0.31257585225E+04  0.31016720945E+04 0.  0.
        2    1    3    3  502    0  0.10130350886E+04  0.11781397379E+02 -0.13769515760E+04  0.17094954036E+04  0.25500000920E-02 0. -1.
       -2    1    3    3    0  502 -0.10130350886E+04 -0.11781397379E+02  0.98965768330E+03  0.14162631190E+04  0.25500000920E-02 0.  1.
</event>
<event>
 5   0  0.4436241E-08  0.3100226E+04  0.7818609E-02  0.8215676E-01
        1   -1    0    0  501    0  0.00000000000E+00  0.00000000000E+00  0.20400205652E+04  0.20400205652E+04  0.50400001928E-02 0.  1.
       -1   -1    0    0    0  501  0.00000000000E+00  0.00000000000E+00 -0.11778557064E+04  0.11778557064E+04  0.50400001928E-02 0. -1.
    10030    2    1    2    0    0  0.00000000000E+00  0.00000000000E+00  0.86216485875E+03  0.32178762716E+04  0.31002257105E+04 0.  0.
        3    1    3    3  502    0 -0.10098633598E+04 -0.16364485498E+03  0.16398569483E+04  0.19328048182E+04  0.10100000352E+00 0.  1.
       -3    1    3    3    0  502  0.10098633598E+04  0.16364485498E+03 -0.77769208955E+03  0.12850714534E+04  0.10100000352E+00 0. -1.
</event>
<event>
 5   0  0.4470354E-08  0.3098713E+04  0.7818609E-02  0.8216091E-01
       -1   -1    0    0    0  501  0.00000000000E+00  0.00000000000E+00  0.22304286850E+04  0.22304286850E+04  0.50400001928E-02 0. -1.
        1   -1    0    0  501    0  0.00000000000E+00  0.00000000000E+00 -0.10762528728E+04  0.10762528728E+04  0.50400001928E-02 0.  1.
    10030    2    1    2    0    0  0.00000000000E+00  0.00000000000E+00  0.11541758122E+04  0.33066815578E+04  0.30987128165E+04 0.  0.
        1    1    3    3  502    0  0.12123504912E+03 -0.15259430355E+04  0.32163665029E+03  0.15641771702E+04  0.50400001928E-02 0.  1.
       -1    1    3    3    0  502 -0.12123504912E+03  0.15259430355E+04  0.83253916191E+03  0.17425043876E+04  0.50400001928E-02 0. -1.
</event>
<event>
 5   0  0.1377237E-07  0.3100307E+04  0.7818609E-02  0.8215654E-01
        2   -1    0    0  501    0  0.00000000000E+00  0.00000000000E+00  0.22038580538E+04  0.22038580538E+04  0.25500000920E-02 0. -1.
       -2   -1    0    0    0  501  0.00000000000E+00  0.00000000000E+00 -0.10903494874E+04  0.10903494874E+04  0.25500000920E-02 0.  1.
    10030    2    1    2    0    0  0.00000000000E+00  0.00000000000E+00  0.11135085664E+04  0.32942075412E+04  0.31003067586E+04 0.  0.
        2    1    3    3  502    0  0.12896353269E+04 -0.50051109146E+02 -0.35561715004E+03  0.13387038310E+04  0.25500000920E-02 0.  1.
       -2    1    3    3    0  502 -0.12896353269E+04  0.50051109146E+02  0.14691257165E+04  0.19555037102E+04  0.25500000920E-02 0. -1.
</event>
<event>
 5   0  0.4838602E-08  0.3099755E+04  0.7818609E-02  0.8215805E-01
        1   -1    0    0  501    0  0.00000000000E+00  0.00000000000E+00  0.15456716904E+04  0.15456716904E+04  0.50400001928E-02 0. -1.
       -1   -1    0    0    0  501  0.00000000000E+00  0.00000000000E+00 -0.15540949759E+04  0.15540949759E+04  0.50400001928E-02 0.  1.
    10030    2    1    2    0    0  0.00000000000E+00  0.00000000000E+00 -0.84232855157E+01  0.30997666664E+04  0.30997552216E+04 0.  0.
        5    1    3    3  502    0  0.41508354221E+03 -0.10368921180E+04 -0.10787661707E+04  0.15528033206E+04  0.46999998093E+01 0.  1.
       -5    1    3    3    0  502 -0.41508354221E+03  0.10368921180E+04  0.10703428852E+04  0.15469633458E+04  0.46999998093E+01 0. -1.
</event>
<event>
 5   0  0.4436241E-08  0.3098463E+04  0.7818609E-02  0.8216160E-01
       -1   -1    0    0    0  501  0.00000000000E+00  0.00000000000E+00  0.97758966200E+03  0.97758966201E+03  0.50400001928E-02 0. -1.
        1   -1    0    0  501    0  0.00000000000E+00  0.00000000000E+00 -0.24551393155E+04  0.24551393155E+04  0.50400001928E-02 0.  1.
    10030    2    1    2    0    0  0.00000000000E+00  0.00000000000E+00 -0.14775496535E+04  0.34327289775E+04  0.30984633699E+04 0.  0.
        3    1    3    3  502    0 -0.71553852801E+03 -0.11806584274E+04 -0.15175837900E+04  0.20515872580E+04  0.10100000352E+00 0.  1.
       -3    1    3    3    0  502  0.71553852801E+03  0.11806584274E+04  0.40034136454E+02  0.13811417196E+04  0.10100000352E+00 0. -1.
</event>
<event>
 5   0  0.4517409E-08  0.3092768E+04  0.7818609E-02  0.8217725E-01
       -1   -1    0    0    0  501  0.00000000000E+00  0.00000000000E+00  0.85966136998E+03  0.85966136999E+03  0.50400001928E-02 0.  1.
        1   -1    0    0  501    0  0.00000000000E+00  0.00000000000E+00 -0.27816810118E+04  0.27816810118E+04  0.50400001928E-02 0. -1.
    10030    2    1    2    0    0  0.00000000000E+00  0.00000000000E+00 -0.19220196418E+04  0.36413423818E+04  0.30927681513E+04 0.  0.
        2    1    3    3  502    0 -0.70342311135E+03 -0.57446802968E+03  0.51258276196E+03  0.10428608146E+04  0.25500000920E-02 0.  1.
       -2    1    3    3    0  502  0.70342311135E+03  0.57446802968E+03 -0.24346024037E+04  0.25984815672E+04  0.25500000920E-02 0. -1.
</event>
<event>
 5   0  0.1377237E-07  0.3099370E+04  0.7818609E-02  0.8215911E-01
        2   -1    0    0  501    0  0.00000000000E+00  0.00000000000E+00  0.16580661787E+04  0.16580661787E+04  0.25500000920E-02 0. -1.
       -2   -1    0    0    0  501  0.00000000000E+00  0.00000000000E+00 -0.14483880730E+04  0.14483880730E+04  0.25500000920E-02 0.  1.
    10030    2    1    2    0    0  0.00000000000E+00  0.00000000000E+00  0.20967810569E+03  0.31064542517E+04  0.30993697923E+04 0.  0.
        2    1    3    3  502    0  0.76020378782E+03 -0.51114581726E+03 -0.11479553929E+04  0.14686665481E+04  0.25500000920E-02 0.  1.
       -2    1    3    3    0  502 -0.76020378782E+03  0.51114581726E+03  0.13576334986E+04  0.16377877036E+04  0.25500000920E-02 0. -1.
</event>
<event>
 5   0  0.1318916E-07  0.3098902E+04  0.7818609E-02  0.8216039E-01
        2   -1    0    0  501    0  0.00000000000E+00  0.00000000000E+00  0.14193039064E+04  0.14193039064E+04  0.25500000920E-02 0. -1.
       -2   -1    0    0    0  501  0.00000000000E+00  0.00000000000E+00 -0.16915319484E+04  0.16915319484E+04  0.25500000920E-02 0.  1.
    10030    2    1    2    0    0  0.00000000000E+00  0.00000000000E+00 -0.27222804202E+03  0.31108358548E+04  0.30989016778E+04 0.  0.
        5    1    3    3  502    0 -0.15402871188E+04 -0.93764017123E+02 -0.27629316606E+03  0.15676849501E+04  0.46999998093E+01 0.  1.
       -5    1    3    3    0  502  0.15402871188E+04  0.93764017123E+02  0.40651240428E+01  0.15431509047E+04  0.46999998093E+01 0. -1.
</event>
<event>
 5   0  0.4838602E-08  0.3100163E+04  0.7818609E-02  0.8215693E-01
        1   -1    0    0  501    0  0.00000000000E+00  0.00000000000E+00  0.15889878847E+04  0.15889878848E+04  0.50400001928E-02 0.  1.
       -1   -1    0    0    0  501  0.00000000000E+00  0.00000000000E+00 -0.15121277019E+04  0.15121277019E+04  0.50400001928E-02 0. -1.
    10030    2    1    2    0    0  0.00000000000E+00  0.00000000000E+00  0.76860182892E+02  0.31011155866E+04  0.31001629625E+04 0.  0.
        5    1    3    3  502    0  0.93525365020E+03  0.51451576699E+03  0.11627437241E+04  0.15784235561E+04  0.46999998093E+01 0.  1.
       -5    1    3    3    0  502 -0.93525365020E+03 -0.51451576699E+03 -0.10858835412E+04  0.15226920305E+04  0.46999998093E+01 0. -1.
</event>
<event>
 5   0  0.4470354E-08  0.3101420E+04  0.7818609E-02  0.8215348E-01
        1   -1    0    0  501    0  0.00000000000E+00  0.00000000000E+00  0.21893478618E+04  0.21893478618E+04  0.50400001928E-02 0.  1.
       -1   -1    0    0    0  501  0.00000000000E+00  0.00000000000E+00 -0.10983640590E+04  0.10983640590E+04  0.50400001928E-02 0. -1.
    10030    2    1    2    0    0  0.00000000000E+00  0.00000000000E+00  0.10909838028E+04  0.32877119208E+04  0.31014196776E+04 0.  0.
        1    1    3    3  502    0  0.11644742677E+04 -0.10196165867E+04  0.64651965658E+03  0.16773806874E+04  0.50400001928E-02 0.  1.
       -1    1    3    3    0  502 -0.11644742677E+04  0.10196165867E+04  0.44446414624E+03  0.16103312334E+04  0.50400001928E-02 0. -1.
</event>
<event>
 5   0  0.4436241E-08  0.3102334E+04  0.7818609E-02  0.8215098E-01
        1   -1    0    0  501    0  0.00000000000E+00  0.00000000000E+00  0.11364265389E+04  0.11364265389E+04  0.50400001928E-02 0. -1.
       -1   -1    0    0    0  501  0.00000000000E+00  0.00000000000E+00 -0.21172670923E+04  0.21172670923E+04  0.50400001928E-02 0.  1.
    10030    2    1    2    0    0  0.00000000000E+00  0.00000000000E+00 -0.98084055336E+03  0.32536936312E+04  0.31023336465E+04 0.  0.
        3    1    3    3  502    0 -0.41833624960E+03 -0.95205301360E+03 -0.16975342861E+04  0.19907367534E+04  0.10100000352E+00 0.  1.
       -3    1    3    3    0  502  0.41833624960E+03  0.95205301360E+03  0.71669373276E+03  0.12629568778E+04  0.10100000352E+00 0. -1.
</event>
<event>
 5   0  0.1318916E-07  0.3100492E+04  0.7818609E-02  0.8215603E-01
       -2   -1    0    0    0  501  0.00000000000E+00  0.00000000000E+00  0.11219054615E+04  0.11219054615E+04  0.25500000920E-02 0. -1.
        2   -1    0    0  501    0  0.00000000000E+00  0.00000000000E+00 -0.21421259713E+04  0.21421259713E+04  0.25500000920E-02 0.  1.
    10030    2    1    2    0    0  0.00000000000E+00  0.00000000000E+00 -0.10202205098E+04  0.32640314328E+04  0.31004921070E+04 0.  0.
        5    1    3    3  502    0  0.14356649885E+03  0.38687071524E+03  0.10630183113E+04  0.11403114970E+04  0.46999998093E+01 0. -1.
       -5    1    3    3    0  502 -0.14356649885E+03 -0.38687071524E+03 -0.20832388211E+04  0.21237199358E+04  0.46999998093E+01 0.  1.
</event>
<event>
 5   0  0.4305500E-08  0.3077242E+04  0.7818609E-02  0.8222011E-01
        3   -1    0    0  501    0  0.00000000000E+00  0.00000000000E+00  0.12442606683E+04  0.12442606724E+04  0.10100000352E+00 0. -1.
       -3   -1    0    0    0  501  0.00000000000E+00  0.00000000000E+00 -0.19026200350E+04  0.19026200376E+04  0.10100000352E+00 0.  1.
    10030    2    1    2    0    0  0.00000000000E+00  0.00000000000E+00 -0.65835936668E+03  0.31468807100E+04  0.30772424583E+04 0.  0.
        5    1    3    3  502    0 -0.14115698728E+04 -0.19968075707E+03 -0.92100892982E+03  0.16972570369E+04  0.46999998093E+01 0.  1.
       -5    1    3    3    0  502  0.14115698728E+04  0.19968075707E+03  0.26264956314E+03  0.14496236731E+04  0.46999998093E+01 0. -1.
</event>
<event>
 5   0  0.1377237E-07  0.3100350E+04  0.7818609E-02  0.8215642E-01
        2   -1    0    0  501    0  0.00000000000E+00  0.00000000000E+00  0.22570788184E+04  0.22570788184E+04  0.25500000920E-02 0. -1.
       -2   -1    0    0    0  501  0.00000000000E+00  0.00000000000E+00 -0.10646695624E+04  0.10646695624E+04  0.25500000920E-02 0.  1.
    10030    2    1    2    0    0  0.00000000000E+00  0.00000000000E+00  0.11924092560E+04  0.33217483809E+04  0.31003503789E+04 0.  0.
        2    1    3    3  502    0 -0.14823809756E+04  0.36177811719E+03  0.88904754806E+03  0.17659961227E+04  0.25500000920E-02 0. -1.
       -2    1    3    3    0  502  0.14823809756E+04 -0.36177811719E+03  0.30336170793E+03  0.15557522581E+04  0.25500000920E-02 0.  1.
</event>
<event>
 5   0  0.1377237E-07  0.3099634E+04  0.7818609E-02  0.8215838E-01
        2   -1    0    0  501    0  0.00000000000E+00  0.00000000000E+00  0.17410097089E+04  0.17410097089E+04  0.25500000920E-02 0. -1.
       -2   -1    0    0    0  501  0.00000000000E+00  0.00000000000E+00 -0.13796203864E+04  0.13796203864E+04  0.25500000920E-02 0.  1.
    10030    2    1    2    0    0  0.00000000000E+00  0.00000000000E+00  0.36138932253E+03  0.31206300953E+04  0.30996338412E+04 0.  0.
        2    1    3    3  502    0  0.12814635621E+03 -0.93939096620E+03 -0.10536016281E+04  0.14173754854E+04  0.25500000920E-02 0.  1.
       -2    1    3    3    0  502 -0.12814635621E+03  0.93939096620E+03  0.14149909506E+04  0.17032546099E+04  0.25500000920E-02 0. -1.
</event>
<event>
 5   0  0.1318916E-07  0.3099190E+04  0.7818609E-02  0.8215960E-01
       -2   -1    0    0    0  501  0.00000000000E+00  0.00000000000E+00  0.10276007807E+04  0.10276007807E+04  0.25500000920E-02 0. -1.
        2   -1    0    0  501    0  0.00000000000E+00  0.00000000000E+00 -0.23367481361E+04  0.23367481361E+04  0.25500000920E-02 0.  1.
    10030    2    1    2    0    0  0.00000000000E+00  0.00000000000E+00 -0.13091473554E+04  0.33643489168E+04  0.30991897064E+04 0.  0.
        5    1    3    3  502    0  0.40434237189E+03 -0.53547368102E+03 -0.21708599521E+04  0.22721971390E+04  0.46999998093E+01 0.  1.
       -5    1    3    3    0  502 -0.40434237189E+03  0.53547368102E+03  0.86171259663E+03  0.10921517779E+04  0.46999998093E+01 0. -1.
</event>
<event>
 5   0  0.1329777E-07  0.3102232E+04  0.7818609E-02  0.8215126E-01
       -2   -1    0    0    0  501  0.00000000000E+00  0.00000000000E+00  0.11358795597E+04  0.11358795597E+04  0.25500000920E-02 0.  1.
        2   -1    0    0  501    0  0.00000000000E+00  0.00000000000E+00 -0.21181472646E+04  0.21181472646E+04  0.25500000920E-02 0. -1.
    10030    2    1    2    0    0  0.00000000000E+00  0.00000000000E+00 -0.98226770493E+03  0.32540268242E+04  0.31022315724E+04 0.  0.
        1    1    3    3  502    0  0.38701261738E+03  0.50956207839E+02  0.10835155597E+04  0.11516862720E+04  0.50400001928E-02 0.  1.
       -1    1    3    3    0  502 -0.38701261738E+03 -0.50956207839E+02 -0.20657832646E+04  0.21023405522E+04  0.50400001928E-02 0. -1.
</event>
<event>
 5   0  0.1377237E-07  0.3096624E+04  0.7818609E-02  0.8216665E-01
        2   -1    0    0  501    0  0.00000000000E+00  0.00000000000E+00  0.15892528129E+04  0.15892528129E+04  0.25500000920E-02 0.  1.
       -2   -1    0    0    0  501  0.00000000000E+00  0.00000000000E+00 -0.15084259034E+04  0.15084259034E+04  0.25500000920E-02 0. -1.
    10030    2    1    2    0    0  0.00000000000E+00  0.00000000000E+00  0.80826909493E+02  0.30976787163E+04  0.30966240392E+04 0.  0.
        2    1    3    3  502    0  0.12540560463E+04 -0.27346773304E+03 -0.82580810823E+03  0.15262372686E+04  0.25500000920E-02 0. -1.
       -2    1    3    3    0  502 -0.12540560463E+04  0.27346773304E+03  0.90663501772E+03  0.15714414477E+04  0.25500000920E-02 0.  1.
</event>
<event>
 5   0  0.1329777E-07  0.3099884E+04  0.7818609E-02  0.8215770E-01
        2   -1    0    0  501    0  0.00000000000E+00  0.00000000000E+00  0.17341610956E+04  0.17341610956E+04  0.25500000920E-02 0.  1.
       -2   -1    0    0    0  501  0.00000000000E+00  0.00000000000E+00 -0.13852921668E+04  0.13852921668E+04  0.25500000920E-02 0. -1.
    10030    2    1    2    0    0  0.00000000000E+00  0.00000000000E+00  0.34886892884E+03  0.31194532623E+04  0.30998837279E+04 0.  0.
        1    1    3    3  502    0  0.11408805583E+04 -0.28601234735E+03 -0.84134779219E+03  0.14461250356E+04  0.50400001928E-02 0. -1.
       -1    1    3    3    0  502 -0.11408805583E+04  0.28601234735E+03  0.11902167210E+04  0.16733282267E+04  0.50400001928E-02 0.  1.
</event>
<event>
 5   0  0.4450600E-08  0.3098217E+04  0.7818609E-02  0.8216227E-01
        1   -1    0    0  501    0  0.00000000000E+00  0.00000000000E+00  0.93015549841E+03  0.93015549842E+03  0.50400001928E-02 0. -1.
       -1   -1    0    0    0  501  0.00000000000E+00  0.00000000000E+00 -0.25799309004E+04  0.25799309004E+04  0.50400001928E-02 0.  1.
    10030    2    1    2    0    0  0.00000000000E+00  0.00000000000E+00 -0.16497754020E+04  0.35100863988E+04  0.30982168501E+04 0.  0.
        4    1    3    3  502    0 -0.56694056921E+03  0.12715969428E+04 -0.15944141768E+04  0.21167282711E+04  0.12699999809E+01 0. -1.
       -4    1    3    3    0  502  0.56694056921E+03 -0.12715969428E+04 -0.55361225215E+02  0.13933581277E+04  0.12699999809E+01 0.  1.
</event>
<event>
 5   0  0.4470354E-08  0.3100380E+04  0.7818609E-02  0.8215634E-01
       -1   -1    0    0    0  501  0.00000000000E+00  0.00000000000E+00  0.87141051897E+03  0.87141051899E+03  0.50400001928E-02 0.  1.
        1   -1    0    0  501    0  0.00000000000E+00  0.00000000000E+00 -0.27576995542E+04  0.27576995542E+04  0.50400001928E-02 0. -1.
    10030    2    1    2    0    0  0.00000000000E+00  0.00000000000E+00 -0.18862890352E+04  0.36291100732E+04  0.31003795895E+04 0.  0.
        1    1    3    3  502    0 -0.31289967566E+03 -0.15080708577E+04 -0.11489211229E+04  0.19215107768E+04  0.50400001928E-02 0. -1.
       -1    1    3    3    0  502  0.31289967566E+03  0.15080708577E+04 -0.73736791238E+03  0.17075992964E+04  0.50400001928E-02 0.  1.
</event>
<event>
 5   0  0.4450600E-08  0.3105299E+04  0.7818609E-02  0.8214285E-01
       -1   -1    0    0    0  501  0.00000000000E+00  0.00000000000E+00  0.13679953727E+04  0.13679953727E+04  0.50400001928E-02 0. -1.
        1   -1    0    0  501    0  0.00000000000E+00  0.00000000000E+00 -0.17622286932E+04  0.17622286932E+04  0.50400001928E-02 0.  1.
    10030    2    1    2    0    0  0.00000000000E+00  0.00000000000E+00 -0.39423332059E+03  0.31302240659E+04  0.31052991469E+04 0.  0.
        4    1    3    3  502    0  0.82783460551E+03 -0.12131656978E+04  0.31055052393E+03  0.15011743353E+04  0.12699999809E+01 0. -1.
       -4    1    3    3    0  502 -0.82783460551E+03  0.12131656978E+04 -0.70478384452E+03  0.16290497306E+04  0.12699999809E+01 0.  1.
</event>
<event>
 5   0  0.1325713E-07  0.3100642E+04  0.7818609E-02  0.8215562E-01
        2   -1    0    0  501    0  0.00000000000E+00  0.00000000000E+00  0.19942990600E+04  0.19942990600E+04  0.25500000920E-02 0. -1.
       -2   -1    0    0    0  501  0.00000000000E+00  0.00000000000E+00 -0.12051829212E+04  0.12051829212E+04  0.25500000920E-02 0.  1.
    10030    2    1    2    0    0  0.00000000000E+00  0.00000000000E+00  0.78911613879E+03  0.31994819813E+04  0.31006419768E+04 0.  0.
        4    1    3    3  502    0  0.12261762570E+04 -0.85163440453E+03 -0.36742167736E+02  0.14933656525E+04  0.12699999809E+01 0.  1.
       -4    1    3    3    0  502 -0.12261762570E+04  0.85163440453E+03  0.82585830652E+03  0.17061163288E+04  0.12699999809E+01 0. -1.
</event>
<event>
 5   0  0.4838602E-08  0.3100832E+04  0.7818609E-02  0.8215509E-01
       -1   -1    0    0    0  501  0.00000000000E+00  0.00000000000E+00  0.29835816117E+04  0.29835816117E+04  0.50400001928E-02 0. -1.
        1   -1    0    0  501    0  0.00000000000E+00  0.00000000000E+00 -0.80567276682E+03  0.80567276684E+03  0.50400001928E-02 0.  1.
    10030    2    1    2    0    0  0.00000000000E+00  0.00000000000E+00  0.21779088449E+04  0.37892543785E+04  0.31008324380E+04 0.  0.
        5    1    3    3  502    0  0.67112222378E+02  0.14309247751E+04  0.36422961044E+03  0.14780849304E+04  0.46999998093E+01 0. -1.
       -5    1    3    3    0  502 -0.67112222378E+02 -0.14309247751E+04  0.18136792344E+04  0.23111694481E+04  0.46999998093E+01 0.  1.
</event>
<event>
 5   0  0.4517409E-08  0.3099127E+04  0.7818609E-02  0.8215977E-01
       -1   -1    0    0    0  501  0.00000000000E+00  0.00000000000E+00  0.14394103875E+04  0.14394103875E+04  0.50400001928E-02 0.  1.
        1   -1    0    0  501    0  0.00000000000E+00  0.00000000000E+00 -0.16681467075E+04  0.16681467075E+04  0.50400001928E-02 0. -1.
    10030    2    1    2    0    0  0.00000000000E+00  0.00000000000E+00 -0.22873632007E+03  0.31075570950E+04  0.30991274247E+04 0.  0.
        2    1    3    3  502    0 -0.83760247533E+03  0.12385416000E+04 -0.52239574059E+03  0.15838120189E+04  0.25500000920E-02 0. -1.
       -2    1    3    3    0  502  0.83760247533E+03 -0.12385416000E+04  0.29365942051E+03  0.15237450761E+04  0.25500000920E-02 0.  1.
</event>
<event>
 5   0  0.4450600E-08  0.3097392E+04  0.7818609E-02  0.8216454E-01
       -1   -1    0    0    0  501  0.00000000000E+00  0.00000000000E+00  0.33625994889E+04  0.33625994889E+04  0.50400001928E-02 0.  1.
        1   -1    0    0  501    0  0.00000000000E+00  0.00000000000E+00 -0.71327553178E+03  0.71327553180E+03  0.50400001928E-02 0. -1.
    10030    2    1    2    0    0  0.00000000000E+00  0.00000000000E+00  0.26493239571E+04  0.40758750207E+04  0.30973924121E+04 0.  0.
        4    1    3    3  502    0  0.14483342022E+04 -0.24772549460E+02  0.20456203910E+04  0.25065613972E+04  0.12699999809E+01 0. -1.
       -4    1    3    3    0  502 -0.14483342022E+04  0.24772549460E+02  0.60370356609E+03  0.15693136236E+04  0.12699999809E+01 0.  1.
</event>
<event>
 5   0  0.4450600E-08  0.3099894E+04  0.7818609E-02  0.8215767E-01
        1   -1    0    0  501    0  0.00000000000E+00  0.00000000000E+00  0.20206270437E+04  0.20206270437E+04  0.50400001928E-02 0. -1.
       -1   -1    0    0    0  501  0.00000000000E+00  0.00000000000E+00 -0.11889064163E+04  0.11889064163E+04  0.50400001928E-02 0.  1.
    10030    2    1    2    0    0  0.00000000000E+00  0.00000000000E+00  0.83172062738E+03  0.32095334600E+04  0.30998944867E+04 0.  0.
        4    1    3    3  502    0 -0.71257616425E+03 -0.13134125198E+04  0.84214762208E+03  0.17152351055E+04  0.12699999809E+01 0. -1.
       -4    1    3    3    0  502  0.71257616425E+03  0.13134125198E+04 -0.10426994704E+02  0.14942983545E+04  0.12699999809E+01 0.  1.
</event>
<event>
 5   0  0.1398931E-07  0.3101457E+04  0.7818609E-02  0.8215338E-01
        2   -1    0    0  501    0  0.00000000000E+00  0.00000000000E+00  0.10388477325E+04  0.10388477325E+04  0.25500000920E-02 0.  1.
       -2   -1    0    0    0  501  0.00000000000E+00  0.00000000000E+00 -0.23148326791E+04  0.23148326791E+04  0.25500000920E-02 0. -1.
    10030    2    1    2    0    0  0.00000000000E+00  0.00000000000E+00 -0.12759849466E+04  0.33536804117E+04  0.31014568705E+04 0.  0.
        3    1    3    3  502    0  0.74393826678E+03  0.69578508505E+03  0.62636994411E+03  0.11957844063E+04  0.10100000352E+00 0.  1.
       -3    1    3    3    0  502 -0.74393826678E+03 -0.69578508505E+03 -0.19023548907E+04  0.21578960053E+04  0.10100000352E+00 0. -1.
</event>
<event>
 5   0  0.4517409E-08  0.3099472E+04  0.7818609E-02  0.8215883E-01
        1   -1    0    0  501    0  0.00000000000E+00  0.00000000000E+00  0.11935285861E+04  0.11935285861E+04  0.50400001928E-02 0. -1.
       -1   -1    0    0    0  501  0.00000000000E+00  0.00000000000E+00 -0.20122531742E+04  0.20122531742E+04  0.50400001928E-02 0.  1.
    10030    2    1    2    0    0  0.00000000000E+00  0.00000000000E+00 -0.81872458811E+03  0.32057817604E+04  0.30994720105E+04 0.  0.
        2    1    3    3  502    0 -0.25259968153E+03  0.15201994301E+04 -0.23982306419E+03  0.15595922571E+04  0.25500000920E-02 0. -1.
       -2    1    3    3    0  502  0.25259968153E+03 -0.15201994301E+04 -0.57890152392E+03  0.16461895033E+04  0.25500000920E-02 0.  1.
</event>
<event>
 5   0  0.1398931E-07  0.3099514E+04  0.7818609E-02  0.8215871E-01
        2   -1    0    0  501    0  0.00000000000E+00  0.00000000000E+00  0.11688744100E+04  0.11688744100E+04  0.25500000920E-02 0. -1.
       -2   -1    0    0    0  501  0.00000000000E+00  0.00000000000E+00 -0.20547523392E+04  0.20547523392E+04  0.25500000920E-02 0.  1.
    10030    2    1    2    0    0  0.00000000000E+00  0.00000000000E+00 -0.88587792925E+03  0.32236267492E+04  0.30995144318E+04 0.  0.
        3    1    3    3  502    0  0.38644754349E+03  0.22393924170E+03 -0.19863623657E+04  0.20359582378E+04  0.10100000352E+00 0.  1.
       -3    1    3    3    0  502 -0.38644754349E+03 -0.22393924170E+03  0.11004844365E+04  0.11876685114E+04  0.10100000352E+00 0. -1.
</event>
<event>
 5   0  0.4838602E-08  0.3099575E+04  0.7818609E-02  0.8215855E-01
       -1   -1    0    0    0  501  0.00000000000E+00  0.00000000000E+00  0.76253242547E+03  0.76253242549E+03  0.50400001928E-02 0. -1.
        1   -1    0    0  501    0  0.00000000000E+00  0.00000000000E+00 -0.31498215009E+04  0.31498215009E+04  0.50400001928E-02 0.  1.
    10030    2    1    2    0    0  0.00000000000E+00  0.00000000000E+00 -0.23872890754E+04  0.39123539264E+04  0.30995748282E+04 0.  0.
        5    1    3    3  502    0 -0.98117336560E+03  0.11867898921E+04 -0.14146147139E+04  0.20910113104E+04  0.46999998093E+01 0.  1.
       -5    1    3    3    0  502  0.98117336560E+03 -0.11867898921E+04 -0.97267436147E+03  0.18213426160E+04  0.46999998093E+01 0. -1.
</event>
<event>
 5   0  0.1318916E-07  0.3104588E+04  0.7818609E-02  0.8214480E-01
       -2   -1    0    0    0  501  0.00000000000E+00  0.00000000000E+00  0.11712240569E+04  0.11712240569E+04  0.25500000920E-02 0. -1.
        2   -1    0    0  501    0  0.00000000000E+00  0.00000000000E+00 -0.20573486537E+04  0.20573486537E+04  0.25500000920E-02 0.  1.
    10030    2    1    2    0    0  0.00000000000E+00  0.00000000000E+00 -0.88612459678E+03  0.32285727105E+04  0.31045877256E+04 0.  0.
        5    1    3    3  502    0  0.68822712085E+02  0.15388058410E+04 -0.64291994810E+03  0.16691399377E+04  0.46999998093E+01 0.  1.
       -5    1    3    3    0  502 -0.68822712085E+02 -0.15388058410E+04 -0.24320464868E+03  0.15594327729E+04  0.46999998093E+01 0. -1.
</event>
<event>
 5   0  0.4436241E-08  0.3094602E+04  0.7818609E-02  0.8217221E-01
        1   -1    0    0  501    0  0.00000000000E+00  0.00000000000E+00  0.21707836857E+04  0.21707836857E+04  0.50400001928E-02 0. -1.
       -1   -1    0    0    0  501  0.00000000000E+00  0.00000000000E+00 -0.11028919475E+04  0.11028919475E+04  0.50400001928E-02 0.  1.
    10030    2    1    2    0    0  0.00000000000E+00  0.00000000000E+00  0.10678917382E+04  0.32736756333E+04  0.30946016525E+04 0.  0.
        3    1    3    3  502    0  0.13661914743E+04  0.66117297224E+03  0.85220550202E+03  0.17406559314E+04  0.10100000352E+00 0.  1.
       -3    1    3    3    0  502 -0.13661914743E+04 -0.66117297224E+03  0.21568623621E+03  0.15330197019E+04  0.10100000352E+00 0. -1.
</event>
<event>
 5   0  0.4838602E-08  0.3100853E+04  0.7818609E-02  0.8215504E-01
        1   -1    0    0  501    0  0.00000000000E+00  0.00000000000E+00  0.14514819082E+04  0.14514819082E+04  0.50400001928E-02 0. -1.
       -1   -1    0    0    0  501  0.00000000000E+00  0.00000000000E+00 -0.16561162451E+04  0.16561162451E+04  0.50400001928E-02 0.  1.
    10030    2    1    2    0    0  0.00000000000E+00  0.00000000000E+00 -0.20463433689E+03  0.31075981533E+04  0.31008532811E+04 0.  0.
        5    1    3    3  502    0 -0.64809485633E+03 -0.36179869139E+03 -0.14664816870E+04  0.16436288706E+04  0.46999998093E+01 0.  1.
       -5    1    3    3    0  502  0.64809485633E+03  0.36179869139E+03  0.12618473501E+04  0.14639692827E+04  0.46999998093E+01 0. -1.
</event>
<event>
 5   0  0.1318916E-07  0.3099600E+04  0.7818609E-02  0.8215848E-01
       -2   -1    0    0    0  501  0.00000000000E+00  0.00000000000E+00  0.24612338993E+04  0.24612338993E+04  0.25500000920E-02 0.  1.
        2   -1    0    0  501    0  0.00000000000E+00  0.00000000000E+00 -0.97588480661E+03  0.97588480661E+03  0.25500000920E-02 0. -1.
    10030    2    1    2    0    0  0.00000000000E+00  0.00000000000E+00  0.14853490927E+04  0.34371187059E+04  0.30996004696E+04 0.  0.
        5    1    3    3  502    0 -0.87742096500E+03 -0.30544552630E+03  0.21181883908E+04  0.23129869581E+04  0.46999998093E+01 0.  1.
       -5    1    3    3    0  502  0.87742096500E+03  0.30544552630E+03 -0.63283929807E+03  0.11241317479E+04  0.46999998093E+01 0. -1.
</event>
<event>
 5   0  0.4436241E-08  0.3103391E+04  0.7818609E-02  0.8214808E-01
        1   -1    0    0  501    0  0.00000000000E+00  0.00000000000E+00  0.12904785193E+04  0.12904785193E+04  0.50400001928E-02 0. -1.
       -1   -1    0    0    0  501  0.00000000000E+00  0.00000000000E+00 -0.18657881008E+04  0.18657881008E+04  0.50400001928E-02 0.  1.
    10030    2    1    2    0    0  0.00000000000E+00  0.00000000000E+00 -0.57530958158E+03  0.31562666201E+04  0.31033913486E+04 0.  0.
        3    1    3    3  502    0  0.14901993382E+03 -0.36873250336E+03  0.12377626698E+04  0.13000873188E+04  0.10100000352E+00 0. -1.
       -3    1    3    3    0  502 -0.14901993382E+03  0.36873250336E+03 -0.18130722513E+04  0.18561793013E+04  0.10100000352E+00 0.  1.
</event>
<event>
 5   0  0.4517409E-08  0.3099886E+04  0.7818609E-02  0.8215769E-01
       -1   -1    0    0    0  501  0.00000000000E+00  0.00000000000E+00  0.12349351964E+04  0.12349351964E+04  0.50400001928E-02 0.  1.
        1   -1    0    0  501    0  0.00000000000E+00  0.00000000000E+00 -0.19453027913E+04  0.19453027913E+04  0.50400001928E-02 0. -1.
    10030    2    1    2    0    0  0.00000000000E+00  0.00000000000E+00 -0.71036759486E+03  0.31802379877E+04  0.30998857299E+04 0.  0.
        2    1    3    3  502    0  0.32133149458E+03  0.13087447047E+04 -0.11407045807E+04  0.17655802366E+04  0.25500000920E-02 0. -1.
       -2    1    3    3    0  502 -0.32133149458E+03 -0.13087447047E+04  0.43033698580E+03  0.14146577511E+04  0.25500000920E-02 0.  1.
</event>
<event>
 5   0  0.1377237E-07  0.3100615E+04  0.7818609E-02  0.8215569E-01
        2   -1    0    0  501    0  0.00000000000E+00  0.00000000000E+00  0.22113876997E+04  0.22113876997E+04  0.25500000920E-02 0.  1.
       -2   -1    0    0    0  501  0.00000000000E+00  0.00000000000E+00 -0.10868529478E+04  0.10868529478E+04  0.25500000920E-02 0. -1.
    10030    2    1    2    0    0  0.00000000000E+00  0.00000000000E+00  0.11245347520E+04  0.32982406475E+04  0.31006149326E+04 0.  0.
        2    1    3    3  502    0  0.14087519179E+04 -0.59710860067E+03  0.29668937254E+03  0.15585715354E+04  0.25500000920E-02 0. -1.
       -2    1    3    3    0  502 -0.14087519179E+04  0.59710860067E+03  0.82784537943E+03  0.17396691121E+04  0.25500000920E-02 0.  1.
</event>
<event>
 5   0  0.1377237E-07  0.3100794E+04  0.7818609E-02  0.8215520E-01
       -2   -1    0    0    0  501  0.00000000000E+00  0.00000000000E+00  0.11114397461E+04  0.11114397461E+04  0.25500000920E-02 0. -1.
        2   -1    0    0  501    0  0.00000000000E+00  0.00000000000E+00 -0.21627174451E+04  0.21627174451E+04  0.25500000920E-02 0.  1.
    10030    2    1    2    0    0  0.00000000000E+00  0.00000000000E+00 -0.10512776990E+04  0.32741571912E+04  0.31007935295E+04 0.  0.
        2    1    3    3  502    0 -0.14493421175E+01  0.15138605904E+04 -0.87894138707E+03  0.17505181946E+04  0.25500000920E-02 0.  1.
       -2    1    3    3    0  502  0.14493421175E+01 -0.15138605904E+04 -0.17233631194E+03  0.15236389967E+04  0.25500000920E-02 0. -1.
</event>
<event>
 5   0  0.1325713E-07  0.3098729E+04  0.7818609E-02  0.8216087E-01
        2   -1    0    0  501    0  0.00000000000E+00  0.00000000000E+00  0.92453906476E+03  0.92453906476E+03  0.25500000920E-02 0.  1.
       -2   -1    0    0    0  501  0.00000000000E+00  0.00000000000E+00 -0.25964616811E+04  0.25964616811E+04  0.25500000920E-02 0. -1.
    10030    2    1    2    0    0  0.00000000000E+00  0.00000000000E+00 -0.16719226163E+04  0.35210007458E+04  0.30987289357E+04 0.  0.
        4    1    3    3  502    0 -0.23023620039E+03 -0.66368853207E+03  0.73318031306E+03  0.10154044317E+04  0.12699999809E+01 0.  1.
       -4    1    3    3    0  502  0.23023620039E+03  0.66368853207E+03 -0.24051029294E+04  0.25055963141E+04  0.12699999809E+01 0. -1.
</event>
<event>
 5   0  0.1329777E-07  0.3100106E+04  0.7818609E-02  0.8215709E-01
       -2   -1    0    0    0  501  0.00000000000E+00  0.00000000000E+00  0.90577815667E+03  0.90577815667E+03  0.25500000920E-02 0.  1.
        2   -1    0    0  501    0  0.00000000000E+00  0.00000000000E+00 -0.26525966149E+04  0.26525966149E+04  0.25500000920E-02 0. -1.
    10030    2    1    2    0    0  0.00000000000E+00  0.00000000000E+00 -0.17468184582E+04  0.35583747715E+04  0.31001058512E+04 0.  0.
        1    1    3    3  502    0  0.13772648179E+04 -0.23660403780E+03 -0.16432423337E+04  0.21571011141E+04  0.50400001928E-02 0.  1.
       -1    1    3    3    0  502 -0.13772648179E+04  0.23660403780E+03 -0.10357612450E+03  0.14012736574E+04  0.50400001928E-02 0. -1.
</event>
<event>
 5   0  0.4517409E-08  0.3102411E+04  0.7818609E-02  0.8215076E-01
       -1   -1    0    0    0  501  0.00000000000E+00  0.00000000000E+00  0.18657968371E+04  0.18657968371E+04  0.50400001928E-02 0.  1.
        1   -1    0    0  501    0  0.00000000000E+00  0.00000000000E+00 -0.12896576232E+04  0.12896576232E+04  0.50400001928E-02 0. -1.
    10030    2    1    2    0    0  0.00000000000E+00  0.00000000000E+00  0.57613921392E+03  0.31554544603E+04  0.31024113939E+04 0.  0.
        2    1    3    3  502    0  0.14820612216E+04 -0.45671997385E+03  0.25372068823E+03  0.15714556267E+04  0.25500000920E-02 0. -1.
       -2    1    3    3    0  502 -0.14820612216E+04  0.45671997385E+03  0.32241852569E+03  0.15839988336E+04  0.25500000920E-02 0.  1.
</event>
<event>
 5   0  0.1325713E-07  0.3102120E+04  0.7818609E-02  0.8215156E-01
        2   -1    0    0  501    0  0.00000000000E+00  0.00000000000E+00  0.20186345214E+04  0.20186345214E+04  0.25500000920E-02 0.  1.
       -2   -1    0    0    0  501  0.00000000000E+00  0.00000000000E+00 -0.11917889929E+04  0.11917889929E+04  0.25500000920E-02 0. -1.
    10030    2    1    2    0    0  0.00000000000E+00  0.00000000000E+00  0.82684552849E+03  0.32104235143E+04  0.31021195356E+04 0.  0.
        4    1    3    3  502    0  0.26133091898E+03  0.49712023332E+03 -0.10828631687E+04  0.12198428713E+04  0.12699999809E+01 0. -1.
       -4    1    3    3    0  502 -0.26133091898E+03 -0.49712023332E+03  0.19097086972E+04  0.19905806431E+04  0.12699999809E+01 0.  1.
</event>
<event>
 5   0  0.1398931E-07  0.3099356E+04  0.7818609E-02  0.8215915E-01
        2   -1    0    0  501    0  0.00000000000E+00  0.00000000000E+00  0.23919955987E+04  0.23919955987E+04  0.25500000920E-02 0.  1.
       -2   -1    0    0    0  501  0.00000000000E+00  0.00000000000E+00 -0.10039744282E+04  0.10039744282E+04  0.25500000920E-02 0. -1.
    10030    2    1    2    0    0  0.00000000000E+00  0.00000000000E+00  0.13880211704E+04  0.33959700269E+04  0.30993563290E+04 0.  0.
        3    1    3    3  502    0 -0.89693427743E+03 -0.41695103252E+03 -0.61312212526E+03  0.11637259180E+04  0.10100000352E+00 0. -1.
       -3    1    3    3    0  502  0.89693427743E+03  0.41695103252E+03  0.20011432957E+04  0.22322441089E+04  0.10100000352E+00 0.  1.
</event>
<event>
 5   0  0.4436241E-08  0.3104095E+04  0.7818609E-02  0.8214615E-01
       -1   -1    0    0    0  501  0.00000000000E+00  0.00000000000E+00  0.20759153976E+04  0.20759153976E+04  0.50400001928E-02 0.  1.
        1   -1    0    0  501    0  0.00000000000E+00  0.00000000000E+00 -0.11603806285E+04  0.11603806285E+04  0.50400001928E-02 0. -1.
    10030    2    1    2    0    0  0.00000000000E+00  0.00000000000E+00  0.91553476915E+03  0.32362960261E+04  0.31040953682E+04 0.  0.
        3    1    3    3  502    0 -0.36685878777E+03  0.71803895725E+03  0.18404019901E+04  0.20092896281E+04  0.10100000352E+00 0.  1.
       -3    1    3    3    0  502  0.36685878777E+03 -0.71803895725E+03 -0.92486722091E+03  0.12270063980E+04  0.10100000352E+00 0. -1.
</event>
<event>
 5   0  0.1318916E-07  0.3101111E+04  0.7818609E-02  0.8215433E-01
        2   -1    0    0  501    0  0.00000000000E+00  0.00000000000E+00  0.17674814204E+04  0.17674814204E+04  0.25500000920E-02 0.  1.
       -2   -1    0    0    0  501  0.00000000000E+00  0.00000000000E+00 -0.13602534722E+04  0.13602534722E+04  0.25500000920E-02 0. -1.
    10030    2    1    2    0    0  0.00000000000E+00  0.00000000000E+00  0.40722794813E+03  0.31277348926E+04  0.31011112454E+04 0.  0.
        5    1    3    3  502    0 -0.95096759321E+01  0.38396245689E+02  0.17669652561E+04  0.17674142163E+04  0.46999998093E+01 0.  1.
       -5    1    3    3    0  502  0.95096759321E+01 -0.38396245689E+02 -0.13597373080E+04  0.13603206763E+04  0.46999998093E+01 0. -1.
</event>
<event>
 5   0  0.4450600E-08  0.3098768E+04  0.7818609E-02  0.8216076E-01
        1   -1    0    0  501    0  0.00000000000E+00  0.00000000000E+00  0.23014430941E+04  0.23014430942E+04  0.50400001928E-02 0. -1.
       -1   -1    0    0    0  501  0.00000000000E+00  0.00000000000E+00 -0.10430807279E+04  0.10430807279E+04  0.50400001928E-02 0.  1.
    10030    2    1    2    0    0  0.00000000000E+00  0.00000000000E+00  0.12583623662E+04  0.33445238221E+04  0.30987681023E+04 0.  0.
        4    1    3    3  502    0  0.86855972301E+03  0.12816856997E+04  0.69280633855E+03  0.16962005957E+04  0.12699999809E+01 0. -1.
       -4    1    3    3    0  502 -0.86855972301E+03 -0.12816856997E+04  0.56555602770E+03  0.16483232264E+04  0.12699999809E+01 0.  1.
</event>
<event>
 5   0  0.1329777E-07  0.3100967E+04  0.7818609E-02  0.8215473E-01
        2   -1    0    0  501    0  0.00000000000E+00  0.00000000000E+00  0.12404336258E+04  0.12404336258E+04  0.25500000920E-02 0. -1.
       -2   -1    0    0    0  501  0.00000000000E+00  0.00000000000E+00 -0.19380314570E+04  0.19380314570E+04  0.25500000920E-02 0.  1.
    10030    2    1    2    0    0  0.00000000000E+00  0.00000000000E+00 -0.69759783115E+03  0.31784650828E+04  0.31009671956E+04 0.  0.
        1    1    3    3  502    0 -0.61255474488E+03 -0.12507718336E+04  0.34966033986E+03  0.14359372718E+04  0.50400001928E-02 0. -1.
       -1    1    3    3    0  502  0.61255474488E+03  0.12507718336E+04 -0.10472581710E+04  0.17425278110E+04  0.50400001928E-02 0.  1.
</event>
<event>
 5   0  0.1377237E-07  0.3100408E+04  0.7818609E-02  0.8215626E-01
        2   -1    0    0  501    0  0.00000000000E+00  0.00000000000E+00  0.19349441114E+04  0.19349441114E+04  0.25500000920E-02 0. -1.
       -2   -1    0    0    0  501  0.00000000000E+00  0.00000000000E+00 -0.12419650535E+04  0.12419650536E+04  0.25500000920E-02 0.  1.
    10030    2    1    2    0    0  0.00000000000E+00  0.00000000000E+00  0.69297905788E+03  0.31769091650E+04  0.31004083389E+04 0.  0.
        2    1    3    3  502    0  0.12417622220E+04  0.87560422090E+03  0.66144451421E+03  0.16571556997E+04  0.25500000920E-02 0. -1.
       -2    1    3    3    0  502 -0.12417622220E+04 -0.87560422090E+03  0.31534543669E+02  0.15197534653E+04  0.25500000920E-02 0.  1.
</event>
<event>
 5   0  0.4838602E-08  0.3097003E+04  0.7818609E-02  0.8216561E-01
       -1   -1    0    0    0  501  0.00000000000E+00  0.00000000000E+00  0.26460518594E+04  0.26460518595E+04  0.50400001928E-02 0. -1.
        1   -1    0    0  501    0  0.00000000000E+00  0.00000000000E+00 -0.90620149375E+03  0.90620149376E+03  0.50400001928E-02 0.  1.
    10030    2    1    2    0    0  0.00000000000E+00  0.00000000000E+00  0.17398503657E+04  0.35522533532E+04  0.30970025170E+04 0.  0.
        5    1    3    3  502    0  0.78435009548E+03 -0.43453913173E+03 -0.57811272072E+03  0.10668953731E+04  0.46999998093E+01 0.  1.
       -5    1    3    3    0  502 -0.78435009548E+03  0.43453913173E+03  0.23179630864E+04  0.24853579801E+04  0.46999998093E+01 0. -1.
</event>
<event>
 5   0  0.1325713E-07  0.3099538E+04  0.7818609E-02  0.8215865E-01
       -2   -1    0    0    0  501  0.00000000000E+00  0.00000000000E+00  0.14283461382E+04  0.14283461382E+04  0.25500000920E-02 0. -1.
        2   -1    0    0  501    0  0.00000000000E+00  0.00000000000E+00 -0.16815140053E+04  0.16815140053E+04  0.25500000920E-02 0.  1.
    10030    2    1    2    0    0  0.00000000000E+00  0.00000000000E+00 -0.25316786716E+03  0.31098601435E+04  0.30995380532E+04 0.  0.
        4    1    3    3  502    0 -0.12554419568E+04 -0.84572812152E+03  0.20677524097E+03  0.15277919281E+04  0.12699999809E+01 0. -1.
       -4    1    3    3    0  502  0.12554419568E+04  0.84572812152E+03 -0.45994310813E+03  0.15820682154E+04  0.12699999809E+01 0.  1.
</event>
<event>
 5   0  0.1318916E-07  0.3100029E+04  0.7818609E-02  0.8215730E-01
       -2   -1    0    0    0  501  0.00000000000E+00  0.00000000000E+00  0.18530408637E+04  0.18530408637E+04  0.25500000920E-02 0. -1.
        2   -1    0    0  501    0  0.00000000000E+00  0.00000000000E+00 -0.12965416257E+04  0.12965416257E+04  0.25500000920E-02 0.  1.
    10030    2    1    2    0    0  0.00000000000E+00  0.00000000000E+00  0.55649923801E+03  0.31495824894E+04  0.31000287830E+04 0.  0.
        5    1    3    3  502    0 -0.81099535514E+03 -0.29603232983E+03 -0.10296406415E+04  0.13437003189E+04  0.46999998093E+01 0.  1.
       -5    1    3    3    0  502  0.81099535514E+03  0.29603232983E+03  0.15861398795E+04  0.18058821705E+04  0.46999998093E+01 0. -1.
</event>
<event>
 5   0  0.4450600E-08  0.3098360E+04  0.7818609E-02  0.8216188E-01
       -1   -1    0    0    0  501  0.00000000000E+00  0.00000000000E+00  0.10805130947E+04  0.10805130947E+04  0.50400001928E-02 0.  1.
        1   -1    0    0  501    0  0.00000000000E+00  0.00000000000E+00 -0.22211286099E+04  0.22211286099E+04  0.50400001928E-02 0. -1.
    10030    2    1    2    0    0  0.00000000000E+00  0.00000000000E+00 -0.11406155152E+04  0.33016417046E+04  0.30983599197E+04 0.  0.
        4    1    3    3  502    0 -0.13811437464E+04 -0.36399464810E+03  0.68975147930E+02  0.14299682989E+04  0.12699999809E+01 0. -1.
       -4    1    3    3    0  502  0.13811437464E+04  0.36399464810E+03 -0.12095906632E+04  0.18716734056E+04  0.12699999809E+01 0.  1.
</event>
<event>
 5   0  0.1398931E-07  0.3098975E+04  0.7818609E-02  0.8216019E-01
       -2   -1    0    0    0  501  0.00000000000E+00  0.00000000000E+00  0.11463799036E+04  0.11463799036E+04  0.25500000920E-02 0. -1.
        2   -1    0    0  501    0  0.00000000000E+00  0.00000000000E+00 -0.20943417630E+04  0.20943417630E+04  0.25500000920E-02 0.  1.
    10030    2    1    2    0    0  0.00000000000E+00  0.00000000000E+00 -0.94796185939E+03  0.32407216665E+04  0.30989748681E+04 0.  0.
        3    1    3    3  502    0 -0.89198977853E+03  0.99989445549E+03  0.33973414961E+03  0.13823364242E+04  0.10100000352E+00 0. -1.
       -3    1    3    3    0  502  0.89198977853E+03 -0.99989445549E+03 -0.12876960090E+04  0.18583852423E+04  0.10100000352E+00 0.  1.
</event>
<event>
 5   0  0.4838602E-08  0.3099230E+04  0.7818609E-02  0.8215949E-01
       -1   -1    0    0    0  501  0.00000000000E+00  0.00000000000E+00  0.13359380653E+04  0.13359380653E+04  0.50400001928E-02 0. -1.
        1   -1    0    0  501    0  0.00000000000E+00  0.00000000000E+00 -0.17974681459E+04  0.17974681459E+04  0.50400001928E-02 0.  1.
    10030    2    1    2    0    0  0.00000000000E+00  0.00000000000E+00 -0.46153008059E+03  0.31334062111E+04  0.30992296573E+04 0.  0.
        5    1    3    3  502    0 -0.10533922651E+04 -0.11250046824E+04 -0.39382977966E+03  0.15907214668E+04  0.46999998093E+01 0. -1.
       -5    1    3    3    0  502  0.10533922651E+04  0.11250046824E+04 -0.67700300929E+02  0.15426847443E+04  0.46999998093E+01 0.  1.
</event>
<event>
 5   0  0.4436241E-08  0.3103749E+04  0.7818609E-02  0.8214710E-01
        1   -1    0    0  501    0  0.00000000000E+00  0.00000000000E+00  0.19501478580E+04  0.19501478580E+04  0.50400001928E-02 0. -1.
       -1   -1    0    0    0  501  0.00000000000E+00  0.00000000000E+00 -0.12349394792E+04  0.12349394792E+04  0.50400001928E-02 0.  1.
    10030    2    1    2    0    0  0.00000000000E+00  0.00000000000E+00  0.71520837873E+03  0.31850873372E+04  0.31037490750E+04 0.  0.
        3    1    3    3  502    0 -0.39122157022E+03  0.14331467372E+03 -0.11764701754E+04  0.12480687066E+04  0.10100000352E+00 0.  1.
       -3    1    3    3    0  502  0.39122157022E+03 -0.14331467372E+03  0.18916785541E+04  0.19370186305E+04  0.10100000352E+00 0. -1.
</event>
<event>
 5   0  0.4436241E-08  0.3100061E+04  0.7818609E-02  0.8215721E-01
        1   -1    0    0  501    0  0.00000000000E+00  0.00000000000E+00  0.12231592610E+04  0.12231592610E+04  0.50400001928E-02 0. -1.
       -1   -1    0    0    0  501  0.00000000000E+00  0.00000000000E+00 -0.19642537579E+04  0.19642537579E+04  0.50400001928E-02 0.  1.
    10030    2    1    2    0    0  0.00000000000E+00  0.00000000000E+00 -0.74109449683E+03  0.31874130189E+04  0.31000614026E+04 0.  0.
        3    1    3    3  502    0  0.76938340804E+03  0.12445750594E+04 -0.89650521308E+03  0.17159951965E+04  0.10100000352E+00 0.  1.
       -3    1    3    3    0  502 -0.76938340804E+03 -0.12445750594E+04  0.15541071624E+03  0.14714178224E+04  0.10100000352E+00 0. -1.
</event>
<event>
 5   0  0.4470354E-08  0.3099523E+04  0.7818609E-02  0.8215869E-01
       -1   -1    0    0    0  501  0.00000000000E+00  0.00000000000E+00  0.16994057155E+04  0.16994057155E+04  0.50400001928E-02 0. -1.
        1   -1    0    0  501    0  0.00000000000E+00  0.00000000000E+00 -0.14132945263E+04  0.14132945263E+04  0.50400001928E-02 0.  1.
    10030    2    1    2    0    0  0.00000000000E+00  0.00000000000E+00  0.28611118926E+03  0.31127002418E+04  0.30995230573E+04 0.  0.
        1    1    3    3  502    0  0.21316560186E+03 -0.35797669863E+03 -0.13559973432E+04  0.14185611321E+04  0.50400001928E-02 0.  1.
       -1    1    3    3    0  502 -0.21316560186E+03  0.35797669863E+03  0.16421085325E+04  0.16941391097E+04  0.50400001928E-02 0. -1.
</event>
<event>
 5   0  0.1398931E-07  0.3100470E+04  0.7818609E-02  0.8215609E-01
        2   -1    0    0  501    0  0.00000000000E+00  0.00000000000E+00  0.23814943385E+04  0.23814943385E+04  0.25500000920E-02 0. -1.
       -2   -1    0    0    0  501  0.00000000000E+00  0.00000000000E+00 -0.10091262198E+04  0.10091262199E+04  0.25500000920E-02 0.  1.
    10030    2    1    2    0    0  0.00000000000E+00  0.00000000000E+00  0.13723681187E+04  0.33906205584E+04  0.31004698866E+04 0.  0.
        3    1    3    3  502    0 -0.94895329396E+03  0.50340302410E+03  0.19085051024E+04  0.21900499297E+04  0.10100000352E+00 0. -1.
       -3    1    3    3    0  502  0.94895329396E+03 -0.50340302410E+03 -0.53613698372E+03  0.12005706286E+04  0.10100000352E+00 0.  1.
</event>
<event>
 5   0  0.4305500E-08  0.3099676E+04  0.7818609E-02  0.8215827E-01
       -3   -1    0    0    0  501  0.00000000000E+00  0.00000000000E+00  0.10929514229E+04  0.10929514275E+04  0.10100000352E+00 0.  1.
        3   -1    0    0  501    0  0.00000000000E+00  0.00000000000E+00 -0.21977173637E+04  0.21977173660E+04  0.10100000352E+00 0. -1.
    10030    2    1    2    0    0  0.00000000000E+00  0.00000000000E+00 -0.11047659408E+04  0.32906687935E+04  0.30996763258E+04 0.  0.
        3    1    3    3  502    0  0.51399096396E+03 -0.69263376493E+03 -0.19193853397E+04  0.21042738262E+04  0.10100000352E+00 0. -1.
       -3    1    3    3    0  502 -0.51399096396E+03  0.69263376493E+03  0.81461939883E+03  0.11863949673E+04  0.10100000352E+00 0.  1.
</event>
<event>
 5   0  0.1398931E-07  0.3100738E+04  0.7818609E-02  0.8215536E-01
       -2   -1    0    0    0  501  0.00000000000E+00  0.00000000000E+00  0.96797417286E+03  0.96797417286E+03  0.25500000920E-02 0.  1.
        2   -1    0    0  501    0  0.00000000000E+00  0.00000000000E+00 -0.24831690072E+04  0.24831690072E+04  0.25500000920E-02 0. -1.
    10030    2    1    2    0    0  0.00000000000E+00  0.00000000000E+00 -0.15151948343E+04  0.34511431800E+04  0.31007376321E+04 0.  0.
        3    1    3    3  502    0 -0.84941082353E+03 -0.63941403365E+03  0.49832372761E+03  0.11741701756E+04  0.10100000352E+00 0.  1.
       -3    1    3    3    0  502  0.84941082353E+03  0.63941403365E+03 -0.20135185619E+04  0.22769730044E+04  0.10100000352E+00 0. -1.
</event>
<event>
 5   0  0.1318916E-07  0.3099639E+04  0.7818609E-02  0.8215837E-01
        2   -1    0    0  501    0  0.00000000000E+00  0.00000000000E+00  0.20934837305E+04  0.20934837305E+04  0.25500000920E-02 0.  1.
       -2   -1    0    0    0  501  0.00000000000E+00  0.00000000000E+00 -0.11473417124E+04  0.11473417124E+04  0.25500000920E-02 0. -1.
    10030    2    1    2    0    0  0.00000000000E+00  0.00000000000E+00  0.94614201815E+03  0.32408254429E+04  0.30996394682E+04 0.  0.
        5    1    3    3  502    0  0.67379084735E+03 -0.48355144706E+03 -0.89580123098E+03  0.12207776388E+04  0.46999998093E+01 0. -1.
       -5    1    3    3    0  502 -0.67379084735E+03  0.48355144706E+03  0.18419432491E+04  0.20200478041E+04  0.46999998093E+01 0.  1.
</event>
<event>
 5   0  0.4450600E-08  0.3100744E+04  0.7818609E-02  0.8215534E-01
        1   -1    0    0  501    0  0.00000000000E+00  0.00000000000E+00  0.27895615038E+04  0.27895615038E+04  0.50400001928E-02 0. -1.
       -1   -1    0    0    0  501  0.00000000000E+00  0.00000000000E+00 -0.86166019130E+03  0.86166019131E+03  0.50400001928E-02 0.  1.
    10030    2    1    2    0    0  0.00000000000E+00  0.00000000000E+00  0.19279013125E+04  0.36512216951E+04  0.31007444906E+04 0.  0.
        4    1    3    3  502    0 -0.10210611957E+04  0.58019655297E+03  0.21557946262E+04  0.24549228275E+04  0.12699999809E+01 0. -1.
       -4    1    3    3    0  502  0.10210611957E+04 -0.58019655297E+03 -0.22789331372E+03  0.11962988677E+04  0.12699999809E+01 0.  1.
</event>
<event>
 5   0  0.4450600E-08  0.3101418E+04  0.7818609E-02  0.8215349E-01
        1   -1    0    0  501    0  0.00000000000E+00  0.00000000000E+00  0.12947001683E+04  0.12947001683E+04  0.50400001928E-02 0.  1.
       -1   -1    0    0    0  501  0.00000000000E+00  0.00000000000E+00 -0.18573394349E+04  0.18573394349E+04  0.50400001928E-02 0. -1.
    10030    2    1    2    0    0  0.00000000000E+00  0.00000000000E+00 -0.56263926665E+03  0.31520396032E+04  0.31014175333E+04 0.  0.
        4    1    3    3  502    0  0.32330920426E+03  0.34423804298E+03  0.12198359235E+04  0.13080634407E+04  0.12699999809E+01 0.  1.
       -4    1    3    3    0  502 -0.32330920426E+03 -0.34423804298E+03 -0.17824751901E+04  0.18439761626E+04  0.12699999809E+01 0. -1.
</event>
<event>
 5   0  0.1377237E-07  0.3096659E+04  0.7818609E-02  0.8216656E-01
       -2   -1    0    0    0  501  0.00000000000E+00  0.00000000000E+00  0.14819211761E+04  0.14819211761E+04  0.25500000920E-02 0. -1.
        2   -1    0    0  501    0  0.00000000000E+00  0.00000000000E+00 -0.16177133923E+04  0.16177133923E+04  0.25500000920E-02 0.  1.
    10030    2    1    2    0    0  0.00000000000E+00  0.00000000000E+00 -0.13579221623E+03  0.30996345684E+04  0.30966586721E+04 0.  0.
        2    1    3    3  502    0  0.14794256023E+04 -0.60440684834E+02 -0.52106791610E+03  0.15696703355E+04  0.25500000920E-02 0.  1.
       -2    1    3    3    0  502 -0.14794256023E+04  0.60440684834E+02  0.38527569987E+03  0.15299642329E+04  0.25500000920E-02 0. -1.
</event>
<event>
 5   0  0.1398931E-07  0.3099706E+04  0.7818609E-02  0.8215818E-01
        2   -1    0    0  501    0  0.00000000000E+00  0.00000000000E+00  0.11355625841E+04  0.11355625841E+04  0.25500000920E-02 0.  1.
       -2   -1    0    0    0  501  0.00000000000E+00  0.00000000000E+00 -0.21152907922E+04  0.21152907922E+04  0.25500000920E-02 0. -1.
    10030    2    1    2    0    0  0.00000000000E+00  0.00000000000E+00 -0.97972820806E+03  0.32508533763E+04  0.30997064881E+04 0.  0.
        3    1    3    3  502    0 -0.70101430657E+03 -0.16608120764E+03  0.94928801838E+03  0.11917012115E+04  0.10100000352E+00 0.  1.
       -3    1    3    3    0  502  0.70101430657E+03  0.16608120764E+03 -0.19290162264E+04  0.20591521647E+04  0.10100000352E+00 0. -1.
</event>
<event>
 5   0  0.4470354E-08  0.3099890E+04  0.7818609E-02  0.8215768E-01
       -1   -1    0    0    0  501  0.00000000000E+00  0.00000000000E+00  0.85403014382E+03  0.85403014384E+03  0.50400001928E-02 0. -1.
        1   -1    0    0  501    0  0.00000000000E+00  0.00000000000E+00 -0.28129325252E+04  0.28129325253E+04  0.50400001928E-02 0.  1.
    10030    2    1    2    0    0  0.00000000000E+00  0.00000000000E+00 -0.19589023814E+04  0.36669626691E+04  0.30998897846E+04 0.  0.
        1    1    3    3  502    0  0.23036605951E+03 -0.12554905126E+04  0.60591505158E+02  0.12778874282E+04  0.50400001928E-02 0. -1.
       -1    1    3    3    0  502 -0.23036605951E+03  0.12554905126E+04 -0.20194938866E+04  0.23890752409E+04  0.50400001928E-02 0.  1.
</event>
<event>
 5   0  0.1318916E-07  0.3100295E+04  0.7818609E-02  0.8215657E-01
        2   -1    0    0  501    0  0.00000000000E+00  0.00000000000E+00  0.15745871223E+04  0.15745871223E+04  0.25500000920E-02 0.  1.
       -2   -1    0    0    0  501  0.00000000000E+00  0.00000000000E+00 -0.15260875964E+04  0.15260875964E+04  0.25500000920E-02 0. -1.
    10030    2    1    2    0    0  0.00000000000E+00  0.00000000000E+00  0.48499525850E+02  0.31006747187E+04  0.31002953903E+04 0.  0.
        5    1    3    3  502    0  0.60199295630E+03  0.21960312815E+03 -0.13874167317E+04  0.15282566312E+04  0.46999998093E+01 0. -1.
       -5    1    3    3    0  502 -0.60199295630E+03 -0.21960312815E+03  0.14359162575E+04  0.15724180875E+04  0.46999998093E+01 0.  1.
</event>
<event>
 5   0  0.4450600E-08  0.3099803E+04  0.7818609E-02  0.8215792E-01
       -1   -1    0    0    0  501  0.00000000000E+00  0.00000000000E+00  0.13492756887E+04  0.13492756887E+04  0.50400001928E-02 0. -1.
        1   -1    0    0  501    0  0.00000000000E+00  0.00000000000E+00 -0.17803590660E+04  0.17803590660E+04  0.50400001928E-02 0.  1.
    10030    2    1    2    0    0  0.00000000000E+00  0.00000000000E+00 -0.43108337729E+03  0.31296347547E+04  0.30998033517E+04 0.  0.
        4    1    3    3  502    0  0.87865404185E+03 -0.88263521070E+03 -0.11469794196E+04  0.16931158384E+04  0.12699999809E+01 0.  1.
       -4    1    3    3    0  502 -0.87865404185E+03  0.88263521070E+03  0.71589604231E+03  0.14365189162E+04  0.12699999809E+01 0. -1.
</event>
<event>
 5   0  0.4838602E-08  0.3096849E+04  0.7818609E-02  0.8216603E-01
        1   -1    0    0  501    0  0.00000000000E+00  0.00000000000E+00  0.95398421321E+03  0.95398421322E+03  0.50400001928E-02 0.  1.
       -1   -1    0    0    0  501  0.00000000000E+00  0.00000000000E+00 -0.25132683071E+04  0.25132683071E+04  0.50400001928E-02 0. -1.
    10030    2    1    2    0    0  0.00000000000E+00  0.00000000000E+00 -0.15592840939E+04  0.34672525203E+04  0.30968489072E+04 0.  0.
        5    1    3    3  502    0  0.92963227671E+03  0.68253001195E+03  0.37715207100E+03  0.12133957152E+04  0.46999998093E+01 0.  1.
       -5    1    3    3    0  502 -0.92963227671E+03 -0.68253001195E+03 -0.19364361649E+04  0.22538568051E+04  0.46999998093E+01 0. -1.
</event>
<event>
 5   0  0.1377237E-07  0.3099472E+04  0.7818609E-02  0.8215883E-01
       -2   -1    0    0    0  501  0.00000000000E+00  0.00000000000E+00  0.14679155478E+04  0.14679155478E+04  0.25500000920E-02 0. -1.
        2   -1    0    0  501    0  0.00000000000E+00  0.00000000000E+00 -0.16361169584E+04  0.16361169584E+04  0.25500000920E-02 0.  1.
    10030    2    1    2    0    0  0.00000000000E+00  0.00000000000E+00 -0.16820141057E+03  0.31040325062E+04  0.30994719042E+04 0.  0.
        2    1    3    3  502    0 -0.15178607142E+04 -0.20724777586E+03  0.15039919458E+03  0.15393091652E+04  0.25500000920E-02 0.  1.
       -2    1    3    3    0  502  0.15178607142E+04  0.20724777586E+03 -0.31860060515E+03  0.15647233410E+04  0.25500000920E-02 0. -1.
</event>
<event>
 5   0  0.4470354E-08  0.3099830E+04  0.7818609E-02  0.8215785E-01
        1   -1    0    0  501    0  0.00000000000E+00  0.00000000000E+00  0.15878025537E+04  0.15878025537E+04  0.50400001928E-02 0. -1.
       -1   -1    0    0    0  501  0.00000000000E+00  0.00000000000E+00 -0.15129316594E+04  0.15129316594E+04  0.50400001928E-02 0.  1.
    10030    2    1    2    0    0  0.00000000000E+00  0.00000000000E+00  0.74870894284E+02  0.31007342131E+04  0.30998301581E+04 0.  0.
        1    1    3    3  502    0 -0.10948023834E+04 -0.71350622406E+03  0.87107718627E+03  0.15704963721E+04  0.50400001928E-02 0.  1.
       -1    1    3    3    0  502  0.10948023834E+04  0.71350622406E+03 -0.79620629199E+03  0.15302378409E+04  0.50400001928E-02 0. -1.
</event>
<event>
 5   0  0.4517409E-08  0.3099604E+04  0.7818609E-02  0.8215846E-01
        1   -1    0    0  501    0  0.00000000000E+00  0.00000000000E+00  0.87988779294E+03  0.87988779295E+03  0.50400001928E-02 0. -1.
       -1   -1    0    0    0  501  0.00000000000E+00  0.00000000000E+00 -0.27297649412E+04  0.27297649412E+04  0.50400001928E-02 0.  1.
    10030    2    1    2    0    0  0.00000000000E+00  0.00000000000E+00 -0.18498771483E+04  0.36096527342E+04  0.30996043937E+04 0.  0.
        2    1    3    3  502    0 -0.14011290832E+04 -0.35981128252E+03 -0.15725597165E+04  0.21367196655E+04  0.25500000920E-02 0.  1.
       -2    1    3    3    0  502  0.14011290832E+04  0.35981128252E+03 -0.27731743179E+03  0.14729330687E+04  0.25500000920E-02 0. -1.
</event>
<event>
 5   0  0.1318916E-07  0.3102103E+04  0.7818609E-02  0.8215161E-01
        2   -1    0    0  501    0  0.00000000000E+00  0.00000000000E+00  0.10670180898E+04  0.10670180898E+04  0.25500000920E-02 0.  1.
       -2   -1    0    0    0  501  0.00000000000E+00  0.00000000000E+00 -0.22546583243E+04  0.22546583243E+04  0.25500000920E-02 0. -1.
    10030    2    1    2    0    0  0.00000000000E+00  0.00000000000E+00 -0.11876402345E+04  0.33216764141E+04  0.31021032983E+04 0.  0.
        5    1    3    3  502    0 -0.11496293547E+04  0.10019732921E+04 -0.29069045360E+03  0.15524564925E+04  0.46999998093E+01 0.  1.
       -5    1    3    3    0  502  0.11496293547E+04 -0.10019732921E+04 -0.89694978088E+03  0.17692199215E+04  0.46999998093E+01 0. -1.
</event>
<event>
 5   0  0.1325713E-07  0.3099260E+04  0.7818609E-02  0.8215941E-01
        2   -1    0    0  501    0  0.00000000000E+00  0.00000000000E+00  0.17095496622E+04  0.17095496622E+04  0.25500000920E-02 0. -1.
       -2   -1    0    0    0  501  0.00000000000E+00  0.00000000000E+00 -0.14046703068E+04  0.14046703068E+04  0.25500000920E-02 0.  1.
    10030    2    1    2    0    0  0.00000000000E+00  0.00000000000E+00  0.30487935537E+03  0.31142199690E+04  0.30992603302E+04 0.  0.
        4    1    3    3  502    0 -0.30615861107E+03 -0.12544880992E+04 -0.70836243590E+03  0.14728382259E+04  0.12699999809E+01 0.  1.
       -4    1    3    3    0  502  0.30615861107E+03  0.12544880992E+04  0.10132417913E+04  0.16413817431E+04  0.12699999809E+01 0. -1.
</event>
<event>
 5   0  0.4517409E-08  0.3100209E+04  0.7818609E-02  0.8215680E-01
        1   -1    0    0  501    0  0.00000000000E+00  0.00000000000E+00  0.19615483588E+04  0.19615483588E+04  0.50400001928E-02 0.  1.
       -1   -1    0    0    0  501  0.00000000000E+00  0.00000000000E+00 -0.12249630698E+04  0.12249630698E+04  0.50400001928E-02 0. -1.
    10030    2    1    2    0    0  0.00000000000E+00  0.00000000000E+00  0.73658528898E+03  0.31865114286E+04  0.31002092182E+04 0.  0.
        2    1    3    3  502    0 -0.45874025895E+02 -0.14349640644E+04  0.96902654567E+03  0.17321197241E+04  0.25500000920E-02 0. -1.
       -2    1    3    3    0  502  0.45874025895E+02  0.14349640644E+04 -0.23244125669E+03  0.14543917045E+04  0.25500000920E-02 0.  1.
</event>
<event>
 5   0  0.4436241E-08  0.3099703E+04  0.7818609E-02  0.8215820E-01
        1   -1    0    0  501    0  0.00000000000E+00  0.00000000000E+00  0.23447514714E+04  0.23447514714E+04  0.50400001928E-02 0.  1.
       -1   -1    0    0    0  501  0.00000000000E+00  0.00000000000E+00 -0.10244322370E+04  0.10244322370E+04  0.50400001928E-02 0. -1.
    10030    2    1    2    0    0  0.00000000000E+00  0.00000000000E+00  0.13203192344E+04  0.33691837084E+04  0.30997025632E+04 0.  0.
        3    1    3    3  502    0  0.55538904750E+03 -0.46409268150E+03  0.21497799260E+04  0.22683458183E+04  0.10100000352E+00 0.  1.
       -3    1    3    3    0  502 -0.55538904750E+03  0.46409268150E+03 -0.82946069158E+03  0.11008378901E+04  0.10100000352E+00 0. -1.
</event>
<event>
 5   0  0.4517409E-08  0.3099242E+04  0.7818609E-02  0.8215946E-01
       -1   -1    0    0    0  501  0.00000000000E+00  0.00000000000E+00  0.11946150476E+04  0.11946150476E+04  0.50400001928E-02 0.  1.
        1   -1    0    0  501    0  0.00000000000E+00  0.00000000000E+00 -0.20101243860E+04  0.20101243860E+04  0.50400001928E-02 0. -1.
    10030    2    1    2    0    0  0.00000000000E+00  0.00000000000E+00 -0.81550933846E+03  0.32047394336E+04  0.30992417389E+04 0.  0.
        2    1    3    3  502    0  0.12372755815E+04 -0.60092415134E+03  0.33023699245E+03  0.14145731410E+04  0.25500000920E-02 0.  1.
       -2    1    3    3    0  502 -0.12372755815E+04  0.60092415134E+03 -0.11457463309E+04  0.17901662926E+04  0.25500000920E-02 0. -1.
</event>
<event>
 5   0  0.1398931E-07  0.3100547E+04  0.7818609E-02  0.8215588E-01
        2   -1    0    0  501    0  0.00000000000E+00  0.00000000000E+00  0.11877138849E+04  0.11877138849E+04  0.25500000920E-02 0.  1.
       -2   -1    0    0    0  501  0.00000000000E+00  0.00000000000E+00 -0.20235079201E+04  0.20235079201E+04  0.25500000920E-02 0. -1.
    10030    2    1    2    0    0  0.00000000000E+00  0.00000000000E+00 -0.83579403522E+03  0.32112218050E+04  0.31005473407E+04 0.  0.
        3    1    3    3  502    0 -0.13202351164E+04 -0.79626694702E+03 -0.24997819273E+03  0.15619061818E+04  0.10100000352E+00 0.  1.
       -3    1    3    3    0  502  0.13202351164E+04  0.79626694702E+03 -0.58581584249E+03  0.16493156233E+04  0.10100000352E+00 0. -1.
</event>
<event>
 5   0  0.4305500E-08  0.3098593E+04  0.7818609E-02  0.8216124E-01
        3   -1    0    0  501    0  0.00000000000E+00  0.00000000000E+00  0.13366683488E+04  0.13366683526E+04  0.10100000352E+00 0.  1.
       -3   -1    0    0    0  501  0.00000000000E+00  0.00000000000E+00 -0.17957475249E+04  0.17957475278E+04  0.10100000352E+00 0. -1.
    10030    2    1    2    0    0  0.00000000000E+00  0.00000000000E+00 -0.45907917617E+03  0.31324158804E+04  0.30985925123E+04 0.  0.
        4    1    3    3  502    0  0.13271803961E+04 -0.72977187428E+03  0.10012200320E+03  0.15178935472E+04  0.12699999809E+01 0. -1.
       -4    1    3    3    0  502 -0.13271803961E+04  0.72977187428E+03 -0.55920117937E+03  0.16145223331E+04  0.12699999809E+01 0.  1.
</event>
<event>
 5   0  0.4450600E-08  0.3094702E+04  0.7818609E-02  0.8217193E-01
        1   -1    0    0  501    0  0.00000000000E+00  0.00000000000E+00  0.20011360313E+04  0.20011360313E+04  0.50400001928E-02 0.  1.
       -1   -1    0    0    0  501  0.00000000000E+00  0.00000000000E+00 -0.11964682222E+04  0.11964682222E+04  0.50400001928E-02 0. -1.
    10030    2    1    2    0    0  0.00000000000E+00  0.00000000000E+00  0.80466780909E+03  0.31976042535E+04  0.30947023571E+04 0.  0.
        4    1    3    3  502    0  0.59759762986E+03  0.43197252617E+03 -0.10032561889E+04  0.12450894683E+04  0.12699999809E+01 0. -1.
       -4    1    3    3    0  502 -0.59759762986E+03 -0.43197252617E+03  0.18079239980E+04  0.19525147851E+04  0.12699999809E+01 0.  1.
</event>
<event>
 5   0  0.4436241E-08  0.3100828E+04  0.7818609E-02  0.8215511E-01
        1   -1    0    0  501    0  0.00000000000E+00  0.00000000000E+00  0.18553475577E+04  0.18553475577E+04  0.50400001928E-02 0. -1.
       -1   -1    0    0    0  501  0.00000000000E+00  0.00000000000E+00 -0.12955974818E+04  0.12955974818E+04  0.50400001928E-02 0.  1.
    10030    2    1    2    0    0  0.00000000000E+00  0.00000000000E+00  0.55975007596E+03  0.31509450395E+04  0.31008280337E+04 0.  0.
        3    1    3    3  502    0  0.49622065348E+03  0.28207218210E+03  0.17446949734E+04  0.18356906638E+04  0.10100000352E+00 0. -1.
       -3    1    3    3    0  502 -0.49622065348E+03 -0.28207218210E+03 -0.11849448974E+04  0.13152543757E+04  0.10100000352E+00 0.  1.
</event>
<event>
 5   0  0.1329777E-07  0.3099019E+04  0.7818609E-02  0.8216007E-01
       -2   -1    0    0    0  501  0.00000000000E+00  0.00000000000E+00  0.14091531839E+04  0.14091531839E+04  0.25500000920E-02 0. -1.
        2   -1    0    0  501    0  0.00000000000E+00  0.00000000000E+00 -0.17038453000E+04  0.17038453000E+04  0.25500000920E-02 0.  1.
    10030    2    1    2    0    0  0.00000000000E+00  0.00000000000E+00 -0.29469211607E+03  0.31129984839E+04  0.30990185733E+04 0.  0.
        1    1    3    3  502    0  0.40271163100E+03 -0.14219549322E+04  0.32042245075E+03  0.15122179188E+04  0.50400001928E-02 0.  1.
       -1    1    3    3    0  502 -0.40271163100E+03  0.14219549322E+04 -0.61511456682E+03  0.16007805650E+04  0.50400001928E-02 0. -1.
</event>
<event>
 5   0  0.4470354E-08  0.3100829E+04  0.7818609E-02  0.8215510E-01
        1   -1    0    0  501    0  0.00000000000E+00  0.00000000000E+00  0.22369467270E+04  0.22369467270E+04  0.50400001928E-02 0.  1.
       -1   -1    0    0    0  501  0.00000000000E+00  0.00000000000E+00 -0.10745830765E+04  0.10745830765E+04  0.50400001928E-02 0. -1.
    10030    2    1    2    0    0  0.00000000000E+00  0.00000000000E+00  0.11623636505E+04  0.33115298035E+04  0.31008289832E+04 0.  0.
        1    1    3    3  502    0 -0.45588507486E+03 -0.88385538699E+03  0.18514378089E+04  0.21016311538E+04  0.50400001928E-02 0.  1.
       -1    1    3    3    0  502  0.45588507486E+03  0.88385538699E+03 -0.68907415838E+03  0.12098986496E+04  0.50400001928E-02 0. -1.
</event>
<event>
 5   0  0.1398931E-07  0.3100592E+04  0.7818609E-02  0.8215575E-01
        2   -1    0    0  501    0  0.00000000000E+00  0.00000000000E+00  0.17735421693E+04  0.17735421693E+04  0.25500000920E-02 0.  1.
       -2   -1    0    0    0  501  0.00000000000E+00  0.00000000000E+00 -0.13551511196E+04  0.13551511196E+04  0.25500000920E-02 0. -1.
    10030    2    1    2    0    0  0.00000000000E+00  0.00000000000E+00  0.41839104969E+03  0.31286932889E+04  0.31005919799E+04 0.  0.
        3    1    3    3  502    0  0.10441674048E+04 -0.11451886856E+04  0.25049261700E+03  0.15698691844E+04  0.10100000352E+00 0. -1.
       -3    1    3    3    0  502 -0.10441674048E+04  0.11451886856E+04  0.16789843269E+03  0.15588241045E+04  0.10100000352E+00 0.  1.
</event>
<event>
 5   0  0.1398931E-07  0.3099912E+04  0.7818609E-02  0.8215762E-01
       -2   -1    0    0    0  501  0.00000000000E+00  0.00000000000E+00  0.14630287161E+04  0.14630287161E+04  0.25500000920E-02 0.  1.
        2   -1    0    0  501    0  0.00000000000E+00  0.00000000000E+00 -0.16420478958E+04  0.16420478958E+04  0.25500000920E-02 0. -1.
    10030    2    1    2    0    0  0.00000000000E+00  0.00000000000E+00 -0.17901917964E+03  0.31050766119E+04  0.30999117567E+04 0.  0.
        3    1    3    3  502    0 -0.45491533947E+02  0.61872709315E+03 -0.15122530154E+04  0.16345647397E+04  0.10100000352E+00 0. -1.
       -3    1    3    3    0  502  0.45491533947E+02 -0.61872709315E+03  0.13332338357E+04  0.14705118722E+04  0.10100000352E+00 0.  1.
</event>
<event>
 5   0  0.1325713E-07  0.3100253E+04  0.7818609E-02  0.8215668E-01
        2   -1    0    0  501    0  0.00000000000E+00  0.00000000000E+00  0.15123240159E+04  0.15123240159E+04  0.25500000920E-02 0. -1.
       -2   -1    0    0    0  501  0.00000000000E+00  0.00000000000E+00 -0.15888742894E+04  0.15888742894E+04  0.25500000920E-02 0.  1.
    10030    2    1    2    0    0  0.00000000000E+00  0.00000000000E+00 -0.76550273485E+02  0.31011983053E+04  0.31002533742E+04 0.  0.
        4    1    3    3  502    0  0.15045565591E+04 -0.34469663216E+03  0.10454416787E+03  0.15470737874E+04  0.12699999809E+01 0.  1.
       -4    1    3    3    0  502 -0.15045565591E+04  0.34469663216E+03 -0.18109444135E+03  0.15541245179E+04  0.12699999809E+01 0. -1.
</event>
<event>
 5   0  0.4436241E-08  0.3094374E+04  0.7818609E-02  0.8217283E-01
       -1   -1    0    0    0  501  0.00000000000E+00  0.00000000000E+00  0.12958353912E+04  0.12958353912E+04  0.50400001928E-02 0. -1.
        1   -1    0    0  501    0  0.00000000000E+00  0.00000000000E+00 -0.18472935125E+04  0.18472935125E+04  0.50400001928E-02 0.  1.
    10030    2    1    2    0    0  0.00000000000E+00  0.00000000000E+00 -0.55145812131E+03  0.31431289037E+04  0.30943744515E+04 0.  0.
        3    1    3    3  502    0  0.12327269990E+04 -0.63468273611E+03 -0.97309576224E+03  0.16939165866E+04  0.10100000352E+00 0.  1.
       -3    1    3    3    0  502 -0.12327269990E+04  0.63468273611E+03  0.42163764093E+03  0.14492123171E+04  0.10100000352E+00 0. -1.
</event>
<event>
 5   0  0.1325713E-07  0.3101452E+04  0.7818609E-02  0.8215340E-01
       -2   -1    0    0    0  501  0.00000000000E+00  0.00000000000E+00  0.16105404138E+04  0.16105404138E+04  0.25500000920E-02 0. -1.
        2   -1    0    0  501    0  0.00000000000E+00  0.00000000000E+00 -0.14931327928E+04  0.14931327928E+04  0.25500000920E-02 0.  1.
    10030    2    1    2    0    0  0.00000000000E+00  0.00000000000E+00  0.11740762100E+03  0.31036732067E+04  0.31014517285E+04 0.  0.
        4    1    3    3  502    0 -0.18231000073E+03  0.14279957631E+04 -0.51819871058E+03  0.15300131870E+04  0.12699999809E+01 0.  1.
       -4    1    3    3    0  502  0.18231000073E+03 -0.14279957631E+04  0.63560633158E+03  0.15736600197E+04  0.12699999809E+01 0. -1.
</event>
<event>
 5   0  0.4838602E-08  0.3100951E+04  0.7818609E-02  0.8215477E-01
        1   -1    0    0  501    0  0.00000000000E+00  0.00000000000E+00  0.19663483459E+04  0.19663483459E+04  0.50400001928E-02 0.  1.
       -1   -1    0    0    0  501  0.00000000000E+00  0.00000000000E+00 -0.12225574680E+04  0.12225574680E+04  0.50400001928E-02 0. -1.
    10030    2    1    2    0    0  0.00000000000E+00  0.00000000000E+00  0.74379087795E+03  0.31889058140E+04  0.31009507284E+04 0.  0.
        5    1    3    3  502    0 -0.74940459003E+03  0.11187116957E+04  0.11623512678E+04  0.17788214237E+04  0.46999998093E+01 0.  1.
       -5    1    3    3    0  502  0.74940459003E+03 -0.11187116957E+04 -0.41856038988E+03  0.14100843902E+04  0.46999998093E+01 0. -1.
</event>
<event>
 5   0  0.1329777E-07  0.3100573E+04  0.7818609E-02  0.8215581E-01
       -2   -1    0    0    0  501  0.00000000000E+00  0.00000000000E+00  0.13012966693E+04  0.13012966693E+04  0.25500000920E-02 0.  1.
        2   -1    0    0  501    0  0.00000000000E+00  0.00000000000E+00 -0.18469184112E+04  0.18469184112E+04  0.25500000920E-02 0. -1.
    10030    2    1    2    0    0  0.00000000000E+00  0.00000000000E+00 -0.54562174185E+03  0.31482150805E+04  0.31005733514E+04 0.  0.
        1    1    3    3  502    0 -0.70461233978E+03 -0.58221329984E+03  0.99860261580E+03  0.13537570167E+04  0.50400001928E-02 0.  1.
       -1    1    3    3    0  502  0.70461233978E+03  0.58221329984E+03 -0.15442243576E+04  0.17944580638E+04  0.50400001928E-02 0. -1.
</event>
<event>
 5   0  0.4517409E-08  0.3100172E+04  0.7818609E-02  0.8215691E-01
       -1   -1    0    0    0  501  0.00000000000E+00  0.00000000000E+00  0.11933226158E+04  0.11933226159E+04  0.50400001928E-02 0. -1.
        1   -1    0    0  501    0  0.00000000000E+00  0.00000000000E+00 -0.20135092279E+04  0.20135092279E+04  0.50400001928E-02 0.  1.
    10030    2    1    2    0    0  0.00000000000E+00  0.00000000000E+00 -0.82018661201E+03  0.32068318437E+04  0.31001716719E+04 0.  0.
        2    1    3    3  502    0 -0.60024360835E+03  0.50295153545E+03 -0.17938442460E+04  0.19573272121E+04  0.25500000920E-02 0.  1.
       -2    1    3    3    0  502  0.60024360835E+03 -0.50295153545E+03  0.97365763394E+03  0.12495046316E+04  0.25500000920E-02 0. -1.
</event>
<event>
 5   0  0.1318916E-07  0.3099937E+04  0.7818609E-02  0.8215755E-01
       -2   -1    0    0    0  501  0.00000000000E+00  0.00000000000E+00  0.11824903243E+04  0.11824903243E+04  0.25500000920E-02 0.  1.
        2   -1    0    0  501    0  0.00000000000E+00  0.00000000000E+00 -0.20316469039E+04  0.20316469039E+04  0.25500000920E-02 0. -1.
    10030    2    1    2    0    0  0.00000000000E+00  0.00000000000E+00 -0.84915657963E+03  0.32141372282E+04  0.30999372937E+04 0.  0.
        5    1    3    3  502    0 -0.15403397992E+04 -0.46175941005E+02 -0.25231996384E+03  0.15615589546E+04  0.46999998093E+01 0. -1.
       -5    1    3    3    0  502  0.15403397992E+04  0.46175941005E+02 -0.59683661579E+03  0.16525782736E+04  0.46999998093E+01 0.  1.
</event>
<event>
 5   0  0.4436241E-08  0.3099297E+04  0.7818609E-02  0.8215931E-01
        1   -1    0    0  501    0  0.00000000000E+00  0.00000000000E+00  0.16949814441E+04  0.16949814441E+04  0.50400001928E-02 0. -1.
       -1   -1    0    0    0  501  0.00000000000E+00  0.00000000000E+00 -0.14167770831E+04  0.14167770831E+04  0.50400001928E-02 0.  1.
    10030    2    1    2    0    0  0.00000000000E+00  0.00000000000E+00  0.27820436098E+03  0.31117585273E+04  0.30992972535E+04 0.  0.
        3    1    3    3  502    0 -0.84269708686E+03 -0.12429602258E+04  0.52316122325E+03  0.15902157649E+04  0.10100000352E+00 0. -1.
       -3    1    3    3    0  502  0.84269708686E+03  0.12429602258E+04 -0.24495686227E+03  0.15215427624E+04  0.10100000352E+00 0.  1.
</event>
<event>
 5   0  0.4436241E-08  0.3096004E+04  0.7818609E-02  0.8216835E-01
       -1   -1    0    0    0  501  0.00000000000E+00  0.00000000000E+00  0.19416127555E+04  0.19416127555E+04  0.50400001928E-02 0.  1.
        1   -1    0    0  501    0  0.00000000000E+00  0.00000000000E+00 -0.12341857671E+04  0.12341857671E+04  0.50400001928E-02 0. -1.
    10030    2    1    2    0    0  0.00000000000E+00  0.00000000000E+00  0.70742698839E+03  0.31757985226E+04  0.30960044109E+04 0.  0.
        3    1    3    3  502    0  0.10836428695E+04  0.46971132431E+03 -0.67277766445E+03  0.13592425805E+04  0.10100000352E+00 0. -1.
       -3    1    3    3    0  502 -0.10836428695E+04 -0.46971132431E+03  0.13802046528E+04  0.18165559421E+04  0.10100000352E+00 0.  1.
</event>
<event>
 5   0  0.4305500E-08  0.3099706E+04  0.7818609E-02  0.8215818E-01
       -3   -1    0    0    0  501  0.00000000000E+00  0.00000000000E+00  0.21658649769E+04  0.21658649792E+04  0.10100000352E+00 0. -1.
        3   -1    0    0  501    0  0.00000000000E+00  0.00000000000E+00 -0.11090464735E+04  0.11090464781E+04  0.10100000352E+00 0.  1.
    10030    2    1    2    0    0  0.00000000000E+00  0.00000000000E+00  0.10568185034E+04  0.32749114573E+04  0.30997063900E+04 0.  0.
        5    1    3    3  502    0 -0.47155514647E+03  0.99495361890E+03 -0.62398864705E+03  0.12655753164E+04  0.46999998093E+01 0.  1.
       -5    1    3    3    0  502  0.47155514647E+03 -0.99495361890E+03  0.16808071505E+04  0.20093361409E+04  0.46999998093E+01 0. -1.
</event>
<event>
 5   0  0.4436241E-08  0.3100203E+04  0.7818609E-02  0.8215682E-01
       -1   -1    0    0    0  501  0.00000000000E+00  0.00000000000E+00  0.20163704024E+04  0.20163704024E+04  0.50400001928E-02 0.  1.
        1   -1    0    0  501    0  0.00000000000E+00  0.00000000000E+00 -0.11916534837E+04  0.11916534837E+04  0.50400001928E-02 0. -1.
    10030    2    1    2    0    0  0.00000000000E+00  0.00000000000E+00  0.82471691869E+03  0.32080238862E+04  0.31002030995E+04 0.  0.
        3    1    3    3  502    0  0.34766152248E+03  0.13365638584E+04  0.11407891935E+04  0.17912764934E+04  0.10100000352E+00 0. -1.
       -3    1    3    3    0  502 -0.34766152248E+03 -0.13365638584E+04 -0.31607227477E+03  0.14167473927E+04  0.10100000352E+00 0.  1.
</event>
<event>
 5   0  0.4450600E-08  0.3099840E+04  0.7818609E-02  0.8215782E-01
        1   -1    0    0  501    0  0.00000000000E+00  0.00000000000E+00  0.18741246483E+04  0.18741246483E+04  0.50400001928E-02 0. -1.
       -1   -1    0    0    0  501  0.00000000000E+00  0.00000000000E+00 -0.12817992736E+04  0.12817992736E+04  0.50400001928E-02 0.  1.
    10030    2    1    2    0    0  0.00000000000E+00  0.00000000000E+00  0.59232537470E+03  0.31559239219E+04  0.30998397460E+04 0.  0.
        4    1    3    3  502    0 -0.93653397180E+03 -0.69249308280E+03 -0.74488738175E+03  0.13825705676E+04  0.12699999809E+01 0.  1.
       -4    1    3    3    0  502  0.93653397180E+03  0.69249308280E+03  0.13372127565E+04  0.17733533542E+04  0.12699999809E+01 0. -1.
</event>
<event>
 5   0  0.4838602E-08  0.3101011E+04  0.7818609E-02  0.8215461E-01
        1   -1    0    0  501    0  0.00000000000E+00  0.00000000000E+00  0.11823502736E+04  0.11823502736E+04  0.50400001928E-02 0.  1.
       -1   -1    0    0    0  501  0.00000000000E+00  0.00000000000E+00 -0.20332947864E+04  0.20332947864E+04  0.50400001928E-02 0. -1.
    10030    2    1    2    0    0  0.00000000000E+00  0.00000000000E+00 -0.85094451280E+03  0.32156450601E+04  0.31010105754E+04 0.  0.
        5    1    3    3  502    0  0.11623015682E+04 -0.56389121783E+03  0.46361798476E+03  0.13725457977E+04  0.46999998093E+01 0.  1.
       -5    1    3    3    0  502 -0.11623015682E+04  0.56389121783E+03 -0.13145624976E+04  0.18430992624E+04  0.46999998093E+01 0. -1.
</event>
<event>
 5   0  0.1318916E-07  0.3099033E+04  0.7818609E-02  0.8216003E-01
       -2   -1    0    0    0  501  0.00000000000E+00  0.00000000000E+00  0.78862196479E+03  0.78862196479E+03  0.25500000920E-02 0. -1.
        2   -1    0    0  501    0  0.00000000000E+00  0.00000000000E+00 -0.30445522257E+04  0.30445522257E+04  0.25500000920E-02 0.  1.
    10030    2    1    2    0    0  0.00000000000E+00  0.00000000000E+00 -0.22559302610E+04  0.38331741905E+04  0.30990325963E+04 0.  0.
        5    1    3    3  502    0 -0.97283853092E+03  0.10445332900E+04 -0.18737147180E+04  0.23554815931E+04  0.46999998093E+01 0. -1.
       -5    1    3    3    0  502  0.97283853092E+03 -0.10445332900E+04 -0.38221554299E+03  0.14776925974E+04  0.46999998093E+01 0.  1.
</event>
<event>
 5   0  0.4305500E-08  0.3100614E+04  0.7818609E-02  0.8215569E-01
        3   -1    0    0  501    0  0.00000000000E+00  0.00000000000E+00  0.20820424217E+04  0.20820424242E+04  0.10100000352E+00 0. -1.
       -3   -1    0    0    0  501  0.00000000000E+00  0.00000000000E+00 -0.11543721642E+04  0.11543721686E+04  0.10100000352E+00 0.  1.
    10030    2    1    2    0    0  0.00000000000E+00  0.00000000000E+00  0.92767025758E+03  0.32364145928E+04  0.31006140214E+04 0.  0.
        2    1    3    3  502    0 -0.25343253993E+03  0.98242209359E+03 -0.75971275042E+03  0.12674954380E+04  0.25500000920E-02 0.  1.
       -2    1    3    3    0  502  0.25343253993E+03 -0.98242209359E+03  0.16873830080E+04  0.19689191547E+04  0.25500000920E-02 0. -1.
</event>
<event>
 5   0  0.1329777E-07  0.3101259E+04  0.7818609E-02  0.8215393E-01
       -2   -1    0    0    0  501  0.00000000000E+00  0.00000000000E+00  0.18128968116E+04  0.18128968116E+04  0.25500000920E-02 0. -1.
        2   -1    0    0  501    0  0.00000000000E+00  0.00000000000E+00 -0.13263035216E+04  0.13263035216E+04  0.25500000920E-02 0.  1.
    10030    2    1    2    0    0  0.00000000000E+00  0.00000000000E+00  0.48659328993E+03  0.31392003332E+04  0.31012587287E+04 0.  0.
        1    1    3    3  502    0  0.12054056967E+04 -0.10799336933E+03  0.12245824338E+04  0.17217048524E+04  0.50400001928E-02 0. -1.
       -1    1    3    3    0  502 -0.12054056967E+04  0.10799336933E+03 -0.73798914391E+03  0.14174954808E+04  0.50400001928E-02 0.  1.
</event>
<event>
 5   0  0.4470354E-08  0.3099534E+04  0.7818609E-02  0.8215866E-01
        1   -1    0    0  501    0  0.00000000000E+00  0.00000000000E+00  0.23290106272E+04  0.23290106272E+04  0.50400001928E-02 0.  1.
       -1   -1    0    0    0  501  0.00000000000E+00  0.00000000000E+00 -0.10312438984E+04  0.10312438984E+04  0.50400001928E-02 0. -1.
    10030    2    1    2    0    0  0.00000000000E+00  0.00000000000E+00  0.12977667288E+04  0.33602545256E+04  0.30995341576E+04 0.  0.
        1    1    3    3  502    0 -0.35272712584E+03  0.28260866162E+03 -0.95820437843E+03  0.10594525529E+04  0.50400001928E-02 0. -1.
       -1    1    3    3    0  502  0.35272712584E+03 -0.28260866162E+03  0.22559711072E+04  0.23008019727E+04  0.50400001928E-02 0.  1.
</event>
<event>
 5   0  0.1325713E-07  0.3100256E+04  0.7818609E-02  0.8215668E-01
        2   -1    0    0  501    0  0.00000000000E+00  0.00000000000E+00  0.28262402032E+04  0.28262402032E+04  0.25500000920E-02 0. -1.
       -2   -1    0    0    0  501  0.00000000000E+00  0.00000000000E+00 -0.85020988442E+03  0.85020988443E+03  0.25500000920E-02 0.  1.
    10030    2    1    2    0    0  0.00000000000E+00  0.00000000000E+00  0.19760303188E+04  0.36764500876E+04  0.31002563484E+04 0.  0.
        4    1    3    3  502    0  0.10573522357E+04  0.31418705196E+01  0.23322167406E+04  0.25607108700E+04  0.12699999809E+01 0. -1.
       -4    1    3    3    0  502 -0.10573522357E+04 -0.31418705196E+01 -0.35618642187E+03  0.11157392176E+04  0.12699999809E+01 0.  1.
</event>
<event>
 5   0  0.1398931E-07  0.3100252E+04  0.7818609E-02  0.8215669E-01
       -2   -1    0    0    0  501  0.00000000000E+00  0.00000000000E+00  0.28611639950E+04  0.28611639950E+04  0.25500000920E-02 0.  1.
        2   -1    0    0  501    0  0.00000000000E+00  0.00000000000E+00 -0.83982966483E+03  0.83982966483E+03  0.25500000920E-02 0. -1.
    10030    2    1    2    0    0  0.00000000000E+00  0.00000000000E+00  0.20213343302E+04  0.37009936598E+04  0.31002518601E+04 0.  0.
        3    1    3    3  502    0  0.14796718004E+04  0.20448200792E+02  0.45966204581E+03  0.15495599286E+04  0.10100000352E+00 0. -1.
       -3    1    3    3    0  502 -0.14796718004E+04 -0.20448200792E+02  0.15616722844E+04  0.21514337312E+04  0.10100000352E+00 0.  1.
</event>
<event>
 5   0  0.4436241E-08  0.3099171E+04  0.7818609E-02  0.8215965E-01
        1   -1    0    0  501    0  0.00000000000E+00  0.00000000000E+00  0.13053979205E+04  0.13053979205E+04  0.50400001928E-02 0.  1.
       -1   -1    0    0    0  501  0.00000000000E+00  0.00000000000E+00 -0.18394511260E+04  0.18394511260E+04  0.50400001928E-02 0. -1.
    10030    2    1    2    0    0  0.00000000000E+00  0.00000000000E+00 -0.53405320555E+03  0.31448490465E+04  0.30991712923E+04 0.  0.
        3    1    3    3  502    0  0.36851198953E+03  0.11786679620E+04  0.68280156708E+03  0.14111262315E+04  0.10100000352E+00 0.  1.
       -3    1    3    3    0  502 -0.36851198953E+03 -0.11786679620E+04 -0.12168547726E+04  0.17337228149E+04  0.10100000352E+00 0. -1.
</event>
<event>
 5   0  0.4838602E-08  0.3106859E+04  0.7818609E-02  0.8213858E-01
        1   -1    0    0  501    0  0.00000000000E+00  0.00000000000E+00  0.96353771226E+03  0.96353771227E+03  0.50400001928E-02 0.  1.
       -1   -1    0    0    0  501  0.00000000000E+00  0.00000000000E+00 -0.25044621153E+04  0.25044621153E+04  0.50400001928E-02 0. -1.
    10030    2    1    2    0    0  0.00000000000E+00  0.00000000000E+00 -0.15409244030E+04  0.34679998276E+04  0.31068593126E+04 0.  0.
        5    1    3    3  502    0 -0.41776745816E+03  0.13267129563E+04 -0.15425457018E+04  0.20770571127E+04  0.46999998093E+01 0. -1.
       -5    1    3    3    0  502  0.41776745816E+03 -0.13267129563E+04  0.16212987538E+01  0.13909427149E+04  0.46999998093E+01 0.  1.
</event>
<event>
 5   0  0.4450600E-08  0.3100083E+04  0.7818609E-02  0.8215715E-01
       -1   -1    0    0    0  501  0.00000000000E+00  0.00000000000E+00  0.15354264887E+04  0.15354264887E+04  0.50400001928E-02 0.  1.
        1   -1    0    0  501    0  0.00000000000E+00  0.00000000000E+00 -0.15647955255E+04  0.15647955255E+04  0.50400001928E-02 0. -1.
    10030    2    1    2    0    0  0.00000000000E+00  0.00000000000E+00 -0.29369036815E+02  0.31002220143E+04  0.31000829017E+04 0.  0.
        4    1    3    3  502    0 -0.83507358320E+03 -0.98547236698E+03  0.84216383360E+03  0.15419939076E+04  0.12699999809E+01 0.  1.
       -4    1    3    3    0  502  0.83507358320E+03  0.98547236698E+03 -0.87153287042E+03  0.15582281067E+04  0.12699999809E+01 0. -1.
</event>
<event>
 5   0  0.1318916E-07  0.3099353E+04  0.7818609E-02  0.8215915E-01
        2   -1    0    0  501    0  0.00000000000E+00  0.00000000000E+00  0.27981875281E+04  0.27981875281E+04  0.25500000920E-02 0. -1.
       -2   -1    0    0    0  501  0.00000000000E+00  0.00000000000E+00 -0.85823326632E+03  0.85823326632E+03  0.25500000920E-02 0.  1.
    10030    2    1    2    0    0  0.00000000000E+00  0.00000000000E+00  0.19399542618E+04  0.36564207945E+04  0.30993532371E+04 0.  0.
        5    1    3    3  502    0 -0.51525442256E+03  0.65029040521E+03  0.25140856557E+04  0.26474541555E+04  0.46999998093E+01 0. -1.
       -5    1    3    3    0  502  0.51525442256E+03 -0.65029040521E+03 -0.57413139392E+03  0.10089666390E+04  0.46999998093E+01 0.  1.
</event>
<event>
 5   0  0.1377237E-07  0.3100413E+04  0.7818609E-02  0.8215625E-01
        2   -1    0    0  501    0  0.00000000000E+00  0.00000000000E+00  0.26243523436E+04  0.26243523437E+04  0.25500000920E-02 0. -1.
       -2   -1    0    0    0  501  0.00000000000E+00  0.00000000000E+00 -0.91570783626E+03  0.91570783626E+03  0.25500000920E-02 0.  1.
    10030    2    1    2    0    0  0.00000000000E+00  0.00000000000E+00  0.17086445074E+04  0.35400601799E+04  0.31004128797E+04 0.  0.
        2    1    3    3  502    0 -0.12294131769E+04 -0.69580609881E+02 -0.22093947000E+03  0.12510445516E+04  0.25500000920E-02 0.  1.
       -2    1    3    3    0  502  0.12294131769E+04  0.69580609881E+02  0.19295839774E+04  0.22890156283E+04  0.25500000920E-02 0. -1.
</event>
<event>
 5   0  0.1398931E-07  0.3102331E+04  0.7818609E-02  0.8215099E-01
       -2   -1    0    0    0  501  0.00000000000E+00  0.00000000000E+00  0.26327227308E+04  0.26327227308E+04  0.25500000920E-02 0.  1.
        2   -1    0    0  501    0  0.00000000000E+00  0.00000000000E+00 -0.91392599212E+03  0.91392599213E+03  0.25500000920E-02 0. -1.
    10030    2    1    2    0    0  0.00000000000E+00  0.00000000000E+00  0.17187967387E+04  0.35466487229E+04  0.31023305651E+04 0.  0.
        3    1    3    3  502    0  0.15299521998E+04  0.14739104001E+03  0.62058868751E+03  0.16575910779E+04  0.10100000352E+00 0. -1.
       -3    1    3    3    0  502 -0.15299521998E+04 -0.14739104001E+03  0.10982080512E+04  0.18890576450E+04  0.10100000352E+00 0.  1.
</event>
<event>
 5   0  0.1377237E-07  0.3098152E+04  0.7818609E-02  0.8216245E-01
       -2   -1    0    0    0  501  0.00000000000E+00  0.00000000000E+00  0.16688174999E+04  0.16688174999E+04  0.25500000920E-02 0. -1.
        2   -1    0    0  501    0  0.00000000000E+00  0.00000000000E+00 -0.14379257832E+04  0.14379257832E+04  0.25500000920E-02 0.  1.
    10030    2    1    2    0    0  0.00000000000E+00  0.00000000000E+00  0.23089171667E+03  0.31067432831E+04  0.30981515202E+04 0.  0.
        2    1    3    3  502    0 -0.10845163325E+04  0.49393955698E+03 -0.87698744978E+03  0.14796144594E+04  0.25500000920E-02 0.  1.
       -2    1    3    3    0  502  0.10845163325E+04 -0.49393955698E+03  0.11078791664E+04  0.16271288237E+04  0.25500000920E-02 0. -1.
</event>
<event>
 5   0  0.1398931E-07  0.3099183E+04  0.7818609E-02  0.8215962E-01
        2   -1    0    0  501    0  0.00000000000E+00  0.00000000000E+00  0.15511601068E+04  0.15511601068E+04  0.25500000920E-02 0.  1.
       -2   -1    0    0    0  501  0.00000000000E+00  0.00000000000E+00 -0.15480242694E+04  0.15480242694E+04  0.25500000920E-02 0. -1.
    10030    2    1    2    0    0  0.00000000000E+00  0.00000000000E+00  0.31358373968E+01  0.30991843763E+04  0.30991827898E+04 0.  0.
        3    1    3    3  502    0 -0.67121286834E+03 -0.54821835499E+03 -0.12830195991E+04  0.15482924082E+04  0.10100000352E+00 0. -1.
       -3    1    3    3    0  502  0.67121286834E+03  0.54821835499E+03  0.12861554365E+04  0.15508919680E+04  0.10100000352E+00 0.  1.
</event>
<event>
 5   0  0.1318916E-07  0.3099595E+04  0.7818609E-02  0.8215849E-01
       -2   -1    0    0    0  501  0.00000000000E+00  0.00000000000E+00  0.10115087502E+04  0.10115087502E+04  0.25500000920E-02 0. -1.
        2   -1    0    0  501    0  0.00000000000E+00  0.00000000000E+00 -0.23745447406E+04  0.23745447406E+04  0.25500000920E-02 0.  1.
    10030    2    1    2    0    0  0.00000000000E+00  0.00000000000E+00 -0.13630359904E+04  0.33860534908E+04  0.30995953174E+04 0.  0.
        5    1    3    3  502    0 -0.72678925764E+03 -0.32965973126E+03  0.76977578135E+03  0.11088169403E+04  0.46999998093E+01 0. -1.
       -5    1    3    3    0  502  0.72678925764E+03  0.32965973126E+03 -0.21328117717E+04  0.22772365505E+04  0.46999998093E+01 0.  1.
</event>
<event>
 5   0  0.1325713E-07  0.3101541E+04  0.7818609E-02  0.8215315E-01
        2   -1    0    0  501    0  0.00000000000E+00  0.00000000000E+00  0.16294838888E+04  0.16294838888E+04  0.25500000920E-02 0.  1.
       -2   -1    0    0    0  501  0.00000000000E+00  0.00000000000E+00 -0.14758593366E+04  0.14758593366E+04  0.25500000920E-02 0. -1.
    10030    2    1    2    0    0  0.00000000000E+00  0.00000000000E+00  0.15362455225E+03  0.31053432254E+04  0.31015409145E+04 0.  0.
        4    1    3    3  502    0  0.58579164848E+03 -0.93008199407E+03  0.11720834548E+04  0.16068558146E+04  0.12699999809E+01 0.  1.
       -4    1    3    3    0  502 -0.58579164848E+03  0.93008199407E+03 -0.10184589026E+04  0.14984874108E+04  0.12699999809E+01 0. -1.
</event>
<event>
 5   0  0.1325713E-07  0.3098099E+04  0.7818609E-02  0.8216260E-01
        2   -1    0    0  501    0  0.00000000000E+00  0.00000000000E+00  0.14795150370E+04  0.14795150370E+04  0.25500000920E-02 0.  1.
       -2   -1    0    0    0  501  0.00000000000E+00  0.00000000000E+00 -0.16218517132E+04  0.16218517132E+04  0.25500000920E-02 0. -1.
    10030    2    1    2    0    0  0.00000000000E+00  0.00000000000E+00 -0.14233667616E+03  0.31013667502E+04  0.30980987702E+04 0.  0.
        4    1    3    3  502    0 -0.15234812931E+04 -0.12884458679E+02 -0.35144782579E+03  0.15635467524E+04  0.12699999809E+01 0. -1.
       -4    1    3    3    0  502  0.15234812931E+04  0.12884458679E+02  0.20911114963E+03  0.15378199978E+04  0.12699999809E+01 0.  1.
</event>
<event>
 5   0  0.4470354E-08  0.3099995E+04  0.7818609E-02  0.8215739E-01
       -1   -1    0    0    0  501  0.00000000000E+00  0.00000000000E+00  0.31796849725E+04  0.31796849725E+04  0.50400001928E-02 0.  1.
        1   -1    0    0  501    0  0.00000000000E+00  0.00000000000E+00 -0.75557568955E+03  0.75557568957E+03  0.50400001928E-02 0. -1.
    10030    2    1    2    0    0  0.00000000000E+00  0.00000000000E+00  0.24241092830E+04  0.39352606621E+04  0.30999952682E+04 0.  0.
        1    1    3    3  502    0  0.44335795939E+03 -0.11878552752E+04  0.23438707931E+04  0.26648258348E+04  0.50400001928E-02 0.  1.
       -1    1    3    3    0  502 -0.44335795939E+03  0.11878552752E+04  0.80238489836E+02  0.12704348273E+04  0.50400001928E-02 0. -1.
</event>
<event>
 5   0  0.1377237E-07  0.3118820E+04  0.7818609E-02  0.8210592E-01
        2   -1    0    0  501    0  0.00000000000E+00  0.00000000000E+00  0.23876781935E+04  0.23876781935E+04  0.25500000920E-02 0. -1.
       -2   -1    0    0    0  501  0.00000000000E+00  0.00000000000E+00 -0.10184619259E+04  0.10184619259E+04  0.25500000920E-02 0.  1.
    10030    2    1    2    0    0  0.00000000000E+00  0.00000000000E+00  0.13692162676E+04  0.34061401195E+04  0.31188198611E+04 0.  0.
        2    1    3    3  502    0  0.32017719126E+03 -0.20105547790E+02  0.23512496643E+04  0.23730344816E+04  0.25500000920E-02 0. -1.
       -2    1    3    3    0  502 -0.32017719126E+03  0.20105547790E+02 -0.98203339669E+03  0.10331056379E+04  0.25500000920E-02 0.  1.
</event>
<event>
 5   0  0.4838602E-08  0.3099343E+04  0.7818609E-02  0.8215918E-01
       -1   -1    0    0    0  501  0.00000000000E+00  0.00000000000E+00  0.12813816823E+04  0.12813816823E+04  0.50400001928E-02 0.  1.
        1   -1    0    0  501    0  0.00000000000E+00  0.00000000000E+00 -0.18741349844E+04  0.18741349844E+04  0.50400001928E-02 0. -1.
    10030    2    1    2    0    0  0.00000000000E+00  0.00000000000E+00 -0.59275330206E+03  0.31555166667E+04  0.30993433106E+04 0.  0.
        5    1    3    3  502    0  0.31740697606E+03 -0.69999828171E+03  0.10736401300E+04  0.13204052414E+04  0.46999998093E+01 0.  1.
       -5    1    3    3    0  502 -0.31740697606E+03  0.69999828171E+03 -0.16663934321E+04  0.18351114253E+04  0.46999998093E+01 0. -1.
</event>
<event>
 5   0  0.4470354E-08  0.3099248E+04  0.7818609E-02  0.8215944E-01
        1   -1    0    0  501    0  0.00000000000E+00  0.00000000000E+00  0.21353265546E+04  0.21353265546E+04  0.50400001928E-02 0. -1.
       -1   -1    0    0    0  501  0.00000000000E+00  0.00000000000E+00 -0.11245750418E+04  0.11245750418E+04  0.50400001928E-02 0.  1.
    10030    2    1    2    0    0  0.00000000000E+00  0.00000000000E+00  0.10107515128E+04  0.32599015963E+04  0.30992482633E+04 0.  0.
        1    1    3    3  502    0 -0.50640657428E+03  0.54746259264E+03  0.19341596857E+04  0.20729535930E+04  0.50400001928E-02 0. -1.
       -1    1    3    3    0  502  0.50640657428E+03 -0.54746259264E+03 -0.92340817293E+03  0.11869480034E+04  0.50400001928E-02 0.  1.
</event>
<event>
 5   0  0.4838602E-08  0.3100479E+04  0.7818609E-02  0.8215606E-01
        1   -1    0    0  501    0  0.00000000000E+00  0.00000000000E+00  0.18822583634E+04  0.18822583634E+04  0.50400001928E-02 0.  1.
       -1   -1    0    0    0  501  0.00000000000E+00  0.00000000000E+00 -0.12767867420E+04  0.12767867420E+04  0.50400001928E-02 0. -1.
    10030    2    1    2    0    0  0.00000000000E+00  0.00000000000E+00  0.60547162142E+03  0.31590451054E+04  0.31004790103E+04 0.  0.
        5    1    3    3  502    0  0.13633727673E+04  0.67978863643E+03  0.10397041925E+02  0.15234920680E+04  0.46999998093E+01 0. -1.
       -5    1    3    3    0  502 -0.13633727673E+04 -0.67978863643E+03  0.59507457950E+03  0.16355530374E+04  0.46999998093E+01 0.  1.
</event>
<event>
 5   0  0.1329777E-07  0.3093952E+04  0.7818609E-02  0.8217400E-01
       -2   -1    0    0    0  501  0.00000000000E+00  0.00000000000E+00  0.21238916799E+04  0.21238916799E+04  0.25500000920E-02 0. -1.
        2   -1    0    0  501    0  0.00000000000E+00  0.00000000000E+00 -0.11267687815E+04  0.11267687815E+04  0.25500000920E-02 0.  1.
    10030    2    1    2    0    0  0.00000000000E+00  0.00000000000E+00  0.99712289840E+03  0.32506604614E+04  0.30939520618E+04 0.  0.
        1    1    3    3  502    0  0.15372910592E+04 -0.17033972614E+02  0.31785918400E+03  0.15699007669E+04  0.50400001928E-02 0.  1.
       -1    1    3    3    0  502 -0.15372910592E+04  0.17033972614E+02  0.67926371440E+03  0.16807596945E+04  0.50400001928E-02 0. -1.
</event>
<event>
 5   0  0.1398931E-07  0.3097865E+04  0.7818609E-02  0.8216324E-01
        2   -1    0    0  501    0  0.00000000000E+00  0.00000000000E+00  0.11797378583E+04  0.11797378583E+04  0.25500000920E-02 0.  1.
       -2   -1    0    0    0  501  0.00000000000E+00  0.00000000000E+00 -0.20336649767E+04  0.20336649767E+04  0.25500000920E-02 0. -1.
    10030    2    1    2    0    0  0.00000000000E+00  0.00000000000E+00 -0.85392711840E+03  0.32134028350E+04  0.30978647899E+04 0.  0.
        3    1    3    3  502    0  0.56809812315E+03 -0.96093245804E+00  0.10677707110E+04  0.12094919191E+04  0.10100000352E+00 0.  1.
       -3    1    3    3    0  502 -0.56809812315E+03  0.96093245804E+00 -0.19216978294E+04  0.20039109159E+04  0.10100000352E+00 0. -1.
</event>
<event>
 5   0  0.1318916E-07  0.3096902E+04  0.7818609E-02  0.8216589E-01
        2   -1    0    0  501    0  0.00000000000E+00  0.00000000000E+00  0.21916427716E+04  0.21916427716E+04  0.25500000920E-02 0.  1.
       -2   -1    0    0    0  501  0.00000000000E+00  0.00000000000E+00 -0.10940197361E+04  0.10940197361E+04  0.25500000920E-02 0. -1.
    10030    2    1    2    0    0  0.00000000000E+00  0.00000000000E+00  0.10976230356E+04  0.32856625077E+04  0.30969019659E+04 0.  0.
        5    1    3    3  502    0  0.11309562304E+03 -0.72080387851E+03 -0.90020479361E+03  0.11587664181E+04  0.46999998093E+01 0. -1.
       -5    1    3    3    0  502 -0.11309562304E+03  0.72080387851E+03  0.19978278292E+04  0.21268960897E+04  0.46999998093E+01 0.  1.
</event>
<event>
 5   0  0.4838602E-08  0.3099296E+04  0.7818609E-02  0.8215931E-01
       -1   -1    0    0    0  501  0.00000000000E+00  0.00000000000E+00  0.17210988482E+04  0.17210988482E+04  0.50400001928E-02 0.  1.
        1   -1    0    0  501    0  0.00000000000E+00  0.00000000000E+00 -0.13952765802E+04  0.13952765802E+04  0.50400001928E-02 0. -1.
    10030    2    1    2    0    0  0.00000000000E+00  0.00000000000E+00  0.32582226808E+03  0.31163754284E+04  0.30992959943E+04 0.  0.
        5    1    3    3  502    0 -0.91461361095E+03 -0.10782913391E+04 -0.47474169797E+03  0.14915200431E+04  0.46999998093E+01 0. -1.
       -5    1    3    3    0  502  0.91461361095E+03  0.10782913391E+04  0.80056396605E+03  0.16248553853E+04  0.46999998093E+01 0.  1.
</event>
<event>
 5   0  0.1398931E-07  0.3100181E+04  0.7818609E-02  0.8215688E-01
        2   -1    0    0  501    0  0.00000000000E+00  0.00000000000E+00  0.14826469637E+04  0.14826469637E+04  0.25500000920E-02 0. -1.
       -2   -1    0    0    0  501  0.00000000000E+00  0.00000000000E+00 -0.16206015323E+04  0.16206015323E+04  0.25500000920E-02 0.  1.
    10030    2    1    2    0    0  0.00000000000E+00  0.00000000000E+00 -0.13795456855E+03  0.31032484960E+04  0.31001806020E+04 0.  0.
        3    1    3    3  502    0 -0.13133631387E+04 -0.78102510947E+03  0.19177421106E+03  0.15400325691E+04  0.10100000352E+00 0. -1.
       -3    1    3    3    0  502  0.13133631387E+04  0.78102510947E+03 -0.32972877961E+03  0.15632159269E+04  0.10100000352E+00 0.  1.
</event>
<event>
 5   0  0.1325713E-07  0.3101733E+04  0.7818609E-02  0.8215263E-01
        2   -1    0    0  501    0  0.00000000000E+00  0.00000000000E+00  0.10868774522E+04  0.10868774522E+04  0.25500000920E-02 0.  1.
       -2   -1    0    0    0  501  0.00000000000E+00  0.00000000000E+00 -0.22129323138E+04  0.22129323138E+04  0.25500000920E-02 0. -1.
    10030    2    1    2    0    0  0.00000000000E+00  0.00000000000E+00 -0.11260548616E+04  0.32998097660E+04  0.31017325707E+04 0.  0.
        4    1    3    3  502    0 -0.53553218779E+03  0.25392113330E+03 -0.20876968021E+04  0.21701958936E+04  0.12699999809E+01 0. -1.
       -4    1    3    3    0  502  0.53553218779E+03 -0.25392113330E+03  0.96164194052E+03  0.11296138724E+04  0.12699999809E+01 0.  1.
</event>
<event>
 5   0  0.1318916E-07  0.3099724E+04  0.7818609E-02  0.8215814E-01
       -2   -1    0    0    0  501  0.00000000000E+00  0.00000000000E+00  0.11132171083E+04  0.11132171083E+04  0.25500000920E-02 0. -1.
        2   -1    0    0  501    0  0.00000000000E+00  0.00000000000E+00 -0.21577747644E+04  0.21577747644E+04  0.25500000920E-02 0.  1.
    10030    2    1    2    0    0  0.00000000000E+00  0.00000000000E+00 -0.10445576561E+04  0.32709918727E+04  0.30997237191E+04 0.  0.
        5    1    3    3  502    0 -0.99214015291E+03 -0.47718026347E+03  0.62886917594E+03  0.12678886455E+04  0.46999998093E+01 0. -1.
       -5    1    3    3    0  502  0.99214015291E+03  0.47718026347E+03 -0.16734268320E+04  0.20031032272E+04  0.46999998093E+01 0.  1.
</event>
<event>
 5   0  0.4838602E-08  0.3105086E+04  0.7818609E-02  0.8214343E-01
       -1   -1    0    0    0  501  0.00000000000E+00  0.00000000000E+00  0.14031195267E+04  0.14031195267E+04  0.50400001928E-02 0. -1.
        1   -1    0    0  501    0  0.00000000000E+00  0.00000000000E+00 -0.17178793914E+04  0.17178793914E+04  0.50400001928E-02 0.  1.
    10030    2    1    2    0    0  0.00000000000E+00  0.00000000000E+00 -0.31475986471E+03  0.31209989182E+04  0.31050862266E+04 0.  0.
        5    1    3    3  502    0  0.10934969839E+04  0.96201203796E+03  0.38311668035E+03  0.15059891420E+04  0.46999998093E+01 0. -1.
       -5    1    3    3    0  502 -0.10934969839E+04 -0.96201203796E+03 -0.69787654506E+03  0.16150097762E+04  0.46999998093E+01 0.  1.
</event>
<event>
 5   0  0.1398931E-07  0.3102751E+04  0.7818609E-02  0.8214983E-01
        2   -1    0    0  501    0  0.00000000000E+00  0.00000000000E+00  0.11078861268E+04  0.11078861268E+04  0.25500000920E-02 0. -1.
       -2   -1    0    0    0  501  0.00000000000E+00  0.00000000000E+00 -0.21723951592E+04  0.21723951592E+04  0.25500000920E-02 0.  1.
    10030    2    1    2    0    0  0.00000000000E+00  0.00000000000E+00 -0.10645090323E+04  0.32802812860E+04  0.31027513332E+04 0.  0.
        3    1    3    3  502    0  0.51292756009E+03  0.94009455751E+03 -0.17189276702E+04  0.20252369749E+04  0.10100000352E+00 0.  1.
       -3    1    3    3    0  502 -0.51292756009E+03 -0.94009455751E+03  0.65441863789E+03  0.12550443111E+04  0.10100000352E+00 0. -1.
</event>
<event>
 5   0  0.1329777E-07  0.3099747E+04  0.7818609E-02  0.8215807E-01
       -2   -1    0    0    0  501  0.00000000000E+00  0.00000000000E+00  0.30425682421E+04  0.30425682421E+04  0.25500000920E-02 0. -1.
        2   -1    0    0  501    0  0.00000000000E+00  0.00000000000E+00 -0.78949995193E+03  0.78949995193E+03  0.25500000920E-02 0.  1.
    10030    2    1    2    0    0  0.00000000000E+00  0.00000000000E+00  0.22530682901E+04  0.38320681940E+04  0.30997467515E+04 0.  0.
        1    1    3    3  502    0 -0.90765035659E+03 -0.12395002331E+04  0.13796414124E+04  0.20648487655E+04  0.50400001928E-02 0. -1.
       -1    1    3    3    0  502  0.90765035659E+03  0.12395002331E+04  0.87342687772E+03  0.17672194285E+04  0.50400001928E-02 0.  1.
</event>
<event>
 5   0  0.1325713E-07  0.3090515E+04  0.7818609E-02  0.8218346E-01
        2   -1    0    0  501    0  0.00000000000E+00  0.00000000000E+00  0.13259158520E+04  0.13259158520E+04  0.25500000920E-02 0. -1.
       -2   -1    0    0    0  501  0.00000000000E+00  0.00000000000E+00 -0.18008843722E+04  0.18008843722E+04  0.25500000920E-02 0.  1.
    10030    2    1    2    0    0  0.00000000000E+00  0.00000000000E+00 -0.47496852024E+03  0.31268002242E+04  0.30905152559E+04 0.  0.
        4    1    3    3  502    0  0.80552334255E+03  0.10150501634E+04  0.61419765783E+03  0.14340275679E+04  0.12699999809E+01 0. -1.
       -4    1    3    3    0  502 -0.80552334255E+03 -0.10150501634E+04 -0.10891661781E+04  0.16927726563E+04  0.12699999809E+01 0.  1.
</event>
<event>
 5   0  0.1329777E-07  0.3099686E+04  0.7818609E-02  0.8215824E-01
       -2   -1    0    0    0  501  0.00000000000E+00  0.00000000000E+00  0.19515353166E+04  0.19515353166E+04  0.25500000920E-02 0.  1.
        2   -1    0    0  501    0  0.00000000000E+00  0.00000000000E+00 -0.12308329546E+04  0.12308329546E+04  0.25500000920E-02 0. -1.
    10030    2    1    2    0    0  0.00000000000E+00  0.00000000000E+00  0.72070236205E+03  0.31823682712E+04  0.30996864227E+04 0.  0.
        1    1    3    3  502    0  0.10137665919E+03 -0.13951515424E+04  0.10454506365E+04  0.17463367621E+04  0.50400001928E-02 0.  1.
       -1    1    3    3    0  502 -0.10137665919E+03  0.13951515424E+04 -0.32474827448E+03  0.14360315091E+04  0.50400001928E-02 0. -1.
</event>
<event>
 5   0  0.1398931E-07  0.3101048E+04  0.7818609E-02  0.8215450E-01
       -2   -1    0    0    0  501  0.00000000000E+00  0.00000000000E+00  0.14999340752E+04  0.14999340752E+04  0.25500000920E-02 0. -1.
        2   -1    0    0  501    0  0.00000000000E+00  0.00000000000E+00 -0.16028203770E+04  0.16028203770E+04  0.25500000920E-02 0.  1.
    10030    2    1    2    0    0  0.00000000000E+00  0.00000000000E+00 -0.10288630184E+03  0.31027544522E+04  0.31010481453E+04 0.  0.
        3    1    3    3  502    0 -0.11575975913E+04 -0.95967644970E+03 -0.42995517725E+03  0.15639285585E+04  0.10100000352E+00 0.  1.
       -3    1    3    3    0  502  0.11575975913E+04  0.95967644970E+03  0.32706887541E+03  0.15388258937E+04  0.10100000352E+00 0. -1.
</event>
<event>
 5   0  0.1377237E-07  0.3099882E+04  0.7818609E-02  0.8215770E-01
        2   -1    0    0  501    0  0.00000000000E+00  0.00000000000E+00  0.13696331088E+04  0.13696331088E+04  0.25500000920E-02 0.  1.
       -2   -1    0    0    0  501  0.00000000000E+00  0.00000000000E+00 -0.17539856583E+04  0.17539856583E+04  0.25500000920E-02 0. -1.
    10030    2    1    2    0    0  0.00000000000E+00  0.00000000000E+00 -0.38435254951E+03  0.31236187671E+04  0.30998818235E+04 0.  0.
        2    1    3    3  502    0 -0.40619640823E+03 -0.75615766602E+03  0.11082667156E+04  0.14017935122E+04  0.25500000920E-02 0.  1.
       -2    1    3    3    0  502  0.40619640823E+03  0.75615766602E+03 -0.14926192651E+04  0.17218252549E+04  0.25500000920E-02 0. -1.
</event>
<event>
 5   0  0.1329777E-07  0.3100533E+04  0.7818609E-02  0.8215592E-01
       -2   -1    0    0    0  501  0.00000000000E+00  0.00000000000E+00  0.16224561237E+04  0.16224561237E+04  0.25500000920E-02 0.  1.
        2   -1    0    0  501    0  0.00000000000E+00  0.00000000000E+00 -0.14812892704E+04  0.14812892704E+04  0.25500000920E-02 0. -1.
    10030    2    1    2    0    0  0.00000000000E+00  0.00000000000E+00  0.14116685334E+03  0.31037453941E+04  0.31005334043E+04 0.  0.
        1    1    3    3  502    0 -0.75115334143E+03 -0.22875908078E+03 -0.12675005374E+04  0.14910129683E+04  0.50400001928E-02 0. -1.
       -1    1    3    3    0  502  0.75115334143E+03  0.22875908078E+03  0.14086673907E+04  0.16127324258E+04  0.50400001928E-02 0.  1.
</event>
<event>
 5   0  0.1377237E-07  0.3101881E+04  0.7818609E-02  0.8215222E-01
        2   -1    0    0  501    0  0.00000000000E+00  0.00000000000E+00  0.11077683742E+04  0.11077683742E+04  0.25500000920E-02 0.  1.
       -2   -1    0    0    0  501  0.00000000000E+00  0.00000000000E+00 -0.21714068365E+04  0.21714068365E+04  0.25500000920E-02 0. -1.
    10030    2    1    2    0    0  0.00000000000E+00  0.00000000000E+00 -0.10636384623E+04  0.32791752108E+04  0.31018806045E+04 0.  0.
        2    1    3    3  502    0  0.92501528549E+03 -0.10420398421E+04  0.18822469501E+03  0.14060330176E+04  0.25500000920E-02 0.  1.
       -2    1    3    3    0  502 -0.92501528549E+03  0.10420398421E+04 -0.12518631573E+04  0.18731421931E+04  0.25500000920E-02 0. -1.
</event>
<event>
 5   0  0.4470354E-08  0.3100132E+04  0.7818609E-02  0.8215702E-01
       -1   -1    0    0    0  501  0.00000000000E+00  0.00000000000E+00  0.20737433917E+04  0.20737433917E+04  0.50400001928E-02 0.  1.
        1   -1    0    0  501    0  0.00000000000E+00  0.00000000000E+00 -0.11586315762E+04  0.11586315762E+04  0.50400001928E-02 0. -1.
    10030    2    1    2    0    0  0.00000000000E+00  0.00000000000E+00  0.91511181547E+03  0.32323749679E+04  0.31001319808E+04 0.  0.
        1    1    3    3  502    0  0.15063369221E+04 -0.34395718367E+03  0.32838794276E+03  0.15796189756E+04  0.50400001928E-02 0. -1.
       -1    1    3    3    0  502 -0.15063369221E+04  0.34395718367E+03  0.58672387271E+03  0.16527559923E+04  0.50400001928E-02 0.  1.
</event>
<event>
 5   0  0.4517409E-08  0.3098629E+04  0.7818609E-02  0.8216114E-01
        1   -1    0    0  501    0  0.00000000000E+00  0.00000000000E+00  0.28770598939E+04  0.28770598939E+04  0.50400001928E-02 0. -1.
       -1   -1    0    0    0  501  0.00000000000E+00  0.00000000000E+00 -0.83431555797E+03  0.83431555799E+03  0.50400001928E-02 0.  1.
    10030    2    1    2    0    0  0.00000000000E+00  0.00000000000E+00  0.20427443359E+04  0.37113754519E+04  0.30986292652E+04 0.  0.
        2    1    3    3  502    0 -0.13376141742E+04  0.46238169490E+03  0.26634714337E+03  0.14401212837E+04  0.25500000920E-02 0.  1.
       -2    1    3    3    0  502  0.13376141742E+04 -0.46238169490E+03  0.17763971926E+04  0.22712541682E+04  0.25500000920E-02 0. -1.
</event>
<event>
 5   0  0.4450600E-08  0.3101015E+04  0.7818609E-02  0.8215459E-01
        1   -1    0    0  501    0  0.00000000000E+00  0.00000000000E+00  0.17825969860E+04  0.17825969860E+04  0.50400001928E-02 0. -1.
       -1   -1    0    0    0  501  0.00000000000E+00  0.00000000000E+00 -0.13486357061E+04  0.13486357062E+04  0.50400001928E-02 0.  1.
    10030    2    1    2    0    0  0.00000000000E+00  0.00000000000E+00  0.43396127983E+03  0.31312326921E+04  0.31010152821E+04 0.  0.
        4    1    3    3  502    0  0.43534125264E+03 -0.13013726206E+04  0.94580319926E+03  0.16666247353E+04  0.12699999809E+01 0. -1.
       -4    1    3    3    0  502 -0.43534125264E+03  0.13013726206E+04 -0.51184191943E+03  0.14646079568E+04  0.12699999809E+01 0.  1.
</event>
<event>
 5   0  0.4838602E-08  0.3098521E+04  0.7818609E-02  0.8216144E-01
       -1   -1    0    0    0  501  0.00000000000E+00  0.00000000000E+00  0.24436273017E+04  0.24436273017E+04  0.50400001928E-02 0.  1.
        1   -1    0    0  501    0  0.00000000000E+00  0.00000000000E+00 -0.98223173140E+03  0.98223173141E+03  0.50400001928E-02 0. -1.
    10030    2    1    2    0    0  0.00000000000E+00  0.00000000000E+00  0.14613955703E+04  0.34258590331E+04  0.30985211153E+04 0.  0.
        5    1    3    3  502    0 -0.39144469349E+03  0.83960189456E+03  0.21036671983E+04  0.22986078527E+04  0.46999998093E+01 0.  1.
       -5    1    3    3    0  502  0.39144469349E+03 -0.83960189456E+03 -0.64227162804E+03  0.11272511803E+04  0.46999998093E+01 0. -1.
</event>
<event>
 5   0  0.1398931E-07  0.3099085E+04  0.7818609E-02  0.8215989E-01
       -2   -1    0    0    0  501  0.00000000000E+00  0.00000000000E+00  0.12211439706E+04  0.12211439706E+04  0.25500000920E-02 0.  1.
        2   -1    0    0  501    0  0.00000000000E+00  0.00000000000E+00 -0.19662567621E+04  0.19662567621E+04  0.25500000920E-02 0. -1.
    10030    2    1    2    0    0  0.00000000000E+00  0.00000000000E+00 -0.74511279157E+03  0.31874007327E+04  0.30990854068E+04 0.  0.
        3    1    3    3  502    0 -0.12554075689E+04  0.87646545251E+03 -0.12734504369E+03  0.15363777608E+04  0.10100000352E+00 0.  1.
       -3    1    3    3    0  502  0.12554075689E+04 -0.87646545251E+03 -0.61776774788E+03  0.16510229720E+04  0.10100000352E+00 0. -1.
</event>
<event>
 5   0  0.1398931E-07  0.3107402E+04  0.7818609E-02  0.8213709E-01
        2   -1    0    0  501    0  0.00000000000E+00  0.00000000000E+00  0.12803187985E+04  0.12803187985E+04  0.25500000920E-02 0. -1.
       -2   -1    0    0    0  501  0.00000000000E+00  0.00000000000E+00 -0.18854580865E+04  0.18854580865E+04  0.25500000920E-02 0.  1.
    10030    2    1    2    0    0  0.00000000000E+00  0.00000000000E+00 -0.60513928796E+03  0.31657768850E+04  0.31074024084E+04 0.  0.
        3    1    3    3  502    0  0.15082801664E+04  0.27519771312E+03 -0.46158121744E+02  0.15338752961E+04  0.10100000352E+00 0. -1.
       -3    1    3    3    0  502 -0.15082801664E+04 -0.27519771312E+03 -0.55898116622E+03  0.16319015889E+04  0.10100000352E+00 0.  1.
</event>
<event>
 5   0  0.4436241E-08  0.3098463E+04  0.7818609E-02  0.8216160E-01
        1   -1    0    0  501    0  0.00000000000E+00  0.00000000000E+00  0.18191893185E+04  0.18191893185E+04  0.50400001928E-02 0. -1.
       -1   -1    0    0    0  501  0.00000000000E+00  0.00000000000E+00 -0.13193340588E+04  0.13193340588E+04  0.50400001928E-02 0.  1.
    10030    2    1    2    0    0  0.00000000000E+00  0.00000000000E+00  0.49985525969E+03  0.31385233774E+04  0.30984631206E+04 0.  0.
        3    1    3    3  502    0  0.10965767019E+03  0.10836265856E+04  0.13659194658E+04  0.17469995360E+04  0.10100000352E+00 0. -1.
       -3    1    3    3    0  502 -0.10965767019E+03 -0.10836265856E+04 -0.86606420611E+03  0.13915238413E+04  0.10100000352E+00 0.  1.
</event>
<event>
 5   0  0.4450600E-08  0.3099742E+04  0.7818609E-02  0.8215809E-01
        1   -1    0    0  501    0  0.00000000000E+00  0.00000000000E+00  0.23305277860E+04  0.23305277860E+04  0.50400001928E-02 0.  1.
       -1   -1    0    0    0  501  0.00000000000E+00  0.00000000000E+00 -0.10307105287E+04  0.10307105287E+04  0.50400001928E-02 0. -1.
    10030    2    1    2    0    0  0.00000000000E+00  0.00000000000E+00  0.12998172572E+04  0.33612383147E+04  0.30997416192E+04 0.  0.
        4    1    3    3  502    0  0.49138124073E+03 -0.28741331334E+03  0.22130575025E+04  0.22851011047E+04  0.12699999809E+01 0.  1.
       -4    1    3    3    0  502 -0.49138124073E+03  0.28741331334E+03 -0.91324024524E+03  0.10761372100E+04  0.12699999809E+01 0. -1.
</event>
<event>
 5   0  0.4838602E-08  0.3099440E+04  0.7818609E-02  0.8215892E-01
       -1   -1    0    0    0  501  0.00000000000E+00  0.00000000000E+00  0.13193188697E+04  0.13193188698E+04  0.50400001928E-02 0. -1.
        1   -1    0    0  501    0  0.00000000000E+00  0.00000000000E+00 -0.18203570988E+04  0.18203570988E+04  0.50400001928E-02 0.  1.
    10030    2    1    2    0    0  0.00000000000E+00  0.00000000000E+00 -0.50103822904E+03  0.31396759685E+04  0.30994396075E+04 0.  0.
        5    1    3    3  502    0  0.12295544810E+04  0.46172341329E+03  0.58272641055E+03  0.14368663444E+04  0.46999998093E+01 0. -1.
       -5    1    3    3    0  502 -0.12295544810E+04 -0.46172341329E+03 -0.10837646396E+04  0.17028096242E+04  0.46999998093E+01 0.  1.
</event>
<event>
 5   0  0.1325713E-07  0.3100112E+04  0.7818609E-02  0.8215707E-01
       -2   -1    0    0    0  501  0.00000000000E+00  0.00000000000E+00  0.10635199946E+04  0.10635199946E+04  0.25500000920E-02 0. -1.
        2   -1    0    0  501    0  0.00000000000E+00  0.00000000000E+00 -0.22591715671E+04  0.22591715671E+04  0.25500000920E-02 0.  1.
    10030    2    1    2    0    0  0.00000000000E+00  0.00000000000E+00 -0.11956515726E+04  0.33226915617E+04  0.31001123417E+04 0.  0.
        4    1    3    3  502    0  0.14634968581E+04  0.17131694113E+03 -0.11135150240E+04  0.18469136064E+04  0.12699999809E+01 0.  1.
       -4    1    3    3    0  502 -0.14634968581E+04 -0.17131694113E+03 -0.82136548526E+02  0.14757779553E+04  0.12699999809E+01 0. -1.
</event>
<event>
 5   0  0.1325713E-07  0.3098685E+04  0.7818609E-02  0.8216099E-01
        2   -1    0    0  501    0  0.00000000000E+00  0.00000000000E+00  0.12695821300E+04  0.12695821300E+04  0.25500000920E-02 0. -1.
       -2   -1    0    0    0  501  0.00000000000E+00  0.00000000000E+00 -0.18907492946E+04  0.18907492946E+04  0.25500000920E-02 0.  1.
    10030    2    1    2    0    0  0.00000000000E+00  0.00000000000E+00 -0.62116716464E+03  0.31603314246E+04  0.30986845704E+04 0.  0.
        4    1    3    3  502    0 -0.15361998372E+02  0.15467870128E+04 -0.39992686550E+03  0.15977262484E+04  0.12699999809E+01 0. -1.
       -4    1    3    3    0  502  0.15361998372E+02 -0.15467870128E+04 -0.22124029914E+03  0.15626051763E+04  0.12699999809E+01 0.  1.
</event>
<event>
 5   0  0.1398931E-07  0.3100522E+04  0.7818609E-02  0.8215595E-01
        2   -1    0    0  501    0  0.00000000000E+00  0.00000000000E+00  0.18083310325E+04  0.18083310325E+04  0.25500000920E-02 0.  1.
       -2   -1    0    0    0  501  0.00000000000E+00  0.00000000000E+00 -0.13290206688E+04  0.13290206688E+04  0.25500000920E-02 0. -1.
    10030    2    1    2    0    0  0.00000000000E+00  0.00000000000E+00  0.47931036362E+03  0.31373517013E+04  0.31005220968E+04 0.  0.
        3    1    3    3  502    0  0.10163670721E+04 -0.45830079311E+03 -0.85029706349E+03  0.14021578900E+04  0.10100000352E+00 0.  1.
       -3    1    3    3    0  502 -0.10163670721E+04  0.45830079311E+03  0.13296074271E+04  0.17351938113E+04  0.10100000352E+00 0. -1.
</event>
<event>
 5   0  0.4470354E-08  0.3099981E+04  0.7818609E-02  0.8215743E-01
        1   -1    0    0  501    0  0.00000000000E+00  0.00000000000E+00  0.20133547433E+04  0.20133547433E+04  0.50400001928E-02 0.  1.
       -1   -1    0    0    0  501  0.00000000000E+00  0.00000000000E+00 -0.11932673569E+04  0.11932673569E+04  0.50400001928E-02 0. -1.
    10030    2    1    2    0    0  0.00000000000E+00  0.00000000000E+00  0.82008738640E+03  0.32066221002E+04  0.30999809632E+04 0.  0.
        1    1    3    3  502    0  0.38840810887E+03 -0.14607260645E+04  0.76520479447E+03  0.16941428133E+04  0.50400001928E-02 0. -1.
       -1    1    3    3    0  502 -0.38840810887E+03  0.14607260645E+04  0.54882591926E+02  0.15124792869E+04  0.50400001928E-02 0.  1.
</event>
<event>
 5   0  0.1325713E-07  0.3097200E+04  0.7818609E-02  0.8216507E-01
       -2   -1    0    0    0  501  0.00000000000E+00  0.00000000000E+00  0.12595083992E+04  0.12595083992E+04  0.25500000920E-02 0. -1.
        2   -1    0    0  501    0  0.00000000000E+00  0.00000000000E+00 -0.19040459988E+04  0.19040459988E+04  0.25500000920E-02 0.  1.
    10030    2    1    2    0    0  0.00000000000E+00  0.00000000000E+00 -0.64453759957E+03  0.31635543979E+04  0.30971999793E+04 0.  0.
        4    1    3    3  502    0  0.59039539946E+03 -0.46399128512E+02  0.11392746332E+04  0.12840046377E+04  0.12699999809E+01 0. -1.
       -4    1    3    3    0  502 -0.59039539946E+03  0.46399128512E+02 -0.17838122327E+04  0.18795497603E+04  0.12699999809E+01 0.  1.
</event>
<event>
 5   0  0.4450600E-08  0.3100628E+04  0.7818609E-02  0.8215565E-01
       -1   -1    0    0    0  501  0.00000000000E+00  0.00000000000E+00  0.13331271423E+04  0.13331271423E+04  0.50400001928E-02 0. -1.
        1   -1    0    0  501    0  0.00000000000E+00  0.00000000000E+00 -0.18028842835E+04  0.18028842835E+04  0.50400001928E-02 0.  1.
    10030    2    1    2    0    0  0.00000000000E+00  0.00000000000E+00 -0.46975714122E+03  0.31360114259E+04  0.31006283059E+04 0.  0.
        4    1    3    3  502    0 -0.12651031897E+04 -0.31521572075E+03  0.61351752511E+03  0.14409206771E+04  0.12699999809E+01 0. -1.
       -4    1    3    3    0  502  0.12651031897E+04  0.31521572075E+03 -0.10832746663E+04  0.16950907488E+04  0.12699999809E+01 0.  1.
</event>
<event>
 5   0  0.1329777E-07  0.3101450E+04  0.7818609E-02  0.8215340E-01
       -2   -1    0    0    0  501  0.00000000000E+00  0.00000000000E+00  0.13604239191E+04  0.13604239191E+04  0.25500000920E-02 0.  1.
        2   -1    0    0  501    0  0.00000000000E+00  0.00000000000E+00 -0.17676456812E+04  0.17676456812E+04  0.25500000920E-02 0. -1.
    10030    2    1    2    0    0  0.00000000000E+00  0.00000000000E+00 -0.40722176213E+03  0.31280696003E+04  0.31014496386E+04 0.  0.
        1    1    3    3  502    0 -0.11142050245E+04  0.94906766337E+03 -0.72042010430E+03  0.16313146211E+04  0.50400001928E-02 0. -1.
       -1    1    3    3    0  502  0.11142050245E+04 -0.94906766337E+03  0.31319834217E+03  0.14967549792E+04  0.50400001928E-02 0.  1.
</event>
<event>
 5   0  0.1318916E-07  0.3100816E+04  0.7818609E-02  0.8215514E-01
       -2   -1    0    0    0  501  0.00000000000E+00  0.00000000000E+00  0.12321911303E+04  0.12321911303E+04  0.25500000920E-02 0.  1.
        2   -1    0    0  501    0  0.00000000000E+00  0.00000000000E+00 -0.19508056468E+04  0.19508056468E+04  0.25500000920E-02 0. -1.
    10030    2    1    2    0    0  0.00000000000E+00  0.00000000000E+00 -0.71861451651E+03  0.31829967771E+04  0.31008162892E+04 0.  0.
        5    1    3    3  502    0 -0.35240249227E+03 -0.12218138469E+04  0.55117631682E+03  0.13859415627E+04  0.46999998093E+01 0.  1.
       -5    1    3    3    0  502  0.35240249227E+03  0.12218138469E+04 -0.12697908333E+04  0.17970552144E+04  0.46999998093E+01 0. -1.
</event>
<event>
 5   0  0.4470354E-08  0.3101065E+04  0.7818609E-02  0.8215446E-01
        1   -1    0    0  501    0  0.00000000000E+00  0.00000000000E+00  0.15767778729E+04  0.15767778729E+04  0.50400001928E-02 0. -1.
       -1   -1    0    0    0  501  0.00000000000E+00  0.00000000000E+00 -0.15247243420E+04  0.15247243420E+04  0.50400001928E-02 0.  1.
    10030    2    1    2    0    0  0.00000000000E+00  0.00000000000E+00  0.52053530896E+02  0.31015022149E+04  0.31010653684E+04 0.  0.
        1    1    3    3  502    0 -0.11065081160E+04  0.88483858428E+03 -0.60402393919E+03  0.15401767594E+04  0.50400001928E-02 0.  1.
       -1    1    3    3    0  502  0.11065081160E+04 -0.88483858428E+03  0.65607747009E+03  0.15613254555E+04  0.50400001928E-02 0. -1.
</event>
<event>
 5   0  0.4470354E-08  0.3099568E+04  0.7818609E-02  0.8215856E-01
       -1   -1    0    0    0  501  0.00000000000E+00  0.00000000000E+00  0.95590586177E+03  0.95590586178E+03  0.50400001928E-02 0.  1.
        1   -1    0    0  501    0  0.00000000000E+00  0.00000000000E+00 -0.25126228359E+04  0.25126228359E+04  0.50400001928E-02 0. -1.
    10030    2    1    2    0    0  0.00000000000E+00  0.00000000000E+00 -0.15567169742E+04  0.34685286977E+04  0.30995682908E+04 0.  0.
        1    1    3    3  502    0  0.74238507838E+03 -0.10298537663E+04  0.21632327546E+03  0.12878393316E+04  0.50400001928E-02 0.  1.
       -1    1    3    3    0  502 -0.74238507838E+03  0.10298537663E+04 -0.17730402496E+04  0.21806893661E+04  0.50400001928E-02 0. -1.
</event>
<event>
 5   0  0.4450600E-08  0.3099492E+04  0.7818609E-02  0.8215877E-01
       -1   -1    0    0    0  501  0.00000000000E+00  0.00000000000E+00  0.11543625436E+04  0.11543625436E+04  0.50400001928E-02 0.  1.
        1   -1    0    0  501    0  0.00000000000E+00  0.00000000000E+00 -0.20805526727E+04  0.20805526727E+04  0.50400001928E-02 0. -1.
    10030    2    1    2    0    0  0.00000000000E+00  0.00000000000E+00 -0.92619012907E+03  0.32349152163E+04  0.30994916198E+04 0.  0.
        4    1    3    3  502    0 -0.78921204976E+03  0.11869578448E+04  0.17174599813E+03  0.14356959586E+04  0.12699999809E+01 0.  1.
       -4    1    3    3    0  502  0.78921204976E+03 -0.11869578448E+04 -0.10979361272E+04  0.17992192577E+04  0.12699999809E+01 0. -1.
</event>
<event>
 5   0  0.1325713E-07  0.3099022E+04  0.7818609E-02  0.8216006E-01
       -2   -1    0    0    0  501  0.00000000000E+00  0.00000000000E+00  0.12207008591E+04  0.12207008591E+04  0.25500000920E-02 0.  1.
        2   -1    0    0  501    0  0.00000000000E+00  0.00000000000E+00 -0.19668904773E+04  0.19668904773E+04  0.25500000920E-02 0. -1.
    10030    2    1    2    0    0  0.00000000000E+00  0.00000000000E+00 -0.74618961820E+03  0.31875913363E+04  0.30990223589E+04 0.  0.
        4    1    3    3  502    0 -0.69609189575E+03  0.10599078400E+04 -0.12890706739E+04  0.18082182866E+04  0.12699999809E+01 0.  1.
       -4    1    3    3    0  502  0.69609189575E+03 -0.10599078400E+04  0.54288105575E+03  0.13793730497E+04  0.12699999809E+01 0. -1.
</event>
<event>
 5   0  0.4470354E-08  0.3102840E+04  0.7818609E-02  0.8214959E-01
        1   -1    0    0  501    0  0.00000000000E+00  0.00000000000E+00  0.10504579171E+04  0.10504579171E+04  0.50400001928E-02 0.  1.
       -1   -1    0    0    0  501  0.00000000000E+00  0.00000000000E+00 -0.22912897259E+04  0.22912897259E+04  0.50400001928E-02 0. -1.
    10030    2    1    2    0    0  0.00000000000E+00  0.00000000000E+00 -0.12408318088E+04  0.33417476431E+04  0.31028396240E+04 0.  0.
        1    1    3    3  502    0  0.16045496817E+03  0.78666169166E+03  0.80932332013E+03  0.11399941449E+04  0.50400001928E-02 0.  1.
       -1    1    3    3    0  502 -0.16045496817E+03 -0.78666169166E+03 -0.20501551289E+04  0.22017534982E+04  0.50400001928E-02 0. -1.
</event>
<event>
 5   0  0.1329777E-07  0.3094637E+04  0.7818609E-02  0.8217211E-01
       -2   -1    0    0    0  501  0.00000000000E+00  0.00000000000E+00  0.11953508490E+04  0.11953508490E+04  0.25500000920E-02 0. -1.
        2   -1    0    0  501    0  0.00000000000E+00  0.00000000000E+00 -0.20029222341E+04  0.20029222341E+04  0.25500000920E-02 0.  1.
    10030    2    1    2    0    0  0.00000000000E+00  0.00000000000E+00 -0.80757138518E+03  0.31982730831E+04  0.30946371632E+04 0.  0.
        1    1    3    3  502    0  0.56402164207E+03  0.18268418683E+03 -0.18808798936E+04  0.19721062596E+04  0.50400001928E-02 0.  1.
       -1    1    3    3    0  502 -0.56402164207E+03 -0.18268418683E+03  0.10733085084E+04  0.12261668235E+04  0.50400001928E-02 0. -1.
</event>
<event>
 5   0  0.4838602E-08  0.3099918E+04  0.7818609E-02  0.8215760E-01
       -1   -1    0    0    0  501  0.00000000000E+00  0.00000000000E+00  0.84849548489E+03  0.84849548491E+03  0.50400001928E-02 0. -1.
        1   -1    0    0  501    0  0.00000000000E+00  0.00000000000E+00 -0.28313329003E+04  0.28313329003E+04  0.50400001928E-02 0.  1.
    10030    2    1    2    0    0  0.00000000000E+00  0.00000000000E+00 -0.19828374154E+04  0.36798283852E+04  0.30999181810E+04 0.  0.
        5    1    3    3  502    0 -0.10913777743E+04 -0.10605823380E+04 -0.64247029931E+03  0.16518869566E+04  0.46999998093E+01 0.  1.
       -5    1    3    3    0  502  0.10913777743E+04  0.10605823380E+04 -0.13403671161E+04  0.20279414286E+04  0.46999998093E+01 0. -1.
</event>
<event>
 5   0  0.1398931E-07  0.3093463E+04  0.7818609E-02  0.8217534E-01
       -2   -1    0    0    0  501  0.00000000000E+00  0.00000000000E+00  0.24445009896E+04  0.24445009896E+04  0.25500000920E-02 0.  1.
        2   -1    0    0  501    0  0.00000000000E+00  0.00000000000E+00 -0.97867782621E+03  0.97867782621E+03  0.25500000920E-02 0. -1.
    10030    2    1    2    0    0  0.00000000000E+00  0.00000000000E+00  0.14658231634E+04  0.34231788158E+04  0.30934633760E+04 0.  0.
        3    1    3    3  502    0  0.11824466360E+04  0.64012879831E+03  0.15788764662E+04  0.20738360184E+04  0.10100000352E+00 0.  1.
       -3    1    3    3    0  502 -0.11824466360E+04 -0.64012879831E+03 -0.11305330280E+03  0.13493427974E+04  0.10100000352E+00 0. -1.
</event>
<event>
 5   0  0.4470354E-08  0.3100384E+04  0.7818609E-02  0.8215633E-01
       -1   -1    0    0    0  501  0.00000000000E+00  0.00000000000E+00  0.25787265073E+04  0.25787265073E+04  0.50400001928E-02 0.  1.
        1   -1    0    0  501    0  0.00000000000E+00  0.00000000000E+00 -0.93189230501E+03  0.93189230502E+03  0.50400001928E-02 0. -1.
    10030    2    1    2    0    0  0.00000000000E+00  0.00000000000E+00  0.16468342022E+04  0.35106188123E+04  0.31003840981E+04 0.  0.
        1    1    3    3  502    0  0.13318270156E+04 -0.68261282099E+03  0.36574241791E+03  0.15406138319E+04  0.50400001928E-02 0. -1.
       -1    1    3    3    0  502 -0.13318270156E+04  0.68261282099E+03  0.12810917843E+04  0.19700049804E+04  0.50400001928E-02 0.  1.
</event>
<event>
 5   0  0.4838602E-08  0.3098818E+04  0.7818609E-02  0.8216062E-01
        1   -1    0    0  501    0  0.00000000000E+00  0.00000000000E+00  0.17055888114E+04  0.17055888114E+04  0.50400001928E-02 0. -1.
       -1   -1    0    0    0  501  0.00000000000E+00  0.00000000000E+00 -0.14075301994E+04  0.14075301994E+04  0.50400001928E-02 0.  1.
    10030    2    1    2    0    0  0.00000000000E+00  0.00000000000E+00  0.29805861197E+03  0.31131190108E+04  0.30988176841E+04 0.  0.
        5    1    3    3  502    0 -0.53283401699E+03 -0.11241427982E+04 -0.77883296905E+03  0.14677234086E+04  0.46999998093E+01 0.  1.
       -5    1    3    3    0  502  0.53283401699E+03  0.11241427982E+04  0.10768915810E+04  0.16453956022E+04  0.46999998093E+01 0. -1.
</event>
<event>
 5   0  0.1318916E-07  0.3097108E+04  0.7818609E-02  0.8216532E-01
       -2   -1    0    0    0  501  0.00000000000E+00  0.00000000000E+00  0.10614467653E+04  0.10614467653E+04  0.25500000920E-02 0. -1.
        2   -1    0    0  501    0  0.00000000000E+00  0.00000000000E+00 -0.22591990134E+04  0.22591990134E+04  0.25500000920E-02 0.  1.
    10030    2    1    2    0    0  0.00000000000E+00  0.00000000000E+00 -0.11977522480E+04  0.33206457787E+04  0.30971079962E+04 0.  0.
        5    1    3    3  502    0 -0.65859816286E+03 -0.57304942681E+03  0.77244540968E+03  0.11656891467E+04  0.46999998093E+01 0. -1.
       -5    1    3    3    0  502  0.65859816286E+03  0.57304942681E+03 -0.19701976577E+04  0.21549566321E+04  0.46999998093E+01 0.  1.
</event>
<event>
 5   0  0.4470354E-08  0.3100504E+04  0.7818609E-02  0.8215600E-01
       -1   -1    0    0    0  501  0.00000000000E+00  0.00000000000E+00  0.17864753244E+04  0.17864753244E+04  0.50400001928E-02 0.  1.
        1   -1    0    0  501    0  0.00000000000E+00  0.00000000000E+00 -0.13452638297E+04  0.13452638297E+04  0.50400001928E-02 0. -1.
    10030    2    1    2    0    0  0.00000000000E+00  0.00000000000E+00  0.44121149473E+03  0.31317391541E+04  0.31005035956E+04 0.  0.
        1    1    3    3  502    0  0.14189510760E+04 -0.42484018003E+03 -0.24157286595E+03  0.15007560709E+04  0.50400001928E-02 0.  1.
       -1    1    3    3    0  502 -0.14189510760E+04  0.42484018003E+03  0.68278436068E+03  0.16309830833E+04  0.50400001928E-02 0. -1.
</event>
<event>
 5   0  0.4838602E-08  0.3092281E+04  0.7818609E-02  0.8217860E-01
       -1   -1    0    0    0  501  0.00000000000E+00  0.00000000000E+00  0.12605651586E+04  0.12605651586E+04  0.50400001928E-02 0.  1.
        1   -1    0    0  501    0  0.00000000000E+00  0.00000000000E+00 -0.18964110864E+04  0.18964110864E+04  0.50400001928E-02 0. -1.
    10030    2    1    2    0    0  0.00000000000E+00  0.00000000000E+00 -0.63584592776E+03  0.31569762450E+04  0.30922805448E+04 0.  0.
        5    1    3    3  502    0  0.20570759225E+03  0.82220982617E+03 -0.16381065630E+04  0.18443860261E+04  0.46999998093E+01 0. -1.
       -5    1    3    3    0  502 -0.20570759225E+03 -0.82220982617E+03  0.10022606352E+04  0.13125902189E+04  0.46999998093E+01 0.  1.
</event>
<event>
 5   0  0.4436241E-08  0.3101270E+04  0.7818609E-02  0.8215390E-01
        1   -1    0    0  501    0  0.00000000000E+00  0.00000000000E+00  0.19666024978E+04  0.19666024978E+04  0.50400001928E-02 0. -1.
       -1   -1    0    0    0  501  0.00000000000E+00  0.00000000000E+00 -0.12226509366E+04  0.12226509366E+04  0.50400001928E-02 0.  1.
    10030    2    1    2    0    0  0.00000000000E+00  0.00000000000E+00  0.74395156120E+03  0.31892534343E+04  0.31012696663E+04 0.  0.
        3    1    3    3  502    0 -0.12039351912E+03 -0.54349018650E+03  0.18603057977E+04  0.19418068528E+04  0.10100000352E+00 0. -1.
       -3    1    3    3    0  502  0.12039351912E+03  0.54349018650E+03 -0.11163542365E+04  0.12474465816E+04  0.10100000352E+00 0.  1.
</event>
<event>
 5   0  0.1325713E-07  0.3100348E+04  0.7818609E-02  0.8215642E-01
       -2   -1    0    0    0  501  0.00000000000E+00  0.00000000000E+00  0.16621142290E+04  0.16621142290E+04  0.25500000920E-02 0. -1.
        2   -1    0    0  501    0  0.00000000000E+00  0.00000000000E+00 -0.14457726641E+04  0.14457726641E+04  0.25500000920E-02 0.  1.
    10030    2    1    2    0    0  0.00000000000E+00  0.00000000000E+00  0.21634156485E+03  0.31078868931E+04  0.31003479269E+04 0.  0.
        4    1    3    3  502    0 -0.36240708959E+03 -0.13010529341E+04 -0.65457370283E+03  0.15008484205E+04  0.12699999809E+01 0.  1.
       -4    1    3    3    0  502  0.36240708959E+03  0.13010529341E+04  0.87091526769E+03  0.16070384726E+04  0.12699999809E+01 0. -1.
</event>
<event>
 5   0  0.4517409E-08  0.3100714E+04  0.7818609E-02  0.8215542E-01
        1   -1    0    0  501    0  0.00000000000E+00  0.00000000000E+00  0.20927582219E+04  0.20927582219E+04  0.50400001928E-02 0.  1.
       -1   -1    0    0    0  501  0.00000000000E+00  0.00000000000E+00 -0.11485353538E+04  0.11485353539E+04  0.50400001928E-02 0. -1.
    10030    2    1    2    0    0  0.00000000000E+00  0.00000000000E+00  0.94422286808E+03  0.32412935758E+04  0.31007139855E+04 0.  0.
        2    1    3    3  502    0 -0.14577095554E+03  0.76980881211E+02 -0.11393477785E+04  0.11512117911E+04  0.25500000920E-02 0. -1.
       -2    1    3    3    0  502  0.14577095554E+03 -0.76980881211E+02  0.20835706466E+04  0.20900817847E+04  0.25500000920E-02 0.  1.
</event>
<event>
 5   0  0.4305500E-08  0.3099148E+04  0.7818609E-02  0.8215972E-01
        3   -1    0    0  501    0  0.00000000000E+00  0.00000000000E+00  0.13155496661E+04  0.13155496700E+04  0.10100000352E+00 0. -1.
       -3   -1    0    0    0  501  0.00000000000E+00  0.00000000000E+00 -0.18252294081E+04  0.18252294109E+04  0.10100000352E+00 0.  1.
    10030    2    1    2    0    0  0.00000000000E+00  0.00000000000E+00 -0.50967974200E+03  0.31407790809E+04  0.30991482372E+04 0.  0.
        5    1    3    3  502    0 -0.83987729502E+03  0.92374396521E+03 -0.11850262204E+04  0.17213384377E+04  0.46999998093E+01 0.  1.
       -5    1    3    3    0  502  0.83987729502E+03 -0.92374396521E+03  0.67534647839E+03  0.14194406433E+04  0.46999998093E+01 0. -1.
</event>
<event>
 5   0  0.1329777E-07  0.3105160E+04  0.7818609E-02  0.8214323E-01
       -2   -1    0    0    0  501  0.00000000000E+00  0.00000000000E+00  0.13124388470E+04  0.13124388470E+04  0.25500000920E-02 0.  1.
        2   -1    0    0  501    0  0.00000000000E+00  0.00000000000E+00 -0.18366610012E+04  0.18366610012E+04  0.25500000920E-02 0. -1.
    10030    2    1    2    0    0  0.00000000000E+00  0.00000000000E+00 -0.52422215417E+03  0.31490998481E+04  0.31051603802E+04 0.  0.
        1    1    3    3  502    0  0.13175289218E+04 -0.24689450274E+03  0.53234224855E+03  0.14422994227E+04  0.50400001928E-02 0.  1.
       -1    1    3    3    0  502 -0.13175289218E+04  0.24689450274E+03 -0.10565644027E+04  0.17068004254E+04  0.50400001928E-02 0. -1.
</event>
<event>
 5   0  0.1325713E-07  0.3099487E+04  0.7818609E-02  0.8215879E-01
       -2   -1    0    0    0  501  0.00000000000E+00  0.00000000000E+00  0.12132769237E+04  0.12132769237E+04  0.25500000920E-02 0. -1.
        2   -1    0    0  501    0  0.00000000000E+00  0.00000000000E+00 -0.19795189334E+04  0.19795189334E+04  0.25500000920E-02 0.  1.
    10030    2    1    2    0    0  0.00000000000E+00  0.00000000000E+00 -0.76624200969E+03  0.31927958571E+04  0.30994868233E+04 0.  0.
        4    1    3    3  502    0  0.11893859194E+04 -0.82549785132E+03 -0.95259046527E+03  0.17330654273E+04  0.12699999809E+01 0.  1.
       -4    1    3    3    0  502 -0.11893859194E+04  0.82549785132E+03  0.18634845558E+03  0.14597304298E+04  0.12699999809E+01 0. -1.
</event>
<event>
 5   0  0.1325713E-07  0.3097835E+04  0.7818609E-02  0.8216332E-01
       -2   -1    0    0    0  501  0.00000000000E+00  0.00000000000E+00  0.23363560409E+04  0.23363560409E+04  0.25500000920E-02 0. -1.
        2   -1    0    0  501    0  0.00000000000E+00  0.00000000000E+00 -0.10268748059E+04  0.10268748059E+04  0.25500000920E-02 0.  1.
    10030    2    1    2    0    0  0.00000000000E+00  0.00000000000E+00  0.13094812350E+04  0.33632308468E+04  0.30978348284E+04 0.  0.
        4    1    3    3  502    0  0.45193035199E+03 -0.76773615251E+03 -0.72088853171E+03  0.11460112264E+04  0.12699999809E+01 0.  1.
       -4    1    3    3    0  502 -0.45193035199E+03  0.76773615251E+03  0.20303697667E+04  0.22172196205E+04  0.12699999809E+01 0. -1.
</event>
<event>
 5   0  0.1325713E-07  0.3100652E+04  0.7818609E-02  0.8215559E-01
        2   -1    0    0  501    0  0.00000000000E+00  0.00000000000E+00  0.20259620671E+04  0.20259620671E+04  0.25500000920E-02 0.  1.
       -2   -1    0    0    0  501  0.00000000000E+00  0.00000000000E+00 -0.11863553448E+04  0.11863553448E+04  0.25500000920E-02 0. -1.
    10030    2    1    2    0    0  0.00000000000E+00  0.00000000000E+00  0.83960672229E+03  0.32123174119E+04  0.31006521421E+04 0.  0.
        4    1    3    3  502    0  0.63869744067E+03  0.83232543614E+03 -0.76270936765E+03  0.12970841317E+04  0.12699999809E+01 0. -1.
       -4    1    3    3    0  502 -0.63869744067E+03 -0.83232543614E+03  0.16023160899E+04  0.19152332801E+04  0.12699999809E+01 0.  1.
</event>
<event>
 5   0  0.1398931E-07  0.3099994E+04  0.7818609E-02  0.8215740E-01
       -2   -1    0    0    0  501  0.00000000000E+00  0.00000000000E+00  0.92522704111E+03  0.92522704112E+03  0.25500000920E-02 0.  1.
        2   -1    0    0  501    0  0.00000000000E+00  0.00000000000E+00 -0.25966495102E+04  0.25966495102E+04  0.25500000920E-02 0. -1.
    10030    2    1    2    0    0  0.00000000000E+00  0.00000000000E+00 -0.16714224691E+04  0.35218765513E+04  0.30999937698E+04 0.  0.
        3    1    3    3  502    0 -0.66327775696E+03 -0.10542747866E+04  0.21236480230E+03  0.12635392863E+04  0.10100000352E+00 0.  1.
       -3    1    3    3    0  502  0.66327775696E+03  0.10542747866E+04 -0.18837872714E+04  0.22583372650E+04  0.10100000352E+00 0. -1.
</event>
<event>
 5   0  0.4436241E-08  0.3101027E+04  0.7818609E-02  0.8215456E-01
       -1   -1    0    0    0  501  0.00000000000E+00  0.00000000000E+00  0.11028171619E+04  0.11028171619E+04  0.50400001928E-02 0. -1.
        1   -1    0    0  501    0  0.00000000000E+00  0.00000000000E+00 -0.21799547571E+04  0.21799547571E+04  0.50400001928E-02 0.  1.
    10030    2    1    2    0    0  0.00000000000E+00  0.00000000000E+00 -0.10771375952E+04  0.32827719190E+04  0.31010266161E+04 0.  0.
        3    1    3    3  502    0  0.38345142217E+03 -0.13950291307E+04  0.51741913822E+02  0.14476942027E+04  0.10100000352E+00 0. -1.
       -3    1    3    3    0  502 -0.38345142217E+03  0.13950291307E+04 -0.11288795090E+04  0.18350777163E+04  0.10100000352E+00 0.  1.
</event>
<event>
 5   0  0.4450600E-08  0.3100670E+04  0.7818609E-02  0.8215554E-01
        1   -1    0    0  501    0  0.00000000000E+00  0.00000000000E+00  0.10498800054E+04  0.10498800054E+04  0.50400001928E-02 0. -1.
       -1   -1    0    0    0  501  0.00000000000E+00  0.00000000000E+00 -0.22893457155E+04  0.22893457155E+04  0.50400001928E-02 0.  1.
    10030    2    1    2    0    0  0.00000000000E+00  0.00000000000E+00 -0.12394657101E+04  0.33392257210E+04  0.31006697936E+04 0.  0.
        4    1    3    3  502    0 -0.44167232757E+03 -0.81111323937E+03  0.72128389714E+03  0.11718494806E+04  0.12699999809E+01 0. -1.
       -4    1    3    3    0  502  0.44167232757E+03  0.81111323937E+03 -0.19607496072E+04  0.21673762404E+04  0.12699999809E+01 0.  1.
</event>
<event>
 5   0  0.1398931E-07  0.3101469E+04  0.7818609E-02  0.8215335E-01
        2   -1    0    0  501    0  0.00000000000E+00  0.00000000000E+00  0.15359964903E+04  0.15359964903E+04  0.25500000920E-02 0. -1.
       -2   -1    0    0    0  501  0.00000000000E+00  0.00000000000E+00 -0.15656143557E+04  0.15656143557E+04  0.25500000920E-02 0.  1.
    10030    2    1    2    0    0  0.00000000000E+00  0.00000000000E+00 -0.29617865467E+02  0.31016108460E+04  0.31014694295E+04 0.  0.
        3    1    3    3  502    0 -0.21189452879E+03 -0.59228321821E+03  0.14026756922E+04  0.15372695956E+04  0.10100000352E+00 0. -1.
       -3    1    3    3    0  502  0.21189452879E+03  0.59228321821E+03 -0.14322935577E+04  0.15643412504E+04  0.10100000352E+00 0.  1.
</event>
<event>
 5   0  0.1377237E-07  0.3097553E+04  0.7818609E-02  0.8216410E-01
       -2   -1    0    0    0  501  0.00000000000E+00  0.00000000000E+00  0.10518094014E+04  0.10518094014E+04  0.25500000920E-02 0.  1.
        2   -1    0    0  501    0  0.00000000000E+00  0.00000000000E+00 -0.22805543204E+04  0.22805543204E+04  0.25500000920E-02 0. -1.
    10030    2    1    2    0    0  0.00000000000E+00  0.00000000000E+00 -0.12287449190E+04  0.33323637218E+04  0.30975528887E+04 0.  0.
        2    1    3    3  502    0  0.12554219049E+04 -0.88666905949E+03 -0.81974223256E+03  0.17419080079E+04  0.25500000920E-02 0.  1.
       -2    1    3    3    0  502 -0.12554219049E+04  0.88666905949E+03 -0.40900268645E+03  0.15904557139E+04  0.25500000920E-02 0. -1.
</event>
<event>
 5   0  0.4470354E-08  0.3100007E+04  0.7818609E-02  0.8215736E-01
        1   -1    0    0  501    0  0.00000000000E+00  0.00000000000E+00  0.99386869487E+03  0.99386869489E+03  0.50400001928E-02 0. -1.
       -1   -1    0    0    0  501  0.00000000000E+00  0.00000000000E+00 -0.24173328434E+04  0.24173328434E+04  0.50400001928E-02 0.  1.
    10030    2    1    2    0    0  0.00000000000E+00  0.00000000000E+00 -0.14234641485E+04  0.34112015382E+04  0.31000073794E+04 0.  0.
        1    1    3    3  502    0 -0.92021073503E+03  0.72233814809E+03  0.40717670286E+03  0.12386900599E+04  0.50400001928E-02 0. -1.
       -1    1    3    3    0  502  0.92021073503E+03 -0.72233814809E+03 -0.18306408513E+04  0.21725114784E+04  0.50400001928E-02 0.  1.
</event>
<event>
 5   0  0.1329777E-07  0.3100755E+04  0.7818609E-02  0.8215531E-01
        2   -1    0    0  501    0  0.00000000000E+00  0.00000000000E+00  0.16871267446E+04  0.16871267446E+04  0.25500000920E-02 0. -1.
       -2   -1    0    0    0  501  0.00000000000E+00  0.00000000000E+00 -0.14247120040E+04  0.14247120040E+04  0.25500000920E-02 0.  1.
    10030    2    1    2    0    0  0.00000000000E+00  0.00000000000E+00  0.26241474057E+03  0.31118387487E+04  0.31007545697E+04 0.  0.
        1    1    3    3  502    0 -0.66243565860E+03  0.53626995884E+03 -0.11685141451E+04  0.14463166244E+04  0.50400001928E-02 0.  1.
       -1    1    3    3    0  502  0.66243565860E+03 -0.53626995884E+03  0.14309288857E+04  0.16655221243E+04  0.50400001928E-02 0. -1.
</event>
<event>
 5   0  0.4517409E-08  0.3101358E+04  0.7818609E-02  0.8215365E-01
        1   -1    0    0  501    0  0.00000000000E+00  0.00000000000E+00  0.29285164864E+04  0.29285164864E+04  0.50400001928E-02 0.  1.
       -1   -1    0    0    0  501  0.00000000000E+00  0.00000000000E+00 -0.82109997066E+03  0.82109997067E+03  0.50400001928E-02 0. -1.
    10030    2    1    2    0    0  0.00000000000E+00  0.00000000000E+00  0.21074165157E+04  0.37496164571E+04  0.31013576389E+04 0.  0.
        2    1    3    3  502    0  0.17700134523E+03 -0.13281891707E+04  0.19973583129E+04  0.24051727962E+04  0.25500000920E-02 0.  1.
       -2    1    3    3    0  502 -0.17700134523E+03  0.13281891707E+04  0.11005820286E+03  0.13444436609E+04  0.25500000920E-02 0. -1.
</event>
<event>
 5   0  0.1318916E-07  0.3100154E+04  0.7818609E-02  0.8215696E-01
        2   -1    0    0  501    0  0.00000000000E+00  0.00000000000E+00  0.20893496701E+04  0.20893496701E+04  0.25500000920E-02 0.  1.
       -2   -1    0    0    0  501  0.00000000000E+00  0.00000000000E+00 -0.11499935794E+04  0.11499935794E+04  0.25500000920E-02 0. -1.
    10030    2    1    2    0    0  0.00000000000E+00  0.00000000000E+00  0.93935609071E+03  0.32393432496E+04  0.31001539999E+04 0.  0.
        5    1    3    3  502    0 -0.18774140590E+03  0.56972315190E+03 -0.10237891733E+04  0.11865907747E+04  0.46999998093E+01 0. -1.
       -5    1    3    3    0  502  0.18774140590E+03 -0.56972315190E+03  0.19631452640E+04  0.20527524748E+04  0.46999998093E+01 0.  1.
</event>
<event>
 5   0  0.4517409E-08  0.3103031E+04  0.7818609E-02  0.8214907E-01
        1   -1    0    0  501    0  0.00000000000E+00  0.00000000000E+00  0.20363873823E+04  0.20363873823E+04  0.50400001928E-02 0. -1.
       -1   -1    0    0    0  501  0.00000000000E+00  0.00000000000E+00 -0.11820934865E+04  0.11820934865E+04  0.50400001928E-02 0.  1.
    10030    2    1    2    0    0  0.00000000000E+00  0.00000000000E+00  0.85429389582E+03  0.32184808688E+04  0.31030309445E+04 0.  0.
        2    1    3    3  502    0  0.24636213369E+03 -0.44131965928E+03  0.19486051176E+04  0.20130869943E+04  0.25500000920E-02 0. -1.
       -2    1    3    3    0  502 -0.24636213369E+03  0.44131965928E+03 -0.10943112217E+04  0.12053938745E+04  0.25500000920E-02 0.  1.
</event>
<event>
 5   0  0.4436241E-08  0.3097934E+04  0.7818609E-02  0.8216305E-01
        1   -1    0    0  501    0  0.00000000000E+00  0.00000000000E+00  0.19582098709E+04  0.19582098709E+04  0.50400001928E-02 0. -1.
       -1   -1    0    0    0  501  0.00000000000E+00  0.00000000000E+00 -0.12252508426E+04  0.12252508426E+04  0.50400001928E-02 0.  1.
    10030    2    1    2    0    0  0.00000000000E+00  0.00000000000E+00  0.73295902829E+03  0.31834607136E+04  0.30979336948E+04 0.  0.
        3    1    3    3  502    0  0.17779574243E+03 -0.26132670903E+02 -0.12145023066E+04  0.12277255823E+04  0.10100000352E+00 0.  1.
       -3    1    3    3    0  502 -0.17779574243E+03  0.26132670903E+02  0.19474613349E+04  0.19557351313E+04  0.10100000352E+00 0. -1.
</event>
<event>
 5   0  0.4838602E-08  0.3099658E+04  0.7818609E-02  0.8215832E-01
       -1   -1    0    0    0  501  0.00000000000E+00  0.00000000000E+00  0.18184167324E+04  0.18184167325E+04  0.50400001928E-02 0. -1.
        1   -1    0    0  501    0  0.00000000000E+00  0.00000000000E+00 -0.13209126722E+04  0.13209126722E+04  0.50400001928E-02 0.  1.
    10030    2    1    2    0    0  0.00000000000E+00  0.00000000000E+00  0.49750406024E+03  0.31393294047E+04  0.30996578555E+04 0.  0.
        5    1    3    3  502    0  0.78382547625E+03 -0.97858180008E+03  0.11714238063E+04  0.17158847690E+04  0.46999998093E+01 0. -1.
       -5    1    3    3    0  502 -0.78382547625E+03  0.97858180008E+03 -0.67391974604E+03  0.14234446357E+04  0.46999998093E+01 0.  1.
</event>
<event>
 5   0  0.1329777E-07  0.3094105E+04  0.7818609E-02  0.8217358E-01
        2   -1    0    0  501    0  0.00000000000E+00  0.00000000000E+00  0.26439883604E+04  0.26439883604E+04  0.25500000920E-02 0. -1.
       -2   -1    0    0    0  501  0.00000000000E+00  0.00000000000E+00 -0.90521228050E+03  0.90521228050E+03  0.25500000920E-02 0.  1.
    10030    2    1    2    0    0  0.00000000000E+00  0.00000000000E+00  0.17387760799E+04  0.35492006409E+04  0.30941045447E+04 0.  0.
        1    1    3    3  502    0  0.83783044571E+03  0.11603542629E+04  0.19563908486E+03  0.14445264009E+04  0.50400001928E-02 0.  1.
       -1    1    3    3    0  502 -0.83783044571E+03 -0.11603542629E+04  0.15431369950E+04  0.21046742400E+04  0.50400001928E-02 0. -1.
</event>
<event>
 5   0  0.4436241E-08  0.3099144E+04  0.7818609E-02  0.8215973E-01
       -1   -1    0    0    0  501  0.00000000000E+00  0.00000000000E+00  0.20015627884E+04  0.20015627884E+04  0.50400001928E-02 0.  1.
        1   -1    0    0  501    0  0.00000000000E+00  0.00000000000E+00 -0.11996491970E+04  0.11996491970E+04  0.50400001928E-02 0. -1.
    10030    2    1    2    0    0  0.00000000000E+00  0.00000000000E+00  0.80191359141E+03  0.32012119854E+04  0.30991438766E+04 0.  0.
        3    1    3    3  502    0  0.35555587286E+03 -0.14213563839E+04 -0.12013703838E+03  0.14700703613E+04  0.10100000352E+00 0. -1.
       -3    1    3    3    0  502 -0.35555587286E+03  0.14213563839E+04  0.92205062979E+03  0.17311416242E+04  0.10100000352E+00 0.  1.
</event>
<event>
 5   0  0.1377237E-07  0.3098495E+04  0.7818609E-02  0.8216151E-01
        2   -1    0    0  501    0  0.00000000000E+00  0.00000000000E+00  0.30305437931E+04  0.30305437931E+04  0.25500000920E-02 0. -1.
       -2   -1    0    0    0  501  0.00000000000E+00  0.00000000000E+00 -0.79199253881E+03  0.79199253882E+03  0.25500000920E-02 0.  1.
    10030    2    1    2    0    0  0.00000000000E+00  0.00000000000E+00  0.22385512543E+04  0.38225363319E+04  0.30984951655E+04 0.  0.
        2    1    3    3  502    0 -0.40875714805E+02 -0.14993944918E+04  0.15975748310E+04  0.21913694363E+04  0.25500000920E-02 0. -1.
       -2    1    3    3    0  502  0.40875714805E+02  0.14993944918E+04  0.64097642332E+03  0.16311668956E+04  0.25500000920E-02 0.  1.
</event>
<event>
 5   0  0.4450600E-08  0.3100763E+04  0.7818609E-02  0.8215528E-01
       -1   -1    0    0    0  501  0.00000000000E+00  0.00000000000E+00  0.12380285224E+04  0.12380285224E+04  0.50400001928E-02 0.  1.
        1   -1    0    0  501    0  0.00000000000E+00  0.00000000000E+00 -0.19415413094E+04  0.19415413094E+04  0.50400001928E-02 0. -1.
    10030    2    1    2    0    0  0.00000000000E+00  0.00000000000E+00 -0.70351278700E+03  0.31795698318E+04  0.31007634663E+04 0.  0.
        4    1    3    3  502    0 -0.21377766479E+03  0.14064250076E+04  0.28031013119E+03  0.14499336449E+04  0.12699999809E+01 0.  1.
       -4    1    3    3    0  502  0.21377766479E+03 -0.14064250076E+04 -0.98382291818E+03  0.17296361870E+04  0.12699999809E+01 0. -1.
</event>
<event>
 5   0  0.4838602E-08  0.3101096E+04  0.7818609E-02  0.8215437E-01
        1   -1    0    0  501    0  0.00000000000E+00  0.00000000000E+00  0.21631574735E+04  0.21631574735E+04  0.50400001928E-02 0. -1.
       -1   -1    0    0    0  501  0.00000000000E+00  0.00000000000E+00 -0.11114305371E+04  0.11114305371E+04  0.50400001928E-02 0.  1.
    10030    2    1    2    0    0  0.00000000000E+00  0.00000000000E+00  0.10517269364E+04  0.32745880107E+04  0.31010961112E+04 0.  0.
        5    1    3    3  502    0 -0.12290203836E+04  0.94534926714E+03  0.52489417754E+03  0.16369826901E+04  0.46999998093E+01 0.  1.
       -5    1    3    3    0  502  0.12290203836E+04 -0.94534926714E+03  0.52683275889E+03  0.16376053206E+04  0.46999998093E+01 0. -1.
</event>
<event>
 5   0  0.1318916E-07  0.3095624E+04  0.7818609E-02  0.8216940E-01
        2   -1    0    0  501    0  0.00000000000E+00  0.00000000000E+00  0.20889203300E+04  0.20889203300E+04  0.25500000920E-02 0.  1.
       -2   -1    0    0    0  501  0.00000000000E+00  0.00000000000E+00 -0.11468709847E+04  0.11468709847E+04  0.25500000920E-02 0. -1.
    10030    2    1    2    0    0  0.00000000000E+00  0.00000000000E+00  0.94204934525E+03  0.32357913147E+04  0.30956240830E+04 0.  0.
        5    1    3    3  502    0  0.12218386648E+03  0.72407297434E+03 -0.95320008791E+03  0.12032551961E+04  0.46999998093E+01 0. -1.
       -5    1    3    3    0  502 -0.12218386648E+03 -0.72407297434E+03  0.18952494332E+04  0.20325361186E+04  0.46999998093E+01 0.  1.
</event>
<event>
 5   0  0.4838602E-08  0.3101680E+04  0.7818609E-02  0.8215277E-01
       -1   -1    0    0    0  501  0.00000000000E+00  0.00000000000E+00  0.23837168182E+04  0.23837168182E+04  0.50400001928E-02 0. -1.
        1   -1    0    0  501    0  0.00000000000E+00  0.00000000000E+00 -0.10089723194E+04  0.10089723194E+04  0.50400001928E-02 0.  1.
    10030    2    1    2    0    0  0.00000000000E+00  0.00000000000E+00  0.13747444988E+04  0.33926891376E+04  0.31016797300E+04 0.  0.
        5    1    3    3  502    0 -0.88652880119E+03  0.96134103230E+03  0.15992379165E+04  0.20658397565E+04  0.46999998093E+01 0. -1.
       -5    1    3    3    0  502  0.88652880119E+03 -0.96134103230E+03 -0.22449341774E+03  0.13268493812E+04  0.46999998093E+01 0.  1.
</event>
<event>
 5   0  0.4517409E-08  0.3099787E+04  0.7818609E-02  0.8215796E-01
       -1   -1    0    0    0  501  0.00000000000E+00  0.00000000000E+00  0.10745982372E+04  0.10745982372E+04  0.50400001928E-02 0. -1.
        1   -1    0    0  501    0  0.00000000000E+00  0.00000000000E+00 -0.22354124198E+04  0.22354124198E+04  0.50400001928E-02 0.  1.
    10030    2    1    2    0    0  0.00000000000E+00  0.00000000000E+00 -0.11608141826E+04  0.33100106569E+04  0.30997872479E+04 0.  0.
        2    1    3    3  502    0  0.70838500324E+03  0.65275515856E+03 -0.18769481059E+04  0.21096996947E+04  0.25500000920E-02 0.  1.
       -2    1    3    3    0  502 -0.70838500324E+03 -0.65275515856E+03  0.71613392329E+03  0.12003109622E+04  0.25500000920E-02 0. -1.
</event>
<event>
 5   0  0.1329777E-07  0.3100497E+04  0.7818609E-02  0.8215601E-01
       -2   -1    0    0    0  501  0.00000000000E+00  0.00000000000E+00  0.16270386720E+04  0.16270386721E+04  0.25500000920E-02 0.  1.
        2   -1    0    0  501    0  0.00000000000E+00  0.00000000000E+00 -0.14770826708E+04  0.14770826708E+04  0.25500000920E-02 0. -1.
    10030    2    1    2    0    0  0.00000000000E+00  0.00000000000E+00  0.14995600127E+03  0.31041213428E+04  0.31004971390E+04 0.  0.
        1    1    3    3  502    0  0.45552063032E+03  0.24932460539E+03 -0.13874172041E+04  0.14814142910E+04  0.50400001928E-02 0. -1.
       -1    1    3    3    0  502 -0.45552063032E+03 -0.24932460539E+03  0.15373732053E+04  0.16227070518E+04  0.50400001928E-02 0.  1.
</event>
<event>
 5   0  0.4450600E-08  0.3101702E+04  0.7818609E-02  0.8215271E-01
       -1   -1    0    0    0  501  0.00000000000E+00  0.00000000000E+00  0.13038032908E+04  0.13038032908E+04  0.50400001928E-02 0. -1.
        1   -1    0    0  501    0  0.00000000000E+00  0.00000000000E+00 -0.18447104458E+04  0.18447104458E+04  0.50400001928E-02 0.  1.
    10030    2    1    2    0    0  0.00000000000E+00  0.00000000000E+00 -0.54090715493E+03  0.31485137366E+04  0.31017024679E+04 0.  0.
        4    1    3    3  502    0 -0.13512600986E+04  0.15705653031E+03 -0.10263853458E+04  0.17041241442E+04  0.12699999809E+01 0.  1.
       -4    1    3    3    0  502  0.13512600986E+04 -0.15705653031E+03  0.48547819086E+03  0.14443895924E+04  0.12699999809E+01 0. -1.
</event>
<event>
 5   0  0.1329777E-07  0.3099916E+04  0.7818609E-02  0.8215761E-01
        2   -1    0    0  501    0  0.00000000000E+00  0.00000000000E+00  0.16321773428E+04  0.16321773428E+04  0.25500000920E-02 0. -1.
       -2   -1    0    0    0  501  0.00000000000E+00  0.00000000000E+00 -0.14718808266E+04  0.14718808266E+04  0.25500000920E-02 0.  1.
    10030    2    1    2    0    0  0.00000000000E+00  0.00000000000E+00  0.16029651618E+03  0.31040581693E+04  0.30999164740E+04 0.  0.
        1    1    3    3  502    0  0.14416045204E+04  0.74217437355E+02 -0.48508685159E+03  0.15228398060E+04  0.50400001928E-02 0.  1.
       -1    1    3    3    0  502 -0.14416045204E+04 -0.74217437355E+02  0.64538336777E+03  0.15812183633E+04  0.50400001928E-02 0. -1.
</event>
<event>
 5   0  0.1329777E-07  0.3100151E+04  0.7818609E-02  0.8215696E-01
       -2   -1    0    0    0  501  0.00000000000E+00  0.00000000000E+00  0.17637049859E+04  0.17637049859E+04  0.25500000920E-02 0. -1.
        2   -1    0    0  501    0  0.00000000000E+00  0.00000000000E+00 -0.13623221095E+04  0.13623221095E+04  0.25500000920E-02 0.  1.
    10030    2    1    2    0    0  0.00000000000E+00  0.00000000000E+00  0.40138287642E+03  0.31260270954E+04  0.31001511557E+04 0.  0.
        1    1    3    3  502    0  0.14979792826E+04 -0.19373893894E+03 -0.15043564890E+03  0.15179287177E+04  0.50400001928E-02 0.  1.
       -1    1    3    3    0  502 -0.14979792826E+04  0.19373893894E+03  0.55181852533E+03  0.16080983777E+04  0.50400001928E-02 0. -1.
</event>
<event>
 5   0  0.4450600E-08  0.3099552E+04  0.7818609E-02  0.8215861E-01
        1   -1    0    0  501    0  0.00000000000E+00  0.00000000000E+00  0.17170215117E+04  0.17170215117E+04  0.50400001928E-02 0.  1.
       -1   -1    0    0    0  501  0.00000000000E+00  0.00000000000E+00 -0.13988208525E+04  0.13988208525E+04  0.50400001928E-02 0. -1.
    10030    2    1    2    0    0  0.00000000000E+00  0.00000000000E+00  0.31820065916E+03  0.31158423642E+04  0.30995518997E+04 0.  0.
        4    1    3    3  502    0 -0.52269782403E+02 -0.13649136410E+04  0.89512501792E+03  0.16330865832E+04  0.12699999809E+01 0.  1.
       -4    1    3    3    0  502  0.52269782403E+02  0.13649136410E+04 -0.57692435876E+03  0.14827557810E+04  0.12699999809E+01 0. -1.
</event>
<event>
 5   0  0.4436241E-08  0.3098816E+04  0.7818609E-02  0.8216063E-01
       -1   -1    0    0    0  501  0.00000000000E+00  0.00000000000E+00  0.11822842268E+04  0.11822842268E+04  0.50400001928E-02 0.  1.
        1   -1    0    0  501    0  0.00000000000E+00  0.00000000000E+00 -0.20305314373E+04  0.20305314373E+04  0.50400001928E-02 0. -1.
    10030    2    1    2    0    0  0.00000000000E+00  0.00000000000E+00 -0.84824721045E+03  0.32128156641E+04  0.30988160903E+04 0.  0.
        3    1    3    3  502    0 -0.89098144993E+03 -0.12670123185E+04 -0.46423967881E+03  0.16169992730E+04  0.10100000352E+00 0.  1.
       -3    1    3    3    0  502  0.89098144993E+03  0.12670123185E+04 -0.38400753164E+03  0.15958163911E+04  0.10100000352E+00 0. -1.
</event>
<event>
 5   0  0.1325713E-07  0.3097803E+04  0.7818609E-02  0.8216341E-01
       -2   -1    0    0    0  501  0.00000000000E+00  0.00000000000E+00  0.10772475041E+04  0.10772475041E+04  0.25500000920E-02 0. -1.
        2   -1    0    0  501    0  0.00000000000E+00  0.00000000000E+00 -0.22270609179E+04  0.22270609179E+04  0.25500000920E-02 0.  1.
    10030    2    1    2    0    0  0.00000000000E+00  0.00000000000E+00 -0.11498134138E+04  0.33043084221E+04  0.30978029733E+04 0.  0.
        4    1    3    3  502    0 -0.21336121217E+03  0.15240205818E+04 -0.76250722247E+03  0.17174343125E+04  0.12699999809E+01 0.  1.
       -4    1    3    3    0  502  0.21336121217E+03 -0.15240205818E+04 -0.38730619136E+03  0.15868741095E+04  0.12699999809E+01 0. -1.
</event>
<event>
 5   0  0.4450600E-08  0.3089002E+04  0.7818609E-02  0.8218763E-01
       -1   -1    0    0    0  501  0.00000000000E+00  0.00000000000E+00  0.10997794280E+04  0.10997794280E+04  0.50400001928E-02 0.  1.
        1   -1    0    0  501    0  0.00000000000E+00  0.00000000000E+00 -0.21690568585E+04  0.21690568585E+04  0.50400001928E-02 0. -1.
    10030    2    1    2    0    0  0.00000000000E+00  0.00000000000E+00 -0.10692774305E+04  0.32688362865E+04  0.30890024999E+04 0.  0.
        4    1    3    3  502    0 -0.79006019141E+03  0.63421784242E+03 -0.17682929280E+04  0.20379619403E+04  0.12699999809E+01 0. -1.
       -4    1    3    3    0  502  0.79006019141E+03 -0.63421784242E+03  0.69901549748E+03  0.12308743463E+04  0.12699999809E+01 0.  1.
</event>
<event>
 5   0  0.4470354E-08  0.3097668E+04  0.7818609E-02  0.8216378E-01
        1   -1    0    0  501    0  0.00000000000E+00  0.00000000000E+00  0.26796247779E+04  0.26796247779E+04  0.50400001928E-02 0.  1.
       -1   -1    0    0    0  501  0.00000000000E+00  0.00000000000E+00 -0.89523241553E+03  0.89523241555E+03  0.50400001928E-02 0. -1.
    10030    2    1    2    0    0  0.00000000000E+00  0.00000000000E+00  0.17843923624E+04  0.35748571935E+04  0.30976681311E+04 0.  0.
        1    1    3    3  502    0 -0.12024336618E+04 -0.46604878265E+03  0.18821504826E+04  0.22815649493E+04  0.50400001928E-02 0.  1.
       -1    1    3    3    0  502  0.12024336618E+04  0.46604878265E+03 -0.97758120203E+02  0.12932922442E+04  0.50400001928E-02 0. -1.
</event>
<event>
 5   0  0.4838602E-08  0.3100043E+04  0.7818609E-02  0.8215726E-01
       -1   -1    0    0    0  501  0.00000000000E+00  0.00000000000E+00  0.12041074385E+04  0.12041074385E+04  0.50400001928E-02 0. -1.
        1   -1    0    0  501    0  0.00000000000E+00  0.00000000000E+00 -0.19953091611E+04  0.19953091611E+04  0.50400001928E-02 0.  1.
    10030    2    1    2    0    0  0.00000000000E+00  0.00000000000E+00 -0.79120172261E+03  0.31994165995E+04  0.31000429693E+04 0.  0.
        5    1    3    3  502    0  0.11887165254E+03  0.10060806461E+04  0.81512646958E+03  0.13003007297E+04  0.46999998093E+01 0. -1.
       -5    1    3    3    0  502 -0.11887165254E+03 -0.10060806461E+04 -0.16063281922E+04  0.18991158699E+04  0.46999998093E+01 0.  1.
</event>
<event>
 5   0  0.1325713E-07  0.3100515E+04  0.7818609E-02  0.8215597E-01
       -2   -1    0    0    0  501  0.00000000000E+00  0.00000000000E+00  0.11895607376E+04  0.11895607376E+04  0.25500000920E-02 0. -1.
        2   -1    0    0  501    0  0.00000000000E+00  0.00000000000E+00 -0.20203240645E+04  0.20203240645E+04  0.25500000920E-02 0.  1.
    10030    2    1    2    0    0  0.00000000000E+00  0.00000000000E+00 -0.83076332692E+03  0.32098848021E+04  0.31005149148E+04 0.  0.
        4    1    3    3  502    0  0.14158246540E+04 -0.61054759734E+03 -0.24854897064E+03  0.15617637540E+04  0.12699999809E+01 0.  1.
       -4    1    3    3    0  502 -0.14158246540E+04  0.61054759734E+03 -0.58221435627E+03  0.16481210481E+04  0.12699999809E+01 0. -1.
</event>
<event>
 5   0  0.1377237E-07  0.3099387E+04  0.7818609E-02  0.8215906E-01
       -2   -1    0    0    0  501  0.00000000000E+00  0.00000000000E+00  0.12527847280E+04  0.12527847280E+04  0.25500000920E-02 0.  1.
        2   -1    0    0  501    0  0.00000000000E+00  0.00000000000E+00 -0.19169695559E+04  0.19169695559E+04  0.25500000920E-02 0. -1.
    10030    2    1    2    0    0  0.00000000000E+00  0.00000000000E+00 -0.66418482792E+03  0.31697542839E+04  0.30993871547E+04 0.  0.
        2    1    3    3  502    0 -0.31990751746E+03 -0.97269235280E+03 -0.15217208526E+04  0.18341498265E+04  0.25500000920E-02 0. -1.
       -2    1    3    3    0  502  0.31990751746E+03  0.97269235280E+03  0.85753602470E+03  0.13356044574E+04  0.25500000920E-02 0.  1.
</event>
<event>
 5   0  0.4838602E-08  0.3100218E+04  0.7818609E-02  0.8215678E-01
       -1   -1    0    0    0  501  0.00000000000E+00  0.00000000000E+00  0.96640726228E+03  0.96640726229E+03  0.50400001928E-02 0.  1.
        1   -1    0    0  501    0  0.00000000000E+00  0.00000000000E+00 -0.24863610502E+04  0.24863610502E+04  0.50400001928E-02 0. -1.
    10030    2    1    2    0    0  0.00000000000E+00  0.00000000000E+00 -0.15199537879E+04  0.34527683125E+04  0.31002176540E+04 0.  0.
        5    1    3    3  502    0  0.11257701673E+04  0.75585323364E+03 -0.15964842044E+04  0.20946256193E+04  0.46999998093E+01 0. -1.
       -5    1    3    3    0  502 -0.11257701673E+04 -0.75585323364E+03  0.76530416495E+02  0.13581426931E+04  0.46999998093E+01 0.  1.
</event>
<event>
 5   0  0.4470354E-08  0.3099376E+04  0.7818609E-02  0.8215909E-01
        1   -1    0    0  501    0  0.00000000000E+00  0.00000000000E+00  0.13451348610E+04  0.13451348610E+04  0.50400001928E-02 0.  1.
       -1   -1    0    0    0  501  0.00000000000E+00  0.00000000000E+00 -0.17853473820E+04  0.17853473820E+04  0.50400001928E-02 0. -1.
    10030    2    1    2    0    0  0.00000000000E+00  0.00000000000E+00 -0.44021252099E+03  0.31304822430E+04  0.30993760679E+04 0.  0.
        1    1    3    3  502    0  0.11771699756E+04  0.48219580507E+03 -0.11140260534E+04  0.16909452959E+04  0.50400001928E-02 0. -1.
       -1    1    3    3    0  502 -0.11771699756E+04 -0.48219580507E+03  0.67381353243E+03  0.14395369472E+04  0.50400001928E-02 0.  1.
</event>
<event>
 5   0  0.1398931E-07  0.3101546E+04  0.7818609E-02  0.8215314E-01
       -2   -1    0    0    0  501  0.00000000000E+00  0.00000000000E+00  0.20174828860E+04  0.20174828860E+04  0.25500000920E-02 0. -1.
        2   -1    0    0  501    0  0.00000000000E+00  0.00000000000E+00 -0.11920283765E+04  0.11920283765E+04  0.25500000920E-02 0.  1.
    10030    2    1    2    0    0  0.00000000000E+00  0.00000000000E+00  0.82545450946E+03  0.32095112625E+04  0.31015459688E+04 0.  0.
        3    1    3    3  502    0  0.15064533707E+04  0.35285556264E+03  0.30425450338E+03  0.15768575139E+04  0.10100000352E+00 0. -1.
       -3    1    3    3    0  502 -0.15064533707E+04 -0.35285556264E+03  0.52120000608E+03  0.16326537486E+04  0.10100000352E+00 0.  1.
</event>
<event>
 5   0  0.1325713E-07  0.3102566E+04  0.7818609E-02  0.8215034E-01
        2   -1    0    0  501    0  0.00000000000E+00  0.00000000000E+00  0.12538277811E+04  0.12538277811E+04  0.25500000920E-02 0.  1.
       -2   -1    0    0    0  501  0.00000000000E+00  0.00000000000E+00 -0.19193051984E+04  0.19193051984E+04  0.25500000920E-02 0. -1.
    10030    2    1    2    0    0  0.00000000000E+00  0.00000000000E+00 -0.66547741729E+03  0.31731329796E+04  0.31025655051E+04 0.  0.
        4    1    3    3  502    0 -0.47493046965E+03  0.14678108404E+04 -0.16640834345E+03  0.15516832679E+04  0.12699999809E+01 0.  1.
       -4    1    3    3    0  502  0.47493046965E+03 -0.14678108404E+04 -0.49906907384E+03  0.16214497117E+04  0.12699999809E+01 0. -1.
</event>
<event>
 5   0  0.1325713E-07  0.3100116E+04  0.7818609E-02  0.8215706E-01
       -2   -1    0    0    0  501  0.00000000000E+00  0.00000000000E+00  0.18739950724E+04  0.18739950724E+04  0.25500000920E-02 0.  1.
        2   -1    0    0  501    0  0.00000000000E+00  0.00000000000E+00 -0.12821160760E+04  0.12821160760E+04  0.25500000920E-02 0. -1.
    10030    2    1    2    0    0  0.00000000000E+00  0.00000000000E+00  0.59187899635E+03  0.31561111484E+04  0.31001156163E+04 0.  0.
        4    1    3    3  502    0  0.74075017162E+03 -0.69167605999E+03  0.14899626510E+04  0.18019758330E+04  0.12699999809E+01 0. -1.
       -4    1    3    3    0  502 -0.74075017162E+03  0.69167605999E+03 -0.89808365461E+03  0.13541353154E+04  0.12699999809E+01 0.  1.
</event>
<event>
 5   0  0.4436241E-08  0.3100061E+04  0.7818609E-02  0.8215721E-01
        1   -1    0    0  501    0  0.00000000000E+00  0.00000000000E+00  0.11196105927E+04  0.11196105927E+04  0.50400001928E-02 0. -1.
       -1   -1    0    0    0  501  0.00000000000E+00  0.00000000000E+00 -0.21459200764E+04  0.21459200764E+04  0.50400001928E-02 0.  1.
    10030    2    1    2    0    0  0.00000000000E+00  0.00000000000E+00 -0.10263094837E+04  0.32655306691E+04  0.31000611921E+04 0.  0.
        3    1    3    3  502    0  0.48144590650E+03  0.98665219184E+03 -0.16657823168E+04  0.19950196605E+04  0.10100000352E+00 0.  1.
       -3    1    3    3    0  502 -0.48144590650E+03 -0.98665219184E+03  0.63947283314E+03  0.12705110086E+04  0.10100000352E+00 0. -1.
</event>
<event>
 5   0  0.4436241E-08  0.3100866E+04  0.7818609E-02  0.8215500E-01
        1   -1    0    0  501    0  0.00000000000E+00  0.00000000000E+00  0.15054364375E+04  0.15054364375E+04  0.50400001928E-02 0.  1.
       -1   -1    0    0    0  501  0.00000000000E+00  0.00000000000E+00 -0.15967741775E+04  0.15967741775E+04  0.50400001928E-02 0. -1.
    10030    2    1    2    0    0  0.00000000000E+00  0.00000000000E+00 -0.91337739990E+02  0.31022106150E+04  0.31008657044E+04 0.  0.
        3    1    3    3  502    0  0.12036324845E+04 -0.90508784872E+03  0.32317361897E+03  0.15402455550E+04  0.10100000352E+00 0.  1.
       -3    1    3    3    0  502 -0.12036324845E+04  0.90508784872E+03 -0.41451135896E+03  0.15619650600E+04  0.10100000352E+00 0. -1.
</event>
<event>
 5   0  0.4470354E-08  0.3099720E+04  0.7818609E-02  0.8215815E-01
        1   -1    0    0  501    0  0.00000000000E+00  0.00000000000E+00  0.18567884446E+04  0.18567884446E+04  0.50400001928E-02 0. -1.
       -1   -1    0    0    0  501  0.00000000000E+00  0.00000000000E+00 -0.12936669810E+04  0.12936669810E+04  0.50400001928E-02 0.  1.
    10030    2    1    2    0    0  0.00000000000E+00  0.00000000000E+00  0.56312146362E+03  0.31504554256E+04  0.30997199238E+04 0.  0.
        1    1    3    3  502    0  0.73845132200E+03  0.59710537337E+03  0.15264435251E+04  0.17977416436E+04  0.50400001928E-02 0. -1.
       -1    1    3    3    0  502 -0.73845132200E+03 -0.59710537337E+03 -0.96332206145E+03  0.13527137820E+04  0.50400001928E-02 0.  1.
</event>
<event>
 5   0  0.4517409E-08  0.3100358E+04  0.7818609E-02  0.8215640E-01
       -1   -1    0    0    0  501  0.00000000000E+00  0.00000000000E+00  0.12719879544E+04  0.12719879544E+04  0.50400001928E-02 0.  1.
        1   -1    0    0  501    0  0.00000000000E+00  0.00000000000E+00 -0.18892125123E+04  0.18892125123E+04  0.50400001928E-02 0. -1.
    10030    2    1    2    0    0  0.00000000000E+00  0.00000000000E+00 -0.61722455783E+03  0.31612004667E+04  0.31003584044E+04 0.  0.
        2    1    3    3  502    0 -0.44752514422E+03 -0.13129466744E+03 -0.18159805445E+04  0.18749139667E+04  0.25500000920E-02 0. -1.
       -2    1    3    3    0  502  0.44752514422E+03  0.13129466744E+03  0.11987559867E+04  0.12862865000E+04  0.25500000920E-02 0.  1.
</event>
<event>
 5   0  0.1398931E-07  0.3100280E+04  0.7818609E-02  0.8215661E-01
       -2   -1    0    0    0  501  0.00000000000E+00  0.00000000000E+00  0.16729686375E+04  0.16729686375E+04  0.25500000920E-02 0. -1.
        2   -1    0    0  501    0  0.00000000000E+00  0.00000000000E+00 -0.14363292506E+04  0.14363292506E+04  0.25500000920E-02 0.  1.
    10030    2    1    2    0    0  0.00000000000E+00  0.00000000000E+00  0.23663938698E+03  0.31092978881E+04  0.31002798515E+04 0.  0.
        3    1    3    3  502    0 -0.74467096125E+03 -0.18924695747E+03 -0.12319190590E+04  0.14518863005E+04  0.10100000352E+00 0.  1.
       -3    1    3    3    0  502  0.74467096125E+03  0.18924695747E+03  0.14685584459E+04  0.16574115876E+04  0.10100000352E+00 0. -1.
</event>
<event>
 5   0  0.1398931E-07  0.3099535E+04  0.7818609E-02  0.8215866E-01
       -2   -1    0    0    0  501  0.00000000000E+00  0.00000000000E+00  0.12999854588E+04  0.12999854588E+04  0.25500000920E-02 0. -1.
        2   -1    0    0  501    0  0.00000000000E+00  0.00000000000E+00 -0.18475427889E+04  0.18475427889E+04  0.25500000920E-02 0.  1.
    10030    2    1    2    0    0  0.00000000000E+00  0.00000000000E+00 -0.54755733007E+03  0.31475282477E+04  0.30995346490E+04 0.  0.
        3    1    3    3  502    0  0.35239964971E+03 -0.20085294853E+03 -0.17926833731E+04  0.18379992128E+04  0.10100000352E+00 0.  1.
       -3    1    3    3    0  502 -0.35239964971E+03  0.20085294853E+03  0.12451260430E+04  0.13095290349E+04  0.10100000352E+00 0. -1.
</event>
<event>
 5   0  0.4436241E-08  0.3095962E+04  0.7818609E-02  0.8216847E-01
        1   -1    0    0  501    0  0.00000000000E+00  0.00000000000E+00  0.15116823981E+04  0.15116823981E+04  0.50400001928E-02 0. -1.
       -1   -1    0    0    0  501  0.00000000000E+00  0.00000000000E+00 -0.15851516794E+04  0.15851516794E+04  0.50400001928E-02 0.  1.
    10030    2    1    2    0    0  0.00000000000E+00  0.00000000000E+00 -0.73469281329E+02  0.30968340775E+04  0.30959624623E+04 0.  0.
        3    1    3    3  502    0  0.41206505684E+03 -0.77761818531E+03 -0.13105758842E+04  0.15786376442E+04  0.10100000352E+00 0.  1.
       -3    1    3    3    0  502 -0.41206505684E+03  0.77761818531E+03  0.12371066028E+04  0.15181964333E+04  0.10100000352E+00 0. -1.
</event>
<event>
 5   0  0.1325713E-07  0.3099772E+04  0.7818609E-02  0.8215800E-01
       -2   -1    0    0    0  501  0.00000000000E+00  0.00000000000E+00  0.14881078862E+04  0.14881078862E+04  0.25500000920E-02 0. -1.
        2   -1    0    0  501    0  0.00000000000E+00  0.00000000000E+00 -0.16142288757E+04  0.16142288757E+04  0.25500000920E-02 0.  1.
    10030    2    1    2    0    0  0.00000000000E+00  0.00000000000E+00 -0.12612098950E+03  0.31023367619E+04  0.30997720691E+04 0.  0.
        4    1    3    3  502    0  0.11394734702E+04  0.23517338187E+03  0.96171969289E+03  0.15095074327E+04  0.12699999809E+01 0. -1.
       -4    1    3    3    0  502 -0.11394734702E+04 -0.23517338187E+03 -0.10878406824E+04  0.15928293292E+04  0.12699999809E+01 0.  1.
</event>
<event>
 5   0  0.1329777E-07  0.3098973E+04  0.7818609E-02  0.8216020E-01
        2   -1    0    0  501    0  0.00000000000E+00  0.00000000000E+00  0.20892892947E+04  0.20892892947E+04  0.25500000920E-02 0. -1.
       -2   -1    0    0    0  501  0.00000000000E+00  0.00000000000E+00 -0.11491506627E+04  0.11491506627E+04  0.25500000920E-02 0.  1.
    10030    2    1    2    0    0  0.00000000000E+00  0.00000000000E+00  0.94013863203E+03  0.32384399575E+04  0.30989728477E+04 0.  0.
        1    1    3    3  502    0  0.13420118236E+03 -0.75708745048E+02 -0.11411248120E+04  0.11514806155E+04  0.50400001928E-02 0.  1.
       -1    1    3    3    0  502 -0.13420118236E+03  0.75708745048E+02  0.20812634440E+04  0.20869593419E+04  0.50400001928E-02 0. -1.
</event>
<event>
 5   0  0.1325713E-07  0.3100739E+04  0.7818609E-02  0.8215535E-01
       -2   -1    0    0    0  501  0.00000000000E+00  0.00000000000E+00  0.19309961995E+04  0.19309961995E+04  0.25500000920E-02 0. -1.
        2   -1    0    0  501    0  0.00000000000E+00  0.00000000000E+00 -0.12447695407E+04  0.12447695407E+04  0.25500000920E-02 0.  1.
    10030    2    1    2    0    0  0.00000000000E+00  0.00000000000E+00  0.68622665884E+03  0.31757657402E+04  0.31007387844E+04 0.  0.
        4    1    3    3  502    0 -0.38561484527E+03 -0.58090451060E+02  0.18799440607E+04  0.19199647377E+04  0.12699999809E+01 0. -1.
       -4    1    3    3    0  502  0.38561484527E+03  0.58090451060E+02 -0.11937174019E+04  0.12558010025E+04  0.12699999809E+01 0.  1.
</event>
<event>
 5   0  0.4838602E-08  0.3100205E+04  0.7818609E-02  0.8215682E-01
        1   -1    0    0  501    0  0.00000000000E+00  0.00000000000E+00  0.20997244978E+04  0.20997244978E+04  0.50400001928E-02 0. -1.
       -1   -1    0    0    0  501  0.00000000000E+00  0.00000000000E+00 -0.11443488732E+04  0.11443488733E+04  0.50400001928E-02 0.  1.
    10030    2    1    2    0    0  0.00000000000E+00  0.00000000000E+00  0.95537562459E+03  0.32440733711E+04  0.31002047437E+04 0.  0.
        5    1    3    3  502    0 -0.15477901653E+04  0.71939582995E+02  0.43129561052E+03  0.16083742391E+04  0.46999998093E+01 0.  1.
       -5    1    3    3    0  502  0.15477901653E+04 -0.71939582995E+02  0.52408001407E+03  0.16356991320E+04  0.46999998093E+01 0. -1.
</event>
<event>
 5   0  0.1329777E-07  0.3100440E+04  0.7818609E-02  0.8215617E-01
        2   -1    0    0  501    0  0.00000000000E+00  0.00000000000E+00  0.11518983985E+04  0.11518983985E+04  0.25500000920E-02 0.  1.
       -2   -1    0    0    0  501  0.00000000000E+00  0.00000000000E+00 -0.20862796188E+04  0.20862796188E+04  0.25500000920E-02 0. -1.
    10030    2    1    2    0    0  0.00000000000E+00  0.00000000000E+00 -0.93438122031E+03  0.32381780173E+04  0.31004400666E+04 0.  0.
        1    1    3    3  502    0  0.11858917945E+04 -0.99761942268E+03 -0.50894530162E+03  0.16311373887E+04  0.50400001928E-02 0. -1.
       -1    1    3    3    0  502 -0.11858917945E+04  0.99761942268E+03 -0.42543591869E+03  0.16070406286E+04  0.50400001928E-02 0.  1.
</event>
<event>
 5   0  0.1318916E-07  0.3099771E+04  0.7818609E-02  0.8215801E-01
        2   -1    0    0  501    0  0.00000000000E+00  0.00000000000E+00  0.21689971877E+04  0.21689971877E+04  0.25500000920E-02 0.  1.
       -2   -1    0    0    0  501  0.00000000000E+00  0.00000000000E+00 -0.11074910152E+04  0.11074910152E+04  0.25500000920E-02 0. -1.
    10030    2    1    2    0    0  0.00000000000E+00  0.00000000000E+00  0.10615061725E+04  0.32764882029E+04  0.30997708931E+04 0.  0.
        5    1    3    3  502    0  0.26195892209E+03  0.70967794157E+03  0.19605937824E+04  0.21014793188E+04  0.46999998093E+01 0.  1.
       -5    1    3    3    0  502 -0.26195892209E+03 -0.70967794157E+03 -0.89908760988E+03  0.11750088842E+04  0.46999998093E+01 0. -1.
</event>
<event>
 5   0  0.4450600E-08  0.3098539E+04  0.7818609E-02  0.8216139E-01
        1   -1    0    0  501    0  0.00000000000E+00  0.00000000000E+00  0.18052940146E+04  0.18052940146E+04  0.50400001928E-02 0. -1.
       -1   -1    0    0    0  501  0.00000000000E+00  0.00000000000E+00 -0.13295540190E+04  0.13295540191E+04  0.50400001928E-02 0.  1.
    10030    2    1    2    0    0  0.00000000000E+00  0.00000000000E+00  0.47573999551E+03  0.31348480336E+04  0.30985389542E+04 0.  0.
        4    1    3    3  502    0  0.43944289975E+03 -0.14529186836E+04  0.55158670373E+03  0.16150332096E+04  0.12699999809E+01 0. -1.
       -4    1    3    3    0  502 -0.43944289975E+03  0.14529186836E+04 -0.75846708215E+02  0.15198148241E+04  0.12699999809E+01 0.  1.
</event>
<event>
 5   0  0.1318916E-07  0.3099011E+04  0.7818609E-02  0.8216010E-01
       -2   -1    0    0    0  501  0.00000000000E+00  0.00000000000E+00  0.14395488465E+04  0.14395488465E+04  0.25500000920E-02 0.  1.
        2   -1    0    0  501    0  0.00000000000E+00  0.00000000000E+00 -0.16678604272E+04  0.16678604272E+04  0.25500000920E-02 0. -1.
    10030    2    1    2    0    0  0.00000000000E+00  0.00000000000E+00 -0.22831158071E+03  0.31074092737E+04  0.30990105221E+04 0.  0.
        5    1    3    3  502    0  0.20789222210E+03  0.24569048920E+03 -0.16339685047E+04  0.16653702762E+04  0.46999998093E+01 0. -1.
       -5    1    3    3    0  502 -0.20789222210E+03 -0.24569048920E+03  0.14056569240E+04  0.14420389975E+04  0.46999998093E+01 0.  1.
</event>
<event>
 5   0  0.1377237E-07  0.3101586E+04  0.7818609E-02  0.8215303E-01
       -2   -1    0    0    0  501  0.00000000000E+00  0.00000000000E+00  0.19807286933E+04  0.19807286933E+04  0.25500000920E-02 0.  1.
        2   -1    0    0  501    0  0.00000000000E+00  0.00000000000E+00 -0.12141789520E+04  0.12141789520E+04  0.25500000920E-02 0. -1.
    10030    2    1    2    0    0  0.00000000000E+00  0.00000000000E+00  0.76654974130E+03  0.31949076454E+04  0.31015861034E+04 0.  0.
        2    1    3    3  502    0 -0.33827232729E+03 -0.15127115428E+04  0.33457979557E+03  0.15857704811E+04  0.25500000920E-02 0. -1.
       -2    1    3    3    0  502  0.33827232729E+03  0.15127115428E+04  0.43196994572E+03  0.16091371642E+04  0.25500000920E-02 0.  1.
</event>
<event>
 5   0  0.1377237E-07  0.3100773E+04  0.7818609E-02  0.8215526E-01
        2   -1    0    0  501    0  0.00000000000E+00  0.00000000000E+00  0.19818309189E+04  0.19818309189E+04  0.25500000920E-02 0.  1.
       -2   -1    0    0    0  501  0.00000000000E+00  0.00000000000E+00 -0.12128673283E+04  0.12128673283E+04  0.25500000920E-02 0. -1.
    10030    2    1    2    0    0  0.00000000000E+00  0.00000000000E+00  0.76896359056E+03  0.31946982472E+04  0.31007727887E+04 0.  0.
        2    1    3    3  502    0  0.97460182618E+03 -0.40709227152E+03 -0.78485314435E+03  0.13158903052E+04  0.25500000920E-02 0. -1.
       -2    1    3    3    0  502 -0.97460182618E+03  0.40709227152E+03  0.15538167349E+04  0.18788079420E+04  0.25500000920E-02 0.  1.
</event>
<event>
 5   0  0.4436241E-08  0.3102971E+04  0.7818609E-02  0.8214923E-01
        1   -1    0    0  501    0  0.00000000000E+00  0.00000000000E+00  0.29153210262E+04  0.29153210262E+04  0.50400001928E-02 0. -1.
       -1   -1    0    0    0  501  0.00000000000E+00  0.00000000000E+00 -0.82567463206E+03  0.82567463207E+03  0.50400001928E-02 0.  1.
    10030    2    1    2    0    0  0.00000000000E+00  0.00000000000E+00  0.20896463942E+04  0.37409956583E+04  0.31029705868E+04 0.  0.
        3    1    3    3  502    0 -0.10527782399E+04  0.78336493533E+03  0.46921446412E+02  0.13130895920E+04  0.10100000352E+00 0.  1.
       -3    1    3    3    0  502  0.10527782399E+04 -0.78336493533E+03  0.20427249478E+04  0.24279060663E+04  0.10100000352E+00 0. -1.
</event>
<event>
 5   0  0.4517409E-08  0.3099949E+04  0.7818609E-02  0.8215752E-01
       -1   -1    0    0    0  501  0.00000000000E+00  0.00000000000E+00  0.21430486331E+04  0.21430486331E+04  0.50400001928E-02 0.  1.
        1   -1    0    0  501    0  0.00000000000E+00  0.00000000000E+00 -0.11210293896E+04  0.11210293896E+04  0.50400001928E-02 0. -1.
    10030    2    1    2    0    0  0.00000000000E+00  0.00000000000E+00  0.10220192435E+04  0.32640780227E+04  0.30999487099E+04 0.  0.
        2    1    3    3  502    0 -0.10313558404E+04 -0.11370942863E+04  0.73620766907E+03  0.17025510323E+04  0.25500000920E-02 0. -1.
       -2    1    3    3    0  502  0.10313558404E+04  0.11370942863E+04  0.28581157442E+03  0.15615269904E+04  0.25500000920E-02 0.  1.
</event>
<event>
 5   0  0.1329777E-07  0.3099743E+04  0.7818609E-02  0.8215808E-01
       -2   -1    0    0    0  501  0.00000000000E+00  0.00000000000E+00  0.12080954229E+04  0.12080954229E+04  0.25500000920E-02 0. -1.
        2   -1    0    0  501    0  0.00000000000E+00  0.00000000000E+00 -0.19883379324E+04  0.19883379324E+04  0.25500000920E-02 0.  1.
    10030    2    1    2    0    0  0.00000000000E+00  0.00000000000E+00 -0.78024250951E+03  0.31964333553E+04  0.30997431863E+04 0.  0.
        1    1    3    3  502    0  0.14080554667E+04  0.20890719639E+03 -0.10223018696E+04  0.17525306065E+04  0.50400001928E-02 0.  1.
       -1    1    3    3    0  502 -0.14080554667E+04 -0.20890719639E+03  0.24205936008E+03  0.14439027488E+04  0.50400001928E-02 0. -1.
</event>
<event>
 5   0  0.4517409E-08  0.3095639E+04  0.7818609E-02  0.8216936E-01
       -1   -1    0    0    0  501  0.00000000000E+00  0.00000000000E+00  0.14890985751E+04  0.14890985752E+04  0.50400001928E-02 0.  1.
        1   -1    0    0  501    0  0.00000000000E+00  0.00000000000E+00 -0.16088559291E+04  0.16088559291E+04  0.50400001928E-02 0. -1.
    10030    2    1    2    0    0  0.00000000000E+00  0.00000000000E+00 -0.11975735393E+03  0.30979545042E+04  0.30956389141E+04 0.  0.
        2    1    3    3  502    0 -0.49583468738E+03 -0.10913438812E+04 -0.10398259170E+04  0.15868589861E+04  0.25500000920E-02 0. -1.
       -2    1    3    3    0  502  0.49583468738E+03  0.10913438812E+04  0.92006856303E+03  0.15110955181E+04  0.25500000920E-02 0.  1.
</event>
<event>
 5   0  0.4838602E-08  0.3098591E+04  0.7818609E-02  0.8216125E-01
        1   -1    0    0  501    0  0.00000000000E+00  0.00000000000E+00  0.21501569703E+04  0.21501569703E+04  0.50400001928E-02 0. -1.
       -1   -1    0    0    0  501  0.00000000000E+00  0.00000000000E+00 -0.11163446893E+04  0.11163446893E+04  0.50400001928E-02 0.  1.
    10030    2    1    2    0    0  0.00000000000E+00  0.00000000000E+00  0.10338122810E+04  0.32665016596E+04  0.30985908507E+04 0.  0.
        5    1    3    3  502    0 -0.86425843274E+03 -0.22535466639E+03 -0.81761890236E+03  0.12108881549E+04  0.46999998093E+01 0.  1.
       -5    1    3    3    0  502  0.86425843274E+03  0.22535466639E+03  0.18514311833E+04  0.20556135047E+04  0.46999998093E+01 0. -1.
</event>
<event>
 5   0  0.1318916E-07  0.3090450E+04  0.7818609E-02  0.8218364E-01
       -2   -1    0    0    0  501  0.00000000000E+00  0.00000000000E+00  0.20376169266E+04  0.20376169266E+04  0.25500000920E-02 0.  1.
        2   -1    0    0  501    0  0.00000000000E+00  0.00000000000E+00 -0.11718197362E+04  0.11718197362E+04  0.25500000920E-02 0. -1.
    10030    2    1    2    0    0  0.00000000000E+00  0.00000000000E+00  0.86579719043E+03  0.32094366628E+04  0.30904496304E+04 0.  0.
        5    1    3    3  502    0  0.10092808109E+04  0.89798129942E+03 -0.34610179407E+03  0.13945704397E+04  0.46999998093E+01 0. -1.
       -5    1    3    3    0  502 -0.10092808109E+04 -0.89798129942E+03  0.12118989845E+04  0.18148662232E+04  0.46999998093E+01 0.  1.
</event>
<event>
 5   0  0.4517409E-08  0.3099367E+04  0.7818609E-02  0.8215912E-01
        1   -1    0    0  501    0  0.00000000000E+00  0.00000000000E+00  0.19579204006E+04  0.19579204006E+04  0.50400001928E-02 0.  1.
       -1   -1    0    0    0  501  0.00000000000E+00  0.00000000000E+00 -0.12265659034E+04  0.12265659034E+04  0.50400001928E-02 0. -1.
    10030    2    1    2    0    0  0.00000000000E+00  0.00000000000E+00  0.73135449722E+03  0.31844863040E+04  0.30993666481E+04 0.  0.
        2    1    3    3  502    0 -0.76151778532E+03  0.13613955628E+03  0.17453412625E+04  0.19090991171E+04  0.25500000920E-02 0.  1.
       -2    1    3    3    0  502  0.76151778532E+03 -0.13613955628E+03 -0.10139867653E+04  0.12753871869E+04  0.25500000920E-02 0. -1.
</event>
<event>
 5   0  0.4436241E-08  0.3100616E+04  0.7818609E-02  0.8215569E-01
        1   -1    0    0  501    0  0.00000000000E+00  0.00000000000E+00  0.21116493449E+04  0.21116493449E+04  0.50400001928E-02 0.  1.
       -1   -1    0    0    0  501  0.00000000000E+00  0.00000000000E+00 -0.11381885633E+04  0.11381885633E+04  0.50400001928E-02 0. -1.
    10030    2    1    2    0    0  0.00000000000E+00  0.00000000000E+00  0.97346078165E+03  0.32498379082E+04  0.31006161543E+04 0.  0.
        3    1    3    3  502    0  0.80619776097E+03  0.24685511302E+03 -0.87686679633E+03  0.12164652339E+04  0.10100000352E+00 0. -1.
       -3    1    3    3    0  502 -0.80619776097E+03 -0.24685511302E+03  0.18503275780E+04  0.20333726743E+04  0.10100000352E+00 0.  1.
</event>
<event>
 5   0  0.4838602E-08  0.3099999E+04  0.7818609E-02  0.8215738E-01
       -1   -1    0    0    0  501  0.00000000000E+00  0.00000000000E+00  0.12963817687E+04  0.12963817687E+04  0.50400001928E-02 0.  1.
        1   -1    0    0  501    0  0.00000000000E+00  0.00000000000E+00 -0.18532334332E+04  0.18532334332E+04  0.50400001928E-02 0. -1.
    10030    2    1    2    0    0  0.00000000000E+00  0.00000000000E+00 -0.55685166451E+03  0.31496152019E+04  0.30999987329E+04 0.  0.
        5    1    3    3  502    0  0.59964465428E+03  0.76240142712E+03 -0.15067616819E+04  0.17919772609E+04  0.46999998093E+01 0. -1.
       -5    1    3    3    0  502 -0.59964465428E+03 -0.76240142712E+03  0.94991001744E+03  0.13576379410E+04  0.46999998093E+01 0.  1.
</event>
<event>
 5   0  0.1377237E-07  0.3099717E+04  0.7818609E-02  0.8215816E-01
       -2   -1    0    0    0  501  0.00000000000E+00  0.00000000000E+00  0.16231076163E+04  0.16231076163E+04  0.25500000920E-02 0.  1.
        2   -1    0    0  501    0  0.00000000000E+00  0.00000000000E+00 -0.14799152372E+04  0.14799152373E+04  0.25500000920E-02 0. -1.
    10030    2    1    2    0    0  0.00000000000E+00  0.00000000000E+00  0.14319237901E+03  0.31030228535E+04  0.30997172084E+04 0.  0.
        2    1    3    3  502    0 -0.14826661473E+04 -0.42071286200E+03  0.23536611935E+03  0.15590687691E+04  0.25500000920E-02 0. -1.
       -2    1    3    3    0  502  0.14826661473E+04  0.42071286200E+03 -0.92173740338E+02  0.15439540845E+04  0.25500000920E-02 0.  1.
</event>
<event>
 5   0  0.1398931E-07  0.3098089E+04  0.7818609E-02  0.8216262E-01
        2   -1    0    0  501    0  0.00000000000E+00  0.00000000000E+00  0.18173648897E+04  0.18173648897E+04  0.25500000920E-02 0. -1.
       -2   -1    0    0    0  501  0.00000000000E+00  0.00000000000E+00 -0.13203398324E+04  0.13203398324E+04  0.25500000920E-02 0.  1.
    10030    2    1    2    0    0  0.00000000000E+00  0.00000000000E+00  0.49702505734E+03  0.31377047221E+04  0.30980892523E+04 0.  0.
        3    1    3    3  502    0  0.14711928338E+04 -0.48067505862E+03  0.31322302337E+03  0.15791027638E+04  0.10100000352E+00 0.  1.
       -3    1    3    3    0  502 -0.14711928338E+04  0.48067505862E+03  0.18380203397E+03  0.15586019582E+04  0.10100000352E+00 0. -1.
</event>
<event>
 5   0  0.4436241E-08  0.3101783E+04  0.7818609E-02  0.8215249E-01
        1   -1    0    0  501    0  0.00000000000E+00  0.00000000000E+00  0.10267006301E+04  0.10267006301E+04  0.50400001928E-02 0.  1.
       -1   -1    0    0    0  501  0.00000000000E+00  0.00000000000E+00 -0.23427119513E+04  0.23427119513E+04  0.50400001928E-02 0. -1.
    10030    2    1    2    0    0  0.00000000000E+00  0.00000000000E+00 -0.13160113212E+04  0.33694125813E+04  0.31017826077E+04 0.  0.
        3    1    3    3  502    0  0.99838482835E+03 -0.11678968984E+04 -0.42883247273E+03  0.15951967686E+04  0.10100000352E+00 0. -1.
       -3    1    3    3    0  502 -0.99838482835E+03  0.11678968984E+04 -0.88717884846E+03  0.17742158127E+04  0.10100000352E+00 0.  1.
</event>
<event>
 5   0  0.1329777E-07  0.3100586E+04  0.7818609E-02  0.8215577E-01
       -2   -1    0    0    0  501  0.00000000000E+00  0.00000000000E+00  0.14324362397E+04  0.14324362397E+04  0.25500000920E-02 0.  1.
        2   -1    0    0  501    0  0.00000000000E+00  0.00000000000E+00 -0.16778467723E+04  0.16778467723E+04  0.25500000920E-02 0. -1.
    10030    2    1    2    0    0  0.00000000000E+00  0.00000000000E+00 -0.24541053262E+03  0.31102830121E+04  0.31005860875E+04 0.  0.
        1    1    3    3  502    0 -0.81319667881E+03 -0.10228350982E+04 -0.95953727481E+03  0.16211700276E+04  0.50400001928E-02 0. -1.
       -1    1    3    3    0  502  0.81319667881E+03  0.10228350982E+04  0.71412674219E+03  0.14891129845E+04  0.50400001928E-02 0.  1.
</event>
<event>
 5   0  0.1329777E-07  0.3099185E+04  0.7818609E-02  0.8215962E-01
       -2   -1    0    0    0  501  0.00000000000E+00  0.00000000000E+00  0.10051391681E+04  0.10051391681E+04  0.25500000920E-02 0.  1.
        2   -1    0    0  501    0  0.00000000000E+00  0.00000000000E+00 -0.23889597414E+04  0.23889597415E+04  0.25500000920E-02 0. -1.
    10030    2    1    2    0    0  0.00000000000E+00  0.00000000000E+00 -0.13838205734E+04  0.33940989095E+04  0.30991850587E+04 0.  0.
        1    1    3    3  502    0  0.24335395086E+02 -0.84271093070E+03  0.73199925115E+03  0.11165020501E+04  0.50400001928E-02 0.  1.
       -1    1    3    3    0  502 -0.24335395086E+02  0.84271093070E+03 -0.21158198245E+04  0.22775968594E+04  0.50400001928E-02 0. -1.
</event>
<event>
 5   0  0.1318916E-07  0.3101398E+04  0.7818609E-02  0.8215354E-01
        2   -1    0    0  501    0  0.00000000000E+00  0.00000000000E+00  0.12945335903E+04  0.12945335903E+04  0.25500000920E-02 0.  1.
       -2   -1    0    0    0  501  0.00000000000E+00  0.00000000000E+00 -0.18575549836E+04  0.18575549836E+04  0.25500000920E-02 0. -1.
    10030    2    1    2    0    0  0.00000000000E+00  0.00000000000E+00 -0.56302139334E+03  0.31520885739E+04  0.31013979571E+04 0.  0.
        5    1    3    3  502    0  0.44942831093E+03 -0.40725615218E+03 -0.17320025930E+04  0.18351290015E+04  0.46999998093E+01 0. -1.
       -5    1    3    3    0  502 -0.44942831093E+03  0.40725615218E+03  0.11689811996E+04  0.13169595724E+04  0.46999998093E+01 0.  1.
</event>
<event>
 5   0  0.1398931E-07  0.3099301E+04  0.7818609E-02  0.8215930E-01
        2   -1    0    0  501    0  0.00000000000E+00  0.00000000000E+00  0.17295624554E+04  0.17295624554E+04  0.25500000920E-02 0. -1.
       -2   -1    0    0    0  501  0.00000000000E+00  0.00000000000E+00 -0.13884531710E+04  0.13884531710E+04  0.25500000920E-02 0.  1.
    10030    2    1    2    0    0  0.00000000000E+00  0.00000000000E+00  0.34110928437E+03  0.31180156263E+04  0.30993008731E+04 0.  0.
        3    1    3    3  502    0 -0.75232989919E+03  0.12987366450E+04  0.55849863634E+03  0.16014486839E+04  0.10100000352E+00 0.  1.
       -3    1    3    3    0  502  0.75232989919E+03 -0.12987366450E+04 -0.21738935197E+03  0.15165669424E+04  0.10100000352E+00 0. -1.
</event>
<event>
 5   0  0.4470354E-08  0.3099511E+04  0.7818609E-02  0.8215872E-01
       -1   -1    0    0    0  501  0.00000000000E+00  0.00000000000E+00  0.72271111046E+03  0.72271111047E+03  0.50400001928E-02 0.  1.
        1   -1    0    0  501    0  0.00000000000E+00  0.00000000000E+00 -0.33232386243E+04  0.33232386243E+04  0.50400001928E-02 0. -1.
    10030    2    1    2    0    0  0.00000000000E+00  0.00000000000E+00 -0.26005275139E+04  0.40459497348E+04  0.30995105914E+04 0.  0.
        1    1    3    3  502    0 -0.36510807698E+03  0.64412175872E+03  0.47690591632E+03  0.88070199328E+03  0.50400001928E-02 0.  1.
       -1    1    3    3    0  502  0.36510807698E+03 -0.64412175872E+03 -0.30774334302E+04  0.31652477415E+04  0.50400001928E-02 0. -1.
</event>
<event>
 5   0  0.4470354E-08  0.3097402E+04  0.7818609E-02  0.8216451E-01
        1   -1    0    0  501    0  0.00000000000E+00  0.00000000000E+00  0.13285971223E+04  0.13285971223E+04  0.50400001928E-02 0.  1.
       -1   -1    0    0    0  501  0.00000000000E+00  0.00000000000E+00 -0.18052689347E+04  0.18052689347E+04  0.50400001928E-02 0. -1.
    10030    2    1    2    0    0  0.00000000000E+00  0.00000000000E+00 -0.47667181234E+03  0.31338660570E+04  0.30974022094E+04 0.  0.
        1    1    3    3  502    0  0.85814231083E+03  0.10536283435E+04  0.51333281655E+03  0.14526016289E+04  0.50400001928E-02 0.  1.
       -1    1    3    3    0  502 -0.85814231083E+03 -0.10536283435E+04 -0.99000462889E+03  0.16812644281E+04  0.50400001928E-02 0. -1.
</event>
<event>
 5   0  0.4470354E-08  0.3099614E+04  0.7818609E-02  0.8215844E-01
       -1   -1    0    0    0  501  0.00000000000E+00  0.00000000000E+00  0.14169917770E+04  0.14169917770E+04  0.50400001928E-02 0. -1.
        1   -1    0    0  501    0  0.00000000000E+00  0.00000000000E+00 -0.16950710846E+04  0.16950710846E+04  0.50400001928E-02 0.  1.
    10030    2    1    2    0    0  0.00000000000E+00  0.00000000000E+00 -0.27807930763E+03  0.31120628617E+04  0.30996140330E+04 0.  0.
        1    1    3    3  502    0  0.33741035714E+03  0.14314972250E+04  0.35166832964E+03  0.15121840722E+04  0.50400001928E-02 0. -1.
       -1    1    3    3    0  502 -0.33741035714E+03 -0.14314972250E+04 -0.62974763727E+03  0.15998787894E+04  0.50400001928E-02 0.  1.
</event>
<event>
 5   0  0.1318916E-07  0.3100611E+04  0.7818609E-02  0.8215570E-01
       -2   -1    0    0    0  501  0.00000000000E+00  0.00000000000E+00  0.18961588707E+04  0.18961588707E+04  0.25500000920E-02 0. -1.
        2   -1    0    0  501    0  0.00000000000E+00  0.00000000000E+00 -0.12675344390E+04  0.12675344390E+04  0.25500000920E-02 0.  1.
    10030    2    1    2    0    0  0.00000000000E+00  0.00000000000E+00  0.62862443165E+03  0.31636933097E+04  0.31006106950E+04 0.  0.
        5    1    3    3  502    0  0.59843815507E+03  0.12530405746E+03  0.17679354438E+04  0.18706809337E+04  0.46999998093E+01 0. -1.
       -5    1    3    3    0  502 -0.59843815507E+03 -0.12530405746E+03 -0.11393110121E+04  0.12930123760E+04  0.46999998093E+01 0.  1.
</event>
<event>
 5   0  0.1329777E-07  0.3103729E+04  0.7818609E-02  0.8214715E-01
       -2   -1    0    0    0  501  0.00000000000E+00  0.00000000000E+00  0.11965472346E+04  0.11965472346E+04  0.25500000920E-02 0.  1.
        2   -1    0    0  501    0  0.00000000000E+00  0.00000000000E+00 -0.20126939117E+04  0.20126939117E+04  0.25500000920E-02 0. -1.
    10030    2    1    2    0    0  0.00000000000E+00  0.00000000000E+00 -0.81614667708E+03  0.32092411463E+04  0.31037289406E+04 0.  0.
        1    1    3    3  502    0  0.76757421938E+03 -0.10594562473E+04 -0.12711129970E+04  0.18241014153E+04  0.50400001928E-02 0. -1.
       -1    1    3    3    0  502 -0.76757421938E+03  0.10594562473E+04  0.45496631988E+03  0.13851397310E+04  0.50400001928E-02 0.  1.
</event>
<event>
 5   0  0.4838602E-08  0.3100184E+04  0.7818609E-02  0.8215687E-01
       -1   -1    0    0    0  501  0.00000000000E+00  0.00000000000E+00  0.13421236851E+04  0.13421236851E+04  0.50400001928E-02 0. -1.
        1   -1    0    0  501    0  0.00000000000E+00  0.00000000000E+00 -0.17902857754E+04  0.17902857754E+04  0.50400001928E-02 0.  1.
    10030    2    1    2    0    0  0.00000000000E+00  0.00000000000E+00 -0.44816209031E+03  0.31324094606E+04  0.31001838283E+04 0.  0.
        5    1    3    3  502    0  0.13896404170E+04 -0.36173827616E+02 -0.91703346750E+03  0.16653472626E+04  0.46999998093E+01 0.  1.
       -5    1    3    3    0  502 -0.13896404170E+04  0.36173827616E+02  0.46887137719E+03  0.14670621980E+04  0.46999998093E+01 0. -1.
</event>
<event>
 5   0  0.4436241E-08  0.3101944E+04  0.7818609E-02  0.8215205E-01
       -1   -1    0    0    0  501  0.00000000000E+00  0.00000000000E+00  0.90411830912E+03  0.90411830914E+03  0.50400001928E-02 0.  1.
        1   -1    0    0  501    0  0.00000000000E+00  0.00000000000E+00 -0.26606187872E+04  0.26606187872E+04  0.50400001928E-02 0. -1.
    10030    2    1    2    0    0  0.00000000000E+00  0.00000000000E+00 -0.17565004781E+04  0.35647370963E+04  0.31019440092E+04 0.  0.
        3    1    3    3  502    0 -0.14456955846E+03  0.23880749140E+03 -0.26315101595E+04  0.26462757046E+04  0.10100000352E+00 0. -1.
       -3    1    3    3    0  502  0.14456955846E+03 -0.23880749140E+03  0.87500968145E+03  0.91846139168E+03  0.10100000352E+00 0.  1.
</event>
<event>
 5   0  0.1329777E-07  0.3098548E+04  0.7818609E-02  0.8216137E-01
       -2   -1    0    0    0  501  0.00000000000E+00  0.00000000000E+00  0.14748842781E+04  0.14748842781E+04  0.25500000920E-02 0.  1.
        2   -1    0    0  501    0  0.00000000000E+00  0.00000000000E+00 -0.16274154799E+04  0.16274154799E+04  0.25500000920E-02 0. -1.
    10030    2    1    2    0    0  0.00000000000E+00  0.00000000000E+00 -0.15253120175E+03  0.31022997580E+04  0.30985477277E+04 0.  0.
        1    1    3    3  502    0 -0.11731230606E+03  0.83416978625E+03 -0.13780893159E+04  0.16151568258E+04  0.50400001928E-02 0. -1.
       -1    1    3    3    0  502  0.11731230606E+03 -0.83416978625E+03  0.12255581141E+04  0.14871429321E+04  0.50400001928E-02 0.  1.
</event>
<event>
 5   0  0.4436241E-08  0.3100043E+04  0.7818609E-02  0.8215726E-01
        1   -1    0    0  501    0  0.00000000000E+00  0.00000000000E+00  0.15447076461E+04  0.15447076461E+04  0.50400001928E-02 0.  1.
       -1   -1    0    0    0  501  0.00000000000E+00  0.00000000000E+00 -0.15553534950E+04  0.15553534950E+04  0.50400001928E-02 0. -1.
    10030    2    1    2    0    0  0.00000000000E+00  0.00000000000E+00 -0.10645848873E+02  0.31000611411E+04  0.31000428618E+04 0.  0.
        3    1    3    3  502    0 -0.71026384625E+03 -0.10709774924E+04 -0.87198765955E+03  0.15530067641E+04  0.10100000352E+00 0. -1.
       -3    1    3    3    0  502  0.71026384625E+03  0.10709774924E+04  0.86134181068E+03  0.15470543771E+04  0.10100000352E+00 0.  1.
</event>
<event>
 5   0  0.4517409E-08  0.3100166E+04  0.7818609E-02  0.8215692E-01
       -1   -1    0    0    0  501  0.00000000000E+00  0.00000000000E+00  0.17562176233E+04  0.17562176233E+04  0.50400001928E-02 0. -1.
        1   -1    0    0  501    0  0.00000000000E+00  0.00000000000E+00 -0.13681435566E+04  0.13681435566E+04  0.50400001928E-02 0.  1.
    10030    2    1    2    0    0  0.00000000000E+00  0.00000000000E+00  0.38807406670E+03  0.31243611800E+04  0.31001663345E+04 0.  0.
        2    1    3    3  502    0 -0.10290943510E+04  0.10215509104E+04 -0.35810400339E+03  0.14935996529E+04  0.25500000920E-02 0.  1.
       -2    1    3    3    0  502  0.10290943510E+04 -0.10215509104E+04  0.74617807009E+03  0.16307615271E+04  0.25500000920E-02 0. -1.
</event>
<event>
 5   0  0.4450600E-08  0.3108551E+04  0.7818609E-02  0.8213395E-01
       -1   -1    0    0    0  501  0.00000000000E+00  0.00000000000E+00  0.10079563698E+04  0.10079563698E+04  0.50400001928E-02 0. -1.
        1   -1    0    0  501    0  0.00000000000E+00  0.00000000000E+00 -0.23967033184E+04  0.23967033184E+04  0.50400001928E-02 0.  1.
    10030    2    1    2    0    0  0.00000000000E+00  0.00000000000E+00 -0.13887469486E+04  0.34046596882E+04  0.31085510299E+04 0.  0.
        4    1    3    3  502    0  0.49405737471E+03 -0.82453582537E+03  0.64337276167E+03  0.11566685524E+04  0.12699999809E+01 0. -1.
       -4    1    3    3    0  502 -0.49405737471E+03  0.82453582537E+03 -0.20321197103E+04  0.22479911358E+04  0.12699999809E+01 0.  1.
</event>
<event>
 5   0  0.4450600E-08  0.3102641E+04  0.7818609E-02  0.8215013E-01
       -1   -1    0    0    0  501  0.00000000000E+00  0.00000000000E+00  0.13720266882E+04  0.13720266883E+04  0.50400001928E-02 0.  1.
        1   -1    0    0  501    0  0.00000000000E+00  0.00000000000E+00 -0.17540440959E+04  0.17540440959E+04  0.50400001928E-02 0. -1.
    10030    2    1    2    0    0  0.00000000000E+00  0.00000000000E+00 -0.38201740764E+03  0.31260707841E+04  0.31026410117E+04 0.  0.
        4    1    3    3  502    0 -0.22168692869E+03  0.14263476814E+04 -0.76361444290E+03  0.16330099304E+04  0.12699999809E+01 0. -1.
       -4    1    3    3    0  502  0.22168692869E+03 -0.14263476814E+04  0.38159703526E+03  0.14930608537E+04  0.12699999809E+01 0.  1.
</event>
<event>
 5   0  0.4470354E-08  0.3095910E+04  0.7818609E-02  0.8216861E-01
        1   -1    0    0  501    0  0.00000000000E+00  0.00000000000E+00  0.17344296645E+04  0.17344296645E+04  0.50400001928E-02 0. -1.
       -1   -1    0    0    0  501  0.00000000000E+00  0.00000000000E+00 -0.13815286085E+04  0.13815286085E+04  0.50400001928E-02 0.  1.
    10030    2    1    2    0    0  0.00000000000E+00  0.00000000000E+00  0.35290105603E+03  0.31159582731E+04  0.30959096893E+04 0.  0.
        1    1    3    3  502    0  0.93997148563E+03 -0.11721347984E+04  0.55131085510E+03  0.16004343281E+04  0.50400001928E-02 0. -1.
       -1    1    3    3    0  502 -0.93997148563E+03  0.11721347984E+04 -0.19840979907E+03  0.15155239450E+04  0.50400001928E-02 0.  1.
</event>
<event>
 5   0  0.4436241E-08  0.3099874E+04  0.7818609E-02  0.8215773E-01
        1   -1    0    0  501    0  0.00000000000E+00  0.00000000000E+00  0.18597386792E+04  0.18597386792E+04  0.50400001928E-02 0.  1.
       -1   -1    0    0    0  501  0.00000000000E+00  0.00000000000E+00 -0.12917428920E+04  0.12917428920E+04  0.50400001928E-02 0. -1.
    10030    2    1    2    0    0  0.00000000000E+00  0.00000000000E+00  0.56799578728E+03  0.31514815712E+04  0.30998736876E+04 0.  0.
        3    1    3    3  502    0 -0.84369042543E+03 -0.10645558807E+03  0.16013945004E+04  0.18131769584E+04  0.10100000352E+00 0.  1.
       -3    1    3    3    0  502  0.84369042543E+03  0.10645558807E+03 -0.10333987131E+04  0.13383046128E+04  0.10100000352E+00 0. -1.
</event>
<event>
 5   0  0.4450600E-08  0.3101821E+04  0.7818609E-02  0.8215238E-01
        1   -1    0    0  501    0  0.00000000000E+00  0.00000000000E+00  0.29899535684E+04  0.29899535684E+04  0.50400001928E-02 0.  1.
       -1   -1    0    0    0  501  0.00000000000E+00  0.00000000000E+00 -0.80446856216E+03  0.80446856218E+03  0.50400001928E-02 0. -1.
    10030    2    1    2    0    0  0.00000000000E+00  0.00000000000E+00  0.21854850062E+04  0.37944221306E+04  0.31018211735E+04 0.  0.
        4    1    3    3  502    0  0.16851270145E+03 -0.11371992558E+04 -0.18071394807E+03  0.11637344292E+04  0.12699999809E+01 0. -1.
       -4    1    3    3    0  502 -0.16851270145E+03  0.11371992558E+04  0.23661989543E+04  0.26306877013E+04  0.12699999809E+01 0.  1.
</event>
<event>
 5   0  0.1318916E-07  0.3110610E+04  0.7818609E-02  0.8212832E-01
       -2   -1    0    0    0  501  0.00000000000E+00  0.00000000000E+00  0.10464678646E+04  0.10464678646E+04  0.25500000920E-02 0. -1.
        2   -1    0    0  501    0  0.00000000000E+00  0.00000000000E+00 -0.23115603614E+04  0.23115603614E+04  0.25500000920E-02 0.  1.
    10030    2    1    2    0    0  0.00000000000E+00  0.00000000000E+00 -0.12650924967E+04  0.33580282260E+04  0.31106099951E+04 0.  0.
        5    1    3    3  502    0  0.96282739723E+03  0.44901976196E+03  0.59371636788E+03  0.12170359727E+04  0.46999998093E+01 0. -1.
       -5    1    3    3    0  502 -0.96282739723E+03 -0.44901976196E+03 -0.18588088646E+04  0.21409922533E+04  0.46999998093E+01 0.  1.
</event>
<event>
 5   0  0.4517409E-08  0.3099393E+04  0.7818609E-02  0.8215905E-01
       -1   -1    0    0    0  501  0.00000000000E+00  0.00000000000E+00  0.17413025301E+04  0.17413025301E+04  0.50400001928E-02 0. -1.
        1   -1    0    0  501    0  0.00000000000E+00  0.00000000000E+00 -0.13791736437E+04  0.13791736437E+04  0.50400001928E-02 0.  1.
    10030    2    1    2    0    0  0.00000000000E+00  0.00000000000E+00  0.36212888646E+03  0.31204761738E+04  0.30993925568E+04 0.  0.
        2    1    3    3  502    0  0.94995618722E+03 -0.11379026174E+03 -0.10463238445E+04  0.14178006097E+04  0.25500000920E-02 0.  1.
       -2    1    3    3    0  502 -0.94995618722E+03  0.11379026174E+03  0.14084527309E+04  0.17026755641E+04  0.25500000920E-02 0. -1.
</event>
<event>
 5   0  0.4436241E-08  0.3099575E+04  0.7818609E-02  0.8215854E-01
        1   -1    0    0  501    0  0.00000000000E+00  0.00000000000E+00  0.86436444674E+03  0.86436444675E+03  0.50400001928E-02 0.  1.
       -1   -1    0    0    0  501  0.00000000000E+00  0.00000000000E+00 -0.27787372601E+04  0.27787372601E+04  0.50400001928E-02 0. -1.
    10030    2    1    2    0    0  0.00000000000E+00  0.00000000000E+00 -0.19143728134E+04  0.36431017069E+04  0.30995752577E+04 0.  0.
        3    1    3    3  502    0 -0.81821612517E+02 -0.15464231546E+04 -0.88547688303E+03  0.17838690170E+04  0.10100000352E+00 0.  1.
       -3    1    3    3    0  502  0.81821612517E+02  0.15464231546E+04 -0.10288959304E+04  0.18592326899E+04  0.10100000352E+00 0. -1.
</event>
<event>
 5   0  0.4517409E-08  0.3101020E+04  0.7818609E-02  0.8215458E-01
        1   -1    0    0  501    0  0.00000000000E+00  0.00000000000E+00  0.11870701817E+04  0.11870701817E+04  0.50400001928E-02 0.  1.
       -1   -1    0    0    0  501  0.00000000000E+00  0.00000000000E+00 -0.20252220396E+04  0.20252220396E+04  0.50400001928E-02 0. -1.
    10030    2    1    2    0    0  0.00000000000E+00  0.00000000000E+00 -0.83815185795E+03  0.32122922213E+04  0.31010196352E+04 0.  0.
        2    1    3    3  502    0  0.85521678391E+03  0.53266038105E+03  0.80175371342E+03  0.12876070231E+04  0.25500000920E-02 0.  1.
       -2    1    3    3    0  502 -0.85521678391E+03 -0.53266038105E+03 -0.16399055714E+04  0.19246851982E+04  0.25500000920E-02 0. -1.
</event>
<event>
 5   0  0.1329777E-07  0.3100670E+04  0.7818609E-02  0.8215554E-01
        2   -1    0    0  501    0  0.00000000000E+00  0.00000000000E+00  0.26401392797E+04  0.26401392797E+04  0.25500000920E-02 0.  1.
       -2   -1    0    0    0  501  0.00000000000E+00  0.00000000000E+00 -0.91038337786E+03  0.91038337787E+03  0.25500000920E-02 0. -1.
    10030    2    1    2    0    0  0.00000000000E+00  0.00000000000E+00  0.17297559018E+04  0.35505226576E+04  0.31006701956E+04 0.  0.
        1    1    3    3  502    0  0.10534903511E+04  0.73242088297E+03 -0.13157835625E+03  0.12898043005E+04  0.50400001928E-02 0. -1.
       -1    1    3    3    0  502 -0.10534903511E+04 -0.73242088297E+03  0.18613342581E+04  0.22607183571E+04  0.50400001928E-02 0.  1.
</event>
<event>
 5   0  0.4470354E-08  0.3100464E+04  0.7818609E-02  0.8215611E-01
        1   -1    0    0  501    0  0.00000000000E+00  0.00000000000E+00  0.20570975775E+04  0.20570975775E+04  0.50400001928E-02 0. -1.
       -1   -1    0    0    0  501  0.00000000000E+00  0.00000000000E+00 -0.11682575051E+04  0.11682575052E+04  0.50400001928E-02 0.  1.
    10030    2    1    2    0    0  0.00000000000E+00  0.00000000000E+00  0.88884007239E+03  0.32253550827E+04  0.31004642774E+04 0.  0.
        1    1    3    3  502    0  0.11295220012E+04 -0.59879677786E+03 -0.46773654157E+03  0.13613063596E+04  0.50400001928E-02 0.  1.
       -1    1    3    3    0  502 -0.11295220012E+04  0.59879677786E+03  0.13565766140E+04  0.18640487231E+04  0.50400001928E-02 0. -1.
</event>
<event>
 5   0  0.1377237E-07  0.3100506E+04  0.7818609E-02  0.8215599E-01
       -2   -1    0    0    0  501  0.00000000000E+00  0.00000000000E+00  0.12297403366E+04  0.12297403366E+04  0.25500000920E-02 0. -1.
        2   -1    0    0  501    0  0.00000000000E+00  0.00000000000E+00 -0.19543019780E+04  0.19543019780E+04  0.25500000920E-02 0.  1.
    10030    2    1    2    0    0  0.00000000000E+00  0.00000000000E+00 -0.72456164143E+03  0.31840423146E+04  0.31005057473E+04 0.  0.
        2    1    3    3  502    0 -0.74707801057E+03  0.70401246441E+03 -0.15552706357E+04  0.18634982839E+04  0.25500000920E-02 0.  1.
       -2    1    3    3    0  502  0.74707801057E+03 -0.70401246441E+03  0.83070899424E+03  0.13205440307E+04  0.25500000920E-02 0. -1.
</event>
<event>
 5   0  0.4305500E-08  0.3098966E+04  0.7818609E-02  0.8216022E-01
       -3   -1    0    0    0  501  0.00000000000E+00  0.00000000000E+00  0.19508778190E+04  0.19508778216E+04  0.10100000352E+00 0. -1.
        3   -1    0    0  501    0  0.00000000000E+00  0.00000000000E+00 -0.12306755357E+04  0.12306755398E+04  0.10100000352E+00 0.  1.
    10030    2    1    2    0    0  0.00000000000E+00  0.00000000000E+00  0.72020228332E+03  0.31815533614E+04  0.30989660312E+04 0.  0.
        4    1    3    3  502    0  0.60055519438E+03 -0.89543708576E+03  0.15026024477E+04  0.18494025643E+04  0.12699999809E+01 0. -1.
       -4    1    3    3    0  502 -0.60055519438E+03  0.89543708576E+03 -0.78240016439E+03  0.13321507971E+04  0.12699999809E+01 0.  1.
</event>
<event>
 5   0  0.4470354E-08  0.3098991E+04  0.7818609E-02  0.8216015E-01
       -1   -1    0    0    0  501  0.00000000000E+00  0.00000000000E+00  0.22210432062E+04  0.22210432062E+04  0.50400001928E-02 0.  1.
        1   -1    0    0  501    0  0.00000000000E+00  0.00000000000E+00 -0.10809951626E+04  0.10809951626E+04  0.50400001928E-02 0. -1.
    10030    2    1    2    0    0  0.00000000000E+00  0.00000000000E+00  0.11400480436E+04  0.33020383688E+04  0.30989914242E+04 0.  0.
        1    1    3    3  502    0  0.16584176476E+03 -0.69041311222E+03 -0.89744282730E+03  0.11443676790E+04  0.50400001928E-02 0. -1.
       -1    1    3    3    0  502 -0.16584176476E+03  0.69041311222E+03  0.20374908709E+04  0.21576706897E+04  0.50400001928E-02 0.  1.
</event>
<event>
 5   0  0.4436241E-08  0.3100303E+04  0.7818609E-02  0.8215655E-01
        1   -1    0    0  501    0  0.00000000000E+00  0.00000000000E+00  0.20931166021E+04  0.20931166021E+04  0.50400001928E-02 0. -1.
       -1   -1    0    0    0  501  0.00000000000E+00  0.00000000000E+00 -0.11480340846E+04  0.11480340846E+04  0.50400001928E-02 0.  1.
    10030    2    1    2    0    0  0.00000000000E+00  0.00000000000E+00  0.94508251754E+03  0.32411506867E+04  0.31003026964E+04 0.  0.
        3    1    3    3  502    0  0.18377153613E+02 -0.29112846691E+03  0.20641642161E+04  0.20846744171E+04  0.10100000352E+00 0. -1.
       -3    1    3    3    0  502 -0.18377153613E+02  0.29112846691E+03 -0.11190816986E+04  0.11564762697E+04  0.10100000352E+00 0.  1.
</event>
<event>
 5   0  0.1318916E-07  0.3101818E+04  0.7818609E-02  0.8215239E-01
        2   -1    0    0  501    0  0.00000000000E+00  0.00000000000E+00  0.30689092879E+04  0.30689092879E+04  0.25500000920E-02 0.  1.
       -2   -1    0    0    0  501  0.00000000000E+00  0.00000000000E+00 -0.78376971620E+03  0.78376971620E+03  0.25500000920E-02 0. -1.
    10030    2    1    2    0    0  0.00000000000E+00  0.00000000000E+00  0.22851395717E+04  0.38526790041E+04  0.31018176359E+04 0.  0.
        5    1    3    3  502    0 -0.96173450442E+03 -0.73228959046E+03  0.23494355325E+04  0.26421678055E+04  0.46999998093E+01 0.  1.
       -5    1    3    3    0  502  0.96173450442E+03  0.73228959046E+03 -0.64295960769E+02  0.12105111986E+04  0.46999998093E+01 0. -1.
</event>
<event>
 5   0  0.1325713E-07  0.3100463E+04  0.7818609E-02  0.8215611E-01
       -2   -1    0    0    0  501  0.00000000000E+00  0.00000000000E+00  0.91882699637E+03  0.91882699637E+03  0.25500000920E-02 0. -1.
        2   -1    0    0  501    0  0.00000000000E+00  0.00000000000E+00 -0.26155278448E+04  0.26155278448E+04  0.25500000920E-02 0.  1.
    10030    2    1    2    0    0  0.00000000000E+00  0.00000000000E+00 -0.16967008484E+04  0.35343548411E+04  0.31004629290E+04 0.  0.
        4    1    3    3  502    0  0.11144078856E+04 -0.54574444419E+03  0.21092342501E+03  0.12586628771E+04  0.12699999809E+01 0. -1.
       -4    1    3    3    0  502 -0.11144078856E+04  0.54574444419E+03 -0.19076242734E+04  0.22756919641E+04  0.12699999809E+01 0.  1.
</event>
<event>
 5   0  0.4470354E-08  0.3080797E+04  0.7818609E-02  0.8221028E-01
        1   -1    0    0  501    0  0.00000000000E+00  0.00000000000E+00  0.21118875779E+04  0.21118875779E+04  0.50400001928E-02 0. -1.
       -1   -1    0    0    0  501  0.00000000000E+00  0.00000000000E+00 -0.11235573413E+04  0.11235573413E+04  0.50400001928E-02 0.  1.
    10030    2    1    2    0    0  0.00000000000E+00  0.00000000000E+00  0.98833023663E+03  0.32354449193E+04  0.30807965153E+04 0.  0.
        1    1    3    3  502    0  0.61065161786E+03  0.13640669545E+04  0.88606295572E+03  0.17374353560E+04  0.50400001928E-02 0. -1.
       -1    1    3    3    0  502 -0.61065161786E+03 -0.13640669545E+04  0.10226728091E+03  0.14980095632E+04  0.50400001928E-02 0.  1.
</event>
<event>
 5   0  0.4838602E-08  0.3089704E+04  0.7818609E-02  0.8218569E-01
        1   -1    0    0  501    0  0.00000000000E+00  0.00000000000E+00  0.16343449760E+04  0.16343449760E+04  0.50400001928E-02 0.  1.
       -1   -1    0    0    0  501  0.00000000000E+00  0.00000000000E+00 -0.14602595766E+04  0.14602595766E+04  0.50400001928E-02 0. -1.
    10030    2    1    2    0    0  0.00000000000E+00  0.00000000000E+00  0.17408539941E+03  0.30946045525E+04  0.30897041299E+04 0.  0.
        5    1    3    3  502    0 -0.27467607985E+03 -0.14914861879E+04  0.38173344355E+03  0.15638799536E+04  0.46999998093E+01 0.  1.
       -5    1    3    3    0  502  0.27467607985E+03  0.14914861879E+04 -0.20764804414E+03  0.15307245989E+04  0.46999998093E+01 0. -1.
</event>
<event>
 5   0  0.1398931E-07  0.3103452E+04  0.7818609E-02  0.8214791E-01
        2   -1    0    0  501    0  0.00000000000E+00  0.00000000000E+00  0.21581875019E+04  0.21581875019E+04  0.25500000920E-02 0.  1.
       -2   -1    0    0    0  501  0.00000000000E+00  0.00000000000E+00 -0.11156829827E+04  0.11156829827E+04  0.25500000920E-02 0. -1.
    10030    2    1    2    0    0  0.00000000000E+00  0.00000000000E+00  0.10425045192E+04  0.32738704847E+04  0.31034516716E+04 0.  0.
        3    1    3    3  502    0  0.10088651574E+04 -0.31087245638E+03  0.17209817953E+04  0.20189672954E+04  0.10100000352E+00 0.  1.
       -3    1    3    3    0  502 -0.10088651574E+04  0.31087245638E+03 -0.67847727607E+03  0.12549031893E+04  0.10100000352E+00 0. -1.
</event>
<event>
 5   0  0.4450600E-08  0.3096733E+04  0.7818609E-02  0.8216635E-01
       -1   -1    0    0    0  501  0.00000000000E+00  0.00000000000E+00  0.14722574941E+04  0.14722574941E+04  0.50400001928E-02 0. -1.
        1   -1    0    0  501    0  0.00000000000E+00  0.00000000000E+00 -0.16284102371E+04  0.16284102371E+04  0.50400001928E-02 0.  1.
    10030    2    1    2    0    0  0.00000000000E+00  0.00000000000E+00 -0.15615274301E+03  0.31006677312E+04  0.30967332304E+04 0.  0.
        4    1    3    3  502    0 -0.19106075790E+03 -0.13078401132E+04  0.72947645567E+03  0.15096646937E+04  0.12699999809E+01 0. -1.
       -4    1    3    3    0  502  0.19106075790E+03  0.13078401132E+04 -0.88562919868E+03  0.15910030375E+04  0.12699999809E+01 0.  1.
</event>
<event>
 5   0  0.1398931E-07  0.3096920E+04  0.7818609E-02  0.8216584E-01
        2   -1    0    0  501    0  0.00000000000E+00  0.00000000000E+00  0.18648438732E+04  0.18648438732E+04  0.25500000920E-02 0. -1.
       -2   -1    0    0    0  501  0.00000000000E+00  0.00000000000E+00 -0.12857525472E+04  0.12857525472E+04  0.25500000920E-02 0.  1.
    10030    2    1    2    0    0  0.00000000000E+00  0.00000000000E+00  0.57909132602E+03  0.31505964204E+04  0.30969196051E+04 0.  0.
        3    1    3    3  502    0  0.68843667249E+03  0.98305789261E+03  0.12849625209E+04  0.17582595265E+04  0.10100000352E+00 0. -1.
       -3    1    3    3    0  502 -0.68843667249E+03 -0.98305789261E+03 -0.70587119487E+03  0.13923368939E+04  0.10100000352E+00 0.  1.
</event>
<event>
 5   0  0.4305500E-08  0.3099626E+04  0.7818609E-02  0.8215841E-01
        3   -1    0    0  501    0  0.00000000000E+00  0.00000000000E+00  0.11289077763E+04  0.11289077808E+04  0.10100000352E+00 0.  1.
       -3   -1    0    0    0  501  0.00000000000E+00  0.00000000000E+00 -0.21276498051E+04  0.21276498075E+04  0.10100000352E+00 0. -1.
    10030    2    1    2    0    0  0.00000000000E+00  0.00000000000E+00 -0.99874202883E+03  0.32565575883E+04  0.30996260558E+04 0.  0.
        2    1    3    3  502    0  0.46279842629E+03 -0.13464481405E+04 -0.11425890269E+04  0.18255450317E+04  0.25500000920E-02 0. -1.
       -2    1    3    3    0  502 -0.46279842629E+03  0.13464481405E+04  0.14384699806E+03  0.14310125566E+04  0.25500000920E-02 0.  1.
</event>
<event>
 5   0  0.4517409E-08  0.3100848E+04  0.7818609E-02  0.8215505E-01
        1   -1    0    0  501    0  0.00000000000E+00  0.00000000000E+00  0.23947239647E+04  0.23947239647E+04  0.50400001928E-02 0. -1.
       -1   -1    0    0    0  501  0.00000000000E+00  0.00000000000E+00 -0.10037958520E+04  0.10037958520E+04  0.50400001928E-02 0.  1.
    10030    2    1    2    0    0  0.00000000000E+00  0.00000000000E+00  0.13909281127E+04  0.33985198167E+04  0.31008476148E+04 0.  0.
        2    1    3    3  502    0  0.14240308629E+04  0.31095875878E+03  0.11628925970E+03  0.14622183284E+04  0.25500000920E-02 0.  1.
       -2    1    3    3    0  502 -0.14240308629E+04 -0.31095875878E+03  0.12746388530E+04  0.19363014883E+04  0.25500000920E-02 0. -1.
</event>
<event>
 5   0  0.1318916E-07  0.3100288E+04  0.7818609E-02  0.8215659E-01
        2   -1    0    0  501    0  0.00000000000E+00  0.00000000000E+00  0.21508622194E+04  0.21508622194E+04  0.25500000920E-02 0.  1.
       -2   -1    0    0    0  501  0.00000000000E+00  0.00000000000E+00 -0.11172015380E+04  0.11172015380E+04  0.25500000920E-02 0. -1.
    10030    2    1    2    0    0  0.00000000000E+00  0.00000000000E+00  0.10336606813E+04  0.32680637574E+04  0.31002881025E+04 0.  0.
        5    1    3    3  502    0 -0.96783480583E+03  0.50972532176E+03 -0.64097140145E+03  0.12678290667E+04  0.46999998093E+01 0. -1.
       -5    1    3    3    0  502  0.96783480583E+03 -0.50972532176E+03  0.16746320828E+04  0.20002346907E+04  0.46999998093E+01 0.  1.
</event>
<event>
 5   0  0.4470354E-08  0.3101038E+04  0.7818609E-02  0.8215453E-01
       -1   -1    0    0    0  501  0.00000000000E+00  0.00000000000E+00  0.25908748570E+04  0.25908748570E+04  0.50400001928E-02 0. -1.
        1   -1    0    0  501    0  0.00000000000E+00  0.00000000000E+00 -0.92791379586E+03  0.92791379587E+03  0.50400001928E-02 0.  1.
    10030    2    1    2    0    0  0.00000000000E+00  0.00000000000E+00  0.16629610612E+04  0.35187886529E+04  0.31010375833E+04 0.  0.
        1    1    3    3  502    0  0.11295021177E+04  0.36448577796E+03  0.19636285456E+04  0.22944415402E+04  0.50400001928E-02 0. -1.
       -1    1    3    3    0  502 -0.11295021177E+04 -0.36448577796E+03 -0.30066748447E+03  0.12243471127E+04  0.50400001928E-02 0.  1.
</event>
<event>
 5   0  0.4470354E-08  0.3097202E+04  0.7818609E-02  0.8216506E-01
        1   -1    0    0  501    0  0.00000000000E+00  0.00000000000E+00  0.13411159099E+04  0.13411159099E+04  0.50400001928E-02 0.  1.
       -1   -1    0    0    0  501  0.00000000000E+00  0.00000000000E+00 -0.17881866771E+04  0.17881866771E+04  0.50400001928E-02 0. -1.
    10030    2    1    2    0    0  0.00000000000E+00  0.00000000000E+00 -0.44707076720E+03  0.31293025870E+04  0.30972023522E+04 0.  0.
        1    1    3    3  502    0 -0.11808526357E+04 -0.83090114532E+03  0.34204839616E+03  0.14838486331E+04  0.50400001928E-02 0.  1.
       -1    1    3    3    0  502  0.11808526357E+04  0.83090114532E+03 -0.78911916336E+03  0.16454539539E+04  0.50400001928E-02 0. -1.
</event>
<event>
 5   0  0.1318916E-07  0.3103914E+04  0.7818609E-02  0.8214664E-01
       -2   -1    0    0    0  501  0.00000000000E+00  0.00000000000E+00  0.12089757141E+04  0.12089757141E+04  0.25500000920E-02 0. -1.
        2   -1    0    0  501    0  0.00000000000E+00  0.00000000000E+00 -0.19922409770E+04  0.19922409770E+04  0.25500000920E-02 0.  1.
    10030    2    1    2    0    0  0.00000000000E+00  0.00000000000E+00 -0.78326526294E+03  0.32012166912E+04  0.31039142758E+04 0.  0.
        5    1    3    3  502    0 -0.51156274679E+03  0.35237026003E+03  0.10751635236E+04  0.12417165282E+04  0.46999998093E+01 0. -1.
       -5    1    3    3    0  502  0.51156274679E+03 -0.35237026003E+03 -0.18584287865E+04  0.19595001629E+04  0.46999998093E+01 0.  1.
</event>
<event>
 5   0  0.4450600E-08  0.3099575E+04  0.7818609E-02  0.8215855E-01
       -1   -1    0    0    0  501  0.00000000000E+00  0.00000000000E+00  0.16353914114E+04  0.16353914114E+04  0.50400001928E-02 0. -1.
        1   -1    0    0  501    0  0.00000000000E+00  0.00000000000E+00 -0.14686642922E+04  0.14686642922E+04  0.50400001928E-02 0.  1.
    10030    2    1    2    0    0  0.00000000000E+00  0.00000000000E+00  0.16672711921E+03  0.31040557036E+04  0.30995747900E+04 0.  0.
        4    1    3    3  502    0 -0.37249825234E+02  0.37833876470E+03 -0.14212436610E+04  0.14712113809E+04  0.12699999809E+01 0.  1.
       -4    1    3    3    0  502  0.37249825234E+02 -0.37833876470E+03  0.15879707802E+04  0.16328443227E+04  0.12699999809E+01 0. -1.
</event>
<event>
 5   0  0.4470354E-08  0.3099901E+04  0.7818609E-02  0.8215765E-01
        1   -1    0    0  501    0  0.00000000000E+00  0.00000000000E+00  0.80196413146E+03  0.80196413148E+03  0.50400001928E-02 0.  1.
       -1   -1    0    0    0  501  0.00000000000E+00  0.00000000000E+00 -0.29955784664E+04  0.29955784664E+04  0.50400001928E-02 0. -1.
    10030    2    1    2    0    0  0.00000000000E+00  0.00000000000E+00 -0.21936143349E+04  0.37975425978E+04  0.30999009552E+04 0.  0.
        1    1    3    3  502    0  0.40086131563E+03  0.61891790450E+03  0.57331211045E+03  0.93404279500E+03  0.50400001928E-02 0.  1.
       -1    1    3    3    0  502 -0.40086131563E+03 -0.61891790450E+03 -0.27669264454E+04  0.28634998028E+04  0.50400001928E-02 0. -1.
</event>
<event>
 5   0  0.1318916E-07  0.3099067E+04  0.7818609E-02  0.8215994E-01
        2   -1    0    0  501    0  0.00000000000E+00  0.00000000000E+00  0.22663830415E+04  0.22663830415E+04  0.25500000920E-02 0.  1.
       -2   -1    0    0    0  501  0.00000000000E+00  0.00000000000E+00 -0.10594212458E+04  0.10594212458E+04  0.25500000920E-02 0. -1.
    10030    2    1    2    0    0  0.00000000000E+00  0.00000000000E+00  0.12069617957E+04  0.33258042874E+04  0.30990671792E+04 0.  0.
        5    1    3    3  502    0  0.13848196015E+04  0.53025139586E+03  0.12098653766E+03  0.14878009624E+04  0.46999998093E+01 0. -1.
       -5    1    3    3    0  502 -0.13848196015E+04 -0.53025139586E+03  0.10859752581E+04  0.18380033250E+04  0.46999998093E+01 0.  1.
</event>
<event>
 5   0  0.4838602E-08  0.3099372E+04  0.7818609E-02  0.8215910E-01
       -1   -1    0    0    0  501  0.00000000000E+00  0.00000000000E+00  0.11654236816E+04  0.11654236816E+04  0.50400001928E-02 0.  1.
        1   -1    0    0  501    0  0.00000000000E+00  0.00000000000E+00 -0.20606470650E+04  0.20606470650E+04  0.50400001928E-02 0. -1.
    10030    2    1    2    0    0  0.00000000000E+00  0.00000000000E+00 -0.89522338334E+03  0.32260707466E+04  0.30993721229E+04 0.  0.
        5    1    3    3  502    0  0.61835362240E+03  0.17667858352E+03  0.10199640350E+04  0.12057882264E+04  0.46999998093E+01 0.  1.
       -5    1    3    3    0  502 -0.61835362240E+03 -0.17667858352E+03 -0.19151874183E+04  0.20202825202E+04  0.46999998093E+01 0. -1.
</event>
<event>
 5   0  0.1398931E-07  0.3099589E+04  0.7818609E-02  0.8215851E-01
        2   -1    0    0  501    0  0.00000000000E+00  0.00000000000E+00  0.19480544699E+04  0.19480544699E+04  0.25500000920E-02 0.  1.
       -2   -1    0    0    0  501  0.00000000000E+00  0.00000000000E+00 -0.12329544041E+04  0.12329544041E+04  0.25500000920E-02 0. -1.
    10030    2    1    2    0    0  0.00000000000E+00  0.00000000000E+00  0.71510006578E+03  0.31810088741E+04  0.30995885780E+04 0.  0.
        3    1    3    3  502    0 -0.97119309557E+03 -0.34782410885E+03  0.15445055958E+04  0.18573355069E+04  0.10100000352E+00 0.  1.
       -3    1    3    3    0  502  0.97119309557E+03  0.34782410885E+03 -0.82940553000E+03  0.13236733672E+04  0.10100000352E+00 0. -1.
</event>
<event>
 5   0  0.4517409E-08  0.3099596E+04  0.7818609E-02  0.8215849E-01
       -1   -1    0    0    0  501  0.00000000000E+00  0.00000000000E+00  0.14274091623E+04  0.14274091623E+04  0.50400001928E-02 0. -1.
        1   -1    0    0  501    0  0.00000000000E+00  0.00000000000E+00 -0.16826803932E+04  0.16826803932E+04  0.50400001928E-02 0.  1.
    10030    2    1    2    0    0  0.00000000000E+00  0.00000000000E+00 -0.25527123087E+03  0.31100895554E+04  0.30995957223E+04 0.  0.
        2    1    3    3  502    0 -0.62734272186E+03  0.65656133284E+03  0.11324990887E+04  0.14516149146E+04  0.25500000920E-02 0. -1.
       -2    1    3    3    0  502  0.62734272186E+03 -0.65656133284E+03 -0.13877703196E+04  0.16584746408E+04  0.25500000920E-02 0.  1.
</event>
<event>
 5   0  0.4450600E-08  0.3102514E+04  0.7818609E-02  0.8215048E-01
        1   -1    0    0  501    0  0.00000000000E+00  0.00000000000E+00  0.19579666519E+04  0.19579666519E+04  0.50400001928E-02 0.  1.
       -1   -1    0    0    0  501  0.00000000000E+00  0.00000000000E+00 -0.12290293987E+04  0.12290293987E+04  0.50400001928E-02 0. -1.
    10030    2    1    2    0    0  0.00000000000E+00  0.00000000000E+00  0.72893725316E+03  0.31869960506E+04  0.31025141914E+04 0.  0.
        4    1    3    3  502    0 -0.12476048363E+03 -0.78232222649E+02 -0.12218326439E+04  0.12306754575E+04  0.12699999809E+01 0. -1.
       -4    1    3    3    0  502  0.12476048363E+03  0.78232222649E+02  0.19507698971E+04  0.19563205932E+04  0.12699999809E+01 0.  1.
</event>
<event>
 5   0  0.4470354E-08  0.3100239E+04  0.7818609E-02  0.8215672E-01
       -1   -1    0    0    0  501  0.00000000000E+00  0.00000000000E+00  0.11446268831E+04  0.11446268831E+04  0.50400001928E-02 0. -1.
        1   -1    0    0  501    0  0.00000000000E+00  0.00000000000E+00 -0.20992606667E+04  0.20992606667E+04  0.50400001928E-02 0.  1.
    10030    2    1    2    0    0  0.00000000000E+00  0.00000000000E+00 -0.95463378359E+03  0.32438875498E+04  0.31002388255E+04 0.  0.
        1    1    3    3  502    0 -0.61778068274E+03  0.78989575031E+03  0.75952065503E+03  0.12579586216E+04  0.50400001928E-02 0. -1.
       -1    1    3    3    0  502  0.61778068274E+03 -0.78989575031E+03 -0.17141544386E+04  0.19859289282E+04  0.50400001928E-02 0.  1.
</event>
<event>
 5   0  0.4450600E-08  0.3099436E+04  0.7818609E-02  0.8215893E-01
       -1   -1    0    0    0  501  0.00000000000E+00  0.00000000000E+00  0.11419828583E+04  0.11419828583E+04  0.50400001928E-02 0. -1.
        1   -1    0    0  501    0  0.00000000000E+00  0.00000000000E+00 -0.21030310383E+04  0.21030310383E+04  0.50400001928E-02 0.  1.
    10030    2    1    2    0    0  0.00000000000E+00  0.00000000000E+00 -0.96104818002E+03  0.32450138966E+04  0.30994356881E+04 0.  0.
        4    1    3    3  502    0  0.70092864494E+03 -0.58346966510E+03  0.83127699393E+03  0.12340019728E+04  0.12699999809E+01 0. -1.
       -4    1    3    3    0  502 -0.70092864494E+03  0.58346966510E+03 -0.17923251739E+04  0.20110119237E+04  0.12699999809E+01 0.  1.
</event>
<event>
 5   0  0.1377237E-07  0.3101531E+04  0.7818609E-02  0.8215318E-01
       -2   -1    0    0    0  501  0.00000000000E+00  0.00000000000E+00  0.82619754419E+03  0.82619754419E+03  0.25500000920E-02 0.  1.
        2   -1    0    0  501    0  0.00000000000E+00  0.00000000000E+00 -0.29107724630E+04  0.29107724630E+04  0.25500000920E-02 0. -1.
    10030    2    1    2    0    0  0.00000000000E+00  0.00000000000E+00 -0.20845749188E+04  0.37369700072E+04  0.31015306290E+04 0.  0.
        2    1    3    3  502    0  0.17737702392E+03  0.71207961448E+03 -0.26883276733E+04  0.27866872206E+04  0.25500000920E-02 0. -1.
       -2    1    3    3    0  502 -0.17737702392E+03 -0.71207961448E+03  0.60375275452E+03  0.95028278663E+03  0.25500000920E-02 0.  1.
</event>
<event>
 5   0  0.1329777E-07  0.3100386E+04  0.7818609E-02  0.8215632E-01
       -2   -1    0    0    0  501  0.00000000000E+00  0.00000000000E+00  0.14504233457E+04  0.14504233457E+04  0.25500000920E-02 0. -1.
        2   -1    0    0  501    0  0.00000000000E+00  0.00000000000E+00 -0.16568258374E+04  0.16568258374E+04  0.25500000920E-02 0.  1.
    10030    2    1    2    0    0  0.00000000000E+00  0.00000000000E+00 -0.20640249161E+03  0.31072491831E+04  0.31003863465E+04 0.  0.
        1    1    3    3  502    0 -0.20917704555E+03  0.11549780980E+04  0.91164546804E+03  0.14862122670E+04  0.50400001928E-02 0. -1.
       -1    1    3    3    0  502  0.20917704555E+03 -0.11549780980E+04 -0.11180479597E+04  0.16210369161E+04  0.50400001928E-02 0.  1.
</event>
<event>
 5   0  0.1398931E-07  0.3105701E+04  0.7818609E-02  0.8214175E-01
        2   -1    0    0  501    0  0.00000000000E+00  0.00000000000E+00  0.16917552665E+04  0.16917552665E+04  0.25500000920E-02 0.  1.
       -2   -1    0    0    0  501  0.00000000000E+00  0.00000000000E+00 -0.14253505408E+04  0.14253505408E+04  0.25500000920E-02 0. -1.
    10030    2    1    2    0    0  0.00000000000E+00  0.00000000000E+00  0.26640472564E+03  0.31171058073E+04  0.31057007480E+04 0.  0.
        3    1    3    3  502    0  0.31402794171E+03 -0.98735599650E+03 -0.10277037218E+04  0.14593355892E+04  0.10100000352E+00 0. -1.
       -3    1    3    3    0  502 -0.31402794171E+03  0.98735599650E+03  0.12941084474E+04  0.16577702181E+04  0.10100000352E+00 0.  1.
</event>
<event>
 5   0  0.1329777E-07  0.3099966E+04  0.7818609E-02  0.8215747E-01
       -2   -1    0    0    0  501  0.00000000000E+00  0.00000000000E+00  0.10847651248E+04  0.10847651248E+04  0.25500000920E-02 0. -1.
        2   -1    0    0  501    0  0.00000000000E+00  0.00000000000E+00 -0.22147166285E+04  0.22147166285E+04  0.25500000920E-02 0.  1.
    10030    2    1    2    0    0  0.00000000000E+00  0.00000000000E+00 -0.11299515037E+04  0.32994817534E+04  0.30999660386E+04 0.  0.
        1    1    3    3  502    0  0.59977272291E+03 -0.13669042185E+04 -0.12062221549E+03  0.14975660856E+04  0.50400001928E-02 0.  1.
       -1    1    3    3    0  502 -0.59977272291E+03  0.13669042185E+04 -0.10093292882E+04  0.18019156678E+04  0.50400001928E-02 0. -1.
</event>
<event>
 5   0  0.1325713E-07  0.3100171E+04  0.7818609E-02  0.8215691E-01
       -2   -1    0    0    0  501  0.00000000000E+00  0.00000000000E+00  0.14938595080E+04  0.14938595080E+04  0.25500000920E-02 0. -1.
        2   -1    0    0  501    0  0.00000000000E+00  0.00000000000E+00 -0.16084274637E+04  0.16084274637E+04  0.25500000920E-02 0.  1.
    10030    2    1    2    0    0  0.00000000000E+00  0.00000000000E+00 -0.11456795571E+03  0.31022869718E+04  0.31001707435E+04 0.  0.
        4    1    3    3  502    0  0.93152298955E+03 -0.49919486003E+03 -0.11920035551E+04  0.15930488620E+04  0.12699999809E+01 0.  1.
       -4    1    3    3    0  502 -0.93152298955E+03  0.49919486003E+03  0.10774355994E+04  0.15092381098E+04  0.12699999809E+01 0. -1.
</event>
<event>
 5   0  0.4436241E-08  0.3101117E+04  0.7818609E-02  0.8215432E-01
        1   -1    0    0  501    0  0.00000000000E+00  0.00000000000E+00  0.16467934821E+04  0.16467934821E+04  0.50400001928E-02 0. -1.
       -1   -1    0    0    0  501  0.00000000000E+00  0.00000000000E+00 -0.14599469589E+04  0.14599469589E+04  0.50400001928E-02 0.  1.
    10030    2    1    2    0    0  0.00000000000E+00  0.00000000000E+00  0.18684652316E+03  0.31067404410E+04  0.31011166609E+04 0.  0.
        3    1    3    3  502    0  0.90726169767E+03  0.11996787633E+04 -0.28392704372E+03  0.15306755043E+04  0.10100000352E+00 0. -1.
       -3    1    3    3    0  502 -0.90726169767E+03 -0.11996787633E+04  0.47077356688E+03  0.15760649367E+04  0.10100000352E+00 0.  1.
</event>
<event>
 5   0  0.4470354E-08  0.3098592E+04  0.7818609E-02  0.8216124E-01
        1   -1    0    0  501    0  0.00000000000E+00  0.00000000000E+00  0.29063293188E+04  0.29063293188E+04  0.50400001928E-02 0. -1.
       -1   -1    0    0    0  501  0.00000000000E+00  0.00000000000E+00 -0.82589331076E+03  0.82589331078E+03  0.50400001928E-02 0.  1.
    10030    2    1    2    0    0  0.00000000000E+00  0.00000000000E+00  0.20804360081E+04  0.37322226296E+04  0.30985919017E+04 0.  0.
        1    1    3    3  502    0  0.34862088480E+03  0.14597548764E+04  0.15034334396E+04  0.21243194035E+04  0.50400001928E-02 0. -1.
       -1    1    3    3    0  502 -0.34862088480E+03 -0.14597548764E+04  0.57700256843E+03  0.16079032261E+04  0.50400001928E-02 0.  1.
</event>
<event>
 5   0  0.4305500E-08  0.3099549E+04  0.7818609E-02  0.8215862E-01
        3   -1    0    0  501    0  0.00000000000E+00  0.00000000000E+00  0.25565379596E+04  0.25565379616E+04  0.10100000352E+00 0.  1.
       -3   -1    0    0    0  501  0.00000000000E+00  0.00000000000E+00 -0.93947410606E+03  0.93947411149E+03  0.10100000352E+00 0. -1.
    10030    2    1    2    0    0  0.00000000000E+00  0.00000000000E+00  0.16170638535E+04  0.34960120731E+04  0.30995491460E+04 0.  0.
        4    1    3    3  502    0 -0.15137724479E+04 -0.32048622898E+03  0.71032492761E+03  0.17025808535E+04  0.12699999809E+01 0. -1.
       -4    1    3    3    0  502  0.15137724479E+04  0.32048622898E+03  0.90673892593E+03  0.17934312196E+04  0.12699999809E+01 0.  1.
</event>
<event>
 5   0  0.4470354E-08  0.3099977E+04  0.7818609E-02  0.8215744E-01
        1   -1    0    0  501    0  0.00000000000E+00  0.00000000000E+00  0.11593158755E+04  0.11593158755E+04  0.50400001928E-02 0.  1.
       -1   -1    0    0    0  501  0.00000000000E+00  0.00000000000E+00 -0.20723114745E+04  0.20723114745E+04  0.50400001928E-02 0. -1.
    10030    2    1    2    0    0  0.00000000000E+00  0.00000000000E+00 -0.91299559899E+03  0.32316273501E+04  0.30999765106E+04 0.  0.
        1    1    3    3  502    0 -0.13571623888E+04  0.69844914266E+03 -0.17533530210E+03  0.15363799734E+04  0.50400001928E-02 0.  1.
       -1    1    3    3    0  502  0.13571623888E+04 -0.69844914266E+03 -0.73766029689E+03  0.16952473767E+04  0.50400001928E-02 0. -1.
</event>
<event>
 5   0  0.4450600E-08  0.3094160E+04  0.7818609E-02  0.8217343E-01
       -1   -1    0    0    0  501  0.00000000000E+00  0.00000000000E+00  0.10561170332E+04  0.10561170332E+04  0.50400001928E-02 0. -1.
        1   -1    0    0  501    0  0.00000000000E+00  0.00000000000E+00 -0.22662790369E+04  0.22662790369E+04  0.50400001928E-02 0.  1.
    10030    2    1    2    0    0  0.00000000000E+00  0.00000000000E+00 -0.12101620037E+04  0.33223960701E+04  0.30941595905E+04 0.  0.
        4    1    3    3  502    0 -0.14936607301E+04 -0.29741128823E+03 -0.31302828795E+03  0.15548196593E+04  0.12699999809E+01 0. -1.
       -4    1    3    3    0  502  0.14936607301E+04  0.29741128823E+03 -0.89713371574E+03  0.17675764108E+04  0.12699999809E+01 0.  1.
</event>
<event>
 5   0  0.4436241E-08  0.3099471E+04  0.7818609E-02  0.8215883E-01
        1   -1    0    0  501    0  0.00000000000E+00  0.00000000000E+00  0.20980588662E+04  0.20980588662E+04  0.50400001928E-02 0. -1.
       -1   -1    0    0    0  501  0.00000000000E+00  0.00000000000E+00 -0.11447155946E+04  0.11447155947E+04  0.50400001928E-02 0.  1.
    10030    2    1    2    0    0  0.00000000000E+00  0.00000000000E+00  0.95334327159E+03  0.32427744609E+04  0.30994713760E+04 0.  0.
        3    1    3    3  502    0 -0.37450037658E+03  0.97893390659E+03 -0.71764939646E+03  0.12702687873E+04  0.10100000352E+00 0.  1.
       -3    1    3    3    0  502  0.37450037658E+03 -0.97893390659E+03  0.16709926681E+04  0.19725056736E+04  0.10100000352E+00 0. -1.
</event>
<event>
 5   0  0.1325713E-07  0.3093208E+04  0.7818609E-02  0.8217604E-01
       -2   -1    0    0    0  501  0.00000000000E+00  0.00000000000E+00  0.18661771227E+04  0.18661771227E+04  0.25500000920E-02 0.  1.
        2   -1    0    0  501    0  0.00000000000E+00  0.00000000000E+00 -0.12817562137E+04  0.12817562137E+04  0.25500000920E-02 0. -1.
    10030    2    1    2    0    0  0.00000000000E+00  0.00000000000E+00  0.58442090896E+03  0.31479333364E+04  0.30932081229E+04 0.  0.
        4    1    3    3  502    0 -0.73573057373E+03  0.12809758075E+04 -0.17391474241E+03  0.14874294763E+04  0.12699999809E+01 0.  1.
       -4    1    3    3    0  502  0.73573057373E+03 -0.12809758075E+04  0.75833565138E+03  0.16605038601E+04  0.12699999809E+01 0. -1.
</event>
<event>
 5   0  0.4517409E-08  0.3100417E+04  0.7818609E-02  0.8215624E-01
        1   -1    0    0  501    0  0.00000000000E+00  0.00000000000E+00  0.77417163715E+03  0.77417163717E+03  0.50400001928E-02 0.  1.
       -1   -1    0    0    0  501  0.00000000000E+00  0.00000000000E+00 -0.31041512153E+04  0.31041512153E+04  0.50400001928E-02 0. -1.
    10030    2    1    2    0    0  0.00000000000E+00  0.00000000000E+00 -0.23299795781E+04  0.38783228525E+04  0.31004166355E+04 0.  0.
        2    1    3    3  502    0 -0.10171354126E+04 -0.11448737409E+04 -0.86413378416E+03  0.17584161984E+04  0.25500000920E-02 0. -1.
       -2    1    3    3    0  502  0.10171354126E+04  0.11448737409E+04 -0.14658457940E+04  0.21199066540E+04  0.25500000920E-02 0.  1.
</event>
<event>
 5   0  0.4436241E-08  0.3099640E+04  0.7818609E-02  0.8215837E-01
       -1   -1    0    0    0  501  0.00000000000E+00  0.00000000000E+00  0.13467481662E+04  0.13467481662E+04  0.50400001928E-02 0. -1.
        1   -1    0    0  501    0  0.00000000000E+00  0.00000000000E+00 -0.17835129428E+04  0.17835129429E+04  0.50400001928E-02 0.  1.
    10030    2    1    2    0    0  0.00000000000E+00  0.00000000000E+00 -0.43676477667E+03  0.31302611090E+04  0.30996404857E+04 0.  0.
        3    1    3    3  502    0  0.51302171337E+03 -0.88383457454E+03  0.95828367129E+03  0.14009505482E+04  0.10100000352E+00 0. -1.
       -3    1    3    3    0  502 -0.51302171337E+03  0.88383457454E+03 -0.13950484480E+04  0.17293105609E+04  0.10100000352E+00 0.  1.
</event>
<event>
 5   0  0.1318916E-07  0.3100593E+04  0.7818609E-02  0.8215575E-01
       -2   -1    0    0    0  501  0.00000000000E+00  0.00000000000E+00  0.15354996502E+04  0.15354996502E+04  0.25500000920E-02 0.  1.
        2   -1    0    0  501    0  0.00000000000E+00  0.00000000000E+00 -0.15652360702E+04  0.15652360702E+04  0.25500000920E-02 0. -1.
    10030    2    1    2    0    0  0.00000000000E+00  0.00000000000E+00 -0.29736420044E+02  0.31007357204E+04  0.31005931293E+04 0.  0.
        5    1    3    3  502    0 -0.10004423433E+04 -0.65914292508E+03  0.96906883559E+03  0.15409317883E+04  0.46999998093E+01 0.  1.
       -5    1    3    3    0  502  0.10004423433E+04  0.65914292508E+03 -0.99880525563E+03  0.15598039321E+04  0.46999998093E+01 0. -1.
</event>
<event>
 5   0  0.4517409E-08  0.3099562E+04  0.7818609E-02  0.8215858E-01
        1   -1    0    0  501    0  0.00000000000E+00  0.00000000000E+00  0.22185415141E+04  0.22185415141E+04  0.50400001928E-02 0.  1.
       -1   -1    0    0    0  501  0.00000000000E+00  0.00000000000E+00 -0.10826129000E+04  0.10826129000E+04  0.50400001928E-02 0. -1.
    10030    2    1    2    0    0  0.00000000000E+00  0.00000000000E+00  0.11359286141E+04  0.33011544141E+04  0.30995623319E+04 0.  0.
        2    1    3    3  502    0 -0.10330358490E+04 -0.11187881486E+04  0.26118193927E+03  0.15450132660E+04  0.25500000920E-02 0. -1.
       -2    1    3    3    0  502  0.10330358490E+04  0.11187881486E+04  0.87474667487E+03  0.17561411481E+04  0.25500000920E-02 0.  1.
</event>
<event>
 5   0  0.4838602E-08  0.3097963E+04  0.7818609E-02  0.8216297E-01
       -1   -1    0    0    0  501  0.00000000000E+00  0.00000000000E+00  0.13222690251E+04  0.13222690251E+04  0.50400001928E-02 0.  1.
        1   -1    0    0  501    0  0.00000000000E+00  0.00000000000E+00 -0.18145650280E+04  0.18145650280E+04  0.50400001928E-02 0. -1.
    10030    2    1    2    0    0  0.00000000000E+00  0.00000000000E+00 -0.49229600290E+03  0.31368340532E+04  0.30979626406E+04 0.  0.
        5    1    3    3  502    0 -0.71501185809E+03  0.38761875705E+03 -0.15809569537E+04  0.17779024825E+04  0.46999998093E+01 0. -1.
       -5    1    3    3    0  502  0.71501185809E+03 -0.38761875705E+03  0.10886609508E+04  0.13589315707E+04  0.46999998093E+01 0.  1.
</event>
<event>
 5   0  0.4838602E-08  0.3103207E+04  0.7818609E-02  0.8214858E-01
        1   -1    0    0  501    0  0.00000000000E+00  0.00000000000E+00  0.22895363759E+04  0.22895363759E+04  0.50400001928E-02 0. -1.
       -1   -1    0    0    0  501  0.00000000000E+00  0.00000000000E+00 -0.10515113930E+04  0.10515113930E+04  0.50400001928E-02 0.  1.
    10030    2    1    2    0    0  0.00000000000E+00  0.00000000000E+00  0.12380249829E+04  0.33410477689E+04  0.31032071049E+04 0.  0.
        5    1    3    3  502    0 -0.98731362039E+01  0.15512157562E+04  0.65445504426E+03  0.16836571195E+04  0.46999998093E+01 0. -1.
       -5    1    3    3    0  502  0.98731362039E+01 -0.15512157562E+04  0.58356993861E+03  0.16573906493E+04  0.46999998093E+01 0.  1.
</event>
<event>
 5   0  0.1377237E-07  0.3108075E+04  0.7818609E-02  0.8213525E-01
        2   -1    0    0  501    0  0.00000000000E+00  0.00000000000E+00  0.29424494880E+04  0.29424494880E+04  0.25500000920E-02 0.  1.
       -2   -1    0    0    0  501  0.00000000000E+00  0.00000000000E+00 -0.82075603741E+03  0.82075603742E+03  0.25500000920E-02 0. -1.
    10030    2    1    2    0    0  0.00000000000E+00  0.00000000000E+00  0.21216934506E+04  0.37632055254E+04  0.31080754058E+04 0.  0.
        2    1    3    3  502    0 -0.12558069983E+04 -0.12834840296E+03 -0.36572241709E+02  0.12628784812E+04  0.25500000920E-02 0. -1.
       -2    1    3    3    0  502  0.12558069983E+04  0.12834840296E+03  0.21582656923E+04  0.25003270442E+04  0.25500000920E-02 0.  1.
</event>
<event>
 5   0  0.1377237E-07  0.3100832E+04  0.7818609E-02  0.8215510E-01
        2   -1    0    0  501    0  0.00000000000E+00  0.00000000000E+00  0.19307145433E+04  0.19307145433E+04  0.25500000920E-02 0.  1.
       -2   -1    0    0    0  501  0.00000000000E+00  0.00000000000E+00 -0.12450258414E+04  0.12450258414E+04  0.25500000920E-02 0. -1.
    10030    2    1    2    0    0  0.00000000000E+00  0.00000000000E+00  0.68568870188E+03  0.31757403848E+04  0.31008318232E+04 0.  0.
        2    1    3    3  502    0 -0.44228802225E+03  0.76615418953E+03  0.16468582051E+04  0.18694258168E+04  0.25500000920E-02 0.  1.
       -2    1    3    3    0  502  0.44228802225E+03 -0.76615418953E+03 -0.96116950318E+03  0.13063145680E+04  0.25500000920E-02 0. -1.
</event>
<event>
 5   0  0.1318916E-07  0.3101096E+04  0.7818609E-02  0.8215437E-01
        2   -1    0    0  501    0  0.00000000000E+00  0.00000000000E+00  0.10988002538E+04  0.10988002538E+04  0.25500000920E-02 0. -1.
       -2   -1    0    0    0  501  0.00000000000E+00  0.00000000000E+00 -0.21880226150E+04  0.21880226150E+04  0.25500000920E-02 0.  1.
    10030    2    1    2    0    0  0.00000000000E+00  0.00000000000E+00 -0.10892223612E+04  0.32868228688E+04  0.31010964542E+04 0.  0.
        5    1    3    3  502    0  0.94757678560E+02 -0.97554759817E+03  0.72880469298E+03  0.12214133225E+04  0.46999998093E+01 0. -1.
       -5    1    3    3    0  502 -0.94757678560E+02  0.97554759817E+03 -0.18180270542E+04  0.20654095462E+04  0.46999998093E+01 0.  1.
</event>
<event>
 5   0  0.1325713E-07  0.3099009E+04  0.7818609E-02  0.8216010E-01
       -2   -1    0    0    0  501  0.00000000000E+00  0.00000000000E+00  0.12456030166E+04  0.12456030166E+04  0.25500000920E-02 0.  1.
        2   -1    0    0  501    0  0.00000000000E+00  0.00000000000E+00 -0.19275519235E+04  0.19275519235E+04  0.25500000920E-02 0. -1.
    10030    2    1    2    0    0  0.00000000000E+00  0.00000000000E+00 -0.68194890689E+03  0.31731549401E+04  0.30990091904E+04 0.  0.
        4    1    3    3  502    0 -0.12343135420E+04  0.12039573283E+03  0.61019559724E+03  0.13821596623E+04  0.12699999809E+01 0.  1.
       -4    1    3    3    0  502  0.12343135420E+04 -0.12039573283E+03 -0.12921445041E+04  0.17909952777E+04  0.12699999809E+01 0. -1.
</event>
<event>
 5   0  0.4470354E-08  0.3099769E+04  0.7818609E-02  0.8215801E-01
       -1   -1    0    0    0  501  0.00000000000E+00  0.00000000000E+00  0.12997091291E+04  0.12997091291E+04  0.50400001928E-02 0. -1.
        1   -1    0    0  501    0  0.00000000000E+00  0.00000000000E+00 -0.18482152805E+04  0.18482152805E+04  0.50400001928E-02 0.  1.
    10030    2    1    2    0    0  0.00000000000E+00  0.00000000000E+00 -0.54850615142E+03  0.31479244096E+04  0.30997691996E+04 0.  0.
        1    1    3    3  502    0 -0.50337708149E+02  0.15284907416E+03  0.12912019482E+04  0.13011914522E+04  0.50400001928E-02 0. -1.
       -1    1    3    3    0  502  0.50337708149E+02 -0.15284907416E+03 -0.18397080996E+04  0.18467329574E+04  0.50400001928E-02 0.  1.
</event>
<event>
 5   0  0.1325713E-07  0.3098556E+04  0.7818609E-02  0.8216134E-01
        2   -1    0    0  501    0  0.00000000000E+00  0.00000000000E+00  0.16160102690E+04  0.16160102690E+04  0.25500000920E-02 0.  1.
       -2   -1    0    0    0  501  0.00000000000E+00  0.00000000000E+00 -0.14853015073E+04  0.14853015073E+04  0.25500000920E-02 0. -1.
    10030    2    1    2    0    0  0.00000000000E+00  0.00000000000E+00  0.13070876168E+03  0.31013117762E+04  0.30985561078E+04 0.  0.
        4    1    3    3  502    0 -0.10785282607E+04 -0.67467976136E+03 -0.81965192155E+03  0.15133561626E+04  0.12699999809E+01 0. -1.
       -4    1    3    3    0  502  0.10785282607E+04  0.67467976136E+03  0.95036068323E+03  0.15879556136E+04  0.12699999809E+01 0.  1.
</event>
<event>
 5   0  0.4450600E-08  0.3099875E+04  0.7818609E-02  0.8215772E-01
        1   -1    0    0  501    0  0.00000000000E+00  0.00000000000E+00  0.28511267799E+04  0.28511267800E+04  0.50400001928E-02 0. -1.
       -1   -1    0    0    0  501  0.00000000000E+00  0.00000000000E+00 -0.84258110972E+03  0.84258110973E+03  0.50400001928E-02 0.  1.
    10030    2    1    2    0    0  0.00000000000E+00  0.00000000000E+00  0.20085456702E+04  0.36937078897E+04  0.30998745563E+04 0.  0.
        4    1    3    3  502    0  0.14504546469E+03  0.15298224492E+04  0.76326671309E+03  0.17158008629E+04  0.12699999809E+01 0.  1.
       -4    1    3    3    0  502 -0.14504546469E+03 -0.15298224492E+04  0.12452789571E+04  0.19779070268E+04  0.12699999809E+01 0. -1.
</event>
<event>
 5   0  0.1329777E-07  0.3099924E+04  0.7818609E-02  0.8215759E-01
        2   -1    0    0  501    0  0.00000000000E+00  0.00000000000E+00  0.21692028081E+04  0.21692028081E+04  0.25500000920E-02 0. -1.
       -2   -1    0    0    0  501  0.00000000000E+00  0.00000000000E+00 -0.11074951623E+04  0.11074951623E+04  0.25500000920E-02 0.  1.
    10030    2    1    2    0    0  0.00000000000E+00  0.00000000000E+00  0.10617076458E+04  0.32766979704E+04  0.30999236223E+04 0.  0.
        1    1    3    3  502    0 -0.39094499191E+03 -0.58443969667E+03 -0.92920929289E+03  0.11652629127E+04  0.50400001928E-02 0.  1.
       -1    1    3    3    0  502  0.39094499191E+03  0.58443969667E+03  0.19909169387E+04  0.21114350577E+04  0.50400001928E-02 0. -1.
</event>
<event>
 5   0  0.4436241E-08  0.3100239E+04  0.7818609E-02  0.8215672E-01
        1   -1    0    0  501    0  0.00000000000E+00  0.00000000000E+00  0.24075104297E+04  0.24075104297E+04  0.50400001928E-02 0. -1.
       -1   -1    0    0    0  501  0.00000000000E+00  0.00000000000E+00 -0.99807271015E+03  0.99807271016E+03  0.50400001928E-02 0.  1.
    10030    2    1    2    0    0  0.00000000000E+00  0.00000000000E+00  0.14094377196E+04  0.34055831399E+04  0.31002389968E+04 0.  0.
        3    1    3    3  502    0 -0.60131286130E+03  0.14243989816E+04  0.82694701267E+03  0.17533770239E+04  0.10100000352E+00 0. -1.
       -3    1    3    3    0  502  0.60131286130E+03 -0.14243989816E+04  0.58249070688E+03  0.16522061160E+04  0.10100000352E+00 0.  1.
</event>
<event>
 5   0  0.1398931E-07  0.3100311E+04  0.7818609E-02  0.8215653E-01
        2   -1    0    0  501    0  0.00000000000E+00  0.00000000000E+00  0.28995378403E+04  0.28995378403E+04  0.25500000920E-02 0.  1.
       -2   -1    0    0    0  501  0.00000000000E+00  0.00000000000E+00 -0.82874654712E+03  0.82874654713E+03  0.25500000920E-02 0. -1.
    10030    2    1    2    0    0  0.00000000000E+00  0.00000000000E+00  0.20707912931E+04  0.37282843874E+04  0.31003109350E+04 0.  0.
        3    1    3    3  502    0  0.92637390062E+03 -0.94871933880E+03  0.20009967722E+04  0.24004635136E+04  0.10100000352E+00 0. -1.
       -3    1    3    3    0  502 -0.92637390062E+03  0.94871933880E+03  0.69794520961E+02  0.13278208738E+04  0.10100000352E+00 0.  1.
</event>
<event>
 5   0  0.4838602E-08  0.3099347E+04  0.7818609E-02  0.8215917E-01
       -1   -1    0    0    0  501  0.00000000000E+00  0.00000000000E+00  0.12056008503E+04  0.12056008504E+04  0.50400001928E-02 0. -1.
        1   -1    0    0  501    0  0.00000000000E+00  0.00000000000E+00 -0.19919427841E+04  0.19919427841E+04  0.50400001928E-02 0.  1.
    10030    2    1    2    0    0  0.00000000000E+00  0.00000000000E+00 -0.78634193378E+03  0.31975436345E+04  0.30993469728E+04 0.  0.
        5    1    3    3  502    0 -0.34301430038E+03  0.13152955076E+04  0.37458750310E+03  0.14099641733E+04  0.46999998093E+01 0. -1.
       -5    1    3    3    0  502  0.34301430038E+03 -0.13152955076E+04 -0.11609294369E+04  0.17875794612E+04  0.46999998093E+01 0.  1.
</event>
<event>
 5   0  0.1329777E-07  0.3097575E+04  0.7818609E-02  0.8216404E-01
       -2   -1    0    0    0  501  0.00000000000E+00  0.00000000000E+00  0.13600773802E+04  0.13600773802E+04  0.25500000920E-02 0. -1.
        2   -1    0    0  501    0  0.00000000000E+00  0.00000000000E+00 -0.17636813360E+04  0.17636813360E+04  0.25500000920E-02 0.  1.
    10030    2    1    2    0    0  0.00000000000E+00  0.00000000000E+00 -0.40360395580E+03  0.31237587162E+04  0.30975752394E+04 0.  0.
        1    1    3    3  502    0  0.78544019902E+02 -0.12229674476E+04 -0.11568683912E+04  0.16852783199E+04  0.50400001928E-02 0.  1.
       -1    1    3    3    0  502 -0.78544019902E+02  0.12229674476E+04  0.75326443540E+03  0.14384803963E+04  0.50400001928E-02 0. -1.
</event>
<event>
 5   0  0.1398931E-07  0.3094702E+04  0.7818609E-02  0.8217193E-01
        2   -1    0    0  501    0  0.00000000000E+00  0.00000000000E+00  0.13624076095E+04  0.13624076095E+04  0.25500000920E-02 0.  1.
       -2   -1    0    0    0  501  0.00000000000E+00  0.00000000000E+00 -0.17574004006E+04  0.17574004006E+04  0.25500000920E-02 0. -1.
    10030    2    1    2    0    0  0.00000000000E+00  0.00000000000E+00 -0.39499279112E+03  0.31198080100E+04  0.30947023628E+04 0.  0.
        3    1    3    3  502    0 -0.40757277631E+03  0.90639775243E+03  0.99813654765E+03  0.14085272562E+04  0.10100000352E+00 0.  1.
       -3    1    3    3    0  502  0.40757277631E+03 -0.90639775243E+03 -0.13931293388E+04  0.17112807538E+04  0.10100000352E+00 0. -1.
</event>
<event>
 5   0  0.4305500E-08  0.3100267E+04  0.7818609E-02  0.8215665E-01
       -3   -1    0    0    0  501  0.00000000000E+00  0.00000000000E+00  0.15356107417E+04  0.15356107451E+04  0.10100000352E+00 0. -1.
        3   -1    0    0  501    0  0.00000000000E+00  0.00000000000E+00 -0.15647939396E+04  0.15647939428E+04  0.10100000352E+00 0.  1.
    10030    2    1    2    0    0  0.00000000000E+00  0.00000000000E+00 -0.29183197812E+02  0.31004046879E+04  0.31002673384E+04 0.  0.
        4    1    3    3  502    0  0.14674835046E+04 -0.34996859390E+03  0.34169223907E+03  0.15468487489E+04  0.12699999809E+01 0.  1.
       -4    1    3    3    0  502 -0.14674835046E+04  0.34996859390E+03 -0.37087543688E+03  0.15535559390E+04  0.12699999809E+01 0. -1.
</event>
<event>
 5   0  0.4450600E-08  0.3100752E+04  0.7818609E-02  0.8215532E-01
        1   -1    0    0  501    0  0.00000000000E+00  0.00000000000E+00  0.12651829646E+04  0.12651829646E+04  0.50400001928E-02 0. -1.
       -1   -1    0    0    0  501  0.00000000000E+00  0.00000000000E+00 -0.18998559247E+04  0.18998559247E+04  0.50400001928E-02 0.  1.
    10030    2    1    2    0    0  0.00000000000E+00  0.00000000000E+00 -0.63467296009E+03  0.31650388894E+04  0.31007517484E+04 0.  0.
        4    1    3    3  502    0  0.49713050701E+03 -0.12462722456E+04  0.47551107104E+03  0.14235328035E+04  0.12699999809E+01 0. -1.
       -4    1    3    3    0  502 -0.49713050701E+03  0.12462722456E+04 -0.11101840311E+04  0.17415060858E+04  0.12699999809E+01 0.  1.
</event>
<event>
 5   0  0.4517409E-08  0.3096302E+04  0.7818609E-02  0.8216754E-01
       -1   -1    0    0    0  501  0.00000000000E+00  0.00000000000E+00  0.14344040970E+04  0.14344040970E+04  0.50400001928E-02 0. -1.
        1   -1    0    0  501    0  0.00000000000E+00  0.00000000000E+00 -0.16709176570E+04  0.16709176570E+04  0.50400001928E-02 0.  1.
    10030    2    1    2    0    0  0.00000000000E+00  0.00000000000E+00 -0.23651355999E+03  0.31053217541E+04  0.30963017508E+04 0.  0.
        2    1    3    3  502    0 -0.13397779580E+04 -0.71834523199E+03 -0.41193448766E+03  0.15750285303E+04  0.25500000920E-02 0.  1.
       -2    1    3    3    0  502  0.13397779580E+04  0.71834523199E+03  0.17542092767E+03  0.15302932238E+04  0.25500000920E-02 0. -1.
</event>
<event>
 5   0  0.1325713E-07  0.3099889E+04  0.7818609E-02  0.8215768E-01
       -2   -1    0    0    0  501  0.00000000000E+00  0.00000000000E+00  0.11749168443E+04  0.11749168443E+04  0.25500000920E-02 0.  1.
        2   -1    0    0  501    0  0.00000000000E+00  0.00000000000E+00 -0.20446797689E+04  0.20446797689E+04  0.25500000920E-02 0. -1.
    10030    2    1    2    0    0  0.00000000000E+00  0.00000000000E+00 -0.86976292458E+03  0.32195966131E+04  0.30998894829E+04 0.  0.
        4    1    3    3  502    0 -0.13811658759E+03  0.91427493898E+03  0.85708084729E+03  0.12607791430E+04  0.12699999809E+01 0.  1.
       -4    1    3    3    0  502  0.13811658759E+03 -0.91427493898E+03 -0.17268437719E+04  0.19588174701E+04  0.12699999809E+01 0. -1.
</event>
<event>
 5   0  0.1329777E-07  0.3100654E+04  0.7818609E-02  0.8215558E-01
       -2   -1    0    0    0  501  0.00000000000E+00  0.00000000000E+00  0.12500688416E+04  0.12500688416E+04  0.25500000920E-02 0. -1.
        2   -1    0    0  501    0  0.00000000000E+00  0.00000000000E+00 -0.19227056880E+04  0.19227056880E+04  0.25500000920E-02 0.  1.
    10030    2    1    2    0    0  0.00000000000E+00  0.00000000000E+00 -0.67263684637E+03  0.31727745296E+04  0.31006544291E+04 0.  0.
        1    1    3    3  502    0  0.74001849425E+03 -0.35489887467E+03  0.10095437819E+04  0.13010608097E+04  0.50400001928E-02 0. -1.
       -1    1    3    3    0  502 -0.74001849425E+03  0.35489887467E+03 -0.16821806282E+04  0.18717137199E+04  0.50400001928E-02 0.  1.
</event>
<event>
 5   0  0.4470354E-08  0.3097102E+04  0.7818609E-02  0.8216534E-01
       -1   -1    0    0    0  501  0.00000000000E+00  0.00000000000E+00  0.13285069243E+04  0.13285069243E+04  0.50400001928E-02 0. -1.
        1   -1    0    0  501    0  0.00000000000E+00  0.00000000000E+00 -0.18050419301E+04  0.18050419301E+04  0.50400001928E-02 0.  1.
    10030    2    1    2    0    0  0.00000000000E+00  0.00000000000E+00 -0.47653500578E+03  0.31335488544E+04  0.30971023249E+04 0.  0.
        1    1    3    3  502    0  0.26969420905E+03  0.28365939222E+03  0.12776340872E+04  0.13362434202E+04  0.50400001928E-02 0. -1.
       -1    1    3    3    0  502 -0.26969420905E+03 -0.28365939222E+03 -0.17541690930E+04  0.17973054342E+04  0.50400001928E-02 0.  1.
</event>
<event>
 5   0  0.1318916E-07  0.3097648E+04  0.7818609E-02  0.8216384E-01
       -2   -1    0    0    0  501  0.00000000000E+00  0.00000000000E+00  0.88614011469E+03  0.88614011469E+03  0.25500000920E-02 0.  1.
        2   -1    0    0  501    0  0.00000000000E+00  0.00000000000E+00 -0.27070848460E+04  0.27070848460E+04  0.25500000920E-02 0. -1.
    10030    2    1    2    0    0  0.00000000000E+00  0.00000000000E+00 -0.18209447313E+04  0.35932249607E+04  0.30976484474E+04 0.  0.
        5    1    3    3  502    0  0.15657312052E+03 -0.14037011835E+04 -0.17322724005E+03  0.14229975128E+04  0.46999998093E+01 0.  1.
       -5    1    3    3    0  502 -0.15657312052E+03  0.14037011835E+04 -0.16477174913E+04  0.21702274479E+04  0.46999998093E+01 0. -1.
</event>
<event>
 5   0  0.4450600E-08  0.3097142E+04  0.7818609E-02  0.8216523E-01
        1   -1    0    0  501    0  0.00000000000E+00  0.00000000000E+00  0.20065078785E+04  0.20065078785E+04  0.50400001928E-02 0. -1.
       -1   -1    0    0    0  501  0.00000000000E+00  0.00000000000E+00 -0.11951472740E+04  0.11951472740E+04  0.50400001928E-02 0.  1.
    10030    2    1    2    0    0  0.00000000000E+00  0.00000000000E+00  0.81136060450E+03  0.32016551526E+04  0.30971421804E+04 0.  0.
        4    1    3    3  502    0  0.26036522809E+03 -0.26766682222E+02 -0.11721153715E+04  0.12009839983E+04  0.12699999809E+01 0.  1.
       -4    1    3    3    0  502 -0.26036522809E+03  0.26766682222E+02  0.19834759760E+04  0.20006711542E+04  0.12699999809E+01 0. -1.
</event>
<event>
 5   0  0.4436241E-08  0.3096205E+04  0.7818609E-02  0.8216780E-01
       -1   -1    0    0    0  501  0.00000000000E+00  0.00000000000E+00  0.20224817680E+04  0.20224817680E+04  0.50400001928E-02 0.  1.
        1   -1    0    0  501    0  0.00000000000E+00  0.00000000000E+00 -0.11849903999E+04  0.11849903999E+04  0.50400001928E-02 0. -1.
    10030    2    1    2    0    0  0.00000000000E+00  0.00000000000E+00  0.83749136808E+03  0.32074721679E+04  0.30962050831E+04 0.  0.
        3    1    3    3  502    0 -0.15149821928E+04 -0.12909638732E+03  0.72038748833E+03  0.16824966761E+04  0.10100000352E+00 0.  1.
       -3    1    3    3    0  502  0.15149821928E+04  0.12909638732E+03  0.11710387976E+03  0.15249754918E+04  0.10100000352E+00 0. -1.
</event>
<event>
 5   0  0.4517409E-08  0.3092170E+04  0.7818609E-02  0.8217890E-01
        1   -1    0    0  501    0  0.00000000000E+00  0.00000000000E+00  0.13721916038E+04  0.13721916038E+04  0.50400001928E-02 0.  1.
       -1   -1    0    0    0  501  0.00000000000E+00  0.00000000000E+00 -0.17420149892E+04  0.17420149892E+04  0.50400001928E-02 0. -1.
    10030    2    1    2    0    0  0.00000000000E+00  0.00000000000E+00 -0.36982338533E+03  0.31142065930E+04  0.30921696861E+04 0.  0.
        2    1    3    3  502    0 -0.10136456075E+04 -0.84207775376E+03 -0.99925690247E+03  0.16538097588E+04  0.25500000920E-02 0.  1.
       -2    1    3    3    0  502  0.10136456075E+04  0.84207775376E+03  0.62943351713E+03  0.14603968343E+04  0.25500000920E-02 0. -1.
</event>
<event>
 5   0  0.1325713E-07  0.3100358E+04  0.7818609E-02  0.8215640E-01
        2   -1    0    0  501    0  0.00000000000E+00  0.00000000000E+00  0.15320765665E+04  0.15320765665E+04  0.25500000920E-02 0. -1.
       -2   -1    0    0    0  501  0.00000000000E+00  0.00000000000E+00 -0.15684949254E+04  0.15684949254E+04  0.25500000920E-02 0.  1.
    10030    2    1    2    0    0  0.00000000000E+00  0.00000000000E+00 -0.36418358938E+02  0.31005714919E+04  0.31003576051E+04 0.  0.
        4    1    3    3  502    0 -0.77772746670E+03  0.10091612391E+04 -0.90132518733E+03  0.15606585549E+04  0.12699999809E+01 0.  1.
       -4    1    3    3    0  502  0.77772746670E+03 -0.10091612391E+04  0.86490682839E+03  0.15399129370E+04  0.12699999809E+01 0. -1.
</event>
<event>
 5   0  0.4470354E-08  0.3099550E+04  0.7818609E-02  0.8215861E-01
        1   -1    0    0  501    0  0.00000000000E+00  0.00000000000E+00  0.18851281791E+04  0.18851281791E+04  0.50400001928E-02 0.  1.
       -1   -1    0    0    0  501  0.00000000000E+00  0.00000000000E+00 -0.12740790525E+04  0.12740790525E+04  0.50400001928E-02 0. -1.
    10030    2    1    2    0    0  0.00000000000E+00  0.00000000000E+00  0.61104912658E+03  0.31592072316E+04  0.30995498539E+04 0.  0.
        1    1    3    3  502    0  0.12547812932E+03 -0.15254685010E+04  0.55310599229E+03  0.16274904446E+04  0.50400001928E-02 0. -1.
       -1    1    3    3    0  502 -0.12547812932E+03  0.15254685010E+04  0.57943134291E+02  0.15317167870E+04  0.50400001928E-02 0.  1.
</event>
<event>
 5   0  0.4436241E-08  0.3100406E+04  0.7818609E-02  0.8215626E-01
        1   -1    0    0  501    0  0.00000000000E+00  0.00000000000E+00  0.13618008046E+04  0.13618008046E+04  0.50400001928E-02 0. -1.
       -1   -1    0    0    0  501  0.00000000000E+00  0.00000000000E+00 -0.17646703121E+04  0.17646703121E+04  0.50400001928E-02 0.  1.
    10030    2    1    2    0    0  0.00000000000E+00  0.00000000000E+00 -0.40286950741E+03  0.31264711167E+04  0.31004060708E+04 0.  0.
        3    1    3    3  502    0 -0.62990649909E+03 -0.14050423652E+04 -0.20473613542E+02  0.15399173434E+04  0.10100000352E+00 0.  1.
       -3    1    3    3    0  502  0.62990649909E+03  0.14050423652E+04 -0.38239589387E+03  0.15865537733E+04  0.10100000352E+00 0. -1.
</event>
<event>
 5   0  0.1377237E-07  0.3098241E+04  0.7818609E-02  0.8216221E-01
       -2   -1    0    0    0  501  0.00000000000E+00  0.00000000000E+00  0.12588850792E+04  0.12588850792E+04  0.25500000920E-02 0. -1.
        2   -1    0    0  501    0  0.00000000000E+00  0.00000000000E+00 -0.19062690462E+04  0.19062690462E+04  0.25500000920E-02 0.  1.
    10030    2    1    2    0    0  0.00000000000E+00  0.00000000000E+00 -0.64738396696E+03  0.31651541254E+04  0.30982405711E+04 0.  0.
        2    1    3    3  502    0 -0.32327154467E+03 -0.13431931507E+04 -0.10396132773E+04  0.17290078363E+04  0.25500000920E-02 0.  1.
       -2    1    3    3    0  502  0.32327154467E+03  0.13431931507E+04  0.39222931029E+03  0.14361462891E+04  0.25500000920E-02 0. -1.
</event>
<event>
 5   0  0.1325713E-07  0.3099672E+04  0.7818609E-02  0.8215828E-01
       -2   -1    0    0    0  501  0.00000000000E+00  0.00000000000E+00  0.14078463199E+04  0.14078463199E+04  0.25500000920E-02 0. -1.
        2   -1    0    0  501    0  0.00000000000E+00  0.00000000000E+00 -0.17061457157E+04  0.17061457157E+04  0.25500000920E-02 0.  1.
    10030    2    1    2    0    0  0.00000000000E+00  0.00000000000E+00 -0.29829939582E+03  0.31139920356E+04  0.30996715743E+04 0.  0.
        4    1    3    3  502    0 -0.99278416415E+03  0.61800503076E+03 -0.11709221866E+04  0.16548749181E+04  0.12699999809E+01 0.  1.
       -4    1    3    3    0  502  0.99278416415E+03 -0.61800503076E+03  0.87262279080E+03  0.14591171175E+04  0.12699999809E+01 0. -1.
</event>
<event>
 5   0  0.4838602E-08  0.3102514E+04  0.7818609E-02  0.8215048E-01
        1   -1    0    0  501    0  0.00000000000E+00  0.00000000000E+00  0.18730958633E+04  0.18730958633E+04  0.50400001928E-02 0. -1.
       -1   -1    0    0    0  501  0.00000000000E+00  0.00000000000E+00 -0.12847173612E+04  0.12847173612E+04  0.50400001928E-02 0.  1.
    10030    2    1    2    0    0  0.00000000000E+00  0.00000000000E+00  0.58837850204E+03  0.31578132245E+04  0.31025143190E+04 0.  0.
        5    1    3    3  502    0 -0.77301481294E+03 -0.12711511843E+04  0.74133662102E+03  0.16622211977E+04  0.46999998093E+01 0. -1.
       -5    1    3    3    0  502  0.77301481294E+03  0.12711511843E+04 -0.15295811898E+03  0.14955920268E+04  0.46999998093E+01 0.  1.
</event>
<event>
 5   0  0.1325713E-07  0.3103802E+04  0.7818609E-02  0.8214695E-01
        2   -1    0    0  501    0  0.00000000000E+00  0.00000000000E+00  0.22531406423E+04  0.22531406423E+04  0.25500000920E-02 0. -1.
       -2   -1    0    0    0  501  0.00000000000E+00  0.00000000000E+00 -0.10689064755E+04  0.10689064755E+04  0.25500000920E-02 0.  1.
    10030    2    1    2    0    0  0.00000000000E+00  0.00000000000E+00  0.11842341668E+04  0.33220471178E+04  0.31038019414E+04 0.  0.
        4    1    3    3  502    0  0.90019996942E+03  0.11241019138E+04 -0.26845426715E+02  0.14403775155E+04  0.12699999809E+01 0. -1.
       -4    1    3    3    0  502 -0.90019996942E+03 -0.11241019138E+04  0.12110795935E+04  0.18816696023E+04  0.12699999809E+01 0.  1.
</event>
<event>
 5   0  0.4517409E-08  0.3099698E+04  0.7818609E-02  0.8215821E-01
       -1   -1    0    0    0  501  0.00000000000E+00  0.00000000000E+00  0.10017640406E+04  0.10017640406E+04  0.50400001928E-02 0. -1.
        1   -1    0    0  501    0  0.00000000000E+00  0.00000000000E+00 -0.23978026918E+04  0.23978026918E+04  0.50400001928E-02 0.  1.
    10030    2    1    2    0    0  0.00000000000E+00  0.00000000000E+00 -0.13960386512E+04  0.33995667324E+04  0.30996983809E+04 0.  0.
        2    1    3    3  502    0 -0.12980751173E+04  0.65172228385E+02 -0.16239612327E+04  0.20800232005E+04  0.25500000920E-02 0.  1.
       -2    1    3    3    0  502  0.12980751173E+04 -0.65172228385E+02  0.22792258153E+03  0.13195435319E+04  0.25500000920E-02 0. -1.
</event>
<event>
 5   0  0.1318916E-07  0.3100439E+04  0.7818609E-02  0.8215617E-01
       -2   -1    0    0    0  501  0.00000000000E+00  0.00000000000E+00  0.13975815251E+04  0.13975815251E+04  0.25500000920E-02 0. -1.
        2   -1    0    0  501    0  0.00000000000E+00  0.00000000000E+00 -0.17195280068E+04  0.17195280068E+04  0.25500000920E-02 0.  1.
    10030    2    1    2    0    0  0.00000000000E+00  0.00000000000E+00 -0.32194648170E+03  0.31171095319E+04  0.31004390491E+04 0.  0.
        5    1    3    3  502    0  0.22598695153E+03 -0.70746071403E+03  0.12070737371E+04  0.14172578668E+04  0.46999998093E+01 0. -1.
       -5    1    3    3    0  502 -0.22598695153E+03  0.70746071403E+03 -0.15290202188E+04  0.16998516652E+04  0.46999998093E+01 0.  1.
</event>
<event>
 5   0  0.4450600E-08  0.3094790E+04  0.7818609E-02  0.8217169E-01
       -1   -1    0    0    0  501  0.00000000000E+00  0.00000000000E+00  0.90724735786E+03  0.90724735787E+03  0.50400001928E-02 0.  1.
        1   -1    0    0  501    0  0.00000000000E+00  0.00000000000E+00 -0.26392256680E+04  0.26392256680E+04  0.50400001928E-02 0. -1.
    10030    2    1    2    0    0  0.00000000000E+00  0.00000000000E+00 -0.17319783101E+04  0.35464730258E+04  0.30947895011E+04 0.  0.
        4    1    3    3  502    0  0.16687418063E+03  0.24727986411E+03 -0.26059599044E+04  0.26229797863E+04  0.12699999809E+01 0. -1.
       -4    1    3    3    0  502 -0.16687418063E+03 -0.24727986411E+03  0.87398159429E+03  0.92349323950E+03  0.12699999809E+01 0.  1.
</event>
<event>
 5   0  0.1398931E-07  0.3099685E+04  0.7818609E-02  0.8215824E-01
       -2   -1    0    0    0  501  0.00000000000E+00  0.00000000000E+00  0.15937272834E+04  0.15937272834E+04  0.25500000920E-02 0.  1.
        2   -1    0    0  501    0  0.00000000000E+00  0.00000000000E+00 -0.15071660214E+04  0.15071660214E+04  0.25500000920E-02 0. -1.
    10030    2    1    2    0    0  0.00000000000E+00  0.00000000000E+00  0.86561262050E+02  0.31008933048E+04  0.30996848929E+04 0.  0.
        3    1    3    3  502    0 -0.14510001409E+04  0.43324803085E+03 -0.28685761921E+03  0.15412308617E+04  0.10100000352E+00 0. -1.
       -3    1    3    3    0  502  0.14510001409E+04 -0.43324803085E+03  0.37341888126E+03  0.15596624431E+04  0.10100000352E+00 0.  1.
</event>
<event>
 5   0  0.4517409E-08  0.3096459E+04  0.7818609E-02  0.8216710E-01
       -1   -1    0    0    0  501  0.00000000000E+00  0.00000000000E+00  0.16275961651E+04  0.16275961652E+04  0.50400001928E-02 0. -1.
        1   -1    0    0  501    0  0.00000000000E+00  0.00000000000E+00 -0.14727329354E+04  0.14727329355E+04  0.50400001928E-02 0.  1.
    10030    2    1    2    0    0  0.00000000000E+00  0.00000000000E+00  0.15486322970E+03  0.31003291006E+04  0.30964589311E+04 0.  0.
        2    1    3    3  502    0 -0.14322317788E+04  0.36079102178E+03 -0.38742924592E+03  0.15269444817E+04  0.25500000920E-02 0.  1.
       -2    1    3    3    0  502  0.14322317788E+04 -0.36079102178E+03  0.54229247562E+03  0.15733846189E+04  0.25500000920E-02 0. -1.
</event>
<event>
 5   0  0.1377237E-07  0.3098494E+04  0.7818609E-02  0.8216151E-01
       -2   -1    0    0    0  501  0.00000000000E+00  0.00000000000E+00  0.11692945301E+04  0.11692945301E+04  0.25500000920E-02 0.  1.
        2   -1    0    0  501    0  0.00000000000E+00  0.00000000000E+00 -0.20526617294E+04  0.20526617294E+04  0.25500000920E-02 0. -1.
    10030    2    1    2    0    0  0.00000000000E+00  0.00000000000E+00 -0.88336719932E+03  0.32219562595E+04  0.30984939130E+04 0.  0.
        2    1    3    3  502    0  0.10279750603E+04  0.90490045798E+03  0.31146106572E+03  0.14044876500E+04  0.25500000920E-02 0.  1.
       -2    1    3    3    0  502 -0.10279750603E+04 -0.90490045798E+03 -0.11948282650E+04  0.18174686095E+04  0.25500000920E-02 0. -1.
</event>
<event>
 5   0  0.4305500E-08  0.3098398E+04  0.7818609E-02  0.8216178E-01
        3   -1    0    0  501    0  0.00000000000E+00  0.00000000000E+00  0.80070135449E+03  0.80070136086E+03  0.10100000352E+00 0.  1.
       -3   -1    0    0    0  501  0.00000000000E+00  0.00000000000E+00 -0.29973943165E+04  0.29973943182E+04  0.10100000352E+00 0. -1.
    10030    2    1    2    0    0  0.00000000000E+00  0.00000000000E+00 -0.21966929620E+04  0.37980956791E+04  0.30983981052E+04 0.  0.
        5    1    3    3  502    0 -0.50856021513E+03  0.67523665834E+03 -0.26897577978E+04  0.28194675274E+04  0.46999998093E+01 0. -1.
       -5    1    3    3    0  502  0.50856021513E+03 -0.67523665834E+03  0.49306483572E+03  0.97862815175E+03  0.46999998093E+01 0.  1.
</event>
<event>
 5   0  0.1325713E-07  0.3100364E+04  0.7818609E-02  0.8215638E-01
        2   -1    0    0  501    0  0.00000000000E+00  0.00000000000E+00  0.25772136530E+04  0.25772136530E+04  0.25500000920E-02 0.  1.
       -2   -1    0    0    0  501  0.00000000000E+00  0.00000000000E+00 -0.93242748582E+03  0.93242748583E+03  0.25500000920E-02 0. -1.
    10030    2    1    2    0    0  0.00000000000E+00  0.00000000000E+00  0.16447861671E+04  0.35096411388E+04  0.31003643959E+04 0.  0.
        4    1    3    3  502    0  0.51253549514E+03  0.10074328127E+04  0.20233101632E+04  0.23176279113E+04  0.12699999809E+01 0.  1.
       -4    1    3    3    0  502 -0.51253549514E+03 -0.10074328127E+04 -0.37852399612E+03  0.11920132274E+04  0.12699999809E+01 0. -1.
</event>
<event>
 5   0  0.1318916E-07  0.3095538E+04  0.7818609E-02  0.8216964E-01
       -2   -1    0    0    0  501  0.00000000000E+00  0.00000000000E+00  0.14279229996E+04  0.14279229996E+04  0.25500000920E-02 0.  1.
        2   -1    0    0  501    0  0.00000000000E+00  0.00000000000E+00 -0.16776736731E+04  0.16776736731E+04  0.25500000920E-02 0. -1.
    10030    2    1    2    0    0  0.00000000000E+00  0.00000000000E+00 -0.24975067351E+03  0.31055966728E+04  0.30955379654E+04 0.  0.
        5    1    3    3  502    0 -0.12926969150E+03  0.16978975090E+03 -0.16628365827E+04  0.16764804811E+04  0.46999998093E+01 0. -1.
       -5    1    3    3    0  502  0.12926969150E+03 -0.16978975090E+03  0.14130859092E+04  0.14291161917E+04  0.46999998093E+01 0.  1.
</event>
<event>
 5   0  0.4470354E-08  0.3100123E+04  0.7818609E-02  0.8215704E-01
        1   -1    0    0  501    0  0.00000000000E+00  0.00000000000E+00  0.12906189393E+04  0.12906189393E+04  0.50400001928E-02 0. -1.
       -1   -1    0    0    0  501  0.00000000000E+00  0.00000000000E+00 -0.18616577725E+04  0.18616577725E+04  0.50400001928E-02 0.  1.
    10030    2    1    2    0    0  0.00000000000E+00  0.00000000000E+00 -0.57103883320E+03  0.31522767118E+04  0.31001230812E+04 0.  0.
        1    1    3    3  502    0  0.11020718891E+03  0.13801649655E+04 -0.99415816974E+03  0.17045091443E+04  0.50400001928E-02 0.  1.
       -1    1    3    3    0  502 -0.11020718891E+03 -0.13801649655E+04  0.42311933654E+03  0.14477675675E+04  0.50400001928E-02 0. -1.
</event>
<event>
 5   0  0.4517409E-08  0.3101075E+04  0.7818609E-02  0.8215443E-01
       -1   -1    0    0    0  501  0.00000000000E+00  0.00000000000E+00  0.11633865635E+04  0.11633865636E+04  0.50400001928E-02 0.  1.
        1   -1    0    0  501    0  0.00000000000E+00  0.00000000000E+00 -0.20665243440E+04  0.20665243440E+04  0.50400001928E-02 0. -1.
    10030    2    1    2    0    0  0.00000000000E+00  0.00000000000E+00 -0.90313778043E+03  0.32299109075E+04  0.31010750749E+04 0.  0.
        2    1    3    3  502    0 -0.14587820269E+04 -0.32977414056E+02  0.94656103387E+02  0.14622216966E+04  0.25500000920E-02 0.  1.
       -2    1    3    3    0  502  0.14587820269E+04  0.32977414056E+02 -0.99779388381E+03  0.17676892110E+04  0.25500000920E-02 0. -1.
</event>
<event>
 5   0  0.1318916E-07  0.3100891E+04  0.7818609E-02  0.8215494E-01
       -2   -1    0    0    0  501  0.00000000000E+00  0.00000000000E+00  0.27057428551E+04  0.27057428551E+04  0.25500000920E-02 0.  1.
        2   -1    0    0  501    0  0.00000000000E+00  0.00000000000E+00 -0.88843653302E+03  0.88843653303E+03  0.25500000920E-02 0. -1.
    10030    2    1    2    0    0  0.00000000000E+00  0.00000000000E+00  0.18173063220E+04  0.35941793881E+04  0.31008907117E+04 0.  0.
        5    1    3    3  502    0 -0.15460425726E+04 -0.80896416895E+02  0.10060906457E+04  0.18463565051E+04  0.46999998093E+01 0.  1.
       -5    1    3    3    0  502  0.15460425726E+04  0.80896416895E+02  0.81121567635E+03  0.17478228830E+04  0.46999998093E+01 0. -1.
</event>
<event>
 5   0  0.4436241E-08  0.3099709E+04  0.7818609E-02  0.8215818E-01
       -1   -1    0    0    0  501  0.00000000000E+00  0.00000000000E+00  0.10362629025E+04  0.10362629026E+04  0.50400001928E-02 0. -1.
        1   -1    0    0  501    0  0.00000000000E+00  0.00000000000E+00 -0.23179913218E+04  0.23179913218E+04  0.50400001928E-02 0.  1.
    10030    2    1    2    0    0  0.00000000000E+00  0.00000000000E+00 -0.12817284193E+04  0.33542542244E+04  0.30997086413E+04 0.  0.
        3    1    3    3  502    0  0.76418965217E+03  0.42232211157E+03  0.74480056152E+03  0.11476365614E+04  0.10100000352E+00 0. -1.
       -3    1    3    3    0  502 -0.76418965217E+03 -0.42232211157E+03 -0.20265289808E+04  0.22066176630E+04  0.10100000352E+00 0.  1.
</event>
<event>
 5   0  0.1329777E-07  0.3099809E+04  0.7818609E-02  0.8215790E-01
       -2   -1    0    0    0  501  0.00000000000E+00  0.00000000000E+00  0.12419889752E+04  0.12419889752E+04  0.25500000920E-02 0.  1.
        2   -1    0    0  501    0  0.00000000000E+00  0.00000000000E+00 -0.19341585626E+04  0.19341585626E+04  0.25500000920E-02 0. -1.
    10030    2    1    2    0    0  0.00000000000E+00  0.00000000000E+00 -0.69216958740E+03  0.31761475379E+04  0.30998087755E+04 0.  0.
        1    1    3    3  502    0  0.88109199820E+03 -0.85844740305E+03  0.61997515979E+03  0.13775428312E+04  0.50400001928E-02 0.  1.
       -1    1    3    3    0  502 -0.88109199820E+03  0.85844740305E+03 -0.13121447472E+04  0.17986047066E+04  0.50400001928E-02 0. -1.
</event>
<event>
 5   0  0.4470354E-08  0.3100949E+04  0.7818609E-02  0.8215478E-01
        1   -1    0    0  501    0  0.00000000000E+00  0.00000000000E+00  0.19369195198E+04  0.19369195198E+04  0.50400001928E-02 0. -1.
       -1   -1    0    0    0  501  0.00000000000E+00  0.00000000000E+00 -0.12411311707E+04  0.12411311707E+04  0.50400001928E-02 0.  1.
    10030    2    1    2    0    0  0.00000000000E+00  0.00000000000E+00  0.69578834902E+03  0.31780506905E+04  0.31009490103E+04 0.  0.
        1    1    3    3  502    0  0.36451828524E+03 -0.22059361564E+03  0.18757445779E+04  0.19235261488E+04  0.50400001928E-02 0. -1.
       -1    1    3    3    0  502 -0.36451828524E+03  0.22059361564E+03 -0.11799562289E+04  0.12545245417E+04  0.50400001928E-02 0.  1.
</event>
<event>
 5   0  0.1329777E-07  0.3099057E+04  0.7818609E-02  0.8215997E-01
        2   -1    0    0  501    0  0.00000000000E+00  0.00000000000E+00  0.25680755528E+04  0.25680755528E+04  0.25500000920E-02 0.  1.
       -2   -1    0    0    0  501  0.00000000000E+00  0.00000000000E+00 -0.93495640558E+03  0.93495640559E+03  0.25500000920E-02 0. -1.
    10030    2    1    2    0    0  0.00000000000E+00  0.00000000000E+00  0.16331191473E+04  0.35030319584E+04  0.30990570748E+04 0.  0.
        1    1    3    3  502    0 -0.15323745325E+04  0.20851016137E+03  0.92609603747E+03  0.18025820553E+04  0.50400001928E-02 0.  1.
       -1    1    3    3    0  502  0.15323745325E+04 -0.20851016137E+03  0.70702310978E+03  0.17004499032E+04  0.50400001928E-02 0. -1.
</event>
<event>
 5   0  0.1329777E-07  0.3097057E+04  0.7818609E-02  0.8216546E-01
        2   -1    0    0  501    0  0.00000000000E+00  0.00000000000E+00  0.27242005856E+04  0.27242005856E+04  0.25500000920E-02 0.  1.
       -2   -1    0    0    0  501  0.00000000000E+00  0.00000000000E+00 -0.88023667688E+03  0.88023667689E+03  0.25500000920E-02 0. -1.
    10030    2    1    2    0    0  0.00000000000E+00  0.00000000000E+00  0.18439639087E+04  0.36044372625E+04  0.30970574878E+04 0.  0.
        1    1    3    3  502    0  0.13778768563E+03 -0.10683347260E+04  0.22167181550E+04  0.24645818939E+04  0.50400001928E-02 0.  1.
       -1    1    3    3    0  502 -0.13778768563E+03  0.10683347260E+04 -0.37275424627E+03  0.11398553686E+04  0.50400001928E-02 0. -1.
</event>
<event>
 5   0  0.1318916E-07  0.3100604E+04  0.7818609E-02  0.8215572E-01
        2   -1    0    0  501    0  0.00000000000E+00  0.00000000000E+00  0.14909050884E+04  0.14909050884E+04  0.25500000920E-02 0.  1.
       -2   -1    0    0    0  501  0.00000000000E+00  0.00000000000E+00 -0.16120652183E+04  0.16120652183E+04  0.25500000920E-02 0. -1.
    10030    2    1    2    0    0  0.00000000000E+00  0.00000000000E+00 -0.12116012983E+03  0.31029703067E+04  0.31006039649E+04 0.  0.
        5    1    3    3  502    0 -0.16072131893E+02  0.11720145518E+04  0.95485569561E+03  0.15118359410E+04  0.46999998093E+01 0. -1.
       -5    1    3    3    0  502  0.16072131893E+02 -0.11720145518E+04 -0.10760158254E+04  0.15911343657E+04  0.46999998093E+01 0.  1.
</event>
<event>
 5   0  0.1398931E-07  0.3099168E+04  0.7818609E-02  0.8215966E-01
       -2   -1    0    0    0  501  0.00000000000E+00  0.00000000000E+00  0.20164854021E+04  0.20164854022E+04  0.25500000920E-02 0. -1.
        2   -1    0    0  501    0  0.00000000000E+00  0.00000000000E+00 -0.11907896820E+04  0.11907896820E+04  0.25500000920E-02 0.  1.
    10030    2    1    2    0    0  0.00000000000E+00  0.00000000000E+00  0.82569572015E+03  0.32072750842E+04  0.30991676371E+04 0.  0.
        3    1    3    3  502    0  0.93259945402E+03 -0.81404876038E+03 -0.55175660378E+03  0.13553053110E+04  0.10100000352E+00 0.  1.
       -3    1    3    3    0  502 -0.93259945402E+03  0.81404876038E+03  0.13774523239E+04  0.18519697732E+04  0.10100000352E+00 0. -1.
</event>
<event>
 5   0  0.4450600E-08  0.3083747E+04  0.7818609E-02  0.8220213E-01
        1   -1    0    0  501    0  0.00000000000E+00  0.00000000000E+00  0.15796432493E+04  0.15796432493E+04  0.50400001928E-02 0.  1.
       -1   -1    0    0    0  501  0.00000000000E+00  0.00000000000E+00 -0.15050064845E+04  0.15050064845E+04  0.50400001928E-02 0. -1.
    10030    2    1    2    0    0  0.00000000000E+00  0.00000000000E+00  0.74636764818E+02  0.30846497337E+04  0.30837466389E+04 0.  0.
        4    1    3    3  502    0 -0.12269448538E+04  0.87033370775E+03 -0.30115518456E+03  0.15341350968E+04  0.12699999809E+01 0. -1.
       -4    1    3    3    0  502  0.12269448538E+04 -0.87033370775E+03  0.37579194938E+03  0.15505146369E+04  0.12699999809E+01 0.  1.
</event>
<event>
 5   0  0.4436241E-08  0.3098314E+04  0.7818609E-02  0.8216201E-01
       -1   -1    0    0    0  501  0.00000000000E+00  0.00000000000E+00  0.88479648182E+03  0.88479648183E+03  0.50400001928E-02 0.  1.
        1   -1    0    0  501    0  0.00000000000E+00  0.00000000000E+00 -0.27123613853E+04  0.27123613853E+04  0.50400001928E-02 0. -1.
    10030    2    1    2    0    0  0.00000000000E+00  0.00000000000E+00 -0.18275649035E+04  0.35971578672E+04  0.30983142586E+04 0.  0.
        3    1    3    3  502    0 -0.75465395258E+03 -0.10724378138E+04 -0.18713562394E+04  0.22850819761E+04  0.10100000352E+00 0. -1.
       -3    1    3    3    0  502  0.75465395258E+03  0.10724378138E+04  0.43791335886E+02  0.13120758911E+04  0.10100000352E+00 0.  1.
</event>
<event>
 5   0  0.4517409E-08  0.3099848E+04  0.7818609E-02  0.8215780E-01
        1   -1    0    0  501    0  0.00000000000E+00  0.00000000000E+00  0.18255960769E+04  0.18255960769E+04  0.50400001928E-02 0. -1.
       -1   -1    0    0    0  501  0.00000000000E+00  0.00000000000E+00 -0.13158790747E+04  0.13158790747E+04  0.50400001928E-02 0.  1.
    10030    2    1    2    0    0  0.00000000000E+00  0.00000000000E+00  0.50971700217E+03  0.31414751516E+04  0.30998475295E+04 0.  0.
        2    1    3    3  502    0  0.71581721504E+03 -0.19967883248E+03  0.16332700293E+04  0.17943904007E+04  0.25500000920E-02 0. -1.
       -2    1    3    3    0  502 -0.71581721504E+03  0.19967883248E+03 -0.11235530271E+04  0.13470847509E+04  0.25500000920E-02 0.  1.
</event>
<event>
 5   0  0.4470354E-08  0.3109441E+04  0.7818609E-02  0.8213152E-01
       -1   -1    0    0    0  501  0.00000000000E+00  0.00000000000E+00  0.15347720026E+04  0.15347720026E+04  0.50400001928E-02 0.  1.
        1   -1    0    0  501    0  0.00000000000E+00  0.00000000000E+00 -0.15749287357E+04  0.15749287357E+04  0.50400001928E-02 0. -1.
    10030    2    1    2    0    0  0.00000000000E+00  0.00000000000E+00 -0.40156733105E+02  0.31097007383E+04  0.31094414480E+04 0.  0.
        1    1    3    3  502    0 -0.64434720656E+03 -0.14144342828E+04 -0.56808346666E+02  0.15553246772E+04  0.50400001928E-02 0.  1.
       -1    1    3    3    0  502  0.64434720656E+03  0.14144342828E+04  0.16651613561E+02  0.15543760611E+04  0.50400001928E-02 0. -1.
</event>
<event>
 5   0  0.1329777E-07  0.3103145E+04  0.7818609E-02  0.8214875E-01
       -2   -1    0    0    0  501  0.00000000000E+00  0.00000000000E+00  0.99924745585E+03  0.99924745585E+03  0.25500000920E-02 0. -1.
        2   -1    0    0  501    0  0.00000000000E+00  0.00000000000E+00 -0.24091907301E+04  0.24091907301E+04  0.25500000920E-02 0.  1.
    10030    2    1    2    0    0  0.00000000000E+00  0.00000000000E+00 -0.14099432743E+04  0.34084381859E+04  0.31031453126E+04 0.  0.
        1    1    3    3  502    0  0.30151880975E+02 -0.62467738162E+03  0.85467117628E+03  0.10590532501E+04  0.50400001928E-02 0. -1.
       -1    1    3    3    0  502 -0.30151880975E+02  0.62467738162E+03 -0.22646144505E+04  0.23493849358E+04  0.50400001928E-02 0.  1.
</event>
<event>
 5   0  0.4436241E-08  0.3099599E+04  0.7818609E-02  0.8215848E-01
        1   -1    0    0  501    0  0.00000000000E+00  0.00000000000E+00  0.24787024068E+04  0.24787024068E+04  0.50400001928E-02 0. -1.
       -1   -1    0    0    0  501  0.00000000000E+00  0.00000000000E+00 -0.96900641112E+03  0.96900641113E+03  0.50400001928E-02 0.  1.
    10030    2    1    2    0    0  0.00000000000E+00  0.00000000000E+00  0.15096959957E+04  0.34477088180E+04  0.30995990215E+04 0.  0.
        3    1    3    3  502    0 -0.13229389442E+04 -0.79692368265E+03  0.89826115850E+03  0.17866527153E+04  0.10100000352E+00 0. -1.
       -3    1    3    3    0  502  0.13229389442E+04  0.79692368265E+03  0.61143483722E+03  0.16610561027E+04  0.10100000352E+00 0.  1.
</event>
<event>
 5   0  0.1377237E-07  0.3098113E+04  0.7818609E-02  0.8216256E-01
       -2   -1    0    0    0  501  0.00000000000E+00  0.00000000000E+00  0.12802235730E+04  0.12802235730E+04  0.25500000920E-02 0. -1.
        2   -1    0    0  501    0  0.00000000000E+00  0.00000000000E+00 -0.18743413567E+04  0.18743413567E+04  0.25500000920E-02 0.  1.
    10030    2    1    2    0    0  0.00000000000E+00  0.00000000000E+00 -0.59411778367E+03  0.31545649297E+04  0.30981129668E+04 0.  0.
        2    1    3    3  502    0 -0.79925580255E+03 -0.10617425294E+04 -0.11074690728E+04  0.17299117850E+04  0.25500000920E-02 0.  1.
       -2    1    3    3    0  502  0.79925580255E+03  0.10617425294E+04  0.51335128916E+03  0.14246531447E+04  0.25500000920E-02 0. -1.
</event>
<event>
 5   0  0.4838602E-08  0.3100006E+04  0.7818609E-02  0.8215736E-01
        1   -1    0    0  501    0  0.00000000000E+00  0.00000000000E+00  0.19547745242E+04  0.19547745242E+04  0.50400001928E-02 0. -1.
       -1   -1    0    0    0  501  0.00000000000E+00  0.00000000000E+00 -0.12290463814E+04  0.12290463814E+04  0.50400001928E-02 0.  1.
    10030    2    1    2    0    0  0.00000000000E+00  0.00000000000E+00  0.72572814276E+03  0.31838209056E+04  0.31000055196E+04 0.  0.
        5    1    3    3  502    0  0.11177831062E+04  0.89333161918E+03  0.97479727170E+03  0.17313960452E+04  0.46999998093E+01 0. -1.
       -5    1    3    3    0  502 -0.11177831062E+04 -0.89333161918E+03 -0.24906912894E+03  0.14524248604E+04  0.46999998093E+01 0.  1.
</event>
<event>
 5   0  0.1325713E-07  0.3099898E+04  0.7818609E-02  0.8215766E-01
       -2   -1    0    0    0  501  0.00000000000E+00  0.00000000000E+00  0.14813889575E+04  0.14813889575E+04  0.25500000920E-02 0.  1.
        2   -1    0    0  501    0  0.00000000000E+00  0.00000000000E+00 -0.16216822570E+04  0.16216822570E+04  0.25500000920E-02 0. -1.
    10030    2    1    2    0    0  0.00000000000E+00  0.00000000000E+00 -0.14029329952E+03  0.31030712145E+04  0.30998981842E+04 0.  0.
        4    1    3    3  502    0 -0.65188597757E+03 -0.56757437597E+03 -0.13580266515E+04  0.16097620940E+04  0.12699999809E+01 0. -1.
       -4    1    3    3    0  502  0.65188597757E+03  0.56757437597E+03  0.12177333520E+04  0.14933091205E+04  0.12699999809E+01 0.  1.
</event>
<event>
 5   0  0.1329777E-07  0.3099560E+04  0.7818609E-02  0.8215859E-01
        2   -1    0    0  501    0  0.00000000000E+00  0.00000000000E+00  0.29314564002E+04  0.29314564002E+04  0.25500000920E-02 0. -1.
       -2   -1    0    0    0  501  0.00000000000E+00  0.00000000000E+00 -0.81932571059E+03  0.81932571060E+03  0.25500000920E-02 0.  1.
    10030    2    1    2    0    0  0.00000000000E+00  0.00000000000E+00  0.21121306896E+04  0.37507821108E+04  0.30995597095E+04 0.  0.
        1    1    3    3  502    0 -0.54910269336E+03  0.14491291106E+04  0.10341277278E+04  0.18630376015E+04  0.50400001928E-02 0.  1.
       -1    1    3    3    0  502  0.54910269336E+03 -0.14491291106E+04  0.10780029618E+04  0.18877445093E+04  0.50400001928E-02 0. -1.
</event>
<event>
 5   0  0.1329777E-07  0.3098475E+04  0.7818609E-02  0.8216157E-01
       -2   -1    0    0    0  501  0.00000000000E+00  0.00000000000E+00  0.25341937365E+04  0.25341937365E+04  0.25500000920E-02 0. -1.
        2   -1    0    0  501    0  0.00000000000E+00  0.00000000000E+00 -0.94710065855E+03  0.94710065856E+03  0.25500000920E-02 0.  1.
    10030    2    1    2    0    0  0.00000000000E+00  0.00000000000E+00  0.15870930780E+04  0.34812943951E+04  0.30984748227E+04 0.  0.
        1    1    3    3  502    0 -0.19717606981E+03 -0.14980891063E+04  0.40925402677E+03  0.15654514465E+04  0.50400001928E-02 0.  1.
       -1    1    3    3    0  502  0.19717606981E+03  0.14980891063E+04  0.11778390512E+04  0.19158429486E+04  0.50400001928E-02 0. -1.
</event>
<event>
 5   0  0.4450600E-08  0.3098730E+04  0.7818609E-02  0.8216087E-01
        1   -1    0    0  501    0  0.00000000000E+00  0.00000000000E+00  0.23797601057E+04  0.23797601057E+04  0.50400001928E-02 0. -1.
       -1   -1    0    0    0  501  0.00000000000E+00  0.00000000000E+00 -0.10087283214E+04  0.10087283214E+04  0.50400001928E-02 0.  1.
    10030    2    1    2    0    0  0.00000000000E+00  0.00000000000E+00  0.13710317843E+04  0.33884884272E+04  0.30987296861E+04 0.  0.
        4    1    3    3  502    0 -0.38265719019E+02  0.91428425036E+03 -0.68165442372E+03  0.11410671856E+04  0.12699999809E+01 0.  1.
       -4    1    3    3    0  502  0.38265719019E+02 -0.91428425036E+03  0.20526862080E+04  0.22474212416E+04  0.12699999809E+01 0. -1.
</event>
<event>
 5   0  0.1325713E-07  0.3095190E+04  0.7818609E-02  0.8217059E-01
        2   -1    0    0  501    0  0.00000000000E+00  0.00000000000E+00  0.20927030818E+04  0.20927030818E+04  0.25500000920E-02 0.  1.
       -2   -1    0    0    0  501  0.00000000000E+00  0.00000000000E+00 -0.11444772337E+04  0.11444772337E+04  0.25500000920E-02 0. -1.
    10030    2    1    2    0    0  0.00000000000E+00  0.00000000000E+00  0.94822584816E+03  0.32371803155E+04  0.30951904846E+04 0.  0.
        4    1    3    3  502    0  0.81327105230E+03  0.12460740098E+04  0.29229917916E+02  0.14882762658E+04  0.12699999809E+01 0. -1.
       -4    1    3    3    0  502 -0.81327105230E+03 -0.12460740098E+04  0.91899593024E+03  0.17489040497E+04  0.12699999809E+01 0.  1.
</event>
<event>
 5   0  0.1325713E-07  0.3099809E+04  0.7818609E-02  0.8215790E-01
       -2   -1    0    0    0  501  0.00000000000E+00  0.00000000000E+00  0.98721321418E+03  0.98721321419E+03  0.25500000920E-02 0.  1.
        2   -1    0    0  501    0  0.00000000000E+00  0.00000000000E+00 -0.24333184422E+04  0.24333184422E+04  0.25500000920E-02 0. -1.
    10030    2    1    2    0    0  0.00000000000E+00  0.00000000000E+00 -0.14461052281E+04  0.34205316564E+04  0.30998091041E+04 0.  0.
        4    1    3    3  502    0  0.55673206893E+03 -0.69992586404E+03 -0.21198651656E+04  0.23007991535E+04  0.12699999809E+01 0. -1.
       -4    1    3    3    0  502 -0.55673206893E+03  0.69992586404E+03  0.67375993753E+03  0.11197325029E+04  0.12699999809E+01 0.  1.
</event>
<event>
 5   0  0.4517409E-08  0.3098476E+04  0.7818609E-02  0.8216156E-01
       -1   -1    0    0    0  501  0.00000000000E+00  0.00000000000E+00  0.94887714135E+03  0.94887714136E+03  0.50400001928E-02 0.  1.
        1   -1    0    0  501    0  0.00000000000E+00  0.00000000000E+00 -0.25294507928E+04  0.25294507928E+04  0.50400001928E-02 0. -1.
    10030    2    1    2    0    0  0.00000000000E+00  0.00000000000E+00 -0.15805736514E+04  0.34783279341E+04  0.30984757785E+04 0.  0.
        2    1    3    3  502    0 -0.57237516611E+03  0.12390110795E+04 -0.16132144742E+04  0.21131073625E+04  0.25500000920E-02 0. -1.
       -2    1    3    3    0  502  0.57237516611E+03 -0.12390110795E+04  0.32640822751E+02  0.13652205716E+04  0.25500000920E-02 0.  1.
</event>
<event>
 5   0  0.1329777E-07  0.3092908E+04  0.7818609E-02  0.8217687E-01
        2   -1    0    0  501    0  0.00000000000E+00  0.00000000000E+00  0.14014132081E+04  0.14014132081E+04  0.25500000920E-02 0.  1.
       -2   -1    0    0    0  501  0.00000000000E+00  0.00000000000E+00 -0.17065055629E+04  0.17065055629E+04  0.25500000920E-02 0. -1.
    10030    2    1    2    0    0  0.00000000000E+00  0.00000000000E+00 -0.30509235472E+03  0.31079187710E+04  0.30929076517E+04 0.  0.
        1    1    3    3  502    0 -0.14935152252E+04 -0.39757089291E+03 -0.20637005562E+03  0.15592430673E+04  0.50400001928E-02 0. -1.
       -1    1    3    3    0  502  0.14935152252E+04  0.39757089291E+03 -0.98722299099E+02  0.15486757037E+04  0.50400001928E-02 0.  1.
</event>
<event>
 5   0  0.4838602E-08  0.3096951E+04  0.7818609E-02  0.8216575E-01
       -1   -1    0    0    0  501  0.00000000000E+00  0.00000000000E+00  0.22686117729E+04  0.22686117729E+04  0.50400001928E-02 0.  1.
        1   -1    0    0  501    0  0.00000000000E+00  0.00000000000E+00 -0.10569356267E+04  0.10569356268E+04  0.50400001928E-02 0. -1.
    10030    2    1    2    0    0  0.00000000000E+00  0.00000000000E+00  0.12116761461E+04  0.33255473996E+04  0.30969511498E+04 0.  0.
        5    1    3    3  502    0  0.96424411591E+02 -0.15159221011E+04  0.28291287233E+03  0.15451146453E+04  0.46999998093E+01 0. -1.
       -5    1    3    3    0  502 -0.96424411591E+02  0.15159221011E+04  0.92876327379E+03  0.17804327543E+04  0.46999998093E+01 0.  1.
</event>
<event>
 5   0  0.4838602E-08  0.3098309E+04  0.7818609E-02  0.8216202E-01
        1   -1    0    0  501    0  0.00000000000E+00  0.00000000000E+00  0.24257432249E+04  0.24257432249E+04  0.50400001928E-02 0.  1.
       -1   -1    0    0    0  501  0.00000000000E+00  0.00000000000E+00 -0.98933801630E+03  0.98933801631E+03  0.50400001928E-02 0. -1.
    10030    2    1    2    0    0  0.00000000000E+00  0.00000000000E+00  0.14364052086E+04  0.34150812412E+04  0.30983092100E+04 0.  0.
        5    1    3    3  502    0  0.69460801315E+03  0.37926791507E+03 -0.74969571889E+03  0.10901331131E+04  0.46999998093E+01 0. -1.
       -5    1    3    3    0  502 -0.69460801315E+03 -0.37926791507E+03  0.21861009275E+04  0.23249481282E+04  0.46999998093E+01 0.  1.
</event>
<event>
 5   0  0.4838602E-08  0.3101048E+04  0.7818609E-02  0.8215450E-01
        1   -1    0    0  501    0  0.00000000000E+00  0.00000000000E+00  0.14316561714E+04  0.14316561714E+04  0.50400001928E-02 0. -1.
       -1   -1    0    0    0  501  0.00000000000E+00  0.00000000000E+00 -0.16792607314E+04  0.16792607314E+04  0.50400001928E-02 0.  1.
    10030    2    1    2    0    0  0.00000000000E+00  0.00000000000E+00 -0.24760456006E+03  0.31109169028E+04  0.31010475582E+04 0.  0.
        5    1    3    3  502    0  0.10636521464E+04 -0.10985661937E+04  0.13372140927E+03  0.15349615877E+04  0.46999998093E+01 0. -1.
       -5    1    3    3    0  502 -0.10636521464E+04  0.10985661937E+04 -0.38132596933E+03  0.15759553151E+04  0.46999998093E+01 0.  1.
</event>
<event>
 5   0  0.4517409E-08  0.3114827E+04  0.7818609E-02  0.8211681E-01
        1   -1    0    0  501    0  0.00000000000E+00  0.00000000000E+00  0.14981977699E+04  0.14981977699E+04  0.50400001928E-02 0. -1.
       -1   -1    0    0    0  501  0.00000000000E+00  0.00000000000E+00 -0.16189692545E+04  0.16189692545E+04  0.50400001928E-02 0.  1.
    10030    2    1    2    0    0  0.00000000000E+00  0.00000000000E+00 -0.12077148462E+03  0.31171670244E+04  0.31148265612E+04 0.  0.
        2    1    3    3  502    0 -0.12281633523E+04 -0.47108598800E+03 -0.89481613080E+03  0.15909126739E+04  0.25500000920E-02 0.  1.
       -2    1    3    3    0  502  0.12281633523E+04  0.47108598800E+03  0.77404464618E+03  0.15262543505E+04  0.25500000920E-02 0. -1.
</event>
<event>
 5   0  0.1398931E-07  0.3100244E+04  0.7818609E-02  0.8215671E-01
       -2   -1    0    0    0  501  0.00000000000E+00  0.00000000000E+00  0.13061281179E+04  0.13061281179E+04  0.25500000920E-02 0.  1.
        2   -1    0    0  501    0  0.00000000000E+00  0.00000000000E+00 -0.18396954807E+04  0.18396954807E+04  0.25500000920E-02 0. -1.
    10030    2    1    2    0    0  0.00000000000E+00  0.00000000000E+00 -0.53356736279E+03  0.31458235986E+04  0.31002438586E+04 0.  0.
        3    1    3    3  502    0 -0.11145310155E+04 -0.45866589176E+03 -0.12559615809E+04  0.17406875905E+04  0.10100000352E+00 0. -1.
       -3    1    3    3    0  502  0.11145310155E+04  0.45866589176E+03  0.72239421807E+03  0.14051360081E+04  0.10100000352E+00 0.  1.
</event>
<event>
 5   0  0.1318916E-07  0.3099703E+04  0.7818609E-02  0.8215819E-01
       -2   -1    0    0    0  501  0.00000000000E+00  0.00000000000E+00  0.10876478749E+04  0.10876478749E+04  0.25500000920E-02 0.  1.
        2   -1    0    0  501    0  0.00000000000E+00  0.00000000000E+00 -0.22084716820E+04  0.22084716820E+04  0.25500000920E-02 0. -1.
    10030    2    1    2    0    0  0.00000000000E+00  0.00000000000E+00 -0.11208238071E+04  0.32961195569E+04  0.30997029095E+04 0.  0.
        5    1    3    3  502    0  0.71349555117E+03 -0.13702462245E+04 -0.42859383321E+03  0.16032359094E+04  0.46999998093E+01 0. -1.
       -5    1    3    3    0  502 -0.71349555117E+03  0.13702462245E+04 -0.69222997385E+03  0.16928836475E+04  0.46999998093E+01 0.  1.
</event>
<event>
 5   0  0.1377237E-07  0.3100754E+04  0.7818609E-02  0.8215531E-01
        2   -1    0    0  501    0  0.00000000000E+00  0.00000000000E+00  0.18460569487E+04  0.18460569487E+04  0.25500000920E-02 0.  1.
       -2   -1    0    0    0  501  0.00000000000E+00  0.00000000000E+00 -0.13020552237E+04  0.13020552237E+04  0.25500000920E-02 0. -1.
    10030    2    1    2    0    0  0.00000000000E+00  0.00000000000E+00  0.54400172497E+03  0.31481121724E+04  0.31007535170E+04 0.  0.
        2    1    3    3  502    0 -0.84847284009E+03  0.35210609582E+03  0.15399886684E+04  0.17931675778E+04  0.25500000920E-02 0.  1.
       -2    1    3    3    0  502  0.84847284009E+03 -0.35210609582E+03 -0.99598694345E+03  0.13549445947E+04  0.25500000920E-02 0. -1.
</event>
<event>
 5   0  0.4450600E-08  0.3097889E+04  0.7818609E-02  0.8216317E-01
        1   -1    0    0  501    0  0.00000000000E+00  0.00000000000E+00  0.77607843154E+03  0.77607843156E+03  0.50400001928E-02 0.  1.
       -1   -1    0    0    0  501  0.00000000000E+00  0.00000000000E+00 -0.30914783227E+04  0.30914783227E+04  0.50400001928E-02 0. -1.
    10030    2    1    2    0    0  0.00000000000E+00  0.00000000000E+00 -0.23153998911E+04  0.38675567542E+04  0.30978893769E+04 0.  0.
        4    1    3    3  502    0 -0.30555419695E+03  0.59003691009E+03 -0.29045120884E+04  0.29795467788E+04  0.12699999809E+01 0. -1.
       -4    1    3    3    0  502  0.30555419695E+03 -0.59003691009E+03  0.58911219728E+03  0.88800997541E+03  0.12699999809E+01 0.  1.
</event>
<event>
 5   0  0.1329777E-07  0.3100065E+04  0.7818609E-02  0.8215720E-01
        2   -1    0    0  501    0  0.00000000000E+00  0.00000000000E+00  0.86045240026E+03  0.86045240026E+03  0.25500000920E-02 0. -1.
       -2   -1    0    0    0  501  0.00000000000E+00  0.00000000000E+00 -0.27922531866E+04  0.27922531866E+04  0.25500000920E-02 0.  1.
    10030    2    1    2    0    0  0.00000000000E+00  0.00000000000E+00 -0.19318007864E+04  0.36527055869E+04  0.31000651326E+04 0.  0.
        1    1    3    3  502    0  0.88060695957E+03 -0.12233041370E+04 -0.53999409729E+03  0.16011043857E+04  0.50400001928E-02 0.  1.
       -1    1    3    3    0  502 -0.88060695957E+03  0.12233041370E+04 -0.13918066891E+04  0.20516012012E+04  0.50400001928E-02 0. -1.
</event>
<event>
 5   0  0.4517409E-08  0.3106761E+04  0.7818609E-02  0.8213885E-01
        1   -1    0    0  501    0  0.00000000000E+00  0.00000000000E+00  0.22480891089E+04  0.22480891089E+04  0.50400001928E-02 0. -1.
       -1   -1    0    0    0  501  0.00000000000E+00  0.00000000000E+00 -0.10733520012E+04  0.10733520012E+04  0.50400001928E-02 0.  1.
    10030    2    1    2    0    0  0.00000000000E+00  0.00000000000E+00  0.11747371077E+04  0.33214411102E+04  0.31067609783E+04 0.  0.
        2    1    3    3  502    0 -0.12091780992E+04 -0.43847760245E+03  0.15185405427E+04  0.19900602160E+04  0.25500000920E-02 0. -1.
       -2    1    3    3    0  502  0.12091780992E+04  0.43847760245E+03 -0.34380343505E+03  0.13313808942E+04  0.25500000920E-02 0.  1.
</event>
<event>
 5   0  0.4470354E-08  0.3103272E+04  0.7818609E-02  0.8214840E-01
       -1   -1    0    0    0  501  0.00000000000E+00  0.00000000000E+00  0.11408717913E+04  0.11408717913E+04  0.50400001928E-02 0.  1.
        1   -1    0    0  501    0  0.00000000000E+00  0.00000000000E+00 -0.21102935832E+04  0.21102935832E+04  0.50400001928E-02 0. -1.
    10030    2    1    2    0    0  0.00000000000E+00  0.00000000000E+00 -0.96942179189E+03  0.32511653745E+04  0.31032720928E+04 0.  0.
        1    1    3    3  502    0 -0.95938884176E+03 -0.10682069176E+04 -0.11010338847E+04  0.18093558477E+04  0.50400001928E-02 0. -1.
       -1    1    3    3    0  502  0.95938884176E+03  0.10682069176E+04  0.13161209277E+03  0.14418095268E+04  0.50400001928E-02 0.  1.
</event>
<event>
 5   0  0.4436241E-08  0.3098254E+04  0.7818609E-02  0.8216217E-01
       -1   -1    0    0    0  501  0.00000000000E+00  0.00000000000E+00  0.14377239937E+04  0.14377239937E+04  0.50400001928E-02 0. -1.
        1   -1    0    0  501    0  0.00000000000E+00  0.00000000000E+00 -0.16691619757E+04  0.16691619757E+04  0.50400001928E-02 0.  1.
    10030    2    1    2    0    0  0.00000000000E+00  0.00000000000E+00 -0.23143798196E+03  0.31068859694E+04  0.30982538449E+04 0.  0.
        3    1    3    3  502    0 -0.48763421132E+03  0.12520893038E+04  0.65732405469E+03  0.14958575039E+04  0.10100000352E+00 0. -1.
       -3    1    3    3    0  502  0.48763421132E+03 -0.12520893038E+04 -0.88876203665E+03  0.16110284655E+04  0.10100000352E+00 0.  1.
</event>
<event>
 5   0  0.4517409E-08  0.3100854E+04  0.7818609E-02  0.8215503E-01
       -1   -1    0    0    0  501  0.00000000000E+00  0.00000000000E+00  0.23228556147E+04  0.23228556147E+04  0.50400001928E-02 0. -1.
        1   -1    0    0  501    0  0.00000000000E+00  0.00000000000E+00 -0.10348574455E+04  0.10348574455E+04  0.50400001928E-02 0.  1.
    10030    2    1    2    0    0  0.00000000000E+00  0.00000000000E+00  0.12879981692E+04  0.33577130602E+04  0.31008543517E+04 0.  0.
        2    1    3    3  502    0  0.13763081591E+04 -0.65901176321E+03  0.34685260759E+03  0.15648729611E+04  0.25500000920E-02 0. -1.
       -2    1    3    3    0  502 -0.13763081591E+04  0.65901176321E+03  0.94114556158E+03  0.17928400991E+04  0.25500000920E-02 0.  1.
</event>
<event>
 5   0  0.4436241E-08  0.3100012E+04  0.7818609E-02  0.8215735E-01
       -1   -1    0    0    0  501  0.00000000000E+00  0.00000000000E+00  0.14657106151E+04  0.14657106151E+04  0.50400001928E-02 0. -1.
        1   -1    0    0  501    0  0.00000000000E+00  0.00000000000E+00 -0.16391491775E+04  0.16391491775E+04  0.50400001928E-02 0.  1.
    10030    2    1    2    0    0  0.00000000000E+00  0.00000000000E+00 -0.17343856242E+03  0.31048597926E+04  0.31000118381E+04 0.  0.
        3    1    3    3  502    0  0.36515596998E+03 -0.14934406926E+04  0.11060240735E+03  0.15414074372E+04  0.10100000352E+00 0. -1.
       -3    1    3    3    0  502 -0.36515596998E+03  0.14934406926E+04 -0.28404096977E+03  0.15634523554E+04  0.10100000352E+00 0.  1.
</event>
<event>
 5   0  0.4470354E-08  0.3102340E+04  0.7818609E-02  0.8215096E-01
        1   -1    0    0  501    0  0.00000000000E+00  0.00000000000E+00  0.17321168099E+04  0.17321168099E+04  0.50400001928E-02 0.  1.
       -1   -1    0    0    0  501  0.00000000000E+00  0.00000000000E+00 -0.13891263598E+04  0.13891263598E+04  0.50400001928E-02 0. -1.
    10030    2    1    2    0    0  0.00000000000E+00  0.00000000000E+00  0.34299045015E+03  0.31212431697E+04  0.31023404835E+04 0.  0.
        1    1    3    3  502    0 -0.13529820475E+03  0.64204055039E+03 -0.12426319628E+04  0.14052244901E+04  0.50400001928E-02 0. -1.
       -1    1    3    3    0  502  0.13529820475E+03 -0.64204055039E+03  0.15856224129E+04  0.17160186797E+04  0.50400001928E-02 0.  1.
</event>
<event>
 5   0  0.4517409E-08  0.3099738E+04  0.7818609E-02  0.8215810E-01
        1   -1    0    0  501    0  0.00000000000E+00  0.00000000000E+00  0.18435142187E+04  0.18435142187E+04  0.50400001928E-02 0.  1.
       -1   -1    0    0    0  501  0.00000000000E+00  0.00000000000E+00 -0.13029969044E+04  0.13029969044E+04  0.50400001928E-02 0. -1.
    10030    2    1    2    0    0  0.00000000000E+00  0.00000000000E+00  0.54051731429E+03  0.31465111230E+04  0.30997376147E+04 0.  0.
        2    1    3    3  502    0  0.43105689948E+03  0.11668989505E+04  0.12086703973E+04  0.17344588033E+04  0.25500000920E-02 0.  1.
       -2    1    3    3    0  502 -0.43105689948E+03 -0.11668989505E+04 -0.66815308300E+03  0.14120523197E+04  0.25500000920E-02 0. -1.
</event>
<event>
 5   0  0.1377237E-07  0.3102171E+04  0.7818609E-02  0.8215142E-01
        2   -1    0    0  501    0  0.00000000000E+00  0.00000000000E+00  0.30168219901E+04  0.30168219901E+04  0.25500000920E-02 0.  1.
       -2   -1    0    0    0  501  0.00000000000E+00  0.00000000000E+00 -0.79748381902E+03  0.79748381902E+03  0.25500000920E-02 0. -1.
    10030    2    1    2    0    0  0.00000000000E+00  0.00000000000E+00  0.22193381711E+04  0.38143058091E+04  0.31021713183E+04 0.  0.
        2    1    3    3  502    0  0.13645346738E+04 -0.38410536959E+03  0.33555884988E+03  0.14567400429E+04  0.25500000920E-02 0.  1.
       -2    1    3    3    0  502 -0.13645346738E+04  0.38410536959E+03  0.18837793212E+04  0.23575657662E+04  0.25500000920E-02 0. -1.
</event>
<event>
 5   0  0.4517409E-08  0.3100651E+04  0.7818609E-02  0.8215559E-01
        1   -1    0    0  501    0  0.00000000000E+00  0.00000000000E+00  0.15357060340E+04  0.15357060340E+04  0.50400001928E-02 0. -1.
       -1   -1    0    0    0  501  0.00000000000E+00  0.00000000000E+00 -0.15650846116E+04  0.15650846116E+04  0.50400001928E-02 0.  1.
    10030    2    1    2    0    0  0.00000000000E+00  0.00000000000E+00 -0.29378577639E+02  0.31007906456E+04  0.31006514682E+04 0.  0.
        2    1    3    3  502    0  0.65207437905E+03 -0.68175142438E+02 -0.14196228180E+04  0.15637064275E+04  0.25500000920E-02 0.  1.
       -2    1    3    3    0  502 -0.65207437905E+03  0.68175142438E+02  0.13902442404E+04  0.15370842182E+04  0.25500000920E-02 0. -1.
</event>
<event>
 5   0  0.4838602E-08  0.3097553E+04  0.7818609E-02  0.8216410E-01
       -1   -1    0    0    0  501  0.00000000000E+00  0.00000000000E+00  0.20174323465E+04  0.20174323466E+04  0.50400001928E-02 0. -1.
        1   -1    0    0  501    0  0.00000000000E+00  0.00000000000E+00 -0.11889909050E+04  0.11889909051E+04  0.50400001928E-02 0.  1.
    10030    2    1    2    0    0  0.00000000000E+00  0.00000000000E+00  0.82844144151E+03  0.32064232516E+04  0.30975530417E+04 0.  0.
        5    1    3    3  502    0  0.26303937974E+03  0.14014042261E+04  0.10400894798E+04  0.17649169205E+04  0.46999998093E+01 0. -1.
       -5    1    3    3    0  502 -0.26303937974E+03 -0.14014042261E+04 -0.21164803834E+03  0.14415063311E+04  0.46999998093E+01 0.  1.
</event>
<event>
 5   0  0.1398931E-07  0.3101064E+04  0.7818609E-02  0.8215446E-01
       -2   -1    0    0    0  501  0.00000000000E+00  0.00000000000E+00  0.17239880493E+04  0.17239880493E+04  0.25500000920E-02 0. -1.
        2   -1    0    0  501    0  0.00000000000E+00  0.00000000000E+00 -0.13945276548E+04  0.13945276548E+04  0.25500000920E-02 0.  1.
    10030    2    1    2    0    0  0.00000000000E+00  0.00000000000E+00  0.32946039448E+03  0.31185157041E+04  0.31010636957E+04 0.  0.
        3    1    3    3  502    0 -0.16479002623E+03 -0.27419884944E+03 -0.13609791917E+04  0.13980719339E+04  0.10100000352E+00 0.  1.
       -3    1    3    3    0  502  0.16479002623E+03  0.27419884944E+03  0.16904395862E+04  0.17204437702E+04  0.10100000352E+00 0. -1.
</event>
<event>
 5   0  0.1398931E-07  0.3100279E+04  0.7818609E-02  0.8215661E-01
        2   -1    0    0  501    0  0.00000000000E+00  0.00000000000E+00  0.24202791293E+04  0.24202791293E+04  0.25500000920E-02 0. -1.
       -2   -1    0    0    0  501  0.00000000000E+00  0.00000000000E+00 -0.99283277534E+03  0.99283277535E+03  0.25500000920E-02 0.  1.
    10030    2    1    2    0    0  0.00000000000E+00  0.00000000000E+00  0.14274463539E+04  0.34131119046E+04  0.31002789842E+04 0.  0.
        3    1    3    3  502    0  0.57815789172E+03 -0.85333365585E+03  0.19883443989E+04  0.22396335269E+04  0.10100000352E+00 0. -1.
       -3    1    3    3    0  502 -0.57815789172E+03  0.85333365585E+03 -0.56089804496E+03  0.11734783777E+04  0.10100000352E+00 0.  1.
</event>
<event>
 5   0  0.1325713E-07  0.3100312E+04  0.7818609E-02  0.8215652E-01
       -2   -1    0    0    0  501  0.00000000000E+00  0.00000000000E+00  0.13538649618E+04  0.13538649618E+04  0.25500000920E-02 0. -1.
        2   -1    0    0  501    0  0.00000000000E+00  0.00000000000E+00 -0.17749069115E+04  0.17749069115E+04  0.25500000920E-02 0.  1.
    10030    2    1    2    0    0  0.00000000000E+00  0.00000000000E+00 -0.42104194976E+03  0.31287718733E+04  0.31003124216E+04 0.  0.
        4    1    3    3  502    0 -0.12708491953E+04 -0.86038694182E+03  0.97931084831E+01  0.15347380508E+04  0.12699999809E+01 0. -1.
       -4    1    3    3    0  502  0.12708491953E+04  0.86038694182E+03 -0.43083505825E+03  0.15940338225E+04  0.12699999809E+01 0.  1.
</event>
<event>
 5   0  0.1398931E-07  0.3100017E+04  0.7818609E-02  0.8215733E-01
       -2   -1    0    0    0  501  0.00000000000E+00  0.00000000000E+00  0.11934335298E+04  0.11934335298E+04  0.25500000920E-02 0.  1.
        2   -1    0    0  501    0  0.00000000000E+00  0.00000000000E+00 -0.20131206005E+04  0.20131206005E+04  0.25500000920E-02 0. -1.
    10030    2    1    2    0    0  0.00000000000E+00  0.00000000000E+00 -0.81968707068E+03  0.32065541303E+04  0.31000165317E+04 0.  0.
        3    1    3    3  502    0  0.11731786674E+04 -0.78718686888E+03 -0.10693399809E+04  0.17718632444E+04  0.10100000352E+00 0. -1.
       -3    1    3    3    0  502 -0.11731786674E+04  0.78718686888E+03  0.24965291019E+03  0.14346908858E+04  0.10100000352E+00 0.  1.
</event>
<event>
 5   0  0.1329777E-07  0.3098963E+04  0.7818609E-02  0.8216023E-01
        2   -1    0    0  501    0  0.00000000000E+00  0.00000000000E+00  0.15155953851E+04  0.15155953852E+04  0.25500000920E-02 0.  1.
       -2   -1    0    0    0  501  0.00000000000E+00  0.00000000000E+00 -0.15841253670E+04  0.15841253670E+04  0.25500000920E-02 0. -1.
    10030    2    1    2    0    0  0.00000000000E+00  0.00000000000E+00 -0.68529981860E+02  0.30997207522E+04  0.30989631142E+04 0.  0.
        1    1    3    3  502    0  0.11188122404E+04  0.91263215945E+03 -0.59676784750E+03  0.15622964352E+04  0.50400001928E-02 0. -1.
       -1    1    3    3    0  502 -0.11188122404E+04 -0.91263215945E+03  0.52823786564E+03  0.15374243170E+04  0.50400001928E-02 0.  1.
</event>
<event>
 5   0  0.1318916E-07  0.3099931E+04  0.7818609E-02  0.8215757E-01
       -2   -1    0    0    0  501  0.00000000000E+00  0.00000000000E+00  0.15080266671E+04  0.15080266671E+04  0.25500000920E-02 0. -1.
        2   -1    0    0  501    0  0.00000000000E+00  0.00000000000E+00 -0.15930706031E+04  0.15930706031E+04  0.25500000920E-02 0.  1.
    10030    2    1    2    0    0  0.00000000000E+00  0.00000000000E+00 -0.85043935972E+02  0.31010972702E+04  0.30999309360E+04 0.  0.
        5    1    3    3  502    0 -0.62427648431E+03 -0.10811058032E+04  0.87644217248E+03  0.15253471271E+04  0.46999998093E+01 0. -1.
       -5    1    3    3    0  502  0.62427648431E+03  0.10811058032E+04 -0.96148610845E+03  0.15757501430E+04  0.46999998093E+01 0.  1.
</event>
<event>
 5   0  0.1318916E-07  0.3101472E+04  0.7818609E-02  0.8215334E-01
       -2   -1    0    0    0  501  0.00000000000E+00  0.00000000000E+00  0.26033538597E+04  0.26033538597E+04  0.25500000920E-02 0.  1.
        2   -1    0    0  501    0  0.00000000000E+00  0.00000000000E+00 -0.92372459710E+03  0.92372459711E+03  0.25500000920E-02 0. -1.
    10030    2    1    2    0    0  0.00000000000E+00  0.00000000000E+00  0.16796292626E+04  0.35270784568E+04  0.31014719055E+04 0.  0.
        5    1    3    3  502    0  0.56752612891E+03 -0.10388574490E+04  0.19790014838E+04  0.23060311510E+04  0.46999998093E+01 0.  1.
       -5    1    3    3    0  502 -0.56752612891E+03  0.10388574490E+04 -0.29937222124E+03  0.12210473058E+04  0.46999998093E+01 0. -1.
</event>
<event>
 5   0  0.4436241E-08  0.3100418E+04  0.7818609E-02  0.8215623E-01
       -1   -1    0    0    0  501  0.00000000000E+00  0.00000000000E+00  0.11630633303E+04  0.11630633303E+04  0.50400001928E-02 0.  1.
        1   -1    0    0  501    0  0.00000000000E+00  0.00000000000E+00 -0.20662228673E+04  0.20662228673E+04  0.50400001928E-02 0. -1.
    10030    2    1    2    0    0  0.00000000000E+00  0.00000000000E+00 -0.90315953699E+03  0.32292861976E+04  0.31004180681E+04 0.  0.
        3    1    3    3  502    0 -0.22518812075E+03  0.14862415125E+04 -0.84617271934E+03  0.17250019723E+04  0.10100000352E+00 0. -1.
       -3    1    3    3    0  502  0.22518812075E+03 -0.14862415125E+04 -0.56986817650E+02  0.15042842254E+04  0.10100000352E+00 0.  1.
</event>
<event>
 5   0  0.4470354E-08  0.3099849E+04  0.7818609E-02  0.8215779E-01
       -1   -1    0    0    0  501  0.00000000000E+00  0.00000000000E+00  0.22856630827E+04  0.22856630828E+04  0.50400001928E-02 0.  1.
        1   -1    0    0  501    0  0.00000000000E+00  0.00000000000E+00 -0.10510152168E+04  0.10510152169E+04  0.50400001928E-02 0. -1.
    10030    2    1    2    0    0  0.00000000000E+00  0.00000000000E+00  0.12346478659E+04  0.33366782996E+04  0.30998494677E+04 0.  0.
        1    1    3    3  502    0  0.86638519120E+03 -0.12654370247E+04  0.85876534198E+03  0.17576780353E+04  0.50400001928E-02 0.  1.
       -1    1    3    3    0  502 -0.86638519120E+03  0.12654370247E+04  0.37588252392E+03  0.15790002644E+04  0.50400001928E-02 0. -1.
</event>
<event>
 5   0  0.4436241E-08  0.3099026E+04  0.7818609E-02  0.8216005E-01
       -1   -1    0    0    0  501  0.00000000000E+00  0.00000000000E+00  0.15329012074E+04  0.15329012074E+04  0.50400001928E-02 0. -1.
        1   -1    0    0  501    0  0.00000000000E+00  0.00000000000E+00 -0.15663043354E+04  0.15663043354E+04  0.50400001928E-02 0.  1.
    10030    2    1    2    0    0  0.00000000000E+00  0.00000000000E+00 -0.33403127985E+02  0.30992055428E+04  0.30990255287E+04 0.  0.
        3    1    3    3  502    0 -0.11306375500E+04  0.29246483110E+03 -0.10351480964E+04  0.15605795522E+04  0.10100000352E+00 0.  1.
       -3    1    3    3    0  502  0.11306375500E+04 -0.29246483110E+03  0.10017449685E+04  0.15386259906E+04  0.10100000352E+00 0. -1.
</event>
<event>
 5   0  0.4470354E-08  0.3101217E+04  0.7818609E-02  0.8215404E-01
       -1   -1    0    0    0  501  0.00000000000E+00  0.00000000000E+00  0.21834955148E+04  0.21834955148E+04  0.50400001928E-02 0. -1.
        1   -1    0    0  501    0  0.00000000000E+00  0.00000000000E+00 -0.11011636825E+04  0.11011636825E+04  0.50400001928E-02 0.  1.
    10030    2    1    2    0    0  0.00000000000E+00  0.00000000000E+00  0.10823318323E+04  0.32846591973E+04  0.31012165108E+04 0.  0.
        1    1    3    3  502    0 -0.17210138676E+03  0.20790460808E+03 -0.10760943603E+04  0.11094243037E+04  0.50400001928E-02 0.  1.
       -1    1    3    3    0  502  0.17210138676E+03 -0.20790460808E+03  0.21584261926E+04  0.21752348936E+04  0.50400001928E-02 0. -1.
</event>
<event>
 5   0  0.4450600E-08  0.3099960E+04  0.7818609E-02  0.8215749E-01
       -1   -1    0    0    0  501  0.00000000000E+00  0.00000000000E+00  0.16150892177E+04  0.16150892177E+04  0.50400001928E-02 0. -1.
        1   -1    0    0  501    0  0.00000000000E+00  0.00000000000E+00 -0.14874951165E+04  0.14874951165E+04  0.50400001928E-02 0.  1.
    10030    2    1    2    0    0  0.00000000000E+00  0.00000000000E+00  0.12759410121E+03  0.31025843342E+04  0.30999595637E+04 0.  0.
        4    1    3    3  502    0  0.53642720090E+03 -0.14373180519E+04  0.28488766131E+03  0.15603845413E+04  0.12699999809E+01 0. -1.
       -4    1    3    3    0  502 -0.53642720090E+03  0.14373180519E+04 -0.15729356010E+03  0.15421997929E+04  0.12699999809E+01 0.  1.
</event>
<event>
 5   0  0.1325713E-07  0.3101545E+04  0.7818609E-02  0.8215314E-01
       -2   -1    0    0    0  501  0.00000000000E+00  0.00000000000E+00  0.86484389310E+03  0.86484389311E+03  0.25500000920E-02 0. -1.
        2   -1    0    0  501    0  0.00000000000E+00  0.00000000000E+00 -0.27807277986E+04  0.27807277986E+04  0.25500000920E-02 0.  1.
    10030    2    1    2    0    0  0.00000000000E+00  0.00000000000E+00 -0.19158839055E+04  0.36455716917E+04  0.31015450698E+04 0.  0.
        4    1    3    3  502    0 -0.11637418534E+04  0.23447330531E+03  0.21488671529E+03  0.12064206337E+04  0.12699999809E+01 0. -1.
       -4    1    3    3    0  502  0.11637418534E+04 -0.23447330531E+03 -0.21307706208E+04  0.24391510579E+04  0.12699999809E+01 0.  1.
</event>
<event>
 5   0  0.1318916E-07  0.3088969E+04  0.7818609E-02  0.8218772E-01
        2   -1    0    0  501    0  0.00000000000E+00  0.00000000000E+00  0.12999326325E+04  0.12999326325E+04  0.25500000920E-02 0.  1.
       -2   -1    0    0    0  501  0.00000000000E+00  0.00000000000E+00 -0.18350433791E+04  0.18350433791E+04  0.25500000920E-02 0. -1.
    10030    2    1    2    0    0  0.00000000000E+00  0.00000000000E+00 -0.53511074663E+03  0.31349760116E+04  0.30889692588E+04 0.  0.
        5    1    3    3  502    0 -0.78796696767E+03  0.22277606616E+03 -0.15965974000E+04  0.17943429063E+04  0.46999998093E+01 0. -1.
       -5    1    3    3    0  502  0.78796696767E+03 -0.22277606616E+03  0.10614866533E+04  0.13406331053E+04  0.46999998093E+01 0.  1.
</event>
<event>
 5   0  0.4470354E-08  0.3099516E+04  0.7818609E-02  0.8215871E-01
       -1   -1    0    0    0  501  0.00000000000E+00  0.00000000000E+00  0.16769165174E+04  0.16769165174E+04  0.50400001928E-02 0. -1.
        1   -1    0    0  501    0  0.00000000000E+00  0.00000000000E+00 -0.14322421321E+04  0.14322421321E+04  0.50400001928E-02 0.  1.
    10030    2    1    2    0    0  0.00000000000E+00  0.00000000000E+00  0.24467438531E+03  0.31091586496E+04  0.30995164064E+04 0.  0.
        1    1    3    3  502    0  0.11868060605E+04 -0.97197612127E+03 -0.98584817814E+02  0.15371939279E+04  0.50400001928E-02 0.  1.
       -1    1    3    3    0  502 -0.11868060605E+04  0.97197612127E+03  0.34325920312E+03  0.15719647217E+04  0.50400001928E-02 0. -1.
</event>
<event>
 5   0  0.1398931E-07  0.3099709E+04  0.7818609E-02  0.8215818E-01
        2   -1    0    0  501    0  0.00000000000E+00  0.00000000000E+00  0.10766915838E+04  0.10766915838E+04  0.25500000920E-02 0.  1.
       -2   -1    0    0    0  501  0.00000000000E+00  0.00000000000E+00 -0.22309534188E+04  0.22309534188E+04  0.25500000920E-02 0. -1.
    10030    2    1    2    0    0  0.00000000000E+00  0.00000000000E+00 -0.11542618350E+04  0.33076450026E+04  0.30997088701E+04 0.  0.
        3    1    3    3  502    0  0.79687418033E+03 -0.36163022164E+03 -0.19421057952E+04  0.21301548785E+04  0.10100000352E+00 0. -1.
       -3    1    3    3    0  502 -0.79687418033E+03  0.36163022164E+03  0.78784396020E+03  0.11774901241E+04  0.10100000352E+00 0.  1.
</event>
<event>
 5   0  0.1329777E-07  0.3099143E+04  0.7818609E-02  0.8215973E-01
       -2   -1    0    0    0  501  0.00000000000E+00  0.00000000000E+00  0.17106408691E+04  0.17106408691E+04  0.25500000920E-02 0.  1.
        2   -1    0    0  501    0  0.00000000000E+00  0.00000000000E+00 -0.14036678811E+04  0.14036678811E+04  0.25500000920E-02 0. -1.
    10030    2    1    2    0    0  0.00000000000E+00  0.00000000000E+00  0.30697298806E+03  0.31143087502E+04  0.30991428776E+04 0.  0.
        1    1    3    3  502    0  0.13214703150E+04 -0.51308020846E+03 -0.47538466169E+03  0.14951674389E+04  0.50400001928E-02 0. -1.
       -1    1    3    3    0  502 -0.13214703150E+04  0.51308020846E+03  0.78235764975E+03  0.16191413113E+04  0.50400001928E-02 0.  1.
</event>
<event>
 5   0  0.1377237E-07  0.3101099E+04  0.7818609E-02  0.8215436E-01
        2   -1    0    0  501    0  0.00000000000E+00  0.00000000000E+00  0.88394853696E+03  0.88394853696E+03  0.25500000920E-02 0.  1.
       -2   -1    0    0    0  501  0.00000000000E+00  0.00000000000E+00 -0.27198466592E+04  0.27198466592E+04  0.25500000920E-02 0. -1.
    10030    2    1    2    0    0  0.00000000000E+00  0.00000000000E+00 -0.18358981222E+04  0.36037951961E+04  0.31010994664E+04 0.  0.
        2    1    3    3  502    0 -0.13180649314E+04 -0.81332485904E+03 -0.10034405176E+04  0.18454499078E+04  0.25500000920E-02 0. -1.
       -2    1    3    3    0  502  0.13180649314E+04  0.81332485904E+03 -0.83245760460E+03  0.17583452884E+04  0.25500000920E-02 0.  1.
</event>
<event>
 5   0  0.4517409E-08  0.3101027E+04  0.7818609E-02  0.8215456E-01
       -1   -1    0    0    0  501  0.00000000000E+00  0.00000000000E+00  0.11726798062E+04  0.11726798062E+04  0.50400001928E-02 0. -1.
        1   -1    0    0  501    0  0.00000000000E+00  0.00000000000E+00 -0.20500838816E+04  0.20500838816E+04  0.50400001928E-02 0.  1.
    10030    2    1    2    0    0  0.00000000000E+00  0.00000000000E+00 -0.87740407544E+03  0.32227636878E+04  0.31010269067E+04 0.  0.
        2    1    3    3  502    0  0.12403444272E+04  0.92220906280E+03 -0.31070829542E+03  0.15765352830E+04  0.25500000920E-02 0.  1.
       -2    1    3    3    0  502 -0.12403444272E+04 -0.92220906280E+03 -0.56669578002E+03  0.16462284048E+04  0.25500000920E-02 0. -1.
</event>
<event>
 5   0  0.4450600E-08  0.3098952E+04  0.7818609E-02  0.8216026E-01
        1   -1    0    0  501    0  0.00000000000E+00  0.00000000000E+00  0.14732114191E+04  0.14732114191E+04  0.50400001928E-02 0.  1.
       -1   -1    0    0    0  501  0.00000000000E+00  0.00000000000E+00 -0.16296882409E+04  0.16296882409E+04  0.50400001928E-02 0. -1.
    10030    2    1    2    0    0  0.00000000000E+00  0.00000000000E+00 -0.15647682179E+03  0.31028996600E+04  0.30989516460E+04 0.  0.
        4    1    3    3  502    0  0.13013453197E+04 -0.15994338515E+03  0.74852060871E+03  0.15097570142E+04  0.12699999809E+01 0.  1.
       -4    1    3    3    0  502 -0.13013453197E+04  0.15994338515E+03 -0.90499743051E+03  0.15931426457E+04  0.12699999809E+01 0. -1.
</event>
<event>
 5   0  0.1318916E-07  0.3103048E+04  0.7818609E-02  0.8214902E-01
        2   -1    0    0  501    0  0.00000000000E+00  0.00000000000E+00  0.22420552661E+04  0.22420552661E+04  0.25500000920E-02 0. -1.
       -2   -1    0    0    0  501  0.00000000000E+00  0.00000000000E+00 -0.10736695224E+04  0.10736695224E+04  0.25500000920E-02 0.  1.
    10030    2    1    2    0    0  0.00000000000E+00  0.00000000000E+00  0.11683857437E+04  0.33157247885E+04  0.31030477964E+04 0.  0.
        5    1    3    3  502    0  0.47670208028E+03  0.11525087444E+04  0.15703111526E+04  0.20053479711E+04  0.46999998093E+01 0. -1.
       -5    1    3    3    0  502 -0.47670208028E+03 -0.11525087444E+04 -0.40192540883E+03  0.13103768174E+04  0.46999998093E+01 0.  1.
</event>
<event>
 5   0  0.4517409E-08  0.3104690E+04  0.7818609E-02  0.8214452E-01
        1   -1    0    0  501    0  0.00000000000E+00  0.00000000000E+00  0.12281008612E+04  0.12281008612E+04  0.50400001928E-02 0.  1.
       -1   -1    0    0    0  501  0.00000000000E+00  0.00000000000E+00 -0.19621963433E+04  0.19621963434E+04  0.50400001928E-02 0. -1.
    10030    2    1    2    0    0  0.00000000000E+00  0.00000000000E+00 -0.73409548216E+03  0.31902972046E+04  0.31046900129E+04 0.  0.
        2    1    3    3  502    0 -0.10232620271E+04  0.75165976213E+03 -0.12848253193E+04  0.18063315519E+04  0.25500000920E-02 0. -1.
       -2    1    3    3    0  502  0.10232620271E+04 -0.75165976213E+03  0.55072983717E+03  0.13839656527E+04  0.25500000920E-02 0.  1.
</event>
<event>
 5   0  0.4838602E-08  0.3099298E+04  0.7818609E-02  0.8215931E-01
        1   -1    0    0  501    0  0.00000000000E+00  0.00000000000E+00  0.15394557311E+04  0.15394557311E+04  0.50400001928E-02 0.  1.
       -1   -1    0    0    0  501  0.00000000000E+00  0.00000000000E+00 -0.15599100958E+04  0.15599100958E+04  0.50400001928E-02 0. -1.
    10030    2    1    2    0    0  0.00000000000E+00  0.00000000000E+00 -0.20454364707E+02  0.30993658270E+04  0.30992983316E+04 0.  0.
        5    1    3    3  502    0 -0.53448573823E+03 -0.12630271729E+04 -0.73168436965E+03  0.15544441935E+04  0.46999998093E+01 0. -1.
       -5    1    3    3    0  502  0.53448573823E+03  0.12630271729E+04  0.71123000495E+03  0.15449216335E+04  0.46999998093E+01 0.  1.
</event>
<event>
 5   0  0.4450600E-08  0.3099125E+04  0.7818609E-02  0.8215978E-01
       -1   -1    0    0    0  501  0.00000000000E+00  0.00000000000E+00  0.18906095339E+04  0.18906095339E+04  0.50400001928E-02 0.  1.
        1   -1    0    0  501    0  0.00000000000E+00  0.00000000000E+00 -0.12700368513E+04  0.12700368513E+04  0.50400001928E-02 0. -1.
    10030    2    1    2    0    0  0.00000000000E+00  0.00000000000E+00  0.62057268263E+03  0.31606463852E+04  0.30991248954E+04 0.  0.
        4    1    3    3  502    0  0.54713029591E+03  0.23368083587E+03 -0.11489151220E+04  0.12938183274E+04  0.12699999809E+01 0. -1.
       -4    1    3    3    0  502 -0.54713029591E+03 -0.23368083587E+03  0.17694878046E+04  0.18668280578E+04  0.12699999809E+01 0.  1.
</event>
<event>
 5   0  0.4436241E-08  0.3099870E+04  0.7818609E-02  0.8215774E-01
       -1   -1    0    0    0  501  0.00000000000E+00  0.00000000000E+00  0.12740426684E+04  0.12740426684E+04  0.50400001928E-02 0. -1.
        1   -1    0    0  501    0  0.00000000000E+00  0.00000000000E+00 -0.18855715549E+04  0.18855715550E+04  0.50400001928E-02 0.  1.
    10030    2    1    2    0    0  0.00000000000E+00  0.00000000000E+00 -0.61152888657E+03  0.31596142233E+04  0.30998700717E+04 0.  0.
        3    1    3    3  502    0 -0.20202224037E+03 -0.41823214134E+03  0.12014394696E+04  0.12880946856E+04  0.10100000352E+00 0. -1.
       -3    1    3    3    0  502  0.20202224037E+03  0.41823214134E+03 -0.18129683562E+04  0.18715195378E+04  0.10100000352E+00 0.  1.
</event>
<event>
 5   0  0.4838602E-08  0.3100531E+04  0.7818609E-02  0.8215592E-01
        1   -1    0    0  501    0  0.00000000000E+00  0.00000000000E+00  0.12982317481E+04  0.12982317481E+04  0.50400001928E-02 0.  1.
       -1   -1    0    0    0  501  0.00000000000E+00  0.00000000000E+00 -0.18512283799E+04  0.18512283799E+04  0.50400001928E-02 0. -1.
    10030    2    1    2    0    0  0.00000000000E+00  0.00000000000E+00 -0.55299663180E+03  0.31494601280E+04  0.31005312163E+04 0.  0.
        5    1    3    3  502    0  0.89712216102E-01  0.53482644600E+02  0.12972871171E+04  0.12983976107E+04  0.46999998093E+01 0.  1.
       -5    1    3    3    0  502 -0.89712216102E-01 -0.53482644600E+02 -0.18502837489E+04  0.18510625173E+04  0.46999998093E+01 0. -1.
</event>
<event>
 5   0  0.4470354E-08  0.3098322E+04  0.7818609E-02  0.8216199E-01
        1   -1    0    0  501    0  0.00000000000E+00  0.00000000000E+00  0.19830488218E+04  0.19830488218E+04  0.50400001928E-02 0.  1.
       -1   -1    0    0    0  501  0.00000000000E+00  0.00000000000E+00 -0.12102067626E+04  0.12102067627E+04  0.50400001928E-02 0. -1.
    10030    2    1    2    0    0  0.00000000000E+00  0.00000000000E+00  0.77284205913E+03  0.31932555844E+04  0.30983215422E+04 0.  0.
        1    1    3    3  502    0 -0.53272377029E+02  0.14787759914E+04  0.85903764155E+03  0.17110119954E+04  0.50400001928E-02 0.  1.
       -1    1    3    3    0  502  0.53272377029E+02 -0.14787759914E+04 -0.86195582416E+02  0.14822435890E+04  0.50400001928E-02 0. -1.
</event>
<event>
 5   0  0.1329777E-07  0.3101151E+04  0.7818609E-02  0.8215422E-01
       -2   -1    0    0    0  501  0.00000000000E+00  0.00000000000E+00  0.14581171555E+04  0.14581171555E+04  0.25500000920E-02 0. -1.
        2   -1    0    0  501    0  0.00000000000E+00  0.00000000000E+00 -0.16488970202E+04  0.16488970202E+04  0.25500000920E-02 0.  1.
    10030    2    1    2    0    0  0.00000000000E+00  0.00000000000E+00 -0.19077986471E+03  0.31070141758E+04  0.31011514203E+04 0.  0.
        1    1    3    3  502    0  0.12900103219E+04 -0.85846779109E+03 -0.38790177065E+02  0.15500316954E+04  0.50400001928E-02 0.  1.
       -1    1    3    3    0  502 -0.12900103219E+04  0.85846779109E+03 -0.15198968765E+03  0.15569824804E+04  0.50400001928E-02 0. -1.
</event>
<event>
 5   0  0.4470354E-08  0.3096538E+04  0.7818609E-02  0.8216689E-01
        1   -1    0    0  501    0  0.00000000000E+00  0.00000000000E+00  0.10224289152E+04  0.10224289153E+04  0.50400001928E-02 0. -1.
       -1   -1    0    0    0  501  0.00000000000E+00  0.00000000000E+00 -0.23445511534E+04  0.23445511534E+04  0.50400001928E-02 0.  1.
    10030    2    1    2    0    0  0.00000000000E+00  0.00000000000E+00 -0.13221222382E+04  0.33669800687E+04  0.30965379976E+04 0.  0.
        1    1    3    3  502    0  0.28707161993E+03  0.75574717049E+03 -0.20968288838E+04  0.22472773012E+04  0.50400001928E-02 0.  1.
       -1    1    3    3    0  502 -0.28707161993E+03 -0.75574717049E+03  0.77470664562E+03  0.11197027675E+04  0.50400001928E-02 0. -1.
</event>
<event>
 5   0  0.1329777E-07  0.3100219E+04  0.7818609E-02  0.8215678E-01
        2   -1    0    0  501    0  0.00000000000E+00  0.00000000000E+00  0.15632957947E+04  0.15632957947E+04  0.25500000920E-02 0. -1.
       -2   -1    0    0    0  501  0.00000000000E+00  0.00000000000E+00 -0.15370346786E+04  0.15370346786E+04  0.25500000920E-02 0.  1.
    10030    2    1    2    0    0  0.00000000000E+00  0.00000000000E+00  0.26261116113E+02  0.31003304733E+04  0.31002192499E+04 0.  0.
        1    1    3    3  502    0  0.78662585557E+02 -0.15326723041E+04 -0.20497737011E+03  0.15483177698E+04  0.50400001928E-02 0. -1.
       -1    1    3    3    0  502 -0.78662585557E+02  0.15326723041E+04  0.23123848623E+03  0.15520127034E+04  0.50400001928E-02 0.  1.
</event>
<event>
 5   0  0.1318916E-07  0.3099572E+04  0.7818609E-02  0.8215855E-01
        2   -1    0    0  501    0  0.00000000000E+00  0.00000000000E+00  0.16455790776E+04  0.16455790776E+04  0.25500000920E-02 0. -1.
       -2   -1    0    0    0  501  0.00000000000E+00  0.00000000000E+00 -0.14595689175E+04  0.14595689175E+04  0.25500000920E-02 0.  1.
    10030    2    1    2    0    0  0.00000000000E+00  0.00000000000E+00  0.18601016017E+03  0.31051479951E+04  0.30995716304E+04 0.  0.
        5    1    3    3  502    0 -0.73806263140E+03  0.67999241039E+03 -0.10900886059E+04  0.14817021917E+04  0.46999998093E+01 0.  1.
       -5    1    3    3    0  502  0.73806263140E+03 -0.67999241039E+03  0.12760987661E+04  0.16234458035E+04  0.46999998093E+01 0. -1.
</event>
<event>
 5   0  0.4517409E-08  0.3097528E+04  0.7818609E-02  0.8216417E-01
        1   -1    0    0  501    0  0.00000000000E+00  0.00000000000E+00  0.17129759592E+04  0.17129759592E+04  0.50400001928E-02 0. -1.
       -1   -1    0    0    0  501  0.00000000000E+00  0.00000000000E+00 -0.14002943670E+04  0.14002943670E+04  0.50400001928E-02 0.  1.
    10030    2    1    2    0    0  0.00000000000E+00  0.00000000000E+00  0.31268159220E+03  0.31132703262E+04  0.30975284253E+04 0.  0.
        2    1    3    3  502    0 -0.74423259334E+03 -0.12753515261E+04  0.62590554935E+03  0.16037959424E+04  0.25500000920E-02 0. -1.
       -2    1    3    3    0  502  0.74423259334E+03  0.12753515261E+04 -0.31322395716E+03  0.15094743838E+04  0.25500000920E-02 0.  1.
</event>
<event>
 5   0  0.4470354E-08  0.3117918E+04  0.7818609E-02  0.8210838E-01
        1   -1    0    0  501    0  0.00000000000E+00  0.00000000000E+00  0.28199738184E+04  0.28199738184E+04  0.50400001928E-02 0.  1.
       -1   -1    0    0    0  501  0.00000000000E+00  0.00000000000E+00 -0.86183560961E+03  0.86183560963E+03  0.50400001928E-02 0. -1.
    10030    2    1    2    0    0  0.00000000000E+00  0.00000000000E+00  0.19581382088E+04  0.36818094280E+04  0.31179184434E+04 0.  0.
        1    1    3    3  502    0  0.22436020718E+03  0.89084283503E+03  0.24663911404E+04  0.26319239572E+04  0.50400001928E-02 0.  1.
       -1    1    3    3    0  502 -0.22436020718E+03 -0.89084283503E+03 -0.50825293160E+03  0.10498854708E+04  0.50400001928E-02 0. -1.
</event>
<event>
 5   0  0.1377237E-07  0.3099422E+04  0.7818609E-02  0.8215897E-01
        2   -1    0    0  501    0  0.00000000000E+00  0.00000000000E+00  0.16259377807E+04  0.16259377807E+04  0.25500000920E-02 0.  1.
       -2   -1    0    0    0  501  0.00000000000E+00  0.00000000000E+00 -0.14770579810E+04  0.14770579810E+04  0.25500000920E-02 0. -1.
    10030    2    1    2    0    0  0.00000000000E+00  0.00000000000E+00  0.14887979973E+03  0.31029957617E+04  0.30994221240E+04 0.  0.
        2    1    3    3  502    0 -0.85180266401E+03  0.83120292187E+03  0.10681256354E+04  0.15991743022E+04  0.25500000920E-02 0.  1.
       -2    1    3    3    0  502  0.85180266401E+03 -0.83120292187E+03 -0.91924583568E+03  0.15038214595E+04  0.25500000920E-02 0. -1.
</event>
<event>
 5   0  0.4436241E-08  0.3099087E+04  0.7818609E-02  0.8215989E-01
       -1   -1    0    0    0  501  0.00000000000E+00  0.00000000000E+00  0.18121793969E+04  0.18121793969E+04  0.50400001928E-02 0. -1.
        1   -1    0    0  501    0  0.00000000000E+00  0.00000000000E+00 -0.13249706197E+04  0.13249706197E+04  0.50400001928E-02 0.  1.
    10030    2    1    2    0    0  0.00000000000E+00  0.00000000000E+00  0.48720877719E+03  0.31371500166E+04  0.30990866129E+04 0.  0.
        3    1    3    3  502    0  0.22495585313E+03 -0.10531480438E+04 -0.88424260399E+03  0.13934169983E+04  0.10100000352E+00 0.  1.
       -3    1    3    3    0  502 -0.22495585313E+03  0.10531480438E+04  0.13714513812E+04  0.17437330183E+04  0.10100000352E+00 0. -1.
</event>
<event>
 5   0  0.4436241E-08  0.3098808E+04  0.7818609E-02  0.8216065E-01
       -1   -1    0    0    0  501  0.00000000000E+00  0.00000000000E+00  0.14933209803E+04  0.14933209803E+04  0.50400001928E-02 0. -1.
        1   -1    0    0  501    0  0.00000000000E+00  0.00000000000E+00 -0.16075935192E+04  0.16075935192E+04  0.50400001928E-02 0.  1.
    10030    2    1    2    0    0  0.00000000000E+00  0.00000000000E+00 -0.11427253894E+03  0.31009144995E+04  0.30988082419E+04 0.  0.
        3    1    3    3  502    0  0.49993482502E+03  0.13891634491E+04 -0.52750171688E+03  0.15677907989E+04  0.10100000352E+00 0. -1.
       -3    1    3    3    0  502 -0.49993482502E+03 -0.13891634491E+04  0.41322917794E+03  0.15331237006E+04  0.10100000352E+00 0.  1.
</event>
<event>
 5   0  0.1377237E-07  0.3090165E+04  0.7818609E-02  0.8218442E-01
        2   -1    0    0  501    0  0.00000000000E+00  0.00000000000E+00  0.14082742139E+04  0.14082742139E+04  0.25500000920E-02 0.  1.
       -2   -1    0    0    0  501  0.00000000000E+00  0.00000000000E+00 -0.16951816487E+04  0.16951816487E+04  0.25500000920E-02 0. -1.
    10030    2    1    2    0    0  0.00000000000E+00  0.00000000000E+00 -0.28690743486E+03  0.31034558626E+04  0.30901654349E+04 0.  0.
        2    1    3    3  502    0  0.13509101678E+03  0.10319954639E+04 -0.12903004107E+04  0.16577512993E+04  0.25500000920E-02 0. -1.
       -2    1    3    3    0  502 -0.13509101678E+03 -0.10319954639E+04  0.10033929759E+04  0.14457045633E+04  0.25500000920E-02 0.  1.
</event>
<event>
 5   0  0.4838602E-08  0.3099052E+04  0.7818609E-02  0.8215998E-01
        1   -1    0    0  501    0  0.00000000000E+00  0.00000000000E+00  0.11686153808E+04  0.11686153808E+04  0.50400001928E-02 0. -1.
       -1   -1    0    0    0  501  0.00000000000E+00  0.00000000000E+00 -0.20545951177E+04  0.20545951177E+04  0.50400001928E-02 0.  1.
    10030    2    1    2    0    0  0.00000000000E+00  0.00000000000E+00 -0.88597973685E+03  0.32232104985E+04  0.30990524074E+04 0.  0.
        5    1    3    3  502    0  0.16348889481E+02  0.15091102718E+04 -0.80824057394E+03  0.17120035087E+04  0.46999998093E+01 0. -1.
       -5    1    3    3    0  502 -0.16348889481E+02 -0.15091102718E+04 -0.77739162911E+02  0.15112069898E+04  0.46999998093E+01 0.  1.
</event>
<event>
 5   0  0.1398931E-07  0.3099789E+04  0.7818609E-02  0.8215796E-01
       -2   -1    0    0    0  501  0.00000000000E+00  0.00000000000E+00  0.98374611324E+03  0.98374611325E+03  0.25500000920E-02 0. -1.
        2   -1    0    0  501    0  0.00000000000E+00  0.00000000000E+00 -0.24418622902E+04  0.24418622902E+04  0.25500000920E-02 0.  1.
    10030    2    1    2    0    0  0.00000000000E+00  0.00000000000E+00 -0.14581161770E+04  0.34256084035E+04  0.30997887264E+04 0.  0.
        3    1    3    3  502    0  0.49126057238E+03  0.57865402968E+03  0.76427065238E+03  0.10771662250E+04  0.10100000352E+00 0. -1.
       -3    1    3    3    0  502 -0.49126057238E+03 -0.57865402968E+03 -0.22223868294E+04  0.23484421785E+04  0.10100000352E+00 0.  1.
</event>
<event>
 5   0  0.1398931E-07  0.3100711E+04  0.7818609E-02  0.8215543E-01
        2   -1    0    0  501    0  0.00000000000E+00  0.00000000000E+00  0.22009764032E+04  0.22009764032E+04  0.25500000920E-02 0.  1.
       -2   -1    0    0    0  501  0.00000000000E+00  0.00000000000E+00 -0.10920614442E+04  0.10920614442E+04  0.25500000920E-02 0. -1.
    10030    2    1    2    0    0  0.00000000000E+00  0.00000000000E+00  0.11089149590E+04  0.32930378474E+04  0.31007105441E+04 0.  0.
        3    1    3    3  502    0 -0.92503599083E+03  0.83339755867E+03 -0.42661529965E+03  0.13161472939E+04  0.10100000352E+00 0. -1.
       -3    1    3    3    0  502  0.92503599083E+03 -0.83339755867E+03  0.15355302587E+04  0.19768905535E+04  0.10100000352E+00 0.  1.
</event>
<event>
 5   0  0.1377237E-07  0.3101454E+04  0.7818609E-02  0.8215339E-01
        2   -1    0    0  501    0  0.00000000000E+00  0.00000000000E+00  0.11661031254E+04  0.11661031254E+04  0.25500000920E-02 0. -1.
       -2   -1    0    0    0  501  0.00000000000E+00  0.00000000000E+00 -0.20622135133E+04  0.20622135133E+04  0.25500000920E-02 0.  1.
    10030    2    1    2    0    0  0.00000000000E+00  0.00000000000E+00 -0.89611038796E+03  0.32283166387E+04  0.31014536096E+04 0.  0.
        2    1    3    3  502    0 -0.90344746915E+03 -0.10674514983E+04 -0.11456037259E+04  0.18077825996E+04  0.25500000920E-02 0.  1.
       -2    1    3    3    0  502  0.90344746915E+03  0.10674514983E+04  0.24949333790E+03  0.14205340391E+04  0.25500000920E-02 0. -1.
</event>
<event>
 5   0  0.4450600E-08  0.3099652E+04  0.7818609E-02  0.8215833E-01
       -1   -1    0    0    0  501  0.00000000000E+00  0.00000000000E+00  0.13336933469E+04  0.13336933469E+04  0.50400001928E-02 0.  1.
        1   -1    0    0  501    0  0.00000000000E+00  0.00000000000E+00 -0.18009845505E+04  0.18009845505E+04  0.50400001928E-02 0. -1.
    10030    2    1    2    0    0  0.00000000000E+00  0.00000000000E+00 -0.46729120362E+03  0.31346778974E+04  0.30996523113E+04 0.  0.
        4    1    3    3  502    0 -0.13450950170E+04  0.48517061605E+03  0.37084475758E+03  0.14772266511E+04  0.12699999809E+01 0.  1.
       -4    1    3    3    0  502  0.13450950170E+04 -0.48517061605E+03 -0.83813596120E+03  0.16574512463E+04  0.12699999809E+01 0. -1.
</event>
<event>
 5   0  0.1329777E-07  0.3096576E+04  0.7818609E-02  0.8216678E-01
       -2   -1    0    0    0  501  0.00000000000E+00  0.00000000000E+00  0.11483223500E+04  0.11483223500E+04  0.25500000920E-02 0. -1.
        2   -1    0    0  501    0  0.00000000000E+00  0.00000000000E+00 -0.20875631690E+04  0.20875631690E+04  0.25500000920E-02 0.  1.
    10030    2    1    2    0    0  0.00000000000E+00  0.00000000000E+00 -0.93924081899E+03  0.32358855190E+04  0.30965758147E+04 0.  0.
        1    1    3    3  502    0 -0.12416028205E+04  0.79630978232E+03  0.22200215907E+02  0.14751880161E+04  0.50400001928E-02 0. -1.
       -1    1    3    3    0  502  0.12416028205E+04 -0.79630978232E+03 -0.96144103489E+03  0.17606975029E+04  0.50400001928E-02 0.  1.
</event>
<event>
 5   0  0.1377237E-07  0.3100345E+04  0.7818609E-02  0.8215643E-01
        2   -1    0    0  501    0  0.00000000000E+00  0.00000000000E+00  0.15248278715E+04  0.15248278715E+04  0.25500000920E-02 0.  1.
       -2   -1    0    0    0  501  0.00000000000E+00  0.00000000000E+00 -0.15759387411E+04  0.15759387411E+04  0.25500000920E-02 0. -1.
    10030    2    1    2    0    0  0.00000000000E+00  0.00000000000E+00 -0.51110869637E+02  0.31007666126E+04  0.31003453461E+04 0.  0.
        2    1    3    3  502    0 -0.53877483045E+02 -0.14451975084E+04  0.53267512885E+03  0.15411818239E+04  0.25500000920E-02 0.  1.
       -2    1    3    3    0  502  0.53877483045E+02  0.14451975084E+04 -0.58378599849E+03  0.15595847888E+04  0.25500000920E-02 0. -1.
</event>
<event>
 5   0  0.1329777E-07  0.3099608E+04  0.7818609E-02  0.8215845E-01
       -2   -1    0    0    0  501  0.00000000000E+00  0.00000000000E+00  0.10320709706E+04  0.10320709706E+04  0.25500000920E-02 0. -1.
        2   -1    0    0  501    0  0.00000000000E+00  0.00000000000E+00 -0.23272554693E+04  0.23272554693E+04  0.25500000920E-02 0.  1.
    10030    2    1    2    0    0  0.00000000000E+00  0.00000000000E+00 -0.12951844988E+04  0.33593264399E+04  0.30996082404E+04 0.  0.
        1    1    3    3  502    0 -0.31308873661E+03 -0.12667729648E+02 -0.22925664693E+04  0.23138811647E+04  0.50400001928E-02 0.  1.
       -1    1    3    3    0  502  0.31308873661E+03  0.12667729648E+02  0.99738197050E+03  0.10454452752E+04  0.50400001928E-02 0. -1.
</event>
<event>
 5   0  0.1398931E-07  0.3100083E+04  0.7818609E-02  0.8215715E-01
        2   -1    0    0  501    0  0.00000000000E+00  0.00000000000E+00  0.12364815166E+04  0.12364815166E+04  0.25500000920E-02 0. -1.
       -2   -1    0    0    0  501  0.00000000000E+00  0.00000000000E+00 -0.19431167543E+04  0.19431167543E+04  0.25500000920E-02 0.  1.
    10030    2    1    2    0    0  0.00000000000E+00  0.00000000000E+00 -0.70663523773E+03  0.31795982709E+04  0.31000825481E+04 0.  0.
        3    1    3    3  502    0 -0.71388335728E+02 -0.95097281014E+03  0.89998347682E+03  0.13112649804E+04  0.10100000352E+00 0. -1.
       -3    1    3    3    0  502  0.71388335728E+02  0.95097281014E+03 -0.16066187145E+04  0.18683332905E+04  0.10100000352E+00 0.  1.
</event>
<event>
 5   0  0.4517409E-08  0.3102131E+04  0.7818609E-02  0.8215153E-01
        1   -1    0    0  501    0  0.00000000000E+00  0.00000000000E+00  0.17282930903E+04  0.17282930903E+04  0.50400001928E-02 0.  1.
       -1   -1    0    0    0  501  0.00000000000E+00  0.00000000000E+00 -0.13920114845E+04  0.13920114845E+04  0.50400001928E-02 0. -1.
    10030    2    1    2    0    0  0.00000000000E+00  0.00000000000E+00  0.33628160584E+03  0.31203045748E+04  0.31021307711E+04 0.  0.
        2    1    3    3  502    0  0.11491251770E+04  0.69478840272E+03  0.94895152469E+03  0.16443018559E+04  0.25500000920E-02 0.  1.
       -2    1    3    3    0  502 -0.11491251770E+04 -0.69478840272E+03 -0.61266991885E+03  0.14760027190E+04  0.25500000920E-02 0. -1.
</event>
<event>
 5   0  0.1398931E-07  0.3099489E+04  0.7818609E-02  0.8215878E-01
       -2   -1    0    0    0  501  0.00000000000E+00  0.00000000000E+00  0.11579585185E+04  0.11579585185E+04  0.25500000920E-02 0.  1.
        2   -1    0    0  501    0  0.00000000000E+00  0.00000000000E+00 -0.20740885127E+04  0.20740885127E+04  0.25500000920E-02 0. -1.
    10030    2    1    2    0    0  0.00000000000E+00  0.00000000000E+00 -0.91612999418E+03  0.32320470311E+04  0.30994892878E+04 0.  0.
        3    1    3    3  502    0  0.17730241691E+02 -0.14047965787E+04 -0.11402140951E+04  0.18093799993E+04  0.10100000352E+00 0. -1.
       -3    1    3    3    0  502 -0.17730241691E+02  0.14047965787E+04  0.22408410096E+03  0.14226670318E+04  0.10100000352E+00 0.  1.
</event>
<event>
 5   0  0.1325713E-07  0.3104424E+04  0.7818609E-02  0.8214525E-01
       -2   -1    0    0    0  501  0.00000000000E+00  0.00000000000E+00  0.87237086019E+03  0.87237086020E+03  0.25500000920E-02 0. -1.
        2   -1    0    0  501    0  0.00000000000E+00  0.00000000000E+00 -0.27618549829E+04  0.27618549829E+04  0.25500000920E-02 0.  1.
    10030    2    1    2    0    0  0.00000000000E+00  0.00000000000E+00 -0.18894841227E+04  0.36342258431E+04  0.31044238159E+04 0.  0.
        4    1    3    3  502    0  0.89668240056E+03  0.43888743748E+03 -0.23361538422E+04  0.25405270905E+04  0.12699999809E+01 0.  1.
       -4    1    3    3    0  502 -0.89668240056E+03 -0.43888743748E+03  0.44666971948E+03  0.10936987526E+04  0.12699999809E+01 0. -1.
</event>
<event>
 5   0  0.4470354E-08  0.3100046E+04  0.7818609E-02  0.8215725E-01
       -1   -1    0    0    0  501  0.00000000000E+00  0.00000000000E+00  0.29463249522E+04  0.29463249522E+04  0.50400001928E-02 0.  1.
        1   -1    0    0  501    0  0.00000000000E+00  0.00000000000E+00 -0.81544667559E+03  0.81544667560E+03  0.50400001928E-02 0. -1.
    10030    2    1    2    0    0  0.00000000000E+00  0.00000000000E+00  0.21308782766E+04  0.37617716278E+04  0.31000457336E+04 0.  0.
        1    1    3    3  502    0  0.68293726557E+03  0.19366357347E+02  0.27537551131E+04  0.28372426029E+04  0.50400001928E-02 0.  1.
       -1    1    3    3    0  502 -0.68293726557E+03 -0.19366357347E+02 -0.62287683650E+03  0.92452902495E+03  0.50400001928E-02 0. -1.
</event>
<event>
 5   0  0.4517409E-08  0.3105120E+04  0.7818609E-02  0.8214334E-01
        1   -1    0    0  501    0  0.00000000000E+00  0.00000000000E+00  0.22090831712E+04  0.22090831712E+04  0.50400001928E-02 0.  1.
       -1   -1    0    0    0  501  0.00000000000E+00  0.00000000000E+00 -0.10911507608E+04  0.10911507608E+04  0.50400001928E-02 0. -1.
    10030    2    1    2    0    0  0.00000000000E+00  0.00000000000E+00  0.11179324104E+04  0.33002339319E+04  0.31051201476E+04 0.  0.
        2    1    3    3  502    0 -0.12171137939E+04  0.25894041491E+03  0.15457605776E+04  0.19843870311E+04  0.25500000920E-02 0.  1.
       -2    1    3    3    0  502  0.12171137939E+04 -0.25894041491E+03 -0.42782816717E+03  0.13158469009E+04  0.25500000920E-02 0. -1.
</event>
<event>
 5   0  0.4838602E-08  0.3099587E+04  0.7818609E-02  0.8215851E-01
        1   -1    0    0  501    0  0.00000000000E+00  0.00000000000E+00  0.12028689768E+04  0.12028689768E+04  0.50400001928E-02 0.  1.
       -1   -1    0    0    0  501  0.00000000000E+00  0.00000000000E+00 -0.19967759576E+04  0.19967759577E+04  0.50400001928E-02 0. -1.
    10030    2    1    2    0    0  0.00000000000E+00  0.00000000000E+00 -0.79390698089E+03  0.31996449344E+04  0.30995869744E+04 0.  0.
        5    1    3    3  502    0  0.81067529050E+03 -0.10615825375E+04 -0.12082540719E+04  0.18011251769E+04  0.46999998093E+01 0. -1.
       -5    1    3    3    0  502 -0.81067529050E+03  0.10615825375E+04  0.41434709099E+03  0.13985197576E+04  0.46999998093E+01 0.  1.
</event>
<event>
 5   0  0.4305500E-08  0.3099239E+04  0.7818609E-02  0.8215947E-01
       -3   -1    0    0    0  501  0.00000000000E+00  0.00000000000E+00  0.23899580075E+04  0.23899580096E+04  0.10100000352E+00 0. -1.
        3   -1    0    0  501    0  0.00000000000E+00  0.00000000000E+00 -0.10047546097E+04  0.10047546148E+04  0.10100000352E+00 0.  1.
    10030    2    1    2    0    0  0.00000000000E+00  0.00000000000E+00  0.13852033978E+04  0.33947126244E+04  0.30992394791E+04 0.  0.
        5    1    3    3  502    0  0.10717275188E+03 -0.63696494425E+03  0.22354685368E+04  0.23269189947E+04  0.46999998093E+01 0. -1.
       -5    1    3    3    0  502 -0.10717275188E+03  0.63696494425E+03 -0.85026513901E+03  0.10677936297E+04  0.46999998093E+01 0.  1.
</event>
<event>
 5   0  0.4436241E-08  0.3099335E+04  0.7818609E-02  0.8215921E-01
       -1   -1    0    0    0  501  0.00000000000E+00  0.00000000000E+00  0.20710382677E+04  0.20710382677E+04  0.50400001928E-02 0.  1.
        1   -1    0    0  501    0  0.00000000000E+00  0.00000000000E+00 -0.11595483070E+04  0.11595483071E+04  0.50400001928E-02 0. -1.
    10030    2    1    2    0    0  0.00000000000E+00  0.00000000000E+00  0.91148996062E+03  0.32305865747E+04  0.30993347138E+04 0.  0.
        3    1    3    3  502    0 -0.71555238618E+03 -0.58762273595E+03  0.17510083914E+04  0.19807438234E+04  0.10100000352E+00 0.  1.
       -3    1    3    3    0  502  0.71555238618E+03  0.58762273595E+03 -0.83951843076E+03  0.12498427513E+04  0.10100000352E+00 0. -1.
</event>
<event>
 5   0  0.1325713E-07  0.3100241E+04  0.7818609E-02  0.8215672E-01
       -2   -1    0    0    0  501  0.00000000000E+00  0.00000000000E+00  0.14404130751E+04  0.14404130751E+04  0.25500000920E-02 0. -1.
        2   -1    0    0  501    0  0.00000000000E+00  0.00000000000E+00 -0.16681840668E+04  0.16681840668E+04  0.25500000920E-02 0.  1.
    10030    2    1    2    0    0  0.00000000000E+00  0.00000000000E+00 -0.22777099168E+03  0.31085971420E+04  0.31002413723E+04 0.  0.
        4    1    3    3  502    0  0.10424278468E+04  0.10254899707E+04 -0.62965209484E+03  0.15920894665E+04  0.12699999809E+01 0. -1.
       -4    1    3    3    0  502 -0.10424278468E+04 -0.10254899707E+04  0.40188110316E+03  0.15165076755E+04  0.12699999809E+01 0.  1.
</event>
<event>
 5   0  0.4470354E-08  0.3099711E+04  0.7818609E-02  0.8215817E-01
       -1   -1    0    0    0  501  0.00000000000E+00  0.00000000000E+00  0.16589777676E+04  0.16589777676E+04  0.50400001928E-02 0.  1.
        1   -1    0    0  501    0  0.00000000000E+00  0.00000000000E+00 -0.14479111251E+04  0.14479111251E+04  0.50400001928E-02 0. -1.
    10030    2    1    2    0    0  0.00000000000E+00  0.00000000000E+00  0.21106664254E+03  0.31068888927E+04  0.30997111904E+04 0.  0.
        1    1    3    3  502    0  0.13418015865E+04  0.54240665959E+03  0.66126818533E+03  0.15911983204E+04  0.50400001928E-02 0.  1.
       -1    1    3    3    0  502 -0.13418015865E+04 -0.54240665959E+03 -0.45020154279E+03  0.15156905723E+04  0.50400001928E-02 0. -1.
</event>
<event>
 5   0  0.1318916E-07  0.3100101E+04  0.7818609E-02  0.8215710E-01
       -2   -1    0    0    0  501  0.00000000000E+00  0.00000000000E+00  0.12713722432E+04  0.12713722432E+04  0.25500000920E-02 0. -1.
        2   -1    0    0  501    0  0.00000000000E+00  0.00000000000E+00 -0.18898131982E+04  0.18898131982E+04  0.25500000920E-02 0.  1.
    10030    2    1    2    0    0  0.00000000000E+00  0.00000000000E+00 -0.61844095503E+03  0.31611854414E+04  0.31001006726E+04 0.  0.
        5    1    3    3  502    0  0.35630932063E+03 -0.59143593089E+03  0.11058853469E+04  0.13037474000E+04  0.46999998093E+01 0. -1.
       -5    1    3    3    0  502 -0.35630932063E+03  0.59143593089E+03 -0.17243263020E+04  0.18574380415E+04  0.46999998093E+01 0.  1.
</event>
<event>
 5   0  0.1318916E-07  0.3100101E+04  0.7818609E-02  0.8215710E-01
        2   -1    0    0  501    0  0.00000000000E+00  0.00000000000E+00  0.16155565298E+04  0.16155565298E+04  0.25500000920E-02 0. -1.
       -2   -1    0    0    0  501  0.00000000000E+00  0.00000000000E+00 -0.14872007469E+04  0.14872007469E+04  0.25500000920E-02 0.  1.
    10030    2    1    2    0    0  0.00000000000E+00  0.00000000000E+00  0.12835578296E+03  0.31027572767E+04  0.31001012098E+04 0.  0.
        5    1    3    3  502    0  0.67099479735E+02  0.92077929996E+03  0.13103542663E+04  0.16029308321E+04  0.46999998093E+01 0. -1.
       -5    1    3    3    0  502 -0.67099479735E+02 -0.92077929996E+03 -0.11819984833E+04  0.14998264446E+04  0.46999998093E+01 0.  1.
</event>
<event>
 5   0  0.1318916E-07  0.3097893E+04  0.7818609E-02  0.8216316E-01
        2   -1    0    0  501    0  0.00000000000E+00  0.00000000000E+00  0.18127067789E+04  0.18127067789E+04  0.25500000920E-02 0.  1.
       -2   -1    0    0    0  501  0.00000000000E+00  0.00000000000E+00 -0.13235648001E+04  0.13235648001E+04  0.25500000920E-02 0. -1.
    10030    2    1    2    0    0  0.00000000000E+00  0.00000000000E+00  0.48914197883E+03  0.31362715790E+04  0.30978927583E+04 0.  0.
        5    1    3    3  502    0 -0.16772661284E+03  0.26759418349E+03  0.17797588526E+04  0.18075681251E+04  0.46999998093E+01 0.  1.
       -5    1    3    3    0  502  0.16772661284E+03 -0.26759418349E+03 -0.12906168737E+04  0.13287034539E+04  0.46999998093E+01 0. -1.
</event>
<event>
 5   0  0.1377237E-07  0.3096521E+04  0.7818609E-02  0.8216693E-01
        2   -1    0    0  501    0  0.00000000000E+00  0.00000000000E+00  0.11963957052E+04  0.11963957052E+04  0.25500000920E-02 0.  1.
       -2   -1    0    0    0  501  0.00000000000E+00  0.00000000000E+00 -0.20036098124E+04  0.20036098124E+04  0.25500000920E-02 0. -1.
    10030    2    1    2    0    0  0.00000000000E+00  0.00000000000E+00 -0.80721410719E+03  0.32000055176E+04  0.30965207407E+04 0.  0.
        2    1    3    3  502    0 -0.12677728347E+04  0.73598923839E+03 -0.91843477277E+03  0.17298700966E+04  0.25500000920E-02 0. -1.
       -2    1    3    3    0  502  0.12677728347E+04 -0.73598923839E+03  0.11122066558E+03  0.14701354209E+04  0.25500000920E-02 0.  1.
</event>
<event>
 5   0  0.4450600E-08  0.3100691E+04  0.7818609E-02  0.8215548E-01
       -1   -1    0    0    0  501  0.00000000000E+00  0.00000000000E+00  0.10403974067E+04  0.10403974067E+04  0.50400001928E-02 0. -1.
        1   -1    0    0  501    0  0.00000000000E+00  0.00000000000E+00 -0.23102436187E+04  0.23102436187E+04  0.50400001928E-02 0.  1.
    10030    2    1    2    0    0  0.00000000000E+00  0.00000000000E+00 -0.12698462120E+04  0.33506410254E+04  0.31006911937E+04 0.  0.
        4    1    3    3  502    0 -0.14678781766E+04  0.40239977648E+03 -0.31622907253E+03  0.15545399193E+04  0.12699999809E+01 0.  1.
       -4    1    3    3    0  502  0.14678781766E+04 -0.40239977648E+03 -0.95361713951E+03  0.17961011061E+04  0.12699999809E+01 0. -1.
</event>
<event>
 5   0  0.1329777E-07  0.3099146E+04  0.7818609E-02  0.8215972E-01
       -2   -1    0    0    0  501  0.00000000000E+00  0.00000000000E+00  0.15722235401E+04  0.15722235401E+04  0.25500000920E-02 0.  1.
        2   -1    0    0  501    0  0.00000000000E+00  0.00000000000E+00 -0.15272488567E+04  0.15272488567E+04  0.25500000920E-02 0. -1.
    10030    2    1    2    0    0  0.00000000000E+00  0.00000000000E+00  0.44974683398E+02  0.30994723968E+04  0.30991460786E+04 0.  0.
        1    1    3    3  502    0 -0.56114347563E+03 -0.40842364141E+03  0.14080879229E+04  0.15698418614E+04  0.50400001928E-02 0.  1.
       -1    1    3    3    0  502  0.56114347563E+03  0.40842364141E+03 -0.13631132395E+04  0.15296305354E+04  0.50400001928E-02 0. -1.
</event>
<event>
 5   0  0.1318916E-07  0.3102240E+04  0.7818609E-02  0.8215123E-01
        2   -1    0    0  501    0  0.00000000000E+00  0.00000000000E+00  0.20640628858E+04  0.20640628858E+04  0.25500000920E-02 0.  1.
       -2   -1    0    0    0  501  0.00000000000E+00  0.00000000000E+00 -0.11656493063E+04  0.11656493063E+04  0.25500000920E-02 0. -1.
    10030    2    1    2    0    0  0.00000000000E+00  0.00000000000E+00  0.89841357947E+03  0.32297121921E+04  0.31022401396E+04 0.  0.
        5    1    3    3  502    0  0.81229390569E+03  0.21420992585E+03 -0.90830636984E+03  0.12372347526E+04  0.46999998093E+01 0. -1.
       -5    1    3    3    0  502 -0.81229390569E+03 -0.21420992585E+03  0.18067199493E+04  0.19924774395E+04  0.46999998093E+01 0.  1.
</event>
<event>
 5   0  0.1325713E-07  0.3100780E+04  0.7818609E-02  0.8215524E-01
       -2   -1    0    0    0  501  0.00000000000E+00  0.00000000000E+00  0.19455400248E+04  0.19455400248E+04  0.25500000920E-02 0.  1.
        2   -1    0    0  501    0  0.00000000000E+00  0.00000000000E+00 -0.12354970723E+04  0.12354970723E+04  0.25500000920E-02 0. -1.
    10030    2    1    2    0    0  0.00000000000E+00  0.00000000000E+00  0.71004295248E+03  0.31810370970E+04  0.31007799048E+04 0.  0.
        4    1    3    3  502    0 -0.84574830908E+03  0.36023071676E+03 -0.92575174024E+03  0.13046356844E+04  0.12699999809E+01 0. -1.
       -4    1    3    3    0  502  0.84574830908E+03 -0.36023071676E+03  0.16357946927E+04  0.18764014126E+04  0.12699999809E+01 0.  1.
</event>
<event>
 5   0  0.1318916E-07  0.3099552E+04  0.7818609E-02  0.8215861E-01
       -2   -1    0    0    0  501  0.00000000000E+00  0.00000000000E+00  0.10336212680E+04  0.10336212680E+04  0.25500000920E-02 0.  1.
        2   -1    0    0  501    0  0.00000000000E+00  0.00000000000E+00 -0.23236805179E+04  0.23236805179E+04  0.25500000920E-02 0. -1.
    10030    2    1    2    0    0  0.00000000000E+00  0.00000000000E+00 -0.12900592499E+04  0.33573017860E+04  0.30995519698E+04 0.  0.
        5    1    3    3  502    0  0.74407564575E+03 -0.34088275046E+02 -0.21170767888E+04  0.22442920480E+04  0.46999998093E+01 0. -1.
       -5    1    3    3    0  502 -0.74407564575E+03  0.34088275046E+02  0.82701753890E+03  0.11130097379E+04  0.46999998093E+01 0.  1.
</event>
<event>
 5   0  0.1318916E-07  0.3105815E+04  0.7818609E-02  0.8214144E-01
       -2   -1    0    0    0  501  0.00000000000E+00  0.00000000000E+00  0.13945600565E+04  0.13945600565E+04  0.25500000920E-02 0.  1.
        2   -1    0    0  501    0  0.00000000000E+00  0.00000000000E+00 -0.17292349526E+04  0.17292349526E+04  0.25500000920E-02 0. -1.
    10030    2    1    2    0    0  0.00000000000E+00  0.00000000000E+00 -0.33467489605E+03  0.31237950091E+04  0.31058151865E+04 0.  0.
        5    1    3    3  502    0 -0.11949463686E+04 -0.47067063735E+03  0.71068371876E+03  0.14678287062E+04  0.46999998093E+01 0.  1.
       -5    1    3    3    0  502  0.11949463686E+04  0.47067063735E+03 -0.10453586148E+04  0.16559663029E+04  0.46999998093E+01 0. -1.
</event>
<event>
 5   0  0.4450600E-08  0.3097312E+04  0.7818609E-02  0.8216476E-01
        1   -1    0    0  501    0  0.00000000000E+00  0.00000000000E+00  0.17065405388E+04  0.17065405388E+04  0.50400001928E-02 0. -1.
       -1   -1    0    0    0  501  0.00000000000E+00  0.00000000000E+00 -0.14053783264E+04  0.14053783264E+04  0.50400001928E-02 0.  1.
    10030    2    1    2    0    0  0.00000000000E+00  0.00000000000E+00  0.30116221244E+03  0.31119188653E+04  0.30973117934E+04 0.  0.
        4    1    3    3  502    0  0.54186792521E+02 -0.78186281967E+03 -0.11914156019E+04  0.14260849998E+04  0.12699999809E+01 0.  1.
       -4    1    3    3    0  502 -0.54186792521E+02  0.78186281967E+03  0.14925778143E+04  0.16858338655E+04  0.12699999809E+01 0. -1.
</event>
<event>
 5   0  0.4436241E-08  0.3099029E+04  0.7818609E-02  0.8216004E-01
       -1   -1    0    0    0  501  0.00000000000E+00  0.00000000000E+00  0.11246841421E+04  0.11246841421E+04  0.50400001928E-02 0. -1.
        1   -1    0    0  501    0  0.00000000000E+00  0.00000000000E+00 -0.21348178853E+04  0.21348178853E+04  0.50400001928E-02 0.  1.
    10030    2    1    2    0    0  0.00000000000E+00  0.00000000000E+00 -0.10101337432E+04  0.32595020274E+04  0.30990294106E+04 0.  0.
        3    1    3    3  502    0  0.13425933901E+04 -0.23032483021E+03 -0.12818125642E+04  0.18704678555E+04  0.10100000352E+00 0.  1.
       -3    1    3    3    0  502 -0.13425933901E+04  0.23032483021E+03  0.27167882096E+03  0.13890341719E+04  0.10100000352E+00 0. -1.
</event>
<event>
 5   0  0.4838602E-08  0.3101279E+04  0.7818609E-02  0.8215387E-01
       -1   -1    0    0    0  501  0.00000000000E+00  0.00000000000E+00  0.96823888992E+03  0.96823888993E+03  0.50400001928E-02 0.  1.
        1   -1    0    0  501    0  0.00000000000E+00  0.00000000000E+00 -0.24833577437E+04  0.24833577437E+04  0.50400001928E-02 0. -1.
    10030    2    1    2    0    0  0.00000000000E+00  0.00000000000E+00 -0.15151188538E+04  0.34515966336E+04  0.31012794425E+04 0.  0.
        5    1    3    3  502    0 -0.56643798436E+03 -0.33835581502E+03  0.80420583327E+03  0.10402431254E+04  0.46999998093E+01 0.  1.
       -5    1    3    3    0  502  0.56643798436E+03  0.33835581502E+03 -0.23193246870E+04  0.24113535082E+04  0.46999998093E+01 0. -1.
</event>
<event>
 5   0  0.1329777E-07  0.3099472E+04  0.7818609E-02  0.8215883E-01
       -2   -1    0    0    0  501  0.00000000000E+00  0.00000000000E+00  0.85201546604E+03  0.85201546604E+03  0.25500000920E-02 0.  1.
        2   -1    0    0  501    0  0.00000000000E+00  0.00000000000E+00 -0.28188232014E+04  0.28188232014E+04  0.25500000920E-02 0. -1.
    10030    2    1    2    0    0  0.00000000000E+00  0.00000000000E+00 -0.19668077354E+04  0.36708386675E+04  0.30994715444E+04 0.  0.
        1    1    3    3  502    0 -0.33221623000E+03  0.14910441204E+04 -0.67433613990E+03  0.16698231709E+04  0.50400001928E-02 0. -1.
       -1    1    3    3    0  502  0.33221623000E+03 -0.14910441204E+04 -0.12924715955E+04  0.20010154966E+04  0.50400001928E-02 0.  1.
</event>
<event>
 5   0  0.1318916E-07  0.3107329E+04  0.7818609E-02  0.8213729E-01
        2   -1    0    0  501    0  0.00000000000E+00  0.00000000000E+00  0.15503331942E+04  0.15503331942E+04  0.25500000920E-02 0. -1.
       -2   -1    0    0    0  501  0.00000000000E+00  0.00000000000E+00 -0.15570029185E+04  0.15570029185E+04  0.25500000920E-02 0.  1.
    10030    2    1    2    0    0  0.00000000000E+00  0.00000000000E+00 -0.66697243403E+01  0.31073361127E+04  0.31073289546E+04 0.  0.
        5    1    3    3  502    0  0.10294948086E+04 -0.41183994383E+03 -0.10916293878E+04  0.15560040201E+04  0.46999998093E+01 0.  1.
       -5    1    3    3    0  502 -0.10294948086E+04  0.41183994383E+03  0.10849596634E+04  0.15513320926E+04  0.46999998093E+01 0. -1.
</event>
<event>
 5   0  0.4838602E-08  0.3101273E+04  0.7818609E-02  0.8215389E-01
       -1   -1    0    0    0  501  0.00000000000E+00  0.00000000000E+00  0.16945003799E+04  0.16945003799E+04  0.50400001928E-02 0. -1.
        1   -1    0    0  501    0  0.00000000000E+00  0.00000000000E+00 -0.14189866492E+04  0.14189866492E+04  0.50400001928E-02 0.  1.
    10030    2    1    2    0    0  0.00000000000E+00  0.00000000000E+00  0.27551373069E+03  0.31134870291E+04  0.31012729104E+04 0.  0.
        5    1    3    3  502    0  0.85862443011E+03 -0.81122471664E+03 -0.87075405818E+03  0.14674999737E+04  0.46999998093E+01 0.  1.
       -5    1    3    3    0  502 -0.85862443011E+03  0.81122471664E+03  0.11462677889E+04  0.16459870554E+04  0.46999998093E+01 0. -1.
</event>
<event>
 5   0  0.4470354E-08  0.3100210E+04  0.7818609E-02  0.8215680E-01
        1   -1    0    0  501    0  0.00000000000E+00  0.00000000000E+00  0.17752005779E+04  0.17752005779E+04  0.50400001928E-02 0.  1.
       -1   -1    0    0    0  501  0.00000000000E+00  0.00000000000E+00 -0.13535512901E+04  0.13535512901E+04  0.50400001928E-02 0. -1.
    10030    2    1    2    0    0  0.00000000000E+00  0.00000000000E+00  0.42164928776E+03  0.31287518680E+04  0.31002096913E+04 0.  0.
        1    1    3    3  502    0 -0.16401556260E+03 -0.53137746314E+01  0.17664096103E+04  0.17740158546E+04  0.50400001928E-02 0.  1.
       -1    1    3    3    0  502  0.16401556260E+03  0.53137746314E+01 -0.13447603225E+04  0.13547360134E+04  0.50400001928E-02 0. -1.
</event>
<event>
 5   0  0.1325713E-07  0.3100006E+04  0.7818609E-02  0.8215736E-01
        2   -1    0    0  501    0  0.00000000000E+00  0.00000000000E+00  0.21065288562E+04  0.21065288562E+04  0.25500000920E-02 0.  1.
       -2   -1    0    0    0  501  0.00000000000E+00  0.00000000000E+00 -0.11405061486E+04  0.11405061486E+04  0.25500000920E-02 0. -1.
    10030    2    1    2    0    0  0.00000000000E+00  0.00000000000E+00  0.96602270754E+03  0.32470350048E+04  0.31000058792E+04 0.  0.
        4    1    3    3  502    0  0.10556586430E+04  0.79606129683E+03  0.13303149389E+04  0.18755980935E+04  0.12699999809E+01 0. -1.
       -4    1    3    3    0  502 -0.10556586430E+04 -0.79606129683E+03 -0.36429223139E+03  0.13714369113E+04  0.12699999809E+01 0.  1.
</event>
<event>
 5   0  0.4470354E-08  0.3101139E+04  0.7818609E-02  0.8215425E-01
        1   -1    0    0  501    0  0.00000000000E+00  0.00000000000E+00  0.85356634752E+03  0.85356634754E+03  0.50400001928E-02 0.  1.
       -1   -1    0    0    0  501  0.00000000000E+00  0.00000000000E+00 -0.28167303667E+04  0.28167303667E+04  0.50400001928E-02 0. -1.
    10030    2    1    2    0    0  0.00000000000E+00  0.00000000000E+00 -0.19631640192E+04  0.36702967142E+04  0.31011393075E+04 0.  0.
        1    1    3    3  502    0 -0.14576263836E+04  0.81940000017E+02 -0.36333262327E+03  0.15044598476E+04  0.50400001928E-02 0.  1.
       -1    1    3    3    0  502  0.14576263836E+04 -0.81940000017E+02 -0.15998313959E+04  0.21658368667E+04  0.50400001928E-02 0. -1.
</event>
<event>
 5   0  0.1325713E-07  0.3101799E+04  0.7818609E-02  0.8215244E-01
       -2   -1    0    0    0  501  0.00000000000E+00  0.00000000000E+00  0.13708188570E+04  0.13708188570E+04  0.25500000920E-02 0. -1.
        2   -1    0    0  501    0  0.00000000000E+00  0.00000000000E+00 -0.17546367248E+04  0.17546367248E+04  0.25500000920E-02 0.  1.
    10030    2    1    2    0    0  0.00000000000E+00  0.00000000000E+00 -0.38381786776E+03  0.31254555819E+04  0.31017989036E+04 0.  0.
        4    1    3    3  502    0 -0.20278486655E+03  0.18801865438E+03  0.13457753211E+04  0.13738942988E+04  0.12699999809E+01 0. -1.
       -4    1    3    3    0  502  0.20278486655E+03 -0.18801865438E+03 -0.17295931889E+04  0.17515612831E+04  0.12699999809E+01 0.  1.
</event>
<event>
 5   0  0.1329777E-07  0.3099314E+04  0.7818609E-02  0.8215926E-01
        2   -1    0    0  501    0  0.00000000000E+00  0.00000000000E+00  0.21418344958E+04  0.21418344958E+04  0.25500000920E-02 0.  1.
       -2   -1    0    0    0  501  0.00000000000E+00  0.00000000000E+00 -0.11212054962E+04  0.11212054962E+04  0.25500000920E-02 0. -1.
    10030    2    1    2    0    0  0.00000000000E+00  0.00000000000E+00  0.10206289996E+04  0.32630399919E+04  0.30993138651E+04 0.  0.
        1    1    3    3  502    0 -0.35721867853E+03 -0.14912905976E+04  0.74545990924E+03  0.17050698834E+04  0.50400001928E-02 0.  1.
       -1    1    3    3    0  502  0.35721867853E+03  0.14912905976E+04  0.27516909037E+03  0.15579701086E+04  0.50400001928E-02 0. -1.
</event>
<event>
 5   0  0.4517409E-08  0.3103001E+04  0.7818609E-02  0.8214915E-01
       -1   -1    0    0    0  501  0.00000000000E+00  0.00000000000E+00  0.21703276630E+04  0.21703276630E+04  0.50400001928E-02 0.  1.
        1   -1    0    0  501    0  0.00000000000E+00  0.00000000000E+00 -0.11091199351E+04  0.11091199351E+04  0.50400001928E-02 0. -1.
    10030    2    1    2    0    0  0.00000000000E+00  0.00000000000E+00  0.10612077279E+04  0.32794475981E+04  0.31030009195E+04 0.  0.
        2    1    3    3  502    0  0.59039201470E+02 -0.83296255917E+03  0.19125677967E+04  0.20869182613E+04  0.25500000920E-02 0.  1.
       -2    1    3    3    0  502 -0.59039201470E+02  0.83296255917E+03 -0.85136006880E+03  0.11925293368E+04  0.25500000920E-02 0. -1.
</event>
<event>
 5   0  0.4470354E-08  0.3100638E+04  0.7818609E-02  0.8215563E-01
       -1   -1    0    0    0  501  0.00000000000E+00  0.00000000000E+00  0.20766877184E+04  0.20766877184E+04  0.50400001928E-02 0. -1.
        1   -1    0    0  501    0  0.00000000000E+00  0.00000000000E+00 -0.11573662510E+04  0.11573662510E+04  0.50400001928E-02 0.  1.
    10030    2    1    2    0    0  0.00000000000E+00  0.00000000000E+00  0.91932146740E+03  0.32340539694E+04  0.31006375339E+04 0.  0.
        1    1    3    3  502    0  0.20316314558E+03 -0.14412612596E+04 -0.97143706675E+02  0.14587481557E+04  0.50400001928E-02 0.  1.
       -1    1    3    3    0  502 -0.20316314558E+03  0.14412612596E+04  0.10164651741E+04  0.17753058137E+04  0.50400001928E-02 0. -1.
</event>
<event>
 5   0  0.4305500E-08  0.3099912E+04  0.7818609E-02  0.8215762E-01
       -3   -1    0    0    0  501  0.00000000000E+00  0.00000000000E+00  0.99117417423E+03  0.99117417938E+03  0.10100000352E+00 0.  1.
        3   -1    0    0  501    0  0.00000000000E+00  0.00000000000E+00 -0.24237548791E+04  0.24237548812E+04  0.10100000352E+00 0. -1.
    10030    2    1    2    0    0  0.00000000000E+00  0.00000000000E+00 -0.14325807048E+04  0.34149290605E+04  0.30999117750E+04 0.  0.
        1    1    3    3  502    0 -0.47734288016E+03  0.74050924421E+03  0.68850501557E+03  0.11181454836E+04  0.50400001928E-02 0.  1.
       -1    1    3    3    0  502  0.47734288016E+03 -0.74050924421E+03 -0.21210857204E+04  0.22967835769E+04  0.50400001928E-02 0. -1.
</event>
<event>
 5   0  0.1325713E-07  0.3099676E+04  0.7818609E-02  0.8215827E-01
        2   -1    0    0  501    0  0.00000000000E+00  0.00000000000E+00  0.32601264020E+04  0.32601264020E+04  0.25500000920E-02 0. -1.
       -2   -1    0    0    0  501  0.00000000000E+00  0.00000000000E+00 -0.73678050498E+03  0.73678050498E+03  0.25500000920E-02 0.  1.
    10030    2    1    2    0    0  0.00000000000E+00  0.00000000000E+00  0.25233458970E+04  0.39969069070E+04  0.30996758390E+04 0.  0.
        4    1    3    3  502    0 -0.15403868260E+04  0.16841761519E+03  0.12243031505E+04  0.19748609784E+04  0.12699999809E+01 0.  1.
       -4    1    3    3    0  502  0.15403868260E+04 -0.16841761519E+03  0.12990427466E+04  0.20220459286E+04  0.12699999809E+01 0. -1.
</event>
<event>
 5   0  0.4450600E-08  0.3102682E+04  0.7818609E-02  0.8215002E-01
        1   -1    0    0  501    0  0.00000000000E+00  0.00000000000E+00  0.22191509860E+04  0.22191509860E+04  0.50400001928E-02 0.  1.
       -1   -1    0    0    0  501  0.00000000000E+00  0.00000000000E+00 -0.10844955286E+04  0.10844955286E+04  0.50400001928E-02 0. -1.
    10030    2    1    2    0    0  0.00000000000E+00  0.00000000000E+00  0.11346554575E+04  0.33036465146E+04  0.31026822729E+04 0.  0.
        4    1    3    3  502    0  0.15415250737E+04 -0.59434659881E+02  0.39293369865E+03  0.15919266742E+04  0.12699999809E+01 0. -1.
       -4    1    3    3    0  502 -0.15415250737E+04  0.59434659881E+02  0.74172175883E+03  0.17117198404E+04  0.12699999809E+01 0.  1.
</event>
<event>
 5   0  0.1325713E-07  0.3100309E+04  0.7818609E-02  0.8215653E-01
       -2   -1    0    0    0  501  0.00000000000E+00  0.00000000000E+00  0.13055250887E+04  0.13055250887E+04  0.25500000920E-02 0.  1.
        2   -1    0    0  501    0  0.00000000000E+00  0.00000000000E+00 -0.18406229750E+04  0.18406229750E+04  0.25500000920E-02 0. -1.
    10030    2    1    2    0    0  0.00000000000E+00  0.00000000000E+00 -0.53509788623E+03  0.31461480637E+04  0.31003093218E+04 0.  0.
        4    1    3    3  502    0  0.14616683259E+04  0.26667104556E+03 -0.71611398983E+03  0.16493661209E+04  0.12699999809E+01 0. -1.
       -4    1    3    3    0  502 -0.14616683259E+04 -0.26667104556E+03  0.18101610360E+03  0.14967819428E+04  0.12699999809E+01 0.  1.
</event>
<event>
 5   0  0.4517409E-08  0.3099649E+04  0.7818609E-02  0.8215834E-01
        1   -1    0    0  501    0  0.00000000000E+00  0.00000000000E+00  0.25111350464E+04  0.25111350464E+04  0.50400001928E-02 0. -1.
       -1   -1    0    0    0  501  0.00000000000E+00  0.00000000000E+00 -0.95652229850E+03  0.95652229851E+03  0.50400001928E-02 0.  1.
    10030    2    1    2    0    0  0.00000000000E+00  0.00000000000E+00  0.15546127479E+04  0.34676573449E+04  0.30996494424E+04 0.  0.
        2    1    3    3  502    0  0.38851250188E+02 -0.12035344849E+04  0.18688249212E+04  0.22231759405E+04  0.25500000920E-02 0. -1.
       -2    1    3    3    0  502 -0.38851250188E+02  0.12035344849E+04 -0.31421217337E+03  0.12444814044E+04  0.25500000920E-02 0.  1.
</event>
<event>
 5   0  0.1329777E-07  0.3099656E+04  0.7818609E-02  0.8215832E-01
        2   -1    0    0  501    0  0.00000000000E+00  0.00000000000E+00  0.24307605206E+04  0.24307605206E+04  0.25500000920E-02 0. -1.
       -2   -1    0    0    0  501  0.00000000000E+00  0.00000000000E+00 -0.98815438016E+03  0.98815438017E+03  0.25500000920E-02 0.  1.
    10030    2    1    2    0    0  0.00000000000E+00  0.00000000000E+00  0.14426061405E+04  0.34189149008E+04  0.30996558877E+04 0.  0.
        1    1    3    3  502    0  0.25569938414E+03  0.68117717766E+03 -0.78806530388E+03  0.10725816732E+04  0.50400001928E-02 0.  1.
       -1    1    3    3    0  502 -0.25569938414E+03 -0.68117717766E+03  0.22306714444E+04  0.23463332276E+04  0.50400001928E-02 0. -1.
</event>
<event>
 5   0  0.4436241E-08  0.3102012E+04  0.7818609E-02  0.8215186E-01
       -1   -1    0    0    0  501  0.00000000000E+00  0.00000000000E+00  0.13267857281E+04  0.13267857281E+04  0.50400001928E-02 0. -1.
        1   -1    0    0  501    0  0.00000000000E+00  0.00000000000E+00 -0.18131187804E+04  0.18131187805E+04  0.50400001928E-02 0.  1.
    10030    2    1    2    0    0  0.00000000000E+00  0.00000000000E+00 -0.48633305237E+03  0.31399045085E+04  0.31020123283E+04 0.  0.
        3    1    3    3  502    0 -0.13757385542E+04  0.51274769473E+03  0.26299514295E+03  0.14915539626E+04  0.10100000352E+00 0. -1.
       -3    1    3    3    0  502  0.13757385542E+04 -0.51274769473E+03 -0.74932819532E+03  0.16483505460E+04  0.10100000352E+00 0.  1.
</event>
<event>
 5   0  0.4470354E-08  0.3099997E+04  0.7818609E-02  0.8215739E-01
       -1   -1    0    0    0  501  0.00000000000E+00  0.00000000000E+00  0.19508346609E+04  0.19508346609E+04  0.50400001928E-02 0. -1.
        1   -1    0    0  501    0  0.00000000000E+00  0.00000000000E+00 -0.12315220415E+04  0.12315220415E+04  0.50400001928E-02 0.  1.
    10030    2    1    2    0    0  0.00000000000E+00  0.00000000000E+00  0.71931261938E+03  0.31823567024E+04  0.30999973447E+04 0.  0.
        1    1    3    3  502    0  0.24881665548E+03  0.14575288260E+04  0.83697807650E+03  0.16990680702E+04  0.50400001928E-02 0. -1.
       -1    1    3    3    0  502 -0.24881665548E+03 -0.14575288260E+04 -0.11766545712E+03  0.14832886322E+04  0.50400001928E-02 0.  1.
</event>
<event>
 5   0  0.4436241E-08  0.3099724E+04  0.7818609E-02  0.8215814E-01
        1   -1    0    0  501    0  0.00000000000E+00  0.00000000000E+00  0.20303912562E+04  0.20303912562E+04  0.50400001928E-02 0. -1.
       -1   -1    0    0    0  501  0.00000000000E+00  0.00000000000E+00 -0.11830587224E+04  0.11830587224E+04  0.50400001928E-02 0.  1.
    10030    2    1    2    0    0  0.00000000000E+00  0.00000000000E+00  0.84733253386E+03  0.32134499786E+04  0.30997239139E+04 0.  0.
        3    1    3    3  502    0 -0.92477647993E+03  0.40581010282E+03 -0.79512863183E+03  0.12853493411E+04  0.10100000352E+00 0.  1.
       -3    1    3    3    0  502  0.92477647993E+03 -0.40581010282E+03  0.16424611657E+04  0.19281006375E+04  0.10100000352E+00 0. -1.
</event>
<event>
 5   0  0.1398931E-07  0.3099053E+04  0.7818609E-02  0.8215998E-01
        2   -1    0    0  501    0  0.00000000000E+00  0.00000000000E+00  0.15745398433E+04  0.15745398433E+04  0.25500000920E-02 0. -1.
       -2   -1    0    0    0  501  0.00000000000E+00  0.00000000000E+00 -0.15249107775E+04  0.15249107775E+04  0.25500000920E-02 0.  1.
    10030    2    1    2    0    0  0.00000000000E+00  0.00000000000E+00  0.49629065835E+02  0.30994506209E+04  0.30990532598E+04 0.  0.
        3    1    3    3  502    0 -0.83995124062E+03 -0.75410348133E+03  0.10864790778E+04  0.15667249100E+04  0.10100000352E+00 0. -1.
       -3    1    3    3    0  502  0.83995124062E+03  0.75410348133E+03 -0.10368500119E+04  0.15327257108E+04  0.10100000352E+00 0.  1.
</event>
<event>
 5   0  0.1377237E-07  0.3101653E+04  0.7818609E-02  0.8215284E-01
        2   -1    0    0  501    0  0.00000000000E+00  0.00000000000E+00  0.10363896848E+04  0.10363896848E+04  0.25500000920E-02 0. -1.
       -2   -1    0    0    0  501  0.00000000000E+00  0.00000000000E+00 -0.23206165659E+04  0.23206165659E+04  0.25500000920E-02 0.  1.
    10030    2    1    2    0    0  0.00000000000E+00  0.00000000000E+00 -0.12842268811E+04  0.33570062508E+04  0.31016531536E+04 0.  0.
        2    1    3    3  502    0  0.98195207942E+02 -0.11840187879E+04  0.43670233372E+03  0.12658008205E+04  0.25500000920E-02 0. -1.
       -2    1    3    3    0  502 -0.98195207942E+02  0.11840187879E+04 -0.17209292149E+04  0.20912054302E+04  0.25500000920E-02 0.  1.
</event>
<event>
 5   0  0.4450600E-08  0.3101022E+04  0.7818609E-02  0.8215457E-01
       -1   -1    0    0    0  501  0.00000000000E+00  0.00000000000E+00  0.10683133429E+04  0.10683133429E+04  0.50400001928E-02 0. -1.
        1   -1    0    0  501    0  0.00000000000E+00  0.00000000000E+00 -0.22503552851E+04  0.22503552851E+04  0.50400001928E-02 0.  1.
    10030    2    1    2    0    0  0.00000000000E+00  0.00000000000E+00 -0.11820419422E+04  0.33186686280E+04  0.31010221395E+04 0.  0.
        4    1    3    3  502    0  0.99790396191E+03  0.89843209139E+03  0.23869400264E+03  0.13638067971E+04  0.12699999809E+01 0. -1.
       -4    1    3    3    0  502 -0.99790396191E+03 -0.89843209139E+03 -0.14207359448E+04  0.19548618309E+04  0.12699999809E+01 0.  1.
</event>
<event>
 5   0  0.1329777E-07  0.3106630E+04  0.7818609E-02  0.8213921E-01
       -2   -1    0    0    0  501  0.00000000000E+00  0.00000000000E+00  0.13537266588E+04  0.13537266588E+04  0.25500000920E-02 0. -1.
        2   -1    0    0  501    0  0.00000000000E+00  0.00000000000E+00 -0.17823293210E+04  0.17823293210E+04  0.25500000920E-02 0.  1.
    10030    2    1    2    0    0  0.00000000000E+00  0.00000000000E+00 -0.42860266220E+03  0.31360559798E+04  0.31066295026E+04 0.  0.
        1    1    3    3  502    0  0.77454059751E+03 -0.54752643317E+03  0.10274267219E+04  0.13983218518E+04  0.50400001928E-02 0. -1.
       -1    1    3    3    0  502 -0.77454059751E+03  0.54752643317E+03 -0.14560293841E+04  0.17377341280E+04  0.50400001928E-02 0.  1.
</event>
<event>
 5   0  0.4305500E-08  0.3099906E+04  0.7818609E-02  0.8215764E-01
       -4   -1    0    0    0  501  0.00000000000E+00  0.00000000000E+00  0.17123529808E+04  0.17123534518E+04  0.12699999809E+01 0.  1.
        4   -1    0    0  501    0  0.00000000000E+00  0.00000000000E+00 -0.14029538404E+04  0.14029544152E+04  0.12699999809E+01 0. -1.
    10030    2    1    2    0    0  0.00000000000E+00  0.00000000000E+00  0.30939914047E+03  0.31153078670E+04  0.30999056886E+04 0.  0.
        5    1    3    3  502    0  0.14412166394E+04  0.32595233918E+02 -0.41748323244E+03  0.15008271687E+04  0.46999998093E+01 0. -1.
       -5    1    3    3    0  502 -0.14412166394E+04 -0.32595233918E+02  0.72688237291E+03  0.16144806983E+04  0.46999998093E+01 0.  1.
</event>
<event>
 5   0  0.4450600E-08  0.3099297E+04  0.7818609E-02  0.8215931E-01
       -1   -1    0    0    0  501  0.00000000000E+00  0.00000000000E+00  0.15962998575E+04  0.15962998575E+04  0.50400001928E-02 0. -1.
        1   -1    0    0  501    0  0.00000000000E+00  0.00000000000E+00 -0.15043601415E+04  0.15043601415E+04  0.50400001928E-02 0.  1.
    10030    2    1    2    0    0  0.00000000000E+00  0.00000000000E+00  0.91939716035E+02  0.31006599990E+04  0.30992966166E+04 0.  0.
        4    1    3    3  502    0 -0.82023965165E+03 -0.12041206420E+04  0.57413074442E+03  0.15659908465E+04  0.12699999809E+01 0. -1.
       -4    1    3    3    0  502  0.82023965165E+03  0.12041206420E+04 -0.48219102838E+03  0.15346691525E+04  0.12699999809E+01 0.  1.
</event>
<event>
 5   0  0.1329777E-07  0.3100745E+04  0.7818609E-02  0.8215534E-01
       -2   -1    0    0    0  501  0.00000000000E+00  0.00000000000E+00  0.14435748279E+04  0.14435748279E+04  0.25500000920E-02 0. -1.
        2   -1    0    0  501    0  0.00000000000E+00  0.00000000000E+00 -0.16650711163E+04  0.16650711163E+04  0.25500000920E-02 0.  1.
    10030    2    1    2    0    0  0.00000000000E+00  0.00000000000E+00 -0.22149628838E+03  0.31086459442E+04  0.31007449106E+04 0.  0.
        1    1    3    3  502    0 -0.53648277916E+03  0.12964376206E+04 -0.77204279402E+03  0.16014413359E+04  0.50400001928E-02 0.  1.
       -1    1    3    3    0  502  0.53648277916E+03 -0.12964376206E+04  0.55054650564E+03  0.15072046083E+04  0.50400001928E-02 0. -1.
</event>
<event>
 5   0  0.4470354E-08  0.3099859E+04  0.7818609E-02  0.8215777E-01
       -1   -1    0    0    0  501  0.00000000000E+00  0.00000000000E+00  0.75071694810E+03  0.75071694812E+03  0.50400001928E-02 0. -1.
        1   -1    0    0  501    0  0.00000000000E+00  0.00000000000E+00 -0.31999821280E+04  0.31999821280E+04  0.50400001928E-02 0.  1.
    10030    2    1    2    0    0  0.00000000000E+00  0.00000000000E+00 -0.24492651799E+04  0.39506990761E+04  0.30998585885E+04 0.  0.
        1    1    3    3  502    0  0.85224976146E+03  0.48199312097E+03  0.30666848793E+03  0.10260080829E+04  0.50400001928E-02 0. -1.
       -1    1    3    3    0  502 -0.85224976146E+03 -0.48199312097E+03 -0.27559336678E+04  0.29246909933E+04  0.50400001928E-02 0.  1.
</event>
<event>
 5   0  0.1329777E-07  0.3098930E+04  0.7818609E-02  0.8216032E-01
       -2   -1    0    0    0  501  0.00000000000E+00  0.00000000000E+00  0.19513539086E+04  0.19513539086E+04  0.25500000920E-02 0.  1.
        2   -1    0    0  501    0  0.00000000000E+00  0.00000000000E+00 -0.12303463798E+04  0.12303463798E+04  0.25500000920E-02 0. -1.
    10030    2    1    2    0    0  0.00000000000E+00  0.00000000000E+00  0.72100752878E+03  0.31817002884E+04  0.30989296327E+04 0.  0.
        1    1    3    3  502    0  0.99031094705E+03  0.11848653896E+04  0.22974654873E+03  0.15612191518E+04  0.50400001928E-02 0. -1.
       -1    1    3    3    0  502 -0.99031094705E+03 -0.11848653896E+04  0.49126098005E+03  0.16204811365E+04  0.50400001928E-02 0.  1.
</event>
<event>
 5   0  0.4450600E-08  0.3099734E+04  0.7818609E-02  0.8215811E-01
       -1   -1    0    0    0  501  0.00000000000E+00  0.00000000000E+00  0.11318784001E+04  0.11318784001E+04  0.50400001928E-02 0. -1.
        1   -1    0    0  501    0  0.00000000000E+00  0.00000000000E+00 -0.21222133993E+04  0.21222133993E+04  0.50400001928E-02 0.  1.
    10030    2    1    2    0    0  0.00000000000E+00  0.00000000000E+00 -0.99033499917E+03  0.32540917995E+04  0.30997338642E+04 0.  0.
        4    1    3    3  502    0 -0.11537831615E+04 -0.59400217082E+03 -0.13847315244E+04  0.18977716327E+04  0.12699999809E+01 0.  1.
       -4    1    3    3    0  502  0.11537831615E+04  0.59400217082E+03  0.39439652519E+03  0.13563201667E+04  0.12699999809E+01 0. -1.
</event>
<event>
 5   0  0.1377237E-07  0.3098277E+04  0.7818609E-02  0.8216211E-01
       -2   -1    0    0    0  501  0.00000000000E+00  0.00000000000E+00  0.17169324456E+04  0.17169324456E+04  0.25500000920E-02 0. -1.
        2   -1    0    0  501    0  0.00000000000E+00  0.00000000000E+00 -0.13977429039E+04  0.13977429039E+04  0.25500000920E-02 0.  1.
    10030    2    1    2    0    0  0.00000000000E+00  0.00000000000E+00  0.31918954163E+03  0.31146753495E+04  0.30982770323E+04 0.  0.
        2    1    3    3  502    0 -0.31986875373E+03  0.10534641786E+04  0.12551919772E+04  0.16696136364E+04  0.25500000920E-02 0. -1.
       -2    1    3    3    0  502  0.31986875373E+03 -0.10534641786E+04 -0.93600243558E+03  0.14450617131E+04  0.25500000920E-02 0.  1.
</event>
<event>
 5   0  0.1377237E-07  0.3100249E+04  0.7818609E-02  0.8215670E-01
        2   -1    0    0  501    0  0.00000000000E+00  0.00000000000E+00  0.13126586718E+04  0.13126586718E+04  0.25500000920E-02 0.  1.
       -2   -1    0    0    0  501  0.00000000000E+00  0.00000000000E+00 -0.18305486631E+04  0.18305486631E+04  0.25500000920E-02 0. -1.
    10030    2    1    2    0    0  0.00000000000E+00  0.00000000000E+00 -0.51788999130E+03  0.31432073349E+04  0.31002487492E+04 0.  0.
        2    1    3    3  502    0  0.90012176274E+03 -0.10706711349E+04 -0.93628135099E+03  0.16832048702E+04  0.25500000920E-02 0. -1.
       -2    1    3    3    0  502 -0.90012176274E+03  0.10706711349E+04  0.41839135969E+03  0.14600024646E+04  0.25500000920E-02 0.  1.
</event>
<event>
 5   0  0.4450600E-08  0.3100983E+04  0.7818609E-02  0.8215468E-01
        1   -1    0    0  501    0  0.00000000000E+00  0.00000000000E+00  0.17572912185E+04  0.17572912185E+04  0.50400001928E-02 0.  1.
       -1   -1    0    0    0  501  0.00000000000E+00  0.00000000000E+00 -0.13680279810E+04  0.13680279810E+04  0.50400001928E-02 0. -1.
    10030    2    1    2    0    0  0.00000000000E+00  0.00000000000E+00  0.38926323748E+03  0.31253191995E+04  0.31009827847E+04 0.  0.
        4    1    3    3  502    0  0.77703069920E+03 -0.89594715588E+03 -0.81196782586E+03  0.14372861151E+04  0.12699999809E+01 0. -1.
       -4    1    3    3    0  502 -0.77703069920E+03  0.89594715588E+03  0.12012310633E+04  0.16880330844E+04  0.12699999809E+01 0.  1.
</event>
<event>
 5   0  0.4838602E-08  0.3096550E+04  0.7818609E-02  0.8216685E-01
        1   -1    0    0  501    0  0.00000000000E+00  0.00000000000E+00  0.15915204929E+04  0.15915204929E+04  0.50400001928E-02 0. -1.
       -1   -1    0    0    0  501  0.00000000000E+00  0.00000000000E+00 -0.15062047044E+04  0.15062047044E+04  0.50400001928E-02 0.  1.
    10030    2    1    2    0    0  0.00000000000E+00  0.00000000000E+00  0.85315788529E+02  0.30977251973E+04  0.30965501149E+04 0.  0.
        5    1    3    3  502    0 -0.72990446811E+03  0.87005955181E+03  0.10953734391E+04  0.15778558925E+04  0.46999998093E+01 0. -1.
       -5    1    3    3    0  502  0.72990446811E+03 -0.87005955181E+03 -0.10100576506E+04  0.15198693048E+04  0.46999998093E+01 0.  1.
</event>
<event>
 5   0  0.4517409E-08  0.3099971E+04  0.7818609E-02  0.8215746E-01
        1   -1    0    0  501    0  0.00000000000E+00  0.00000000000E+00  0.20118441354E+04  0.20118441354E+04  0.50400001928E-02 0. -1.
       -1   -1    0    0    0  501  0.00000000000E+00  0.00000000000E+00 -0.11941555843E+04  0.11941555843E+04  0.50400001928E-02 0.  1.
    10030    2    1    2    0    0  0.00000000000E+00  0.00000000000E+00  0.81768855109E+03  0.32059997197E+04  0.30999709089E+04 0.  0.
        2    1    3    3  502    0  0.58065900656E+03  0.17715632221E+03 -0.10660852335E+04  0.12268198602E+04  0.25500000920E-02 0.  1.
       -2    1    3    3    0  502 -0.58065900656E+03 -0.17715632221E+03  0.18837737846E+04  0.19791798594E+04  0.25500000920E-02 0. -1.
</event>
<event>
 5   0  0.1398931E-07  0.3099153E+04  0.7818609E-02  0.8215970E-01
       -2   -1    0    0    0  501  0.00000000000E+00  0.00000000000E+00  0.12728237914E+04  0.12728237914E+04  0.25500000920E-02 0. -1.
        2   -1    0    0  501    0  0.00000000000E+00  0.00000000000E+00 -0.18865040417E+04  0.18865040417E+04  0.25500000920E-02 0.  1.
    10030    2    1    2    0    0  0.00000000000E+00  0.00000000000E+00 -0.61368025035E+03  0.31593278331E+04  0.30991529338E+04 0.  0.
        3    1    3    3  502    0  0.63973836520E+03  0.70898511988E+03 -0.15508884771E+04  0.18213127559E+04  0.10100000352E+00 0.  1.
       -3    1    3    3    0  502 -0.63973836520E+03 -0.70898511988E+03  0.93720822679E+03  0.13380150771E+04  0.10100000352E+00 0. -1.
</event>
<event>
 5   0  0.4517409E-08  0.3099897E+04  0.7818609E-02  0.8215766E-01
        1   -1    0    0  501    0  0.00000000000E+00  0.00000000000E+00  0.17925485038E+04  0.17925485038E+04  0.50400001928E-02 0. -1.
       -1   -1    0    0    0  501  0.00000000000E+00  0.00000000000E+00 -0.13401815733E+04  0.13401815733E+04  0.50400001928E-02 0.  1.
    10030    2    1    2    0    0  0.00000000000E+00  0.00000000000E+00  0.45236693049E+03  0.31327300770E+04  0.30998970783E+04 0.  0.
        2    1    3    3  502    0  0.95789637566E+01 -0.14805164865E+04 -0.23728013165E+03  0.14994407905E+04  0.25500000920E-02 0. -1.
       -2    1    3    3    0  502 -0.95789637566E+01  0.14805164865E+04  0.68964706213E+03  0.16332892866E+04  0.25500000920E-02 0.  1.
</event>
<event>
 5   0  0.4470354E-08  0.3108700E+04  0.7818609E-02  0.8213354E-01
        1   -1    0    0  501    0  0.00000000000E+00  0.00000000000E+00  0.23797865024E+04  0.23797865024E+04  0.50400001928E-02 0. -1.
       -1   -1    0    0    0  501  0.00000000000E+00  0.00000000000E+00 -0.10152187205E+04  0.10152187205E+04  0.50400001928E-02 0.  1.
    10030    2    1    2    0    0  0.00000000000E+00  0.00000000000E+00  0.13645677819E+04  0.33950052229E+04  0.31086999264E+04 0.  0.
        1    1    3    3  502    0  0.14296134464E+03  0.12387201801E+04  0.16957239468E+04  0.21048385530E+04  0.50400001928E-02 0. -1.
       -1    1    3    3    0  502 -0.14296134464E+03 -0.12387201801E+04 -0.33115616489E+03  0.12901666699E+04  0.50400001928E-02 0.  1.
</event>
<event>
 5   0  0.1329777E-07  0.3114231E+04  0.7818609E-02  0.8211843E-01
        2   -1    0    0  501    0  0.00000000000E+00  0.00000000000E+00  0.12487612918E+04  0.12487612918E+04  0.25500000920E-02 0.  1.
       -2   -1    0    0    0  501  0.00000000000E+00  0.00000000000E+00 -0.19416111189E+04  0.19416111189E+04  0.25500000920E-02 0. -1.
    10030    2    1    2    0    0  0.00000000000E+00  0.00000000000E+00 -0.69284982709E+03  0.31903724108E+04  0.31142310827E+04 0.  0.
        1    1    3    3  502    0 -0.71496693958E+02  0.10160161624E+04  0.86016966053E+03  0.13331513284E+04  0.50400001928E-02 0.  1.
       -1    1    3    3    0  502  0.71496693958E+02 -0.10160161624E+04 -0.15530194876E+04  0.18572210823E+04  0.50400001928E-02 0. -1.
</event>
<event>
 5   0  0.4838602E-08  0.3096866E+04  0.7818609E-02  0.8216599E-01
        1   -1    0    0  501    0  0.00000000000E+00  0.00000000000E+00  0.12429118145E+04  0.12429118145E+04  0.50400001928E-02 0. -1.
       -1   -1    0    0    0  501  0.00000000000E+00  0.00000000000E+00 -0.19290547064E+04  0.19290547065E+04  0.50400001928E-02 0.  1.
    10030    2    1    2    0    0  0.00000000000E+00  0.00000000000E+00 -0.68614289200E+03  0.31719665209E+04  0.30968660839E+04 0.  0.
        5    1    3    3  502    0 -0.59534795423E+03 -0.13834085732E+04  0.25323308638E+02  0.15062940706E+04  0.46999998093E+01 0.  1.
       -5    1    3    3    0  502  0.59534795423E+03  0.13834085732E+04 -0.71146620063E+03  0.16656724503E+04  0.46999998093E+01 0. -1.
</event>
<event>
 5   0  0.4838602E-08  0.3099470E+04  0.7818609E-02  0.8215883E-01
       -1   -1    0    0    0  501  0.00000000000E+00  0.00000000000E+00  0.17217926389E+04  0.17217926389E+04  0.50400001928E-02 0. -1.
        1   -1    0    0  501    0  0.00000000000E+00  0.00000000000E+00 -0.13948706169E+04  0.13948706169E+04  0.50400001928E-02 0.  1.
    10030    2    1    2    0    0  0.00000000000E+00  0.00000000000E+00  0.32692202193E+03  0.31166632558E+04  0.30994696065E+04 0.  0.
        5    1    3    3  502    0 -0.76857086011E+03 -0.33746568857E+03 -0.11464825466E+04  0.14209252541E+04  0.46999998093E+01 0.  1.
       -5    1    3    3    0  502  0.76857086011E+03  0.33746568857E+03  0.14734045685E+04  0.16957380017E+04  0.46999998093E+01 0. -1.
</event>
<event>
 5   0  0.1377237E-07  0.3098307E+04  0.7818609E-02  0.8216203E-01
       -2   -1    0    0    0  501  0.00000000000E+00  0.00000000000E+00  0.16585682303E+04  0.16585682303E+04  0.25500000920E-02 0.  1.
        2   -1    0    0  501    0  0.00000000000E+00  0.00000000000E+00 -0.14469563579E+04  0.14469563579E+04  0.25500000920E-02 0. -1.
    10030    2    1    2    0    0  0.00000000000E+00  0.00000000000E+00  0.21161187240E+03  0.31055245883E+04  0.30983065348E+04 0.  0.
        2    1    3    3  502    0 -0.31105161143E+03  0.99071366752E+03  0.12580967796E+04  0.16312799217E+04  0.25500000920E-02 0.  1.
       -2    1    3    3    0  502  0.31105161143E+03 -0.99071366752E+03 -0.10464849072E+04  0.14742446666E+04  0.25500000920E-02 0. -1.
</event>
<event>
 5   0  0.1377237E-07  0.3099975E+04  0.7818609E-02  0.8215745E-01
       -2   -1    0    0    0  501  0.00000000000E+00  0.00000000000E+00  0.14770988417E+04  0.14770988417E+04  0.25500000920E-02 0. -1.
        2   -1    0    0  501    0  0.00000000000E+00  0.00000000000E+00 -0.16264727067E+04  0.16264727067E+04  0.25500000920E-02 0.  1.
    10030    2    1    2    0    0  0.00000000000E+00  0.00000000000E+00 -0.14937386504E+03  0.31035715484E+04  0.30999748071E+04 0.  0.
        2    1    3    3  502    0  0.77178891245E+02  0.28571749726E+03  0.14485479958E+04  0.14784729844E+04  0.25500000920E-02 0. -1.
       -2    1    3    3    0  502 -0.77178891245E+02 -0.28571749726E+03 -0.15979218608E+04  0.16250985640E+04  0.25500000920E-02 0.  1.
</event>
<event>
 5   0  0.4436241E-08  0.3100353E+04  0.7818609E-02  0.8215641E-01
        1   -1    0    0  501    0  0.00000000000E+00  0.00000000000E+00  0.21961698509E+04  0.21961698509E+04  0.50400001928E-02 0.  1.
       -1   -1    0    0    0  501  0.00000000000E+00  0.00000000000E+00 -0.10941989826E+04  0.10941989826E+04  0.50400001928E-02 0. -1.
    10030    2    1    2    0    0  0.00000000000E+00  0.00000000000E+00  0.11019708684E+04  0.32903688335E+04  0.31003527647E+04 0.  0.
        3    1    3    3  502    0  0.26818441883E+03  0.47936311790E+03  0.20894273734E+04  0.21604209405E+04  0.10100000352E+00 0.  1.
       -3    1    3    3    0  502 -0.26818441883E+03 -0.47936311790E+03 -0.98745650503E+03  0.11299478930E+04  0.10100000352E+00 0. -1.
</event>
<event>
 5   0  0.1318916E-07  0.3103132E+04  0.7818609E-02  0.8214879E-01
        2   -1    0    0  501    0  0.00000000000E+00  0.00000000000E+00  0.30446319014E+04  0.30446319014E+04  0.25500000920E-02 0.  1.
       -2   -1    0    0    0  501  0.00000000000E+00  0.00000000000E+00 -0.79068896829E+03  0.79068896829E+03  0.25500000920E-02 0. -1.
    10030    2    1    2    0    0  0.00000000000E+00  0.00000000000E+00  0.22539429331E+04  0.38353208697E+04  0.31031318740E+04 0.  0.
        5    1    3    3  502    0  0.28243187955E+03 -0.65718528344E+03  0.28286728655E+04  0.29177170071E+04  0.46999998093E+01 0.  1.
       -5    1    3    3    0  502 -0.28243187955E+03  0.65718528344E+03 -0.57472993244E+03  0.91760386257E+03  0.46999998093E+01 0. -1.
</event>
<event>
 5   0  0.4450600E-08  0.3099783E+04  0.7818609E-02  0.8215797E-01
       -1   -1    0    0    0  501  0.00000000000E+00  0.00000000000E+00  0.12067084867E+04  0.12067084867E+04  0.50400001928E-02 0.  1.
        1   -1    0    0  501    0  0.00000000000E+00  0.00000000000E+00 -0.19906743134E+04  0.19906743134E+04  0.50400001928E-02 0. -1.
    10030    2    1    2    0    0  0.00000000000E+00  0.00000000000E+00 -0.78396582670E+03  0.31973828002E+04  0.30997829526E+04 0.  0.
        4    1    3    3  502    0  0.31975654636E+03 -0.15053633254E+04 -0.20234936193E+03  0.15521951770E+04  0.12699999809E+01 0. -1.
       -4    1    3    3    0  502 -0.31975654636E+03  0.15053633254E+04 -0.58161646476E+03  0.16451876232E+04  0.12699999809E+01 0.  1.
</event>
<event>
 5   0  0.1377237E-07  0.3113607E+04  0.7818609E-02  0.8212014E-01
        2   -1    0    0  501    0  0.00000000000E+00  0.00000000000E+00  0.13659623701E+04  0.13659623701E+04  0.25500000920E-02 0.  1.
       -2   -1    0    0    0  501  0.00000000000E+00  0.00000000000E+00 -0.17743068712E+04  0.17743068712E+04  0.25500000920E-02 0. -1.
    10030    2    1    2    0    0  0.00000000000E+00  0.00000000000E+00 -0.40834450106E+03  0.31402692413E+04  0.31136065385E+04 0.  0.
        2    1    3    3  502    0 -0.11128899068E+04  0.43615519572E+03 -0.12101508672E+04  0.17009469188E+04  0.25500000920E-02 0. -1.
       -2    1    3    3    0  502  0.11128899068E+04 -0.43615519572E+03  0.80180636612E+03  0.14393223225E+04  0.25500000920E-02 0.  1.
</event>
<event>
 5   0  0.4838602E-08  0.3100699E+04  0.7818609E-02  0.8215546E-01
       -1   -1    0    0    0  501  0.00000000000E+00  0.00000000000E+00  0.15113228372E+04  0.15113228372E+04  0.50400001928E-02 0. -1.
        1   -1    0    0  501    0  0.00000000000E+00  0.00000000000E+00 -0.15903839017E+04  0.15903839017E+04  0.50400001928E-02 0.  1.
    10030    2    1    2    0    0  0.00000000000E+00  0.00000000000E+00 -0.79061064503E+02  0.31017067390E+04  0.31006989603E+04 0.  0.
        5    1    3    3  502    0  0.31863150024E+03 -0.41222168963E+03  0.14211182390E+04  0.15136221106E+04  0.46999998093E+01 0. -1.
       -5    1    3    3    0  502 -0.31863150024E+03  0.41222168963E+03 -0.15001793035E+04  0.15880846284E+04  0.46999998093E+01 0.  1.
</event>
<event>
 5   0  0.4305500E-08  0.3098455E+04  0.7818609E-02  0.8216162E-01
       -3   -1    0    0    0  501  0.00000000000E+00  0.00000000000E+00  0.13545445494E+04  0.13545445531E+04  0.10100000352E+00 0. -1.
        3   -1    0    0  501    0  0.00000000000E+00  0.00000000000E+00 -0.17718916159E+04  0.17718916188E+04  0.10100000352E+00 0.  1.
    10030    2    1    2    0    0  0.00000000000E+00  0.00000000000E+00 -0.41734706655E+03  0.31264361719E+04  0.30984551898E+04 0.  0.
        2    1    3    3  502    0 -0.45869127404E+02  0.15476340451E+04 -0.26236141985E+03  0.15703848665E+04  0.25500000920E-02 0.  1.
       -2    1    3    3    0  502  0.45869127404E+02 -0.15476340451E+04 -0.15498564670E+03  0.15560513054E+04  0.25500000920E-02 0. -1.
</event>
<event>
 5   0  0.4517409E-08  0.3099934E+04  0.7818609E-02  0.8215756E-01
       -1   -1    0    0    0  501  0.00000000000E+00  0.00000000000E+00  0.85434716044E+03  0.85434716046E+03  0.50400001928E-02 0.  1.
        1   -1    0    0  501    0  0.00000000000E+00  0.00000000000E+00 -0.28119691162E+04  0.28119691162E+04  0.50400001928E-02 0. -1.
    10030    2    1    2    0    0  0.00000000000E+00  0.00000000000E+00 -0.19576219558E+04  0.36663162767E+04  0.30999340830E+04 0.  0.
        2    1    3    3  502    0  0.12068654843E+04  0.92376840313E+03 -0.13385670370E+04  0.20252491384E+04  0.25500000920E-02 0. -1.
       -2    1    3    3    0  502 -0.12068654843E+04 -0.92376840313E+03 -0.61905491872E+03  0.16410671383E+04  0.25500000920E-02 0.  1.
</event>
<event>
 5   0  0.4838602E-08  0.3100628E+04  0.7818609E-02  0.8215566E-01
       -1   -1    0    0    0  501  0.00000000000E+00  0.00000000000E+00  0.14550061077E+04  0.14550061077E+04  0.50400001928E-02 0. -1.
        1   -1    0    0  501    0  0.00000000000E+00  0.00000000000E+00 -0.16518645424E+04  0.16518645424E+04  0.50400001928E-02 0.  1.
    10030    2    1    2    0    0  0.00000000000E+00  0.00000000000E+00 -0.19685843472E+03  0.31068706501E+04  0.31006276773E+04 0.  0.
        5    1    3    3  502    0  0.11718363765E+03 -0.82481453183E+03 -0.14085018945E+04  0.16364445281E+04  0.46999998093E+01 0.  1.
       -5    1    3    3    0  502 -0.11718363765E+03  0.82481453183E+03  0.12116434597E+04  0.14704261220E+04  0.46999998093E+01 0. -1.
</event>
<event>
 5   0  0.1377237E-07  0.3101288E+04  0.7818609E-02  0.8215384E-01
        2   -1    0    0  501    0  0.00000000000E+00  0.00000000000E+00  0.14410238967E+04  0.14410238967E+04  0.25500000920E-02 0. -1.
       -2   -1    0    0    0  501  0.00000000000E+00  0.00000000000E+00 -0.16686031189E+04  0.16686031189E+04  0.25500000920E-02 0.  1.
    10030    2    1    2    0    0  0.00000000000E+00  0.00000000000E+00 -0.22757922226E+03  0.31096270156E+04  0.31012880992E+04 0.  0.
        2    1    3    3  502    0  0.42130851256E+03  0.24648624278E+03  0.13619833108E+04  0.14468085117E+04  0.25500000920E-02 0. -1.
       -2    1    3    3    0  502 -0.42130851256E+03 -0.24648624278E+03 -0.15895625330E+04  0.16628185040E+04  0.25500000920E-02 0.  1.
</event>
<event>
 5   0  0.1377237E-07  0.3099787E+04  0.7818609E-02  0.8215796E-01
       -2   -1    0    0    0  501  0.00000000000E+00  0.00000000000E+00  0.12106597989E+04  0.12106597989E+04  0.25500000920E-02 0.  1.
        2   -1    0    0  501    0  0.00000000000E+00  0.00000000000E+00 -0.19841819210E+04  0.19841819210E+04  0.25500000920E-02 0. -1.
    10030    2    1    2    0    0  0.00000000000E+00  0.00000000000E+00 -0.77352212209E+03  0.31948417200E+04  0.30997866285E+04 0.  0.
        2    1    3    3  502    0  0.23878915439E+03 -0.12186721452E+04  0.56903128232E+03  0.13660082936E+04  0.25500000920E-02 0.  1.
       -2    1    3    3    0  502 -0.23878915439E+03  0.12186721452E+04 -0.13425534044E+04  0.18288334264E+04  0.25500000920E-02 0. -1.
</event>
<event>
 5   0  0.4450600E-08  0.3102785E+04  0.7818609E-02  0.8214974E-01
        1   -1    0    0  501    0  0.00000000000E+00  0.00000000000E+00  0.12365357682E+04  0.12365357682E+04  0.50400001928E-02 0. -1.
       -1   -1    0    0    0  501  0.00000000000E+00  0.00000000000E+00 -0.19464208284E+04  0.19464208284E+04  0.50400001928E-02 0.  1.
    10030    2    1    2    0    0  0.00000000000E+00  0.00000000000E+00 -0.70988506017E+03  0.31829565966E+04  0.31027851839E+04 0.  0.
        4    1    3    3  502    0 -0.20908744091E+03 -0.14102595073E+04 -0.98252428981E+03  0.17314459359E+04  0.12699999809E+01 0. -1.
       -4    1    3    3    0  502  0.20908744091E+03  0.14102595073E+04  0.27263922965E+03  0.14515106607E+04  0.12699999809E+01 0.  1.
</event>
<event>
 5   0  0.1325713E-07  0.3100737E+04  0.7818609E-02  0.8215536E-01
        2   -1    0    0  501    0  0.00000000000E+00  0.00000000000E+00  0.82960633688E+03  0.82960633689E+03  0.25500000920E-02 0.  1.
       -2   -1    0    0    0  501  0.00000000000E+00  0.00000000000E+00 -0.28973287451E+04  0.28973287451E+04  0.25500000920E-02 0. -1.
    10030    2    1    2    0    0  0.00000000000E+00  0.00000000000E+00 -0.20677224082E+04  0.37269350819E+04  0.31007368717E+04 0.  0.
        4    1    3    3  502    0 -0.92573329164E+03  0.10015577944E+04 -0.19200023076E+04  0.23551031011E+04  0.12699999809E+01 0. -1.
       -4    1    3    3    0  502  0.92573329164E+03 -0.10015577944E+04 -0.14772010059E+03  0.13718319809E+04  0.12699999809E+01 0.  1.
</event>
<event>
 5   0  0.4305500E-08  0.3100050E+04  0.7818609E-02  0.8215724E-01
        3   -1    0    0  501    0  0.00000000000E+00  0.00000000000E+00  0.15683463214E+04  0.15683463246E+04  0.10100000352E+00 0. -1.
       -3   -1    0    0    0  501  0.00000000000E+00  0.00000000000E+00 -0.15319173561E+04  0.15319173594E+04  0.10100000352E+00 0.  1.
    10030    2    1    2    0    0  0.00000000000E+00  0.00000000000E+00  0.36428965306E+02  0.31002636840E+04  0.31000496514E+04 0.  0.
        3    1    3    3  502    0 -0.54936671084E+03 -0.98534806436E+03 -0.10448087437E+04  0.15376410218E+04  0.10100000352E+00 0.  1.
       -3    1    3    3    0  502  0.54936671084E+03  0.98534806436E+03  0.10812377090E+04  0.15626226622E+04  0.10100000352E+00 0. -1.
</event>
<event>
 5   0  0.4305500E-08  0.3099390E+04  0.7818609E-02  0.8215905E-01
       -3   -1    0    0    0  501  0.00000000000E+00  0.00000000000E+00  0.16739258129E+04  0.16739258160E+04  0.10100000352E+00 0. -1.
        3   -1    0    0  501    0  0.00000000000E+00  0.00000000000E+00 -0.14346840053E+04  0.14346840089E+04  0.10100000352E+00 0.  1.
    10030    2    1    2    0    0  0.00000000000E+00  0.00000000000E+00  0.23924180760E+03  0.31086098249E+04  0.30993900046E+04 0.  0.
        2    1    3    3  502    0  0.12899256620E+04  0.85768463685E+03  0.74504313377E+02  0.15508326933E+04  0.25500000920E-02 0. -1.
       -2    1    3    3    0  502 -0.12899256620E+04 -0.85768463685E+03  0.16473749423E+03  0.15577771316E+04  0.25500000920E-02 0.  1.
</event>
<event>
 5   0  0.4436241E-08  0.3098453E+04  0.7818609E-02  0.8216162E-01
        1   -1    0    0  501    0  0.00000000000E+00  0.00000000000E+00  0.19019445432E+04  0.19019445432E+04  0.50400001928E-02 0.  1.
       -1   -1    0    0    0  501  0.00000000000E+00  0.00000000000E+00 -0.12619207928E+04  0.12619207928E+04  0.50400001928E-02 0. -1.
    10030    2    1    2    0    0  0.00000000000E+00  0.00000000000E+00  0.64002375044E+03  0.31638653360E+04  0.30984533986E+04 0.  0.
        3    1    3    3  502    0  0.18039023317E+03  0.49251707637E+03 -0.11684970089E+04  0.12808196504E+04  0.10100000352E+00 0. -1.
       -3    1    3    3    0  502 -0.18039023317E+03 -0.49251707637E+03  0.18085207594E+04  0.18830456856E+04  0.10100000352E+00 0.  1.
</event>
<event>
 5   0  0.1377237E-07  0.3100284E+04  0.7818609E-02  0.8215660E-01
       -2   -1    0    0    0  501  0.00000000000E+00  0.00000000000E+00  0.11630111645E+04  0.11630111645E+04  0.25500000920E-02 0.  1.
        2   -1    0    0  501    0  0.00000000000E+00  0.00000000000E+00 -0.20661375021E+04  0.20661375021E+04  0.25500000920E-02 0. -1.
    10030    2    1    2    0    0  0.00000000000E+00  0.00000000000E+00 -0.90312633768E+03  0.32291486666E+04  0.31002844917E+04 0.  0.
        2    1    3    3  502    0 -0.27139355637E+03  0.14871598193E+04 -0.80880972062E+03  0.17144888319E+04  0.25500000920E-02 0.  1.
       -2    1    3    3    0  502  0.27139355637E+03 -0.14871598193E+04 -0.94316617059E+02  0.15146598347E+04  0.25500000920E-02 0. -1.
</event>
<event>
 5   0  0.4470354E-08  0.3099789E+04  0.7818609E-02  0.8215796E-01
        1   -1    0    0  501    0  0.00000000000E+00  0.00000000000E+00  0.16941417958E+04  0.16941417958E+04  0.50400001928E-02 0. -1.
       -1   -1    0    0    0  501  0.00000000000E+00  0.00000000000E+00 -0.14179288355E+04  0.14179288355E+04  0.50400001928E-02 0.  1.
    10030    2    1    2    0    0  0.00000000000E+00  0.00000000000E+00  0.27621296032E+03  0.31120706313E+04  0.30997887048E+04 0.  0.
        1    1    3    3  502    0 -0.10635941072E+04  0.60385630431E+03  0.10938751250E+04  0.16408649092E+04  0.50400001928E-02 0. -1.
       -1    1    3    3    0  502  0.10635941072E+04 -0.60385630431E+03 -0.81766216467E+03  0.14712057221E+04  0.50400001928E-02 0.  1.
</event>
<event>
 5   0  0.1377237E-07  0.3099075E+04  0.7818609E-02  0.8215992E-01
       -2   -1    0    0    0  501  0.00000000000E+00  0.00000000000E+00  0.15334322345E+04  0.15334322345E+04  0.25500000920E-02 0.  1.
        2   -1    0    0  501    0  0.00000000000E+00  0.00000000000E+00 -0.15658116025E+04  0.15658116025E+04  0.25500000920E-02 0. -1.
    10030    2    1    2    0    0  0.00000000000E+00  0.00000000000E+00 -0.32379367926E+02  0.30992438370E+04  0.30990746906E+04 0.  0.
        2    1    3    3  502    0  0.14424724791E+04 -0.38826113427E+03  0.39564879917E+03  0.15453192336E+04  0.25500000920E-02 0.  1.
       -2    1    3    3    0  502 -0.14424724791E+04  0.38826113427E+03 -0.42802816710E+03  0.15539246034E+04  0.25500000920E-02 0. -1.
</event>
<event>
 5   0  0.1377237E-07  0.3104780E+04  0.7818609E-02  0.8214427E-01
       -2   -1    0    0    0  501  0.00000000000E+00  0.00000000000E+00  0.12325887302E+04  0.12325887302E+04  0.25500000920E-02 0. -1.
        2   -1    0    0  501    0  0.00000000000E+00  0.00000000000E+00 -0.19551654532E+04  0.19551654532E+04  0.25500000920E-02 0.  1.
    10030    2    1    2    0    0  0.00000000000E+00  0.00000000000E+00 -0.72257672300E+03  0.31877541833E+04  0.31047801231E+04 0.  0.
        2    1    3    3  502    0 -0.20371370449E+03 -0.13383761666E+04  0.41872836955E+03  0.14170686237E+04  0.25500000920E-02 0.  1.
       -2    1    3    3    0  502  0.20371370449E+03  0.13383761666E+04 -0.11413050925E+04  0.17706855596E+04  0.25500000920E-02 0. -1.
</event>
<event>
 5   0  0.4436241E-08  0.3106482E+04  0.7818609E-02  0.8213961E-01
       -1   -1    0    0    0  501  0.00000000000E+00  0.00000000000E+00  0.21376697311E+04  0.21376697311E+04  0.50400001928E-02 0. -1.
        1   -1    0    0  501    0  0.00000000000E+00  0.00000000000E+00 -0.11285925353E+04  0.11285925353E+04  0.50400001928E-02 0.  1.
    10030    2    1    2    0    0  0.00000000000E+00  0.00000000000E+00  0.10090771958E+04  0.32662622664E+04  0.31064823202E+04 0.  0.
        3    1    3    3  502    0  0.78077211827E+03  0.43721724407E+03 -0.83032516795E+03  0.12207390851E+04  0.10100000352E+00 0.  1.
       -3    1    3    3    0  502 -0.78077211827E+03 -0.43721724407E+03  0.18394023638E+04  0.20455231813E+04  0.10100000352E+00 0. -1.
</event>
<event>
 5   0  0.4470354E-08  0.3098819E+04  0.7818609E-02  0.8216062E-01
       -1   -1    0    0    0  501  0.00000000000E+00  0.00000000000E+00  0.17179707931E+04  0.17179707931E+04  0.50400001928E-02 0. -1.
        1   -1    0    0  501    0  0.00000000000E+00  0.00000000000E+00 -0.13973870528E+04  0.13973870528E+04  0.50400001928E-02 0.  1.
    10030    2    1    2    0    0  0.00000000000E+00  0.00000000000E+00  0.32058374030E+03  0.31153578458E+04  0.30988192224E+04 0.  0.
        1    1    3    3  502    0  0.11389371909E+04  0.10389163824E+04  0.31650769367E+03  0.15737542040E+04  0.50400001928E-02 0.  1.
       -1    1    3    3    0  502 -0.11389371909E+04 -0.10389163824E+04  0.40760466372E+01  0.15416036418E+04  0.50400001928E-02 0. -1.
</event>
<event>
 5   0  0.4436241E-08  0.3100693E+04  0.7818609E-02  0.8215548E-01
       -1   -1    0    0    0  501  0.00000000000E+00  0.00000000000E+00  0.92838009606E+03  0.92838009608E+03  0.50400001928E-02 0. -1.
        1   -1    0    0  501    0  0.00000000000E+00  0.00000000000E+00 -0.25889979615E+04  0.25889979615E+04  0.50400001928E-02 0.  1.
    10030    2    1    2    0    0  0.00000000000E+00  0.00000000000E+00 -0.16606178654E+04  0.35173780575E+04  0.31006929395E+04 0.  0.
        3    1    3    3  502    0  0.61015774724E+03  0.13789687909E+04 -0.12388870294E+04  0.19515861458E+04  0.10100000352E+00 0. -1.
       -3    1    3    3    0  502 -0.61015774724E+03 -0.13789687909E+04 -0.42173083603E+03  0.15657919118E+04  0.10100000352E+00 0.  1.
</event>
<event>
 5   0  0.4305500E-08  0.3100506E+04  0.7818609E-02  0.8215599E-01
       -3   -1    0    0    0  501  0.00000000000E+00  0.00000000000E+00  0.10618369767E+04  0.10618369815E+04  0.10100000352E+00 0. -1.
        3   -1    0    0  501    0  0.00000000000E+00  0.00000000000E+00 -0.22633277237E+04  0.22633277259E+04  0.10100000352E+00 0.  1.
    10030    2    1    2    0    0  0.00000000000E+00  0.00000000000E+00 -0.12014907470E+04  0.33251647074E+04  0.31005064612E+04 0.  0.
        1    1    3    3  502    0  0.68146794845E+03  0.51451600525E+03 -0.19883922921E+04  0.21639845637E+04  0.50400001928E-02 0.  1.
       -1    1    3    3    0  502 -0.68146794845E+03 -0.51451600525E+03  0.78690154513E+03  0.11611801437E+04  0.50400001928E-02 0. -1.
</event>
<event>
 5   0  0.4450600E-08  0.3100798E+04  0.7818609E-02  0.8215519E-01
       -1   -1    0    0    0  501  0.00000000000E+00  0.00000000000E+00  0.24002391063E+04  0.24002391063E+04  0.50400001928E-02 0. -1.
        1   -1    0    0  501    0  0.00000000000E+00  0.00000000000E+00 -0.10014574578E+04  0.10014574578E+04  0.50400001928E-02 0.  1.
    10030    2    1    2    0    0  0.00000000000E+00  0.00000000000E+00  0.13987816485E+04  0.34016965642E+04  0.31007981899E+04 0.  0.
        4    1    3    3  502    0 -0.99162839253E+02 -0.52855546897E+03 -0.89586066293E+03  0.10448789847E+04  0.12699999809E+01 0.  1.
       -4    1    3    3    0  502  0.99162839253E+02  0.52855546897E+03  0.22946423114E+04  0.23568175794E+04  0.12699999809E+01 0. -1.
</event>
<event>
 5   0  0.4450600E-08  0.3099866E+04  0.7818609E-02  0.8215775E-01
        1   -1    0    0  501    0  0.00000000000E+00  0.00000000000E+00  0.22608112513E+04  0.22608112513E+04  0.50400001928E-02 0.  1.
       -1   -1    0    0    0  501  0.00000000000E+00  0.00000000000E+00 -0.10625795579E+04  0.10625795579E+04  0.50400001928E-02 0. -1.
    10030    2    1    2    0    0  0.00000000000E+00  0.00000000000E+00  0.11982316934E+04  0.33233908092E+04  0.30998656873E+04 0.  0.
        4    1    3    3  502    0 -0.47894474317E+03 -0.72986236787E+03  0.19721689910E+04  0.21567427489E+04  0.12699999809E+01 0.  1.
       -4    1    3    3    0  502  0.47894474317E+03  0.72986236787E+03 -0.77393729757E+03  0.11666480603E+04  0.12699999809E+01 0. -1.
</event>
<event>
 5   0  0.1329777E-07  0.3083930E+04  0.7818609E-02  0.8220162E-01
       -2   -1    0    0    0  501  0.00000000000E+00  0.00000000000E+00  0.13106731205E+04  0.13106731205E+04  0.25500000920E-02 0. -1.
        2   -1    0    0  501    0  0.00000000000E+00  0.00000000000E+00 -0.18140727740E+04  0.18140727740E+04  0.25500000920E-02 0.  1.
    10030    2    1    2    0    0  0.00000000000E+00  0.00000000000E+00 -0.50339965348E+03  0.31247458945E+04  0.30839302350E+04 0.  0.
        1    1    3    3  502    0  0.64463724671E+02  0.78387344472E+03  0.10921428320E+04  0.13458785661E+04  0.50400001928E-02 0. -1.
       -1    1    3    3    0  502 -0.64463724671E+02 -0.78387344472E+03 -0.15955424855E+04  0.17788673284E+04  0.50400001928E-02 0.  1.
</event>
<event>
 5   0  0.1398931E-07  0.3099574E+04  0.7818609E-02  0.8215855E-01
        2   -1    0    0  501    0  0.00000000000E+00  0.00000000000E+00  0.22835425380E+04  0.22835425380E+04  0.25500000920E-02 0. -1.
       -2   -1    0    0    0  501  0.00000000000E+00  0.00000000000E+00 -0.10518044199E+04  0.10518044199E+04  0.25500000920E-02 0.  1.
    10030    2    1    2    0    0  0.00000000000E+00  0.00000000000E+00  0.12317381181E+04  0.33353469579E+04  0.30995742511E+04 0.  0.
        3    1    3    3  502    0  0.39060593557E+03 -0.54064130851E+03  0.21211983516E+04  0.22235890983E+04  0.10100000352E+00 0. -1.
       -3    1    3    3    0  502 -0.39060593557E+03  0.54064130851E+03 -0.88946023342E+03  0.11117578596E+04  0.10100000352E+00 0.  1.
</event>
<event>
 5   0  0.4305500E-08  0.3100319E+04  0.7818609E-02  0.8215650E-01
        3   -1    0    0  501    0  0.00000000000E+00  0.00000000000E+00  0.16380707691E+04  0.16380707722E+04  0.10100000352E+00 0. -1.
       -3   -1    0    0    0  501  0.00000000000E+00  0.00000000000E+00 -0.14669658753E+04  0.14669658787E+04  0.10100000352E+00 0.  1.
    10030    2    1    2    0    0  0.00000000000E+00  0.00000000000E+00  0.17110489383E+03  0.31050366509E+04  0.31003186480E+04 0.  0.
        2    1    3    3  502    0  0.13903122996E+04  0.63644969863E+03  0.34080775574E+03  0.15665843213E+04  0.25500000920E-02 0. -1.
       -2    1    3    3    0  502 -0.13903122996E+04 -0.63644969863E+03 -0.16970286191E+03  0.15384523297E+04  0.25500000920E-02 0.  1.
</event>
<event>
 5   0  0.1377237E-07  0.3098891E+04  0.7818609E-02  0.8216042E-01
       -2   -1    0    0    0  501  0.00000000000E+00  0.00000000000E+00  0.15121571296E+04  0.15121571296E+04  0.25500000920E-02 0.  1.
        2   -1    0    0  501    0  0.00000000000E+00  0.00000000000E+00 -0.15876533300E+04  0.15876533300E+04  0.25500000920E-02 0. -1.
    10030    2    1    2    0    0  0.00000000000E+00  0.00000000000E+00 -0.75496200375E+02  0.30998104596E+04  0.30988909644E+04 0.  0.
        2    1    3    3  502    0  0.20996464164E+03  0.14984114416E+04  0.29620617353E+03  0.15417717394E+04  0.25500000920E-02 0.  1.
       -2    1    3    3    0  502 -0.20996464164E+03 -0.14984114416E+04 -0.37170237391E+03  0.15580387202E+04  0.25500000920E-02 0. -1.
</event>
<event>
 5   0  0.1325713E-07  0.3101167E+04  0.7818609E-02  0.8215418E-01
        2   -1    0    0  501    0  0.00000000000E+00  0.00000000000E+00  0.18987178543E+04  0.18987178543E+04  0.25500000920E-02 0. -1.
       -2   -1    0    0    0  501  0.00000000000E+00  0.00000000000E+00 -0.12662804697E+04  0.12662804697E+04  0.25500000920E-02 0.  1.
    10030    2    1    2    0    0  0.00000000000E+00  0.00000000000E+00  0.63243738459E+03  0.31649983240E+04  0.31011670941E+04 0.  0.
        4    1    3    3  502    0  0.82893429746E+03 -0.83335127440E+02 -0.10184568220E+04  0.13158011720E+04  0.12699999809E+01 0.  1.
       -4    1    3    3    0  502 -0.82893429746E+03  0.83335127440E+02  0.16508942066E+04  0.18491971521E+04  0.12699999809E+01 0. -1.
</event>
<event>
 5   0  0.4450600E-08  0.3099572E+04  0.7818609E-02  0.8215855E-01
       -1   -1    0    0    0  501  0.00000000000E+00  0.00000000000E+00  0.16235894342E+04  0.16235894342E+04  0.50400001928E-02 0. -1.
        1   -1    0    0  501    0  0.00000000000E+00  0.00000000000E+00 -0.14793371143E+04  0.14793371143E+04  0.50400001928E-02 0.  1.
    10030    2    1    2    0    0  0.00000000000E+00  0.00000000000E+00  0.14425231991E+03  0.31029265486E+04  0.30995716533E+04 0.  0.
        4    1    3    3  502    0 -0.20118481124E+03 -0.15366235976E+04  0.59985107710E+02  0.15508988475E+04  0.12699999809E+01 0. -1.
       -4    1    3    3    0  502  0.20118481124E+03  0.15366235976E+04  0.84267212198E+02  0.15520277011E+04  0.12699999809E+01 0.  1.
</event>
<event>
 5   0  0.1318916E-07  0.3101361E+04  0.7818609E-02  0.8215365E-01
        2   -1    0    0  501    0  0.00000000000E+00  0.00000000000E+00  0.29821492287E+04  0.29821492287E+04  0.25500000920E-02 0.  1.
       -2   -1    0    0    0  501  0.00000000000E+00  0.00000000000E+00 -0.80633438856E+03  0.80633438857E+03  0.25500000920E-02 0. -1.
    10030    2    1    2    0    0  0.00000000000E+00  0.00000000000E+00  0.21758148402E+04  0.37884836173E+04  0.31013606530E+04 0.  0.
        5    1    3    3  502    0 -0.29841741262E+03 -0.11639177035E+04  0.22852996095E+04  0.25819321773E+04  0.46999998093E+01 0.  1.
       -5    1    3    3    0  502  0.29841741262E+03  0.11639177035E+04 -0.10948476938E+03  0.12065514400E+04  0.46999998093E+01 0. -1.
</event>
<event>
 5   0  0.1398931E-07  0.3100235E+04  0.7818609E-02  0.8215673E-01
       -2   -1    0    0    0  501  0.00000000000E+00  0.00000000000E+00  0.20186624765E+04  0.20186624765E+04  0.25500000920E-02 0.  1.
        2   -1    0    0  501    0  0.00000000000E+00  0.00000000000E+00 -0.11903247836E+04  0.11903247836E+04  0.25500000920E-02 0. -1.
    10030    2    1    2    0    0  0.00000000000E+00  0.00000000000E+00  0.82833769295E+03  0.32089872601E+04  0.31002348140E+04 0.  0.
        3    1    3    3  502    0 -0.83199695422E+03  0.55350563748E+03  0.16407597080E+04  0.19211142216E+04  0.10100000352E+00 0.  1.
       -3    1    3    3    0  502  0.83199695422E+03 -0.55350563748E+03 -0.81242201509E+03  0.12878730385E+04  0.10100000352E+00 0. -1.
</event>
<event>
 5   0  0.4450600E-08  0.3100412E+04  0.7818609E-02  0.8215625E-01
       -1   -1    0    0    0  501  0.00000000000E+00  0.00000000000E+00  0.14250123994E+04  0.14250123994E+04  0.50400001928E-02 0.  1.
        1   -1    0    0  501    0  0.00000000000E+00  0.00000000000E+00 -0.16863986126E+04  0.16863986126E+04  0.50400001928E-02 0. -1.
    10030    2    1    2    0    0  0.00000000000E+00  0.00000000000E+00 -0.26138621323E+03  0.31114110120E+04  0.31004121876E+04 0.  0.
        4    1    3    3  502    0  0.33337297712E+03  0.13665094860E+04  0.52327163357E+03  0.15007666483E+04  0.12699999809E+01 0.  1.
       -4    1    3    3    0  502 -0.33337297712E+03 -0.13665094860E+04 -0.78465784680E+03  0.16106443638E+04  0.12699999809E+01 0. -1.
</event>
<event>
 5   0  0.4436241E-08  0.3102940E+04  0.7818609E-02  0.8214932E-01
        1   -1    0    0  501    0  0.00000000000E+00  0.00000000000E+00  0.18684402155E+04  0.18684402155E+04  0.50400001928E-02 0. -1.
       -1   -1    0    0    0  501  0.00000000000E+00  0.00000000000E+00 -0.12882720002E+04  0.12882720002E+04  0.50400001928E-02 0.  1.
    10030    2    1    2    0    0  0.00000000000E+00  0.00000000000E+00  0.58016821533E+03  0.31567122157E+04  0.31029400340E+04 0.  0.
        3    1    3    3  502    0 -0.35369549017E+03  0.46304438309E+03 -0.11727311178E+04  0.13095071154E+04  0.10100000352E+00 0.  1.
       -3    1    3    3    0  502  0.35369549017E+03 -0.46304438309E+03  0.17528993331E+04  0.18472051003E+04  0.10100000352E+00 0. -1.
</event>
<event>
 5   0  0.1325713E-07  0.3106480E+04  0.7818609E-02  0.8213962E-01
       -2   -1    0    0    0  501  0.00000000000E+00  0.00000000000E+00  0.10470201810E+04  0.10470201810E+04  0.25500000920E-02 0. -1.
        2   -1    0    0  501    0  0.00000000000E+00  0.00000000000E+00 -0.23042108393E+04  0.23042108393E+04  0.25500000920E-02 0.  1.
    10030    2    1    2    0    0  0.00000000000E+00  0.00000000000E+00 -0.12571906583E+04  0.33512310202E+04  0.31064804843E+04 0.  0.
        4    1    3    3  502    0 -0.12195192667E+04  0.11236069769E+03 -0.16592189990E+04  0.20622467039E+04  0.12699999809E+01 0.  1.
       -4    1    3    3    0  502  0.12195192667E+04 -0.11236069769E+03  0.40202834067E+03  0.12889843164E+04  0.12699999809E+01 0. -1.
</event>
<event>
 5   0  0.1318916E-07  0.3100397E+04  0.7818609E-02  0.8215629E-01
       -2   -1    0    0    0  501  0.00000000000E+00  0.00000000000E+00  0.15846390612E+04  0.15846390612E+04  0.25500000920E-02 0.  1.
        2   -1    0    0  501    0  0.00000000000E+00  0.00000000000E+00 -0.15165064620E+04  0.15165064620E+04  0.25500000920E-02 0. -1.
    10030    2    1    2    0    0  0.00000000000E+00  0.00000000000E+00  0.68132599207E+02  0.31011455232E+04  0.31003969915E+04 0.  0.
        5    1    3    3  502    0  0.63657961206E+03 -0.31756269157E+03  0.14117200031E+04  0.15808400054E+04  0.46999998093E+01 0.  1.
       -5    1    3    3    0  502 -0.63657961206E+03  0.31756269157E+03 -0.13435874039E+04  0.15203055178E+04  0.46999998093E+01 0. -1.
</event>
<event>
 5   0  0.1377237E-07  0.3100071E+04  0.7818609E-02  0.8215718E-01
       -2   -1    0    0    0  501  0.00000000000E+00  0.00000000000E+00  0.96237232402E+03  0.96237232402E+03  0.25500000920E-02 0. -1.
        2   -1    0    0  501    0  0.00000000000E+00  0.00000000000E+00 -0.24965495772E+04  0.24965495772E+04  0.25500000920E-02 0.  1.
    10030    2    1    2    0    0  0.00000000000E+00  0.00000000000E+00 -0.15341772532E+04  0.34589219012E+04  0.31000711080E+04 0.  0.
        2    1    3    3  502    0 -0.42752055929E+03 -0.10960093880E+04 -0.18931729080E+04  0.22289266625E+04  0.25500000920E-02 0.  1.
       -2    1    3    3    0  502  0.42752055929E+03  0.10960093880E+04  0.35899565480E+03  0.12299952387E+04  0.25500000920E-02 0. -1.
</event>
<event>
 5   0  0.1377237E-07  0.3100827E+04  0.7818609E-02  0.8215511E-01
        2   -1    0    0  501    0  0.00000000000E+00  0.00000000000E+00  0.14956227736E+04  0.14956227736E+04  0.25500000920E-02 0.  1.
       -2   -1    0    0    0  501  0.00000000000E+00  0.00000000000E+00 -0.16072114143E+04  0.16072114143E+04  0.25500000920E-02 0. -1.
    10030    2    1    2    0    0  0.00000000000E+00  0.00000000000E+00 -0.11158864075E+03  0.31028341879E+04  0.31008269821E+04 0.  0.
        2    1    3    3  502    0  0.51159581843E+03  0.11333040655E+04  0.87091185361E+03  0.15180895372E+04  0.25500000920E-02 0.  1.
       -2    1    3    3    0  502 -0.51159581843E+03 -0.11333040655E+04 -0.98250049436E+03  0.15847446506E+04  0.25500000920E-02 0. -1.
</event>
<event>
 5   0  0.1325713E-07  0.3099164E+04  0.7818609E-02  0.8215967E-01
        2   -1    0    0  501    0  0.00000000000E+00  0.00000000000E+00  0.19800621373E+04  0.19800621373E+04  0.25500000920E-02 0. -1.
       -2   -1    0    0    0  501  0.00000000000E+00  0.00000000000E+00 -0.12126913685E+04  0.12126913685E+04  0.25500000920E-02 0.  1.
    10030    2    1    2    0    0  0.00000000000E+00  0.00000000000E+00  0.76737076881E+03  0.31927535059E+04  0.30991639279E+04 0.  0.
        4    1    3    3  502    0 -0.37080333023E+03 -0.14657879726E+04  0.73330555693E+03  0.16804071361E+04  0.12699999809E+01 0. -1.
       -4    1    3    3    0  502  0.37080333023E+03  0.14657879726E+04  0.34065211884E+02  0.15123463697E+04  0.12699999809E+01 0.  1.
</event>
<event>
 5   0  0.1318916E-07  0.3100140E+04  0.7818609E-02  0.8215700E-01
       -2   -1    0    0    0  501  0.00000000000E+00  0.00000000000E+00  0.17164423865E+04  0.17164423865E+04  0.25500000920E-02 0.  1.
        2   -1    0    0  501    0  0.00000000000E+00  0.00000000000E+00 -0.13998235828E+04  0.13998235828E+04  0.25500000920E-02 0. -1.
    10030    2    1    2    0    0  0.00000000000E+00  0.00000000000E+00  0.31661880370E+03  0.31162659692E+04  0.31001396943E+04 0.  0.
        5    1    3    3  502    0 -0.13701663679E+03 -0.84629876664E+03 -0.11398024761E+04  0.14262422430E+04  0.46999998093E+01 0. -1.
       -5    1    3    3    0  502  0.13701663679E+03  0.84629876664E+03  0.14564212798E+04  0.16900237263E+04  0.46999998093E+01 0.  1.
</event>
<event>
 5   0  0.1318916E-07  0.3101010E+04  0.7818609E-02  0.8215461E-01
        2   -1    0    0  501    0  0.00000000000E+00  0.00000000000E+00  0.92804192611E+03  0.92804192611E+03  0.25500000920E-02 0. -1.
       -2   -1    0    0    0  501  0.00000000000E+00  0.00000000000E+00 -0.25904711816E+04  0.25904711816E+04  0.25500000920E-02 0.  1.
    10030    2    1    2    0    0  0.00000000000E+00  0.00000000000E+00 -0.16624292555E+04  0.35185131077E+04  0.31010100709E+04 0.  0.
        5    1    3    3  502    0 -0.47014344880E+03 -0.13510279698E+04 -0.15098478188E+04  0.20798975849E+04  0.46999998093E+01 0.  1.
       -5    1    3    3    0  502  0.47014344880E+03  0.13510279698E+04 -0.15258143667E+03  0.14386155228E+04  0.46999998093E+01 0. -1.
</event>
<event>
 5   0  0.1398931E-07  0.3102560E+04  0.7818609E-02  0.8215036E-01
       -2   -1    0    0    0  501  0.00000000000E+00  0.00000000000E+00  0.99031990883E+03  0.99031990883E+03  0.25500000920E-02 0.  1.
        2   -1    0    0  501    0  0.00000000000E+00  0.00000000000E+00 -0.24299917937E+04  0.24299917937E+04  0.25500000920E-02 0. -1.
    10030    2    1    2    0    0  0.00000000000E+00  0.00000000000E+00 -0.14396718849E+04  0.34203117026E+04  0.31025597507E+04 0.  0.
        3    1    3    3  502    0 -0.14941907954E+04  0.80811171975E+02 -0.26887815275E+03  0.15203394522E+04  0.10100000352E+00 0.  1.
       -3    1    3    3    0  502  0.14941907954E+04 -0.80811171975E+02 -0.11707937322E+04  0.18999722504E+04  0.10100000352E+00 0. -1.
</event>
<event>
 5   0  0.4470354E-08  0.3114897E+04  0.7818609E-02  0.8211661E-01
        1   -1    0    0  501    0  0.00000000000E+00  0.00000000000E+00  0.15596098368E+04  0.15596098368E+04  0.50400001928E-02 0.  1.
       -1   -1    0    0    0  501  0.00000000000E+00  0.00000000000E+00 -0.15552900082E+04  0.15552900082E+04  0.50400001928E-02 0. -1.
    10030    2    1    2    0    0  0.00000000000E+00  0.00000000000E+00  0.43198285570E+01  0.31148998450E+04  0.31148968496E+04 0.  0.
        1    1    3    3  502    0  0.10474960192E+04 -0.61823761134E+03 -0.97055883300E+03  0.15561009295E+04  0.50400001928E-02 0. -1.
       -1    1    3    3    0  502 -0.10474960192E+04  0.61823761134E+03  0.97487866156E+03  0.15587989155E+04  0.50400001928E-02 0.  1.
</event>
<event>
 5   0  0.4470354E-08  0.3099360E+04  0.7818609E-02  0.8215914E-01
       -1   -1    0    0    0  501  0.00000000000E+00  0.00000000000E+00  0.23541989383E+04  0.23541989383E+04  0.50400001928E-02 0.  1.
        1   -1    0    0  501    0  0.00000000000E+00  0.00000000000E+00 -0.10200954540E+04  0.10200954540E+04  0.50400001928E-02 0. -1.
    10030    2    1    2    0    0  0.00000000000E+00  0.00000000000E+00  0.13341034843E+04  0.33742943923E+04  0.30993596982E+04 0.  0.
        1    1    3    3  502    0 -0.37303708012E+03 -0.60159331172E+03 -0.83379955685E+03  0.10937517437E+04  0.50400001928E-02 0. -1.
       -1    1    3    3    0  502  0.37303708012E+03  0.60159331172E+03  0.21679030412E+04  0.22805426485E+04  0.50400001928E-02 0.  1.
</event>
<event>
 5   0  0.1377237E-07  0.3096839E+04  0.7818609E-02  0.8216606E-01
        2   -1    0    0  501    0  0.00000000000E+00  0.00000000000E+00  0.25783645363E+04  0.25783645363E+04  0.25500000920E-02 0.  1.
       -2   -1    0    0    0  501  0.00000000000E+00  0.00000000000E+00 -0.92989292528E+03  0.92989292528E+03  0.25500000920E-02 0. -1.
    10030    2    1    2    0    0  0.00000000000E+00  0.00000000000E+00  0.16484716110E+04  0.35082574616E+04  0.30968389956E+04 0.  0.
        2    1    3    3  502    0 -0.10729249189E+04 -0.53118150923E+03  0.19366709345E+04  0.22768434259E+04  0.25500000920E-02 0.  1.
       -2    1    3    3    0  502  0.10729249189E+04  0.53118150923E+03 -0.28819932348E+03  0.12314140357E+04  0.25500000920E-02 0. -1.
</event>
<event>
 5   0  0.1325713E-07  0.3099231E+04  0.7818609E-02  0.8215949E-01
        2   -1    0    0  501    0  0.00000000000E+00  0.00000000000E+00  0.29216758198E+04  0.29216758198E+04  0.25500000920E-02 0. -1.
       -2   -1    0    0    0  501  0.00000000000E+00  0.00000000000E+00 -0.82189396083E+03  0.82189396083E+03  0.25500000920E-02 0.  1.
    10030    2    1    2    0    0  0.00000000000E+00  0.00000000000E+00  0.20997818590E+04  0.37435697806E+04  0.30992306863E+04 0.  0.
        4    1    3    3  502    0 -0.36628587723E+03 -0.88136346909E+03  0.25244921545E+04  0.26988940623E+04  0.12699999809E+01 0. -1.
       -4    1    3    3    0  502  0.36628587723E+03  0.88136346909E+03 -0.42471029550E+03  0.10446757184E+04  0.12699999809E+01 0.  1.
</event>
<event>
 5   0  0.4838602E-08  0.3098839E+04  0.7818609E-02  0.8216057E-01
       -1   -1    0    0    0  501  0.00000000000E+00  0.00000000000E+00  0.18918039814E+04  0.18918039814E+04  0.50400001928E-02 0.  1.
        1   -1    0    0  501    0  0.00000000000E+00  0.00000000000E+00 -0.12690004202E+04  0.12690004202E+04  0.50400001928E-02 0. -1.
    10030    2    1    2    0    0  0.00000000000E+00  0.00000000000E+00  0.62280356117E+03  0.31608044016E+04  0.30988385226E+04 0.  0.
        5    1    3    3  502    0  0.94210290088E+03  0.41829237562E+03 -0.86851486852E+03  0.13479119237E+04  0.46999998093E+01 0. -1.
       -5    1    3    3    0  502 -0.94210290088E+03 -0.41829237562E+03  0.14913184297E+04  0.18128924778E+04  0.46999998093E+01 0.  1.
</event>
<event>
 5   0  0.1329777E-07  0.3099451E+04  0.7818609E-02  0.8215889E-01
       -2   -1    0    0    0  501  0.00000000000E+00  0.00000000000E+00  0.13528677097E+04  0.13528677097E+04  0.25500000920E-02 0.  1.
        2   -1    0    0  501    0  0.00000000000E+00  0.00000000000E+00 -0.17752282731E+04  0.17752282731E+04  0.25500000920E-02 0. -1.
    10030    2    1    2    0    0  0.00000000000E+00  0.00000000000E+00 -0.42236056347E+03  0.31280959828E+04  0.30994509243E+04 0.  0.
        1    1    3    3  502    0  0.53365278077E+03  0.12203329124E+04 -0.10107466581E+04  0.16720067328E+04  0.50400001928E-02 0. -1.
       -1    1    3    3    0  502 -0.53365278077E+03 -0.12203329124E+04  0.58838609467E+03  0.14560892500E+04  0.50400001928E-02 0.  1.
</event>
<event>
 5   0  0.4838602E-08  0.3103731E+04  0.7818609E-02  0.8214715E-01
        1   -1    0    0  501    0  0.00000000000E+00  0.00000000000E+00  0.15937547501E+04  0.15937547501E+04  0.50400001928E-02 0.  1.
       -1   -1    0    0    0  501  0.00000000000E+00  0.00000000000E+00 -0.15110771637E+04  0.15110771637E+04  0.50400001928E-02 0. -1.
    10030    2    1    2    0    0  0.00000000000E+00  0.00000000000E+00  0.82677586360E+02  0.31048319138E+04  0.31037309209E+04 0.  0.
        5    1    3    3  502    0  0.97949887533E+03 -0.88255892146E+03 -0.77744774839E+03  0.15306127492E+04  0.46999998093E+01 0. -1.
       -5    1    3    3    0  502 -0.97949887533E+03  0.88255892146E+03  0.86012533475E+03  0.15742191646E+04  0.46999998093E+01 0.  1.
</event>
<event>
 5   0  0.4450600E-08  0.3098551E+04  0.7818609E-02  0.8216136E-01
       -1   -1    0    0    0  501  0.00000000000E+00  0.00000000000E+00  0.30679058170E+04  0.30679058170E+04  0.50400001928E-02 0. -1.
        1   -1    0    0  501    0  0.00000000000E+00  0.00000000000E+00 -0.78237554223E+03  0.78237554224E+03  0.50400001928E-02 0.  1.
    10030    2    1    2    0    0  0.00000000000E+00  0.00000000000E+00  0.22855302748E+04  0.38502813592E+04  0.30985509369E+04 0.  0.
        4    1    3    3  502    0 -0.14857471697E+04 -0.15303458121E+03  0.63134720362E+03  0.16215625611E+04  0.12699999809E+01 0. -1.
       -4    1    3    3    0  502  0.14857471697E+04  0.15303458121E+03  0.16541830711E+04  0.22287187981E+04  0.12699999809E+01 0.  1.
</event>
<event>
 5   0  0.4470354E-08  0.3098322E+04  0.7818609E-02  0.8216199E-01
       -1   -1    0    0    0  501  0.00000000000E+00  0.00000000000E+00  0.15086300115E+04  0.15086300115E+04  0.50400001928E-02 0.  1.
        1   -1    0    0  501    0  0.00000000000E+00  0.00000000000E+00 -0.15907811649E+04  0.15907811649E+04  0.50400001928E-02 0. -1.
    10030    2    1    2    0    0  0.00000000000E+00  0.00000000000E+00 -0.82151153410E+02  0.30994111764E+04  0.30983222602E+04 0.  0.
        1    1    3    3  502    0 -0.97138713135E+03 -0.11454706132E+04  0.33880032710E+03  0.15396368229E+04  0.50400001928E-02 0.  1.
       -1    1    3    3    0  502  0.97138713135E+03  0.11454706132E+04 -0.42095148051E+03  0.15597743535E+04  0.50400001928E-02 0. -1.
</event>
<event>
 5   0  0.4470354E-08  0.3103497E+04  0.7818609E-02  0.8214779E-01
       -1   -1    0    0    0  501  0.00000000000E+00  0.00000000000E+00  0.14970876075E+04  0.14970876075E+04  0.50400001928E-02 0. -1.
        1   -1    0    0  501    0  0.00000000000E+00  0.00000000000E+00 -0.16084049162E+04  0.16084049162E+04  0.50400001928E-02 0.  1.
    10030    2    1    2    0    0  0.00000000000E+00  0.00000000000E+00 -0.11131730876E+03  0.31054925237E+04  0.31034967813E+04 0.  0.
        1    1    3    3  502    0 -0.29622188439E+03  0.13338540113E+04  0.68034757430E+03  0.15263638984E+04  0.50400001928E-02 0. -1.
       -1    1    3    3    0  502  0.29622188439E+03 -0.13338540113E+04 -0.79166488306E+03  0.15791286254E+04  0.50400001928E-02 0.  1.
</event>
<event>
 5   0  0.4470354E-08  0.3101626E+04  0.7818609E-02  0.8215292E-01
        1   -1    0    0  501    0  0.00000000000E+00  0.00000000000E+00  0.15909677308E+04  0.15909677308E+04  0.50400001928E-02 0.  1.
       -1   -1    0    0    0  501  0.00000000000E+00  0.00000000000E+00 -0.15116715889E+04  0.15116715889E+04  0.50400001928E-02 0. -1.
    10030    2    1    2    0    0  0.00000000000E+00  0.00000000000E+00  0.79296141873E+02  0.31026393197E+04  0.31016258431E+04 0.  0.
        1    1    3    3  502    0  0.14931294475E+04  0.41731905999E+03  0.18207358209E+01  0.15503528824E+04  0.50400001928E-02 0.  1.
       -1    1    3    3    0  502 -0.14931294475E+04 -0.41731905999E+03  0.77475406052E+02  0.15522864373E+04  0.50400001928E-02 0. -1.
</event>
<event>
 5   0  0.4517409E-08  0.3101280E+04  0.7818609E-02  0.8215387E-01
        1   -1    0    0  501    0  0.00000000000E+00  0.00000000000E+00  0.16962682715E+04  0.16962682716E+04  0.50400001928E-02 0.  1.
       -1   -1    0    0    0  501  0.00000000000E+00  0.00000000000E+00 -0.14175142332E+04  0.14175142332E+04  0.50400001928E-02 0. -1.
    10030    2    1    2    0    0  0.00000000000E+00  0.00000000000E+00  0.27875403837E+03  0.31137825047E+04  0.31012800056E+04 0.  0.
        2    1    3    3  502    0  0.93367138617E+03  0.38852100021E+03  0.13196130866E+04  0.16625491040E+04  0.25500000920E-02 0.  1.
       -2    1    3    3    0  502 -0.93367138617E+03 -0.38852100021E+03 -0.10408590483E+04  0.14512334007E+04  0.25500000920E-02 0. -1.
</event>
<event>
 5   0  0.4838602E-08  0.3099318E+04  0.7818609E-02  0.8215925E-01
       -1   -1    0    0    0  501  0.00000000000E+00  0.00000000000E+00  0.15729580337E+04  0.15729580337E+04  0.50400001928E-02 0. -1.
        1   -1    0    0  501    0  0.00000000000E+00  0.00000000000E+00 -0.15267046232E+04  0.15267046232E+04  0.50400001928E-02 0.  1.
    10030    2    1    2    0    0  0.00000000000E+00  0.00000000000E+00  0.46253410506E+02  0.30996626570E+04  0.30993175393E+04 0.  0.
        5    1    3    3  502    0  0.86657310492E+03  0.12808692843E+04  0.12236044669E+03  0.15513121022E+04  0.46999998093E+01 0.  1.
       -5    1    3    3    0  502 -0.86657310492E+03 -0.12808692843E+04 -0.76107036183E+02  0.15483505548E+04  0.46999998093E+01 0. -1.
</event>
<event>
 5   0  0.1398931E-07  0.3100677E+04  0.7818609E-02  0.8215552E-01
        2   -1    0    0  501    0  0.00000000000E+00  0.00000000000E+00  0.18044296898E+04  0.18044296898E+04  0.25500000920E-02 0. -1.
       -2   -1    0    0    0  501  0.00000000000E+00  0.00000000000E+00 -0.13320272543E+04  0.13320272543E+04  0.25500000920E-02 0.  1.
    10030    2    1    2    0    0  0.00000000000E+00  0.00000000000E+00  0.47240243557E+03  0.31364569441E+04  0.31006770392E+04 0.  0.
        3    1    3    3  502    0 -0.76450321589E+03  0.11690419660E+04  0.91658852723E+03  0.16707060854E+04  0.10100000352E+00 0. -1.
       -3    1    3    3    0  502  0.76450321589E+03 -0.11690419660E+04 -0.44418609166E+03  0.14657508587E+04  0.10100000352E+00 0.  1.
</event>
<event>
 5   0  0.4436241E-08  0.3099322E+04  0.7818609E-02  0.8215924E-01
       -1   -1    0    0    0  501  0.00000000000E+00  0.00000000000E+00  0.79118289064E+03  0.79118289066E+03  0.50400001928E-02 0.  1.
        1   -1    0    0  501    0  0.00000000000E+00  0.00000000000E+00 -0.30352647191E+04  0.30352647192E+04  0.50400001928E-02 0. -1.
    10030    2    1    2    0    0  0.00000000000E+00  0.00000000000E+00 -0.22440818285E+04  0.38264476098E+04  0.30993221932E+04 0.  0.
        3    1    3    3  502    0  0.15075743088E+04 -0.39697473091E+01 -0.67920813393E+03  0.16535173887E+04  0.10100000352E+00 0.  1.
       -3    1    3    3    0  502 -0.15075743088E+04  0.39697473091E+01 -0.15648736946E+04  0.21729302211E+04  0.10100000352E+00 0. -1.
</event>
<event>
 5   0  0.4517409E-08  0.3100180E+04  0.7818609E-02  0.8215688E-01
       -1   -1    0    0    0  501  0.00000000000E+00  0.00000000000E+00  0.15710648729E+04  0.15710648729E+04  0.50400001928E-02 0. -1.
        1   -1    0    0  501    0  0.00000000000E+00  0.00000000000E+00 -0.15293954746E+04  0.15293954746E+04  0.50400001928E-02 0.  1.
    10030    2    1    2    0    0  0.00000000000E+00  0.00000000000E+00  0.41669398291E+02  0.31004603476E+04  0.31001803219E+04 0.  0.
        2    1    3    3  502    0  0.10606289561E+04 -0.93252573829E+03  0.65983017999E+03  0.15588181105E+04  0.25500000920E-02 0. -1.
       -2    1    3    3    0  502 -0.10606289561E+04  0.93252573829E+03 -0.61816078170E+03  0.15416422371E+04  0.25500000920E-02 0.  1.
</event>
<event>
 5   0  0.1318916E-07  0.3099185E+04  0.7818609E-02  0.8215962E-01
       -2   -1    0    0    0  501  0.00000000000E+00  0.00000000000E+00  0.89776665234E+03  0.89776665235E+03  0.25500000920E-02 0. -1.
        2   -1    0    0  501    0  0.00000000000E+00  0.00000000000E+00 -0.26746787928E+04  0.26746787928E+04  0.25500000920E-02 0.  1.
    10030    2    1    2    0    0  0.00000000000E+00  0.00000000000E+00 -0.17769121404E+04  0.35724454451E+04  0.30991853290E+04 0.  0.
        5    1    3    3  502    0 -0.12142382770E+04 -0.76165485308E+03 -0.20970715212E+03  0.14486172332E+04  0.46999998093E+01 0. -1.
       -5    1    3    3    0  502  0.12142382770E+04  0.76165485308E+03 -0.15672049883E+04  0.21238282119E+04  0.46999998093E+01 0.  1.
</event>
<event>
 5   0  0.1398931E-07  0.3099001E+04  0.7818609E-02  0.8216012E-01
        2   -1    0    0  501    0  0.00000000000E+00  0.00000000000E+00  0.20535160033E+04  0.20535160033E+04  0.25500000920E-02 0. -1.
       -2   -1    0    0    0  501  0.00000000000E+00  0.00000000000E+00 -0.11691909896E+04  0.11691909896E+04  0.25500000920E-02 0.  1.
    10030    2    1    2    0    0  0.00000000000E+00  0.00000000000E+00  0.88432501368E+03  0.32227069930E+04  0.30990013928E+04 0.  0.
        3    1    3    3  502    0  0.13754983802E+04  0.64498827250E+03  0.75920400596E+03  0.16983510823E+04  0.10100000352E+00 0.  1.
       -3    1    3    3    0  502 -0.13754983802E+04 -0.64498827250E+03  0.12512100771E+03  0.15243559107E+04  0.10100000352E+00 0. -1.
</event>
<event>
 5   0  0.4470354E-08  0.3100504E+04  0.7818609E-02  0.8215600E-01
        1   -1    0    0  501    0  0.00000000000E+00  0.00000000000E+00  0.22720291200E+04  0.22720291200E+04  0.50400001928E-02 0. -1.
       -1   -1    0    0    0  501  0.00000000000E+00  0.00000000000E+00 -0.10577685308E+04  0.10577685308E+04  0.50400001928E-02 0.  1.
    10030    2    1    2    0    0  0.00000000000E+00  0.00000000000E+00  0.12142605892E+04  0.33297976508E+04  0.31005037683E+04 0.  0.
        1    1    3    3  502    0 -0.13788943092E+04  0.18426028508E+03  0.13418116359E+04  0.19328113810E+04  0.50400001928E-02 0. -1.
       -1    1    3    3    0  502  0.13788943092E+04 -0.18426028508E+03 -0.12755104666E+03  0.13969862698E+04  0.50400001928E-02 0.  1.
</event>
<event>
 5   0  0.1325713E-07  0.3100157E+04  0.7818609E-02  0.8215695E-01
       -2   -1    0    0    0  501  0.00000000000E+00  0.00000000000E+00  0.11714530574E+04  0.11714530574E+04  0.25500000920E-02 0. -1.
        2   -1    0    0  501    0  0.00000000000E+00  0.00000000000E+00 -0.20510791667E+04  0.20510791667E+04  0.25500000920E-02 0.  1.
    10030    2    1    2    0    0  0.00000000000E+00  0.00000000000E+00 -0.87962610926E+03  0.32225322241E+04  0.31001567450E+04 0.  0.
        4    1    3    3  502    0 -0.11152096421E+04  0.64145094059E+03 -0.13385761076E+04  0.18565935107E+04  0.12699999809E+01 0.  1.
       -4    1    3    3    0  502  0.11152096421E+04 -0.64145094059E+03  0.45894999835E+03  0.13659387135E+04  0.12699999809E+01 0. -1.
</event>
<event>
 5   0  0.1329777E-07  0.3110670E+04  0.7818609E-02  0.8212816E-01
        2   -1    0    0  501    0  0.00000000000E+00  0.00000000000E+00  0.21080027871E+04  0.21080027871E+04  0.25500000920E-02 0. -1.
       -2   -1    0    0    0  501  0.00000000000E+00  0.00000000000E+00 -0.11475633924E+04  0.11475633924E+04  0.25500000920E-02 0.  1.
    10030    2    1    2    0    0  0.00000000000E+00  0.00000000000E+00  0.96043939466E+03  0.32555661795E+04  0.31106699147E+04 0.  0.
        1    1    3    3  502    0  0.33146426821E+03 -0.14974766385E+04  0.20980068517E+03  0.15480055463E+04  0.50400001928E-02 0. -1.
       -1    1    3    3    0  502 -0.33146426821E+03  0.14974766385E+04  0.75063870949E+03  0.17075606332E+04  0.50400001928E-02 0.  1.
</event>
<event>
 5   0  0.1398931E-07  0.3098501E+04  0.7818609E-02  0.8216149E-01
        2   -1    0    0  501    0  0.00000000000E+00  0.00000000000E+00  0.13729964964E+04  0.13729964964E+04  0.25500000920E-02 0.  1.
       -2   -1    0    0    0  501  0.00000000000E+00  0.00000000000E+00 -0.17481309569E+04  0.17481309569E+04  0.25500000920E-02 0. -1.
    10030    2    1    2    0    0  0.00000000000E+00  0.00000000000E+00 -0.37513446048E+03  0.31211274534E+04  0.30985013663E+04 0.  0.
        3    1    3    3  502    0  0.90498060123E+03  0.74941994623E+03 -0.12046719716E+04  0.16828115503E+04  0.10100000352E+00 0. -1.
       -3    1    3    3    0  502 -0.90498060123E+03 -0.74941994623E+03  0.82953751113E+03  0.14383159031E+04  0.10100000352E+00 0.  1.
</event>
<event>
 5   0  0.4838602E-08  0.3099820E+04  0.7818609E-02  0.8215787E-01
        1   -1    0    0  501    0  0.00000000000E+00  0.00000000000E+00  0.17067502305E+04  0.17067502305E+04  0.50400001928E-02 0.  1.
       -1   -1    0    0    0  501  0.00000000000E+00  0.00000000000E+00 -0.14074824481E+04  0.14074824481E+04  0.50400001928E-02 0. -1.
    10030    2    1    2    0    0  0.00000000000E+00  0.00000000000E+00  0.29926778236E+03  0.31142326786E+04  0.30998199901E+04 0.  0.
        5    1    3    3  502    0  0.78423489727E+03 -0.13345351107E+04  0.22867987228E+03  0.15647124048E+04  0.46999998093E+01 0. -1.
       -5    1    3    3    0  502 -0.78423489727E+03  0.13345351107E+04  0.70587910083E+02  0.15495202738E+04  0.46999998093E+01 0.  1.
</event>
<event>
 5   0  0.4517409E-08  0.3100950E+04  0.7818609E-02  0.8215477E-01
       -1   -1    0    0    0  501  0.00000000000E+00  0.00000000000E+00  0.12188171927E+04  0.12188171928E+04  0.50400001928E-02 0. -1.
        1   -1    0    0  501    0  0.00000000000E+00  0.00000000000E+00 -0.19723814751E+04  0.19723814751E+04  0.50400001928E-02 0.  1.
    10030    2    1    2    0    0  0.00000000000E+00  0.00000000000E+00 -0.75356428234E+03  0.31911986678E+04  0.31009498239E+04 0.  0.
        2    1    3    3  502    0  0.11389921371E+04  0.61492262425E+03 -0.12551686639E+04  0.18030200490E+04  0.25500000920E-02 0. -1.
       -2    1    3    3    0  502 -0.11389921371E+04 -0.61492262425E+03  0.50160438160E+03  0.13881786188E+04  0.25500000920E-02 0.  1.
</event>
<event>
 5   0  0.4436241E-08  0.3099840E+04  0.7818609E-02  0.8215782E-01
        1   -1    0    0  501    0  0.00000000000E+00  0.00000000000E+00  0.14169090154E+04  0.14169090154E+04  0.50400001928E-02 0. -1.
       -1   -1    0    0    0  501  0.00000000000E+00  0.00000000000E+00 -0.16954174075E+04  0.16954174075E+04  0.50400001928E-02 0.  1.
    10030    2    1    2    0    0  0.00000000000E+00  0.00000000000E+00 -0.27850839209E+03  0.31123264228E+04  0.30998401310E+04 0.  0.
        3    1    3    3  502    0  0.82106539910E+03  0.35971789283E+03 -0.14087470510E+04  0.16697645391E+04  0.10100000352E+00 0.  1.
       -3    1    3    3    0  502 -0.82106539910E+03 -0.35971789283E+03  0.11302386590E+04  0.14425618837E+04  0.10100000352E+00 0. -1.
</event>
<event>
 5   0  0.1377237E-07  0.3099830E+04  0.7818609E-02  0.8215785E-01
       -2   -1    0    0    0  501  0.00000000000E+00  0.00000000000E+00  0.14094904200E+04  0.14094904200E+04  0.25500000920E-02 0. -1.
        2   -1    0    0  501    0  0.00000000000E+00  0.00000000000E+00 -0.17043298765E+04  0.17043298765E+04  0.25500000920E-02 0.  1.
    10030    2    1    2    0    0  0.00000000000E+00  0.00000000000E+00 -0.29483945652E+03  0.31138202965E+04  0.30998300814E+04 0.  0.
        2    1    3    3  502    0  0.10416647136E+04  0.11357584250E+04 -0.31316154201E+03  0.15726038048E+04  0.25500000920E-02 0.  1.
       -2    1    3    3    0  502 -0.10416647136E+04 -0.11357584250E+04  0.18322085491E+02  0.15412164917E+04  0.25500000920E-02 0. -1.
</event>
<event>
 5   0  0.1325713E-07  0.3092234E+04  0.7818609E-02  0.8217872E-01
       -2   -1    0    0    0  501  0.00000000000E+00  0.00000000000E+00  0.13350285467E+04  0.13350285467E+04  0.25500000920E-02 0.  1.
        2   -1    0    0  501    0  0.00000000000E+00  0.00000000000E+00 -0.17905817228E+04  0.17905817228E+04  0.25500000920E-02 0. -1.
    10030    2    1    2    0    0  0.00000000000E+00  0.00000000000E+00 -0.45555317605E+03  0.31256102695E+04  0.30922339596E+04 0.  0.
        4    1    3    3  502    0 -0.66721851897E+03  0.13864731851E+04 -0.38102988791E+03  0.15851415816E+04  0.12699999809E+01 0.  1.
       -4    1    3    3    0  502  0.66721851897E+03 -0.13864731851E+04 -0.74523288141E+02  0.15404686880E+04  0.12699999809E+01 0. -1.
</event>
<event>
 5   0  0.4517409E-08  0.3100090E+04  0.7818609E-02  0.8215713E-01
       -1   -1    0    0    0  501  0.00000000000E+00  0.00000000000E+00  0.31742198267E+04  0.31742198267E+04  0.50400001928E-02 0.  1.
        1   -1    0    0  501    0  0.00000000000E+00  0.00000000000E+00 -0.75692281788E+03  0.75692281789E+03  0.50400001928E-02 0. -1.
    10030    2    1    2    0    0  0.00000000000E+00  0.00000000000E+00  0.24172970088E+04  0.39311426446E+04  0.31000899444E+04 0.  0.
        2    1    3    3  502    0 -0.33994713679E+03  0.14484226861E+04  0.65715000929E+03  0.16264496513E+04  0.25500000920E-02 0. -1.
       -2    1    3    3    0  502  0.33994713679E+03 -0.14484226861E+04  0.17601469995E+04  0.23046929933E+04  0.25500000920E-02 0.  1.
</event>
<event>
 5   0  0.4838602E-08  0.3095711E+04  0.7818609E-02  0.8216916E-01
        1   -1    0    0  501    0  0.00000000000E+00  0.00000000000E+00  0.23917827126E+04  0.23917827126E+04  0.50400001928E-02 0.  1.
       -1   -1    0    0    0  501  0.00000000000E+00  0.00000000000E+00 -0.10017035970E+04  0.10017035970E+04  0.50400001928E-02 0. -1.
    10030    2    1    2    0    0  0.00000000000E+00  0.00000000000E+00  0.13900791156E+04  0.33934863097E+04  0.30957114507E+04 0.  0.
        5    1    3    3  502    0  0.11906246740E+04  0.87836584459E+03  0.11934401403E+04  0.19009037666E+04  0.46999998093E+01 0. -1.
       -5    1    3    3    0  502 -0.11906246740E+04 -0.87836584459E+03  0.19663897532E+03  0.14925825431E+04  0.46999998093E+01 0.  1.
</event>
<event>
 5   0  0.4517409E-08  0.3099324E+04  0.7818609E-02  0.8215923E-01
       -1   -1    0    0    0  501  0.00000000000E+00  0.00000000000E+00  0.15085952209E+04  0.15085952209E+04  0.50400001928E-02 0.  1.
        1   -1    0    0  501    0  0.00000000000E+00  0.00000000000E+00 -0.15918471000E+04  0.15918471000E+04  0.50400001928E-02 0. -1.
    10030    2    1    2    0    0  0.00000000000E+00  0.00000000000E+00 -0.83251879118E+02  0.31004423209E+04  0.30993243957E+04 0.  0.
        2    1    3    3  502    0 -0.54849307375E+03 -0.11758811581E+04 -0.88922830630E+03  0.15729806517E+04  0.25500000920E-02 0. -1.
       -2    1    3    3    0  502  0.54849307375E+03  0.11758811581E+04  0.80597642718E+03  0.15274616692E+04  0.25500000920E-02 0.  1.
</event>
<event>
 5   0  0.1377237E-07  0.3100104E+04  0.7818609E-02  0.8215709E-01
        2   -1    0    0  501    0  0.00000000000E+00  0.00000000000E+00  0.22001132217E+04  0.22001132217E+04  0.25500000920E-02 0. -1.
       -2   -1    0    0    0  501  0.00000000000E+00  0.00000000000E+00 -0.10920624377E+04  0.10920624377E+04  0.25500000920E-02 0.  1.
    10030    2    1    2    0    0  0.00000000000E+00  0.00000000000E+00  0.11080507840E+04  0.32921756594E+04  0.31001038744E+04 0.  0.
        2    1    3    3  502    0  0.71475994495E+03 -0.11743470098E+04 -0.20635948294E+03  0.13901643481E+04  0.25500000920E-02 0.  1.
       -2    1    3    3    0  502 -0.71475994495E+03  0.11743470098E+04  0.13144102670E+04  0.19020113113E+04  0.25500000920E-02 0. -1.
</event>
<event>
 5   0  0.1398931E-07  0.3097953E+04  0.7818609E-02  0.8216300E-01
       -2   -1    0    0    0  501  0.00000000000E+00  0.00000000000E+00  0.92573260320E+03  0.92573260321E+03  0.25500000920E-02 0. -1.
        2   -1    0    0  501    0  0.00000000000E+00  0.00000000000E+00 -0.25918150063E+04  0.25918150063E+04  0.25500000920E-02 0.  1.
    10030    2    1    2    0    0  0.00000000000E+00  0.00000000000E+00 -0.16660824031E+04  0.35175476095E+04  0.30979526483E+04 0.  0.
        3    1    3    3  502    0  0.74970119038E+03  0.78547766478E+03 -0.20873331150E+04  0.23528677353E+04  0.10100000352E+00 0.  1.
       -3    1    3    3    0  502 -0.74970119038E+03 -0.78547766478E+03  0.42125071194E+03  0.11646798742E+04  0.10100000352E+00 0. -1.
</event>
<event>
 5   0  0.1377237E-07  0.3099691E+04  0.7818609E-02  0.8215823E-01
       -2   -1    0    0    0  501  0.00000000000E+00  0.00000000000E+00  0.12291536979E+04  0.12291536979E+04  0.25500000920E-02 0. -1.
        2   -1    0    0  501    0  0.00000000000E+00  0.00000000000E+00 -0.19542077940E+04  0.19542077940E+04  0.25500000920E-02 0.  1.
    10030    2    1    2    0    0  0.00000000000E+00  0.00000000000E+00 -0.72505409606E+03  0.31833614919E+04  0.30996914276E+04 0.  0.
        2    1    3    3  502    0 -0.74355659612E+02 -0.15153371369E+04 -0.37363580684E+02  0.15176203213E+04  0.25500000920E-02 0. -1.
       -2    1    3    3    0  502  0.74355659612E+02  0.15153371369E+04 -0.68769051538E+03  0.16657411706E+04  0.25500000920E-02 0.  1.
</event>
<event>
 5   0  0.4436241E-08  0.3101173E+04  0.7818609E-02  0.8215416E-01
        1   -1    0    0  501    0  0.00000000000E+00  0.00000000000E+00  0.10096749957E+04  0.10096749957E+04  0.50400001928E-02 0.  1.
       -1   -1    0    0    0  501  0.00000000000E+00  0.00000000000E+00 -0.23812803848E+04  0.23812803848E+04  0.50400001928E-02 0. -1.
    10030    2    1    2    0    0  0.00000000000E+00  0.00000000000E+00 -0.13716053891E+04  0.33909553805E+04  0.31011734955E+04 0.  0.
        3    1    3    3  502    0  0.44816829276E+03 -0.72298138806E+03  0.73178249318E+03  0.11220795576E+04  0.10100000352E+00 0.  1.
       -3    1    3    3    0  502 -0.44816829276E+03  0.72298138806E+03 -0.21033878823E+04  0.22688758229E+04  0.10100000352E+00 0. -1.
</event>
<event>
 5   0  0.4838602E-08  0.3100751E+04  0.7818609E-02  0.8215532E-01
        1   -1    0    0  501    0  0.00000000000E+00  0.00000000000E+00  0.16300547386E+04  0.16300547386E+04  0.50400001928E-02 0. -1.
       -1   -1    0    0    0  501  0.00000000000E+00  0.00000000000E+00 -0.14745906195E+04  0.14745906195E+04  0.50400001928E-02 0.  1.
    10030    2    1    2    0    0  0.00000000000E+00  0.00000000000E+00  0.15546411910E+03  0.31046453581E+04  0.31007505071E+04 0.  0.
        5    1    3    3  502    0  0.59010978612E+02 -0.13906465070E+04  0.76142307947E+03  0.15865582873E+04  0.46999998093E+01 0. -1.
       -5    1    3    3    0  502 -0.59010978612E+02  0.13906465070E+04 -0.60595896037E+03  0.15180870708E+04  0.46999998093E+01 0.  1.
</event>
<event>
 5   0  0.1318916E-07  0.3100015E+04  0.7818609E-02  0.8215734E-01
        2   -1    0    0  501    0  0.00000000000E+00  0.00000000000E+00  0.16175231265E+04  0.16175231265E+04  0.25500000920E-02 0.  1.
       -2   -1    0    0    0  501  0.00000000000E+00  0.00000000000E+00 -0.14853100882E+04  0.14853100882E+04  0.25500000920E-02 0. -1.
    10030    2    1    2    0    0  0.00000000000E+00  0.00000000000E+00  0.13221303828E+03  0.31028332148E+04  0.31000151082E+04 0.  0.
        5    1    3    3  502    0  0.10406855512E+04 -0.57477143449E+03 -0.92933903776E+03  0.15090002503E+04  0.46999998093E+01 0. -1.
       -5    1    3    3    0  502 -0.10406855512E+04  0.57477143449E+03  0.10615520760E+04  0.15938329644E+04  0.46999998093E+01 0.  1.
</event>
<event>
 5   0  0.4838602E-08  0.3102806E+04  0.7818609E-02  0.8214968E-01
       -1   -1    0    0    0  501  0.00000000000E+00  0.00000000000E+00  0.12629227841E+04  0.12629227841E+04  0.50400001928E-02 0. -1.
        1   -1    0    0  501    0  0.00000000000E+00  0.00000000000E+00 -0.19057781616E+04  0.19057781616E+04  0.50400001928E-02 0.  1.
    10030    2    1    2    0    0  0.00000000000E+00  0.00000000000E+00 -0.64285537747E+03  0.31687009457E+04  0.31028056089E+04 0.  0.
        5    1    3    3  502    0  0.28674883035E+03 -0.58634586546E+03 -0.17587270783E+04  0.18759449330E+04  0.46999998093E+01 0.  1.
       -5    1    3    3    0  502 -0.28674883035E+03  0.58634586546E+03  0.11158717008E+04  0.12927560127E+04  0.46999998093E+01 0. -1.
</event>
<event>
 5   0  0.4517409E-08  0.3098519E+04  0.7818609E-02  0.8216144E-01
        1   -1    0    0  501    0  0.00000000000E+00  0.00000000000E+00  0.14917756886E+04  0.14917756886E+04  0.50400001928E-02 0.  1.
       -1   -1    0    0    0  501  0.00000000000E+00  0.00000000000E+00 -0.16089583721E+04  0.16089583721E+04  0.50400001928E-02 0. -1.
    10030    2    1    2    0    0  0.00000000000E+00  0.00000000000E+00 -0.11718268351E+03  0.31007340607E+04  0.30985189904E+04 0.  0.
        2    1    3    3  502    0  0.35631725745E+03  0.42352762869E+02  0.14496188653E+04  0.14933688757E+04  0.25500000920E-02 0.  1.
       -2    1    3    3    0  502 -0.35631725745E+03 -0.42352762869E+02 -0.15668015488E+04  0.16073651849E+04  0.25500000920E-02 0. -1.
</event>
<event>
 5   0  0.1318916E-07  0.3099688E+04  0.7818609E-02  0.8215824E-01
        2   -1    0    0  501    0  0.00000000000E+00  0.00000000000E+00  0.21402471998E+04  0.21402471998E+04  0.25500000920E-02 0. -1.
       -2   -1    0    0    0  501  0.00000000000E+00  0.00000000000E+00 -0.11223077324E+04  0.11223077324E+04  0.25500000920E-02 0.  1.
    10030    2    1    2    0    0  0.00000000000E+00  0.00000000000E+00  0.10179394673E+04  0.32625549322E+04  0.30996877144E+04 0.  0.
        5    1    3    3  502    0 -0.13225720439E+04  0.78270448561E+03  0.71992722931E+03  0.16970976485E+04  0.46999998093E+01 0.  1.
       -5    1    3    3    0  502  0.13225720439E+04 -0.78270448561E+03  0.29801223804E+03  0.15654572837E+04  0.46999998093E+01 0. -1.
</event>
<event>
 5   0  0.4470354E-08  0.3099240E+04  0.7818609E-02  0.8215946E-01
        1   -1    0    0  501    0  0.00000000000E+00  0.00000000000E+00  0.10672269951E+04  0.10672269952E+04  0.50400001928E-02 0.  1.
       -1   -1    0    0    0  501  0.00000000000E+00  0.00000000000E+00 -0.22500582128E+04  0.22500582128E+04  0.50400001928E-02 0. -1.
    10030    2    1    2    0    0  0.00000000000E+00  0.00000000000E+00 -0.11828312177E+04  0.33172852080E+04  0.30992404653E+04 0.  0.
        1    1    3    3  502    0  0.24264993521E+03  0.45444917741E+03  0.97288426832E+03  0.11008664067E+04  0.50400001928E-02 0.  1.
       -1    1    3    3    0  502 -0.24264993521E+03 -0.45444917741E+03 -0.21557154860E+04  0.22164188012E+04  0.50400001928E-02 0. -1.
</event>
<event>
 5   0  0.1398931E-07  0.3100448E+04  0.7818609E-02  0.8215615E-01
       -2   -1    0    0    0  501  0.00000000000E+00  0.00000000000E+00  0.96845570925E+03  0.96845570925E+03  0.25500000920E-02 0. -1.
        2   -1    0    0  501    0  0.00000000000E+00  0.00000000000E+00 -0.24814712778E+04  0.24814712778E+04  0.25500000920E-02 0.  1.
    10030    2    1    2    0    0  0.00000000000E+00  0.00000000000E+00 -0.15130155686E+04  0.34499269871E+04  0.31004483717E+04 0.  0.
        3    1    3    3  502    0 -0.80794226059E+03 -0.13229344639E+04 -0.77474836572E+03  0.17329631654E+04  0.10100000352E+00 0. -1.
       -3    1    3    3    0  502  0.80794226059E+03  0.13229344639E+04 -0.73826720286E+03  0.17169638217E+04  0.10100000352E+00 0.  1.
</event>
<event>
 5   0  0.1329777E-07  0.3102827E+04  0.7818609E-02  0.8214963E-01
        2   -1    0    0  501    0  0.00000000000E+00  0.00000000000E+00  0.28821130540E+04  0.28821130540E+04  0.25500000920E-02 0. -1.
       -2   -1    0    0    0  501  0.00000000000E+00  0.00000000000E+00 -0.83511061875E+03  0.83511061875E+03  0.25500000920E-02 0.  1.
    10030    2    1    2    0    0  0.00000000000E+00  0.00000000000E+00  0.20470024352E+04  0.37172236727E+04  0.31028265925E+04 0.  0.
        1    1    3    3  502    0 -0.18369096694E+03  0.15474699141E+03  0.28597040398E+04  0.28697728478E+04  0.50400001928E-02 0. -1.
       -1    1    3    3    0  502  0.18369096694E+03 -0.15474699141E+03 -0.81270160454E+03  0.84745082496E+03  0.50400001928E-02 0.  1.
</event>
<event>
 5   0  0.1398931E-07  0.3098797E+04  0.7818609E-02  0.8216068E-01
       -2   -1    0    0    0  501  0.00000000000E+00  0.00000000000E+00  0.87482573036E+03  0.87482573036E+03  0.25500000920E-02 0. -1.
        2   -1    0    0  501    0  0.00000000000E+00  0.00000000000E+00 -0.27441299809E+04  0.27441299809E+04  0.25500000920E-02 0.  1.
    10030    2    1    2    0    0  0.00000000000E+00  0.00000000000E+00 -0.18693042505E+04  0.36189557112E+04  0.30987968728E+04 0.  0.
        3    1    3    3  502    0  0.11951619573E+04  0.15586301825E+02  0.21672852893E+03  0.12147535974E+04  0.10100000352E+00 0. -1.
       -3    1    3    3    0  502 -0.11951619573E+04 -0.15586301825E+02 -0.20860327794E+04  0.24042021138E+04  0.10100000352E+00 0.  1.
</event>
<event>
 5   0  0.4517409E-08  0.3099952E+04  0.7818609E-02  0.8215751E-01
        1   -1    0    0  501    0  0.00000000000E+00  0.00000000000E+00  0.21060401640E+04  0.21060401640E+04  0.50400001928E-02 0.  1.
       -1   -1    0    0    0  501  0.00000000000E+00  0.00000000000E+00 -0.11407309968E+04  0.11407309968E+04  0.50400001928E-02 0. -1.
    10030    2    1    2    0    0  0.00000000000E+00  0.00000000000E+00  0.96530916721E+03  0.32467711609E+04  0.30999518033E+04 0.  0.
        2    1    3    3  502    0  0.97652430910E+03  0.32368278669E+03  0.16968966154E+04  0.19843962296E+04  0.25500000920E-02 0.  1.
       -2    1    3    3    0  502 -0.97652430910E+03 -0.32368278669E+03 -0.73158744822E+03  0.12623749313E+04  0.25500000920E-02 0. -1.
</event>
<event>
 5   0  0.1325713E-07  0.3100031E+04  0.7818609E-02  0.8215729E-01
       -2   -1    0    0    0  501  0.00000000000E+00  0.00000000000E+00  0.12360802927E+04  0.12360802927E+04  0.25500000920E-02 0. -1.
        2   -1    0    0  501    0  0.00000000000E+00  0.00000000000E+00 -0.19436833064E+04  0.19436833064E+04  0.25500000920E-02 0.  1.
    10030    2    1    2    0    0  0.00000000000E+00  0.00000000000E+00 -0.70760301374E+03  0.31797635991E+04  0.31000313742E+04 0.  0.
        4    1    3    3  502    0 -0.10110370774E+04 -0.78804406742E+03  0.54001052166E+03  0.13909789360E+04  0.12699999809E+01 0. -1.
       -4    1    3    3    0  502  0.10110370774E+04  0.78804406742E+03 -0.12476135354E+04  0.17887846630E+04  0.12699999809E+01 0.  1.
</event>
<event>
 5   0  0.4838602E-08  0.3101161E+04  0.7818609E-02  0.8215419E-01
        1   -1    0    0  501    0  0.00000000000E+00  0.00000000000E+00  0.11445225747E+04  0.11445225747E+04  0.50400001928E-02 0. -1.
       -1   -1    0    0    0  501  0.00000000000E+00  0.00000000000E+00 -0.21007017414E+04  0.21007017414E+04  0.50400001928E-02 0.  1.
    10030    2    1    2    0    0  0.00000000000E+00  0.00000000000E+00 -0.95617916667E+03  0.32452243161E+04  0.31011614378E+04 0.  0.
        5    1    3    3  502    0  0.21829664724E+03 -0.54240916822E+03 -0.19809153151E+04  0.20654076372E+04  0.46999998093E+01 0.  1.
       -5    1    3    3    0  502 -0.21829664724E+03  0.54240916822E+03  0.10247361485E+04  0.11798166790E+04  0.46999998093E+01 0. -1.
</event>
<event>
 5   0  0.4517409E-08  0.3099874E+04  0.7818609E-02  0.8215773E-01
        1   -1    0    0  501    0  0.00000000000E+00  0.00000000000E+00  0.13313514238E+04  0.13313514239E+04  0.50400001928E-02 0.  1.
       -1   -1    0    0    0  501  0.00000000000E+00  0.00000000000E+00 -0.18044101148E+04  0.18044101148E+04  0.50400001928E-02 0. -1.
    10030    2    1    2    0    0  0.00000000000E+00  0.00000000000E+00 -0.47305869096E+03  0.31357615387E+04  0.30998735300E+04 0.  0.
        2    1    3    3  502    0 -0.14465151665E+04 -0.11879298577E+03  0.31362926669E+03  0.14848842437E+04  0.25500000920E-02 0.  1.
       -2    1    3    3    0  502  0.14465151665E+04  0.11879298577E+03 -0.78668795765E+03  0.16508772950E+04  0.25500000920E-02 0. -1.
</event>
<event>
 5   0  0.4517409E-08  0.3100492E+04  0.7818609E-02  0.8215603E-01
       -1   -1    0    0    0  501  0.00000000000E+00  0.00000000000E+00  0.89617364634E+03  0.89617364635E+03  0.50400001928E-02 0. -1.
        1   -1    0    0  501    0  0.00000000000E+00  0.00000000000E+00 -0.26816935091E+04  0.26816935091E+04  0.50400001928E-02 0.  1.
    10030    2    1    2    0    0  0.00000000000E+00  0.00000000000E+00 -0.17855198628E+04  0.35778671555E+04  0.31004922515E+04 0.  0.
        2    1    3    3  502    0 -0.14089079134E+04 -0.56922343153E+03 -0.53853472530E+03  0.16121589481E+04  0.25500000920E-02 0. -1.
       -2    1    3    3    0  502  0.14089079134E+04  0.56922343153E+03 -0.12469851375E+04  0.19657082074E+04  0.25500000920E-02 0.  1.
</event>
<event>
 5   0  0.4436241E-08  0.3096822E+04  0.7818609E-02  0.8216610E-01
        1   -1    0    0  501    0  0.00000000000E+00  0.00000000000E+00  0.11903817021E+04  0.11903817022E+04  0.50400001928E-02 0.  1.
       -1   -1    0    0    0  501  0.00000000000E+00  0.00000000000E+00 -0.20141248301E+04  0.20141248301E+04  0.50400001928E-02 0. -1.
    10030    2    1    2    0    0  0.00000000000E+00  0.00000000000E+00 -0.82374312800E+03  0.32045065323E+04  0.30968224642E+04 0.  0.
        3    1    3    3  502    0  0.26342739654E+03 -0.12539064235E+04 -0.13115298949E+04  0.18335173813E+04  0.10100000352E+00 0. -1.
       -3    1    3    3    0  502 -0.26342739654E+03  0.12539064235E+04  0.48778676686E+03  0.13709891510E+04  0.10100000352E+00 0.  1.
</event>
<event>
 5   0  0.4838602E-08  0.3099413E+04  0.7818609E-02  0.8215899E-01
        1   -1    0    0  501    0  0.00000000000E+00  0.00000000000E+00  0.16408450852E+04  0.16408450853E+04  0.50400001928E-02 0.  1.
       -1   -1    0    0    0  501  0.00000000000E+00  0.00000000000E+00 -0.14636303965E+04  0.14636303965E+04  0.50400001928E-02 0. -1.
    10030    2    1    2    0    0  0.00000000000E+00  0.00000000000E+00  0.17721468877E+03  0.31044754817E+04  0.30994133269E+04 0.  0.
        5    1    3    3  502    0 -0.75224528981E+02  0.66962812000E+03 -0.13092034017E+04  0.14724456479E+04  0.46999998093E+01 0. -1.
       -5    1    3    3    0  502  0.75224528981E+02 -0.66962812000E+03  0.14864180905E+04  0.16320298339E+04  0.46999998093E+01 0.  1.
</event>
<event>
 5   0  0.1318916E-07  0.3099552E+04  0.7818609E-02  0.8215861E-01
        2   -1    0    0  501    0  0.00000000000E+00  0.00000000000E+00  0.16391733386E+04  0.16391733386E+04  0.25500000920E-02 0. -1.
       -2   -1    0    0    0  501  0.00000000000E+00  0.00000000000E+00 -0.14652543294E+04  0.14652543294E+04  0.25500000920E-02 0.  1.
    10030    2    1    2    0    0  0.00000000000E+00  0.00000000000E+00  0.17391900917E+03  0.31044276679E+04  0.30995521166E+04 0.  0.
        5    1    3    3  502    0  0.16603838935E+03  0.44567336002E+03  0.15642678604E+04  0.16349769172E+04  0.46999998093E+01 0. -1.
       -5    1    3    3    0  502 -0.16603838935E+03 -0.44567336002E+03 -0.13903488513E+04  0.14694507507E+04  0.46999998093E+01 0.  1.
</event>
<event>
 5   0  0.4470354E-08  0.3101305E+04  0.7818609E-02  0.8215380E-01
       -1   -1    0    0    0  501  0.00000000000E+00  0.00000000000E+00  0.20458088052E+04  0.20458088052E+04  0.50400001928E-02 0. -1.
        1   -1    0    0  501    0  0.00000000000E+00  0.00000000000E+00 -0.11753408064E+04  0.11753408064E+04  0.50400001928E-02 0.  1.
    10030    2    1    2    0    0  0.00000000000E+00  0.00000000000E+00  0.87046799883E+03  0.32211496116E+04  0.31013046099E+04 0.  0.
        1    1    3    3  502    0 -0.85476813003E+02  0.63155633593E+03  0.19034926304E+04  0.20073499657E+04  0.50400001928E-02 0. -1.
       -1    1    3    3    0  502  0.85476813003E+02 -0.63155633593E+03 -0.10330246315E+04  0.12137996459E+04  0.50400001928E-02 0.  1.
</event>
<event>
 5   0  0.4838602E-08  0.3095253E+04  0.7818609E-02  0.8217042E-01
       -1   -1    0    0    0  501  0.00000000000E+00  0.00000000000E+00  0.14830588711E+04  0.14830588711E+04  0.50400001928E-02 0. -1.
        1   -1    0    0  501    0  0.00000000000E+00  0.00000000000E+00 -0.16150049306E+04  0.16150049306E+04  0.50400001928E-02 0.  1.
    10030    2    1    2    0    0  0.00000000000E+00  0.00000000000E+00 -0.13194605952E+03  0.30980638016E+04  0.30952527452E+04 0.  0.
        5    1    3    3  502    0  0.16727278053E+03  0.66860874216E+03  0.13209648449E+04  0.14899624306E+04  0.46999998093E+01 0. -1.
       -5    1    3    3    0  502 -0.16727278053E+03 -0.66860874216E+03 -0.14529109044E+04  0.16081013710E+04  0.46999998093E+01 0.  1.
</event>
<event>
 5   0  0.4450600E-08  0.3101487E+04  0.7818609E-02  0.8215330E-01
       -1   -1    0    0    0  501  0.00000000000E+00  0.00000000000E+00  0.12060130879E+04  0.12060130879E+04  0.50400001928E-02 0.  1.
        1   -1    0    0  501    0  0.00000000000E+00  0.00000000000E+00 -0.19940132262E+04  0.19940132262E+04  0.50400001928E-02 0. -1.
    10030    2    1    2    0    0  0.00000000000E+00  0.00000000000E+00 -0.78800013826E+03  0.32000263141E+04  0.31014874162E+04 0.  0.
        4    1    3    3  502    0 -0.87800335013E+03  0.41972103288E+01 -0.17128514407E+04  0.19247776937E+04  0.12699999809E+01 0. -1.
       -4    1    3    3    0  502  0.87800335013E+03 -0.41972103288E+01  0.92485130239E+03  0.12752486204E+04  0.12699999809E+01 0.  1.
</event>
<event>
 5   0  0.4517409E-08  0.3096379E+04  0.7818609E-02  0.8216732E-01
        1   -1    0    0  501    0  0.00000000000E+00  0.00000000000E+00  0.94957056081E+03  0.94957056082E+03  0.50400001928E-02 0.  1.
       -1   -1    0    0    0  501  0.00000000000E+00  0.00000000000E+00 -0.25241836926E+04  0.25241836926E+04  0.50400001928E-02 0. -1.
    10030    2    1    2    0    0  0.00000000000E+00  0.00000000000E+00 -0.15746131317E+04  0.34737542534E+04  0.30963788687E+04 0.  0.
        2    1    3    3  502    0 -0.38551180823E+03  0.98219785246E+03  0.48371476284E+03  0.11607376738E+04  0.25500000920E-02 0.  1.
       -2    1    3    3    0  502  0.38551180823E+03 -0.98219785246E+03 -0.20583278946E+04  0.23130165795E+04  0.25500000920E-02 0. -1.
</event>
<event>
 5   0  0.1377237E-07  0.3100162E+04  0.7818609E-02  0.8215694E-01
        2   -1    0    0  501    0  0.00000000000E+00  0.00000000000E+00  0.17960461876E+04  0.17960461876E+04  0.25500000920E-02 0.  1.
       -2   -1    0    0    0  501  0.00000000000E+00  0.00000000000E+00 -0.13378000622E+04  0.13378000622E+04  0.25500000920E-02 0. -1.
    10030    2    1    2    0    0  0.00000000000E+00  0.00000000000E+00  0.45824612537E+03  0.31338462498E+04  0.31001617386E+04 0.  0.
        2    1    3    3  502    0 -0.30667681938E+03  0.10114184467E+03  0.17616664806E+04  0.17910190209E+04  0.25500000920E-02 0.  1.
       -2    1    3    3    0  502  0.30667681938E+03 -0.10114184467E+03 -0.13034203552E+04  0.13428272289E+04  0.25500000920E-02 0. -1.
</event>
<event>
 5   0  0.1398931E-07  0.3099782E+04  0.7818609E-02  0.8215798E-01
        2   -1    0    0  501    0  0.00000000000E+00  0.00000000000E+00  0.20676760038E+04  0.20676760038E+04  0.25500000920E-02 0.  1.
       -2   -1    0    0    0  501  0.00000000000E+00  0.00000000000E+00 -0.11617692399E+04  0.11617692399E+04  0.25500000920E-02 0. -1.
    10030    2    1    2    0    0  0.00000000000E+00  0.00000000000E+00  0.90590676395E+03  0.32294452437E+04  0.30997821725E+04 0.  0.
        3    1    3    3  502    0 -0.40734588000E+03  0.60907482135E+03  0.18758271964E+04  0.20138595991E+04  0.10100000352E+00 0.  1.
       -3    1    3    3    0  502  0.40734588000E+03 -0.60907482135E+03 -0.96992043242E+03  0.12155856446E+04  0.10100000352E+00 0. -1.
</event>
<event>
 5   0  0.1325713E-07  0.3102084E+04  0.7818609E-02  0.8215166E-01
        2   -1    0    0  501    0  0.00000000000E+00  0.00000000000E+00  0.24010516789E+04  0.24010516790E+04  0.25500000920E-02 0.  1.
       -2   -1    0    0    0  501  0.00000000000E+00  0.00000000000E+00 -0.10019490596E+04  0.10019490596E+04  0.25500000920E-02 0. -1.
    10030    2    1    2    0    0  0.00000000000E+00  0.00000000000E+00  0.13991026194E+04  0.34030007385E+04  0.31020841199E+04 0.  0.
        4    1    3    3  502    0 -0.92818226578E+03 -0.85971272608E+03  0.16838656433E+04  0.21061893095E+04  0.12699999809E+01 0.  1.
       -4    1    3    3    0  502  0.92818226578E+03  0.85971272608E+03 -0.28476302389E+03  0.12968114291E+04  0.12699999809E+01 0. -1.
</event>
<event>
 5   0  0.4838602E-08  0.3102500E+04  0.7818609E-02  0.8215052E-01
       -1   -1    0    0    0  501  0.00000000000E+00  0.00000000000E+00  0.23006453252E+04  0.23006453252E+04  0.50400001928E-02 0.  1.
        1   -1    0    0  501    0  0.00000000000E+00  0.00000000000E+00 -0.10459574278E+04  0.10459574278E+04  0.50400001928E-02 0. -1.
    10030    2    1    2    0    0  0.00000000000E+00  0.00000000000E+00  0.12546878974E+04  0.33466027530E+04  0.31025003249E+04 0.  0.
        5    1    3    3  502    0  0.86405361079E+03  0.12854371221E+04  0.53444129685E+03  0.16384708807E+04  0.46999998093E+01 0. -1.
       -5    1    3    3    0  502 -0.86405361079E+03 -0.12854371221E+04  0.72024660055E+03  0.17081318722E+04  0.46999998093E+01 0.  1.
</event>
<event>
 5   0  0.1329777E-07  0.3096408E+04  0.7818609E-02  0.8216724E-01
        2   -1    0    0  501    0  0.00000000000E+00  0.00000000000E+00  0.25424094364E+04  0.25424094364E+04  0.25500000920E-02 0.  1.
       -2   -1    0    0    0  501  0.00000000000E+00  0.00000000000E+00 -0.94278098145E+03  0.94278098145E+03  0.25500000920E-02 0. -1.
    10030    2    1    2    0    0  0.00000000000E+00  0.00000000000E+00  0.15996284549E+04  0.34851904179E+04  0.30964077662E+04 0.  0.
        1    1    3    3  502    0  0.67658533490E+03 -0.77746637639E+03 -0.50054218352E+03  0.11457592065E+04  0.50400001928E-02 0. -1.
       -1    1    3    3    0  502 -0.67658533490E+03  0.77746637639E+03  0.21001706385E+04  0.23394312113E+04  0.50400001928E-02 0.  1.
</event>
<event>
 5   0  0.1318916E-07  0.3099829E+04  0.7818609E-02  0.8215785E-01
        2   -1    0    0  501    0  0.00000000000E+00  0.00000000000E+00  0.20689801421E+04  0.20689801421E+04  0.25500000920E-02 0. -1.
       -2   -1    0    0    0  501  0.00000000000E+00  0.00000000000E+00 -0.11610719424E+04  0.11610719424E+04  0.25500000920E-02 0.  1.
    10030    2    1    2    0    0  0.00000000000E+00  0.00000000000E+00  0.90790819966E+03  0.32300520845E+04  0.30998288936E+04 0.  0.
        5    1    3    3  502    0 -0.11901530696E+04 -0.19185446187E+03  0.14690129796E+04  0.19003404137E+04  0.46999998093E+01 0.  1.
       -5    1    3    3    0  502  0.11901530696E+04  0.19185446187E+03 -0.56110477994E+03  0.13297116708E+04  0.46999998093E+01 0. -1.
</event>
<event>
 5   0  0.4450600E-08  0.3100292E+04  0.7818609E-02  0.8215658E-01
        1   -1    0    0  501    0  0.00000000000E+00  0.00000000000E+00  0.12656037769E+04  0.12656037770E+04  0.50400001928E-02 0. -1.
       -1   -1    0    0    0  501  0.00000000000E+00  0.00000000000E+00 -0.18986612017E+04  0.18986612017E+04  0.50400001928E-02 0.  1.
    10030    2    1    2    0    0  0.00000000000E+00  0.00000000000E+00 -0.63305742476E+03  0.31642649787E+04  0.31002921076E+04 0.  0.
        4    1    3    3  502    0  0.10534922776E+04 -0.65170249500E+03  0.63457395626E+03  0.13918505091E+04  0.12699999809E+01 0. -1.
       -4    1    3    3    0  502 -0.10534922776E+04  0.65170249500E+03 -0.12676313810E+04  0.17724144696E+04  0.12699999809E+01 0.  1.
</event>
<event>
 5   0  0.4517409E-08  0.3099855E+04  0.7818609E-02  0.8215778E-01
       -1   -1    0    0    0  501  0.00000000000E+00  0.00000000000E+00  0.12398349028E+04  0.12398349028E+04  0.50400001928E-02 0.  1.
        1   -1    0    0  501    0  0.00000000000E+00  0.00000000000E+00 -0.19375766117E+04  0.19375766117E+04  0.50400001928E-02 0. -1.
    10030    2    1    2    0    0  0.00000000000E+00  0.00000000000E+00 -0.69774170882E+03  0.31774115145E+04  0.30998549063E+04 0.  0.
        2    1    3    3  502    0 -0.41653700389E+03 -0.95820144848E+03  0.82459600385E+03  0.13310190311E+04  0.25500000920E-02 0.  1.
       -2    1    3    3    0  502  0.41653700389E+03  0.95820144848E+03 -0.15223377127E+04  0.18463924834E+04  0.25500000920E-02 0. -1.
</event>
<event>
 5   0  0.4517409E-08  0.3100794E+04  0.7818609E-02  0.8215520E-01
       -1   -1    0    0    0  501  0.00000000000E+00  0.00000000000E+00  0.98957769949E+03  0.98957769950E+03  0.50400001928E-02 0.  1.
        1   -1    0    0  501    0  0.00000000000E+00  0.00000000000E+00 -0.24290465724E+04  0.24290465724E+04  0.50400001928E-02 0. -1.
    10030    2    1    2    0    0  0.00000000000E+00  0.00000000000E+00 -0.14394688730E+04  0.34186242719E+04  0.31007936527E+04 0.  0.
        2    1    3    3  502    0 -0.39275216530E+03 -0.13670079246E+04 -0.39423835866E+02  0.14228559900E+04  0.25500000920E-02 0.  1.
       -2    1    3    3    0  502  0.39275216530E+03  0.13670079246E+04 -0.14000450371E+04  0.19957682820E+04  0.25500000920E-02 0. -1.
</event>
<event>
 5   0  0.4436241E-08  0.3098123E+04  0.7818609E-02  0.8216253E-01
       -1   -1    0    0    0  501  0.00000000000E+00  0.00000000000E+00  0.15121359711E+04  0.15121359711E+04  0.50400001928E-02 0.  1.
        1   -1    0    0  501    0  0.00000000000E+00  0.00000000000E+00 -0.15868891387E+04  0.15868891387E+04  0.50400001928E-02 0. -1.
    10030    2    1    2    0    0  0.00000000000E+00  0.00000000000E+00 -0.74753167563E+02  0.30990251098E+04  0.30981233990E+04 0.  0.
        3    1    3    3  502    0 -0.14877892592E+04 -0.42660973717E+03 -0.10126528317E+03  0.15510536469E+04  0.10100000352E+00 0.  1.
       -3    1    3    3    0  502  0.14877892592E+04  0.42660973717E+03  0.26512115605E+02  0.15479714630E+04  0.10100000352E+00 0. -1.
</event>
<event>
 5   0  0.4450600E-08  0.3101148E+04  0.7818609E-02  0.8215423E-01
        1   -1    0    0  501    0  0.00000000000E+00  0.00000000000E+00  0.21997185667E+04  0.21997185667E+04  0.50400001928E-02 0.  1.
       -1   -1    0    0    0  501  0.00000000000E+00  0.00000000000E+00 -0.10929941014E+04  0.10929941015E+04  0.50400001928E-02 0. -1.
    10030    2    1    2    0    0  0.00000000000E+00  0.00000000000E+00  0.11067244653E+04  0.32927126682E+04  0.31011477993E+04 0.  0.
        4    1    3    3  502    0  0.95919563915E+03 -0.11917156930E+04  0.28467880238E+03  0.15560482642E+04  0.12699999809E+01 0. -1.
       -4    1    3    3    0  502 -0.95919563915E+03  0.11917156930E+04  0.82204566288E+03  0.17366644039E+04  0.12699999809E+01 0.  1.
</event>
<event>
 5   0  0.1377237E-07  0.3099714E+04  0.7818609E-02  0.8215816E-01
       -2   -1    0    0    0  501  0.00000000000E+00  0.00000000000E+00  0.23634788801E+04  0.23634788801E+04  0.25500000920E-02 0. -1.
        2   -1    0    0  501    0  0.00000000000E+00  0.00000000000E+00 -0.10163223748E+04  0.10163223749E+04  0.25500000920E-02 0.  1.
    10030    2    1    2    0    0  0.00000000000E+00  0.00000000000E+00  0.13471565053E+04  0.33798012550E+04  0.30997138373E+04 0.  0.
        2    1    3    3  502    0 -0.14750729503E+04 -0.33899923971E+03  0.10373331927E+04  0.18348898730E+04  0.25500000920E-02 0. -1.
       -2    1    3    3    0  502  0.14750729503E+04  0.33899923971E+03  0.30982331253E+03  0.15449113820E+04  0.25500000920E-02 0.  1.
</event>
<event>
 5   0  0.1377237E-07  0.3099190E+04  0.7818609E-02  0.8215960E-01
       -2   -1    0    0    0  501  0.00000000000E+00  0.00000000000E+00  0.68440748878E+03  0.68440748879E+03  0.25500000920E-02 0. -1.
        2   -1    0    0  501    0  0.00000000000E+00  0.00000000000E+00 -0.35085006220E+04  0.35085006220E+04  0.25500000920E-02 0.  1.
    10030    2    1    2    0    0  0.00000000000E+00  0.00000000000E+00 -0.28240931332E+04  0.41929081108E+04  0.30991896361E+04 0.  0.
        2    1    3    3  502    0 -0.69782239852E+03  0.80564212087E+03  0.10973291331E+03  0.10714740496E+04  0.25500000920E-02 0. -1.
       -2    1    3    3    0  502  0.69782239852E+03 -0.80564212087E+03 -0.29338260465E+04  0.31214340611E+04  0.25500000920E-02 0.  1.
</event>
<event>
 5   0  0.1398931E-07  0.3099554E+04  0.7818609E-02  0.8215860E-01
       -2   -1    0    0    0  501  0.00000000000E+00  0.00000000000E+00  0.10884857767E+04  0.10884857767E+04  0.25500000920E-02 0. -1.
        2   -1    0    0  501    0  0.00000000000E+00  0.00000000000E+00 -0.22065593178E+04  0.22065593178E+04  0.25500000920E-02 0.  1.
    10030    2    1    2    0    0  0.00000000000E+00  0.00000000000E+00 -0.11180735411E+04  0.32950450945E+04  0.30995537956E+04 0.  0.
        3    1    3    3  502    0 -0.43255972022E+03  0.21481406721E+03 -0.21245164971E+04  0.21787205768E+04  0.10100000352E+00 0.  1.
       -3    1    3    3    0  502  0.43255972022E+03 -0.21481406721E+03  0.10064429560E+04  0.11163245177E+04  0.10100000352E+00 0. -1.
</event>
<event>
 5   0  0.4470354E-08  0.3099906E+04  0.7818609E-02  0.8215764E-01
       -1   -1    0    0    0  501  0.00000000000E+00  0.00000000000E+00  0.15331220225E+04  0.15331220225E+04  0.50400001928E-02 0. -1.
        1   -1    0    0  501    0  0.00000000000E+00  0.00000000000E+00 -0.15669689988E+04  0.15669689988E+04  0.50400001928E-02 0.  1.
    10030    2    1    2    0    0  0.00000000000E+00  0.00000000000E+00 -0.33846976316E+02  0.31000910213E+04  0.30999062442E+04 0.  0.
        1    1    3    3  502    0 -0.32664028805E+03  0.10596614862E+04  0.10660899717E+04  0.15382211059E+04  0.50400001928E-02 0. -1.
       -1    1    3    3    0  502  0.32664028805E+03 -0.10596614862E+04 -0.10999369480E+04  0.15618699154E+04  0.50400001928E-02 0.  1.
</event>
<event>
 5   0  0.4517409E-08  0.3100522E+04  0.7818609E-02  0.8215595E-01
        1   -1    0    0  501    0  0.00000000000E+00  0.00000000000E+00  0.12772742869E+04  0.12772742869E+04  0.50400001928E-02 0.  1.
       -1   -1    0    0    0  501  0.00000000000E+00  0.00000000000E+00 -0.18815920802E+04  0.18815920802E+04  0.50400001928E-02 0. -1.
    10030    2    1    2    0    0  0.00000000000E+00  0.00000000000E+00 -0.60431779329E+03  0.31588663671E+04  0.31005220093E+04 0.  0.
        2    1    3    3  502    0  0.10360082417E+04  0.24189856789E+03 -0.14509773551E+04  0.17992118494E+04  0.25500000920E-02 0. -1.
       -2    1    3    3    0  502 -0.10360082417E+04 -0.24189856789E+03  0.84665956184E+03  0.13596545177E+04  0.25500000920E-02 0.  1.
</event>
<event>
 5   0  0.4517409E-08  0.3098971E+04  0.7818609E-02  0.8216020E-01
       -1   -1    0    0    0  501  0.00000000000E+00  0.00000000000E+00  0.15608121919E+04  0.15608121919E+04  0.50400001928E-02 0.  1.
        1   -1    0    0  501    0  0.00000000000E+00  0.00000000000E+00 -0.15382410759E+04  0.15382410759E+04  0.50400001928E-02 0. -1.
    10030    2    1    2    0    0  0.00000000000E+00  0.00000000000E+00  0.22571115948E+02  0.30990532678E+04  0.30989710714E+04 0.  0.
        2    1    3    3  502    0  0.55115656577E+03  0.61367310761E+03  0.13230128368E+04  0.15590802446E+04  0.25500000920E-02 0.  1.
       -2    1    3    3    0  502 -0.55115656577E+03 -0.61367310761E+03 -0.13004417208E+04  0.15399730232E+04  0.25500000920E-02 0. -1.
</event>
<event>
 5   0  0.1398931E-07  0.3099993E+04  0.7818609E-02  0.8215740E-01
       -2   -1    0    0    0  501  0.00000000000E+00  0.00000000000E+00  0.11615607978E+04  0.11615607978E+04  0.25500000920E-02 0.  1.
        2   -1    0    0  501    0  0.00000000000E+00  0.00000000000E+00 -0.20683277975E+04  0.20683277975E+04  0.25500000920E-02 0. -1.
    10030    2    1    2    0    0  0.00000000000E+00  0.00000000000E+00 -0.90676699963E+03  0.32298885953E+04  0.30999925720E+04 0.  0.
        3    1    3    3  502    0 -0.10838679536E+04 -0.10576056939E+04 -0.10910000836E+03  0.15182892895E+04  0.10100000352E+00 0. -1.
       -3    1    3    3    0  502  0.10838679536E+04  0.10576056939E+04 -0.79766699126E+03  0.17115993058E+04  0.10100000352E+00 0.  1.
</event>
<event>
 5   0  0.1377237E-07  0.3099815E+04  0.7818609E-02  0.8215789E-01
       -2   -1    0    0    0  501  0.00000000000E+00  0.00000000000E+00  0.92044871855E+03  0.92044871856E+03  0.25500000920E-02 0.  1.
        2   -1    0    0  501    0  0.00000000000E+00  0.00000000000E+00 -0.26098286881E+04  0.26098286881E+04  0.25500000920E-02 0. -1.
    10030    2    1    2    0    0  0.00000000000E+00  0.00000000000E+00 -0.16893799695E+04  0.35302774066E+04  0.30998151374E+04 0.  0.
        2    1    3    3  502    0 -0.72797089871E+03 -0.31440540478E+03 -0.23613176444E+04  0.24909061414E+04  0.25500000920E-02 0. -1.
       -2    1    3    3    0  502  0.72797089871E+03  0.31440540478E+03  0.67193767486E+03  0.10393712652E+04  0.25500000920E-02 0.  1.
</event>
<event>
 5   0  0.1377237E-07  0.3099406E+04  0.7818609E-02  0.8215901E-01
        2   -1    0    0  501    0  0.00000000000E+00  0.00000000000E+00  0.13409888756E+04  0.13409888756E+04  0.25500000920E-02 0.  1.
       -2   -1    0    0    0  501  0.00000000000E+00  0.00000000000E+00 -0.17909015917E+04  0.17909015917E+04  0.25500000920E-02 0. -1.
    10030    2    1    2    0    0  0.00000000000E+00  0.00000000000E+00 -0.44991271609E+03  0.31318904673E+04  0.30994058216E+04 0.  0.
        2    1    3    3  502    0 -0.15010863411E+04 -0.34675163932E+03 -0.55622519446E+02  0.15416195275E+04  0.25500000920E-02 0. -1.
       -2    1    3    3    0  502  0.15010863411E+04  0.34675163932E+03 -0.39429019664E+03  0.15902709398E+04  0.25500000920E-02 0.  1.
</event>
<event>
 5   0  0.4450600E-08  0.3098263E+04  0.7818609E-02  0.8216215E-01
        1   -1    0    0  501    0  0.00000000000E+00  0.00000000000E+00  0.19387042601E+04  0.19387042601E+04  0.50400001928E-02 0.  1.
       -1   -1    0    0    0  501  0.00000000000E+00  0.00000000000E+00 -0.12378414921E+04  0.12378414921E+04  0.50400001928E-02 0. -1.
    10030    2    1    2    0    0  0.00000000000E+00  0.00000000000E+00  0.70086276799E+03  0.31765457521E+04  0.30982631095E+04 0.  0.
        4    1    3    3  502    0 -0.23284629333E+03  0.13839736380E+04 -0.32204234075E+03  0.14399004511E+04  0.12699999809E+01 0. -1.
       -4    1    3    3    0  502  0.23284629333E+03 -0.13839736380E+04  0.10229051087E+04  0.17366453010E+04  0.12699999809E+01 0.  1.
</event>
<event>
 5   0  0.4305500E-08  0.3100835E+04  0.7818609E-02  0.8215509E-01
       -3   -1    0    0    0  501  0.00000000000E+00  0.00000000000E+00  0.25046849639E+04  0.25046849659E+04  0.10100000352E+00 0. -1.
        3   -1    0    0  501    0  0.00000000000E+00  0.00000000000E+00 -0.95971933815E+03  0.95971934347E+03  0.10100000352E+00 0.  1.
    10030    2    1    2    0    0  0.00000000000E+00  0.00000000000E+00  0.15449656257E+04  0.34644043094E+04  0.31008351188E+04 0.  0.
        1    1    3    3  502    0  0.24193945935E+03 -0.91833389147E+03 -0.59673864593E+03  0.11215921049E+04  0.50400001928E-02 0.  1.
       -1    1    3    3    0  502 -0.24193945935E+03  0.91833389147E+03  0.21417042716E+04  0.23428122045E+04  0.50400001928E-02 0. -1.
</event>
<event>
 5   0  0.1329777E-07  0.3100591E+04  0.7818609E-02  0.8215576E-01
       -2   -1    0    0    0  501  0.00000000000E+00  0.00000000000E+00  0.13035855670E+04  0.13035855670E+04  0.25500000920E-02 0. -1.
        2   -1    0    0  501    0  0.00000000000E+00  0.00000000000E+00 -0.18436970793E+04  0.18436970793E+04  0.25500000920E-02 0.  1.
    10030    2    1    2    0    0  0.00000000000E+00  0.00000000000E+00 -0.54011151227E+03  0.31472826464E+04  0.31005914936E+04 0.  0.
        1    1    3    3  502    0  0.66526124235E+03 -0.12661836011E+04  0.33696592397E+03  0.14694691104E+04  0.50400001928E-02 0.  1.
       -1    1    3    3    0  502 -0.66526124235E+03  0.12661836011E+04 -0.87707743624E+03  0.16778135360E+04  0.50400001928E-02 0. -1.
</event>
<event>
 5   0  0.1398931E-07  0.3097592E+04  0.7818609E-02  0.8216399E-01
        2   -1    0    0  501    0  0.00000000000E+00  0.00000000000E+00  0.26511377914E+04  0.26511377914E+04  0.25500000920E-02 0.  1.
       -2   -1    0    0    0  501  0.00000000000E+00  0.00000000000E+00 -0.90480763124E+03  0.90480763124E+03  0.25500000920E-02 0. -1.
    10030    2    1    2    0    0  0.00000000000E+00  0.00000000000E+00  0.17463301602E+04  0.35559454227E+04  0.30975924233E+04 0.  0.
        3    1    3    3  502    0 -0.97409650598E+03  0.63787616073E+03 -0.29923831675E+03  0.12022036349E+04  0.10100000352E+00 0. -1.
       -3    1    3    3    0  502  0.97409650598E+03 -0.63787616073E+03  0.20455684769E+04  0.23537417877E+04  0.10100000352E+00 0.  1.
</event>
<event>
 5   0  0.4517409E-08  0.3099501E+04  0.7818609E-02  0.8215875E-01
        1   -1    0    0  501    0  0.00000000000E+00  0.00000000000E+00  0.26188537480E+04  0.26188537480E+04  0.50400001928E-02 0. -1.
       -1   -1    0    0    0  501  0.00000000000E+00  0.00000000000E+00 -0.91709087706E+03  0.91709087707E+03  0.50400001928E-02 0.  1.
    10030    2    1    2    0    0  0.00000000000E+00  0.00000000000E+00  0.17017628710E+04  0.35359446251E+04  0.30995011732E+04 0.  0.
        2    1    3    3  502    0  0.33861930658E+03  0.41324096502E+03  0.25104753359E+04  0.25666938934E+04  0.25500000920E-02 0. -1.
       -2    1    3    3    0  502 -0.33861930658E+03 -0.41324096502E+03 -0.80871246496E+03  0.96925073173E+03  0.25500000920E-02 0.  1.
</event>
<event>
 5   0  0.1398931E-07  0.3103464E+04  0.7818609E-02  0.8214788E-01
       -2   -1    0    0    0  501  0.00000000000E+00  0.00000000000E+00  0.18417733170E+04  0.18417733170E+04  0.25500000920E-02 0. -1.
        2   -1    0    0  501    0  0.00000000000E+00  0.00000000000E+00 -0.13073658371E+04  0.13073658371E+04  0.25500000920E-02 0.  1.
    10030    2    1    2    0    0  0.00000000000E+00  0.00000000000E+00  0.53440747988E+03  0.31491391541E+04  0.31034635582E+04 0.  0.
        3    1    3    3  502    0  0.62944791124E+03 -0.11678683791E+04  0.10838782606E+04  0.17131588711E+04  0.10100000352E+00 0. -1.
       -3    1    3    3    0  502 -0.62944791124E+03  0.11678683791E+04 -0.54947078068E+03  0.14359802829E+04  0.10100000352E+00 0.  1.
</event>
<event>
 5   0  0.1377237E-07  0.3099565E+04  0.7818609E-02  0.8215857E-01
        2   -1    0    0  501    0  0.00000000000E+00  0.00000000000E+00  0.18341995968E+04  0.18341995968E+04  0.25500000920E-02 0. -1.
       -2   -1    0    0    0  501  0.00000000000E+00  0.00000000000E+00 -0.13094681177E+04  0.13094681177E+04  0.25500000920E-02 0.  1.
    10030    2    1    2    0    0  0.00000000000E+00  0.00000000000E+00  0.52473147918E+03  0.31436677145E+04  0.30995650621E+04 0.  0.
        2    1    3    3  502    0  0.95443217569E+03 -0.74457651734E+03 -0.71912829567E+03  0.14080058501E+04  0.25500000920E-02 0.  1.
       -2    1    3    3    0  502 -0.95443217569E+03  0.74457651734E+03  0.12438597749E+04  0.17356618644E+04  0.25500000920E-02 0. -1.
</event>
<event>
 5   0  0.1318916E-07  0.3099919E+04  0.7818609E-02  0.8215760E-01
       -2   -1    0    0    0  501  0.00000000000E+00  0.00000000000E+00  0.99871357693E+03  0.99871357693E+03  0.25500000920E-02 0.  1.
        2   -1    0    0  501    0  0.00000000000E+00  0.00000000000E+00 -0.24054687151E+04  0.24054687151E+04  0.25500000920E-02 0. -1.
    10030    2    1    2    0    0  0.00000000000E+00  0.00000000000E+00 -0.14067551382E+04  0.34041822921E+04  0.30999188794E+04 0.  0.
        5    1    3    3  502    0  0.11600336917E+04  0.65972685819E+03  0.16230794988E+03  0.13443525036E+04  0.46999998093E+01 0.  1.
       -5    1    3    3    0  502 -0.11600336917E+04 -0.65972685819E+03 -0.15690630881E+04  0.20598297885E+04  0.46999998093E+01 0. -1.
</event>
<event>
 5   0  0.4838602E-08  0.3099264E+04  0.7818609E-02  0.8215940E-01
       -1   -1    0    0    0  501  0.00000000000E+00  0.00000000000E+00  0.13672547672E+04  0.13672547672E+04  0.50400001928E-02 0.  1.
        1   -1    0    0  501    0  0.00000000000E+00  0.00000000000E+00 -0.17563367056E+04  0.17563367056E+04  0.50400001928E-02 0. -1.
    10030    2    1    2    0    0  0.00000000000E+00  0.00000000000E+00 -0.38908193843E+03  0.31235914727E+04  0.30992642569E+04 0.  0.
        5    1    3    3  502    0  0.11612863802E+04 -0.81298487446E+03 -0.82539926208E+03  0.16403769368E+04  0.46999998093E+01 0. -1.
       -5    1    3    3    0  502 -0.11612863802E+04  0.81298487446E+03  0.43631732366E+03  0.14832145360E+04  0.46999998093E+01 0.  1.
</event>
<event>
 5   0  0.4838602E-08  0.3099285E+04  0.7818609E-02  0.8215934E-01
       -1   -1    0    0    0  501  0.00000000000E+00  0.00000000000E+00  0.95654360863E+03  0.95654360864E+03  0.50400001928E-02 0. -1.
        1   -1    0    0  501    0  0.00000000000E+00  0.00000000000E+00 -0.25104888880E+04  0.25104888880E+04  0.50400001928E-02 0.  1.
    10030    2    1    2    0    0  0.00000000000E+00  0.00000000000E+00 -0.15539452794E+04  0.34670324967E+04  0.30992851436E+04 0.  0.
        5    1    3    3  502    0 -0.27569716126E+03 -0.42204444880E+03 -0.24161903164E+04  0.24682236885E+04  0.46999998093E+01 0.  1.
       -5    1    3    3    0  502  0.27569716126E+03  0.42204444880E+03  0.86224503698E+03  0.99880880817E+03  0.46999998093E+01 0. -1.
</event>
<event>
 5   0  0.1329777E-07  0.3102458E+04  0.7818609E-02  0.8215064E-01
       -2   -1    0    0    0  501  0.00000000000E+00  0.00000000000E+00  0.89047028541E+03  0.89047028541E+03  0.25500000920E-02 0. -1.
        2   -1    0    0  501    0  0.00000000000E+00  0.00000000000E+00 -0.27022921640E+04  0.27022921640E+04  0.25500000920E-02 0.  1.
    10030    2    1    2    0    0  0.00000000000E+00  0.00000000000E+00 -0.18118218785E+04  0.35927624494E+04  0.31024576545E+04 0.  0.
        1    1    3    3  502    0  0.10471796115E+04 -0.11442811898E+04 -0.92746084148E+03  0.18072487910E+04  0.50400001928E-02 0. -1.
       -1    1    3    3    0  502 -0.10471796115E+04  0.11442811898E+04 -0.88436103706E+03  0.17855136583E+04  0.50400001928E-02 0.  1.
</event>
<event>
 5   0  0.4450600E-08  0.3099920E+04  0.7818609E-02  0.8215760E-01
       -1   -1    0    0    0  501  0.00000000000E+00  0.00000000000E+00  0.11713548813E+04  0.11713548814E+04  0.50400001928E-02 0. -1.
        1   -1    0    0  501    0  0.00000000000E+00  0.00000000000E+00 -0.20509376102E+04  0.20509376103E+04  0.50400001928E-02 0.  1.
    10030    2    1    2    0    0  0.00000000000E+00  0.00000000000E+00 -0.87958272891E+03  0.32222924916E+04  0.30999198577E+04 0.  0.
        4    1    3    3  502    0  0.25326260404E+03 -0.68754615247E+03 -0.18595469176E+04  0.19986940761E+04  0.12699999809E+01 0.  1.
       -4    1    3    3    0  502 -0.25326260404E+03  0.68754615247E+03  0.97996418867E+03  0.12235984155E+04  0.12699999809E+01 0. -1.
</event>
<event>
 5   0  0.1377237E-07  0.3100452E+04  0.7818609E-02  0.8215614E-01
        2   -1    0    0  501    0  0.00000000000E+00  0.00000000000E+00  0.16948146178E+04  0.16948146178E+04  0.25500000920E-02 0.  1.
       -2   -1    0    0    0  501  0.00000000000E+00  0.00000000000E+00 -0.14179722511E+04  0.14179722511E+04  0.25500000920E-02 0. -1.
    10030    2    1    2    0    0  0.00000000000E+00  0.00000000000E+00  0.27684236670E+03  0.31127868690E+04  0.31004516438E+04 0.  0.
        2    1    3    3  502    0  0.13240750248E+04  0.73517403681E+03 -0.19387077974E+03  0.15268403371E+04  0.25500000920E-02 0. -1.
       -2    1    3    3    0  502 -0.13240750248E+04 -0.73517403681E+03  0.47071314644E+03  0.15859465319E+04  0.25500000920E-02 0.  1.
</event>
<event>
 5   0  0.4470354E-08  0.3099607E+04  0.7818609E-02  0.8215846E-01
       -1   -1    0    0    0  501  0.00000000000E+00  0.00000000000E+00  0.20602230769E+04  0.20602230769E+04  0.50400001928E-02 0. -1.
        1   -1    0    0  501    0  0.00000000000E+00  0.00000000000E+00 -0.11658401059E+04  0.11658401059E+04  0.50400001928E-02 0.  1.
    10030    2    1    2    0    0  0.00000000000E+00  0.00000000000E+00  0.89438297105E+03  0.32260631828E+04  0.30996068719E+04 0.  0.
        1    1    3    3  502    0  0.92067141798E+03 -0.97950993363E+03 -0.35551589039E+03  0.13904916822E+04  0.50400001928E-02 0.  1.
       -1    1    3    3    0  502 -0.92067141798E+03  0.97950993363E+03  0.12498988614E+04  0.18355715006E+04  0.50400001928E-02 0. -1.
</event>
<event>
 5   0  0.1325713E-07  0.3097633E+04  0.7818609E-02  0.8216388E-01
       -2   -1    0    0    0  501  0.00000000000E+00  0.00000000000E+00  0.15579169792E+04  0.15579169792E+04  0.25500000920E-02 0.  1.
        2   -1    0    0  501    0  0.00000000000E+00  0.00000000000E+00 -0.15397694055E+04  0.15397694055E+04  0.25500000920E-02 0. -1.
    10030    2    1    2    0    0  0.00000000000E+00  0.00000000000E+00  0.18147573679E+02  0.30976863848E+04  0.30976332262E+04 0.  0.
        4    1    3    3  502    0  0.10728104455E+04 -0.45484466991E+01 -0.11080346136E+04  0.15422986929E+04  0.12699999809E+01 0. -1.
       -4    1    3    3    0  502 -0.10728104455E+04  0.45484466991E+01  0.11261821873E+04  0.15553876919E+04  0.12699999809E+01 0.  1.
</event>
<event>
 5   0  0.4450600E-08  0.3099022E+04  0.7818609E-02  0.8216006E-01
        1   -1    0    0  501    0  0.00000000000E+00  0.00000000000E+00  0.10229687734E+04  0.10229687734E+04  0.50400001928E-02 0.  1.
       -1   -1    0    0    0  501  0.00000000000E+00  0.00000000000E+00 -0.23470754308E+04  0.23470754308E+04  0.50400001928E-02 0. -1.
    10030    2    1    2    0    0  0.00000000000E+00  0.00000000000E+00 -0.13241066574E+04  0.33700442042E+04  0.30990223456E+04 0.  0.
        4    1    3    3  502    0  0.15108883958E+03  0.76796304812E+03 -0.21163124126E+04  0.22564075255E+04  0.12699999809E+01 0. -1.
       -4    1    3    3    0  502 -0.15108883958E+03 -0.76796304812E+03  0.79220575518E+03  0.11136366787E+04  0.12699999809E+01 0.  1.
</event>
<event>
 5   0  0.4517409E-08  0.3099783E+04  0.7818609E-02  0.8215797E-01
        1   -1    0    0  501    0  0.00000000000E+00  0.00000000000E+00  0.27679505116E+04  0.27679505116E+04  0.50400001928E-02 0. -1.
       -1   -1    0    0    0  501  0.00000000000E+00  0.00000000000E+00 -0.86784929895E+03  0.86784929896E+03  0.50400001928E-02 0.  1.
    10030    2    1    2    0    0  0.00000000000E+00  0.00000000000E+00  0.19001012126E+04  0.36357998105E+04  0.30997831608E+04 0.  0.
        2    1    3    3  502    0  0.29087571245E+03  0.89472450211E+03 -0.49460648274E+03  0.10629093035E+04  0.25500000920E-02 0.  1.
       -2    1    3    3    0  502 -0.29087571245E+03 -0.89472450211E+03  0.23947076954E+04  0.25728905070E+04  0.25500000920E-02 0. -1.
</event>
<event>
 5   0  0.4450600E-08  0.3102171E+04  0.7818609E-02  0.8215142E-01
       -1   -1    0    0    0  501  0.00000000000E+00  0.00000000000E+00  0.11732490183E+04  0.11732490183E+04  0.50400001928E-02 0. -1.
        1   -1    0    0  501    0  0.00000000000E+00  0.00000000000E+00 -0.20506020976E+04  0.20506020976E+04  0.50400001928E-02 0.  1.
    10030    2    1    2    0    0  0.00000000000E+00  0.00000000000E+00 -0.87735307927E+03  0.32238511160E+04  0.31021714318E+04 0.  0.
        4    1    3    3  502    0 -0.58020168776E+03 -0.13855666202E+03 -0.19266310177E+04  0.20168640605E+04  0.12699999809E+01 0.  1.
       -4    1    3    3    0  502  0.58020168776E+03  0.13855666202E+03  0.10492779385E+04  0.12069870555E+04  0.12699999809E+01 0. -1.
</event>
<event>
 5   0  0.4838602E-08  0.3103922E+04  0.7818609E-02  0.8214662E-01
        1   -1    0    0  501    0  0.00000000000E+00  0.00000000000E+00  0.17797981782E+04  0.17797981782E+04  0.50400001928E-02 0.  1.
       -1   -1    0    0    0  501  0.00000000000E+00  0.00000000000E+00 -0.13532896306E+04  0.13532896306E+04  0.50400001928E-02 0. -1.
    10030    2    1    2    0    0  0.00000000000E+00  0.00000000000E+00  0.42650854757E+03  0.31330878088E+04  0.31039216608E+04 0.  0.
        5    1    3    3  502    0  0.90009461639E+03 -0.86533020723E+03  0.11436494331E+04  0.16931989847E+04  0.46999998093E+01 0.  1.
       -5    1    3    3    0  502 -0.90009461639E+03  0.86533020723E+03 -0.71714088555E+03  0.14398888241E+04  0.46999998093E+01 0. -1.
</event>
<event>
 5   0  0.1329777E-07  0.3102848E+04  0.7818609E-02  0.8214957E-01
        2   -1    0    0  501    0  0.00000000000E+00  0.00000000000E+00  0.24413704106E+04  0.24413704106E+04  0.25500000920E-02 0.  1.
       -2   -1    0    0    0  501  0.00000000000E+00  0.00000000000E+00 -0.98588762087E+03  0.98588762088E+03  0.25500000920E-02 0. -1.
    10030    2    1    2    0    0  0.00000000000E+00  0.00000000000E+00  0.14554827897E+04  0.34272580314E+04  0.31028482823E+04 0.  0.
        1    1    3    3  502    0  0.11753872251E+04  0.86298975504E+03  0.14260968430E+03  0.14651361603E+04  0.50400001928E-02 0. -1.
       -1    1    3    3    0  502 -0.11753872251E+04 -0.86298975504E+03  0.13128731054E+04  0.19621218711E+04  0.50400001928E-02 0.  1.
</event>
<event>
 5   0  0.4436241E-08  0.3107962E+04  0.7818609E-02  0.8213556E-01
       -1   -1    0    0    0  501  0.00000000000E+00  0.00000000000E+00  0.14061489226E+04  0.14061489226E+04  0.50400001928E-02 0.  1.
        1   -1    0    0  501    0  0.00000000000E+00  0.00000000000E+00 -0.17173552605E+04  0.17173552605E+04  0.50400001928E-02 0. -1.
    10030    2    1    2    0    0  0.00000000000E+00  0.00000000000E+00 -0.31120633788E+03  0.31235041832E+04  0.31079621937E+04 0.  0.
        3    1    3    3  502    0  0.12927342209E+03 -0.53209608321E+03  0.13059800236E+04  0.14161291226E+04  0.10100000352E+00 0.  1.
       -3    1    3    3    0  502 -0.12927342209E+03  0.53209608321E+03 -0.16171863615E+04  0.17073750606E+04  0.10100000352E+00 0. -1.
</event>
<event>
 5   0  0.1329777E-07  0.3100192E+04  0.7818609E-02  0.8215685E-01
       -2   -1    0    0    0  501  0.00000000000E+00  0.00000000000E+00  0.13173938249E+04  0.13173938249E+04  0.25500000920E-02 0. -1.
        2   -1    0    0  501    0  0.00000000000E+00  0.00000000000E+00 -0.18239019455E+04  0.18239019455E+04  0.25500000920E-02 0.  1.
    10030    2    1    2    0    0  0.00000000000E+00  0.00000000000E+00 -0.50650812057E+03  0.31412957704E+04  0.31001917104E+04 0.  0.
        1    1    3    3  502    0  0.40408305342E+03 -0.61402881318E+03 -0.16360764358E+04  0.17936166260E+04  0.50400001928E-02 0.  1.
       -1    1    3    3    0  502 -0.40408305342E+03  0.61402881318E+03  0.11295683152E+04  0.13476791444E+04  0.50400001928E-02 0. -1.
</event>
<event>
 5   0  0.4436241E-08  0.3099484E+04  0.7818609E-02  0.8215879E-01
        1   -1    0    0  501    0  0.00000000000E+00  0.00000000000E+00  0.19060156965E+04  0.19060156965E+04  0.50400001928E-02 0. -1.
       -1   -1    0    0    0  501  0.00000000000E+00  0.00000000000E+00 -0.12600636001E+04  0.12600636001E+04  0.50400001928E-02 0.  1.
    10030    2    1    2    0    0  0.00000000000E+00  0.00000000000E+00  0.64595209645E+03  0.31660792966E+04  0.30994844735E+04 0.  0.
        3    1    3    3  502    0  0.11556698348E+04 -0.96839090499E+03  0.68892933700E+03  0.16577024321E+04  0.10100000352E+00 0. -1.
       -3    1    3    3    0  502 -0.11556698348E+04  0.96839090499E+03 -0.42977240550E+02  0.15083768645E+04  0.10100000352E+00 0.  1.
</event>
<event>
 5   0  0.4838602E-08  0.3100634E+04  0.7818609E-02  0.8215564E-01
       -1   -1    0    0    0  501  0.00000000000E+00  0.00000000000E+00  0.16600166500E+04  0.16600166500E+04  0.50400001928E-02 0. -1.
        1   -1    0    0  501    0  0.00000000000E+00  0.00000000000E+00 -0.14478662699E+04  0.14478662699E+04  0.50400001928E-02 0.  1.
    10030    2    1    2    0    0  0.00000000000E+00  0.00000000000E+00  0.21215038008E+03  0.31078829199E+04  0.31006335578E+04 0.  0.
        5    1    3    3  502    0  0.13161241294E+04 -0.53554675583E+03  0.72757890084E+03  0.15963665615E+04  0.46999998093E+01 0. -1.
       -5    1    3    3    0  502 -0.13161241294E+04  0.53554675583E+03 -0.51542852076E+03  0.15115163584E+04  0.46999998093E+01 0.  1.
</event>
<event>
 5   0  0.1325713E-07  0.3099906E+04  0.7818609E-02  0.8215764E-01
        2   -1    0    0  501    0  0.00000000000E+00  0.00000000000E+00  0.15979632846E+04  0.15979632846E+04  0.25500000920E-02 0.  1.
       -2   -1    0    0    0  501  0.00000000000E+00  0.00000000000E+00 -0.15033849078E+04  0.15033849078E+04  0.25500000920E-02 0. -1.
    10030    2    1    2    0    0  0.00000000000E+00  0.00000000000E+00  0.94578376817E+02  0.31013481924E+04  0.30999057310E+04 0.  0.
        4    1    3    3  502    0 -0.11903379323E+04 -0.65897403509E+03 -0.69548547074E+03  0.15280225211E+04  0.12699999809E+01 0. -1.
       -4    1    3    3    0  502  0.11903379323E+04  0.65897403509E+03  0.79006384755E+03  0.15733256713E+04  0.12699999809E+01 0.  1.
</event>
<event>
 5   0  0.1377237E-07  0.3100127E+04  0.7818609E-02  0.8215703E-01
       -2   -1    0    0    0  501  0.00000000000E+00  0.00000000000E+00  0.11820307493E+04  0.11820307493E+04  0.25500000920E-02 0. -1.
        2   -1    0    0  501    0  0.00000000000E+00  0.00000000000E+00 -0.20326852822E+04  0.20326852822E+04  0.25500000920E-02 0.  1.
    10030    2    1    2    0    0  0.00000000000E+00  0.00000000000E+00 -0.85065453287E+03  0.32147160316E+04  0.31001267763E+04 0.  0.
        2    1    3    3  502    0  0.93941956225E+03  0.39170218254E+03 -0.16376235742E+04  0.19281469562E+04  0.25500000920E-02 0.  1.
       -2    1    3    3    0  502 -0.93941956225E+03 -0.39170218254E+03  0.78696904134E+03  0.12865690754E+04  0.25500000920E-02 0. -1.
</event>
<event>
 5   0  0.4450600E-08  0.3099620E+04  0.7818609E-02  0.8215842E-01
        1   -1    0    0  501    0  0.00000000000E+00  0.00000000000E+00  0.19828631150E+04  0.19828631151E+04  0.50400001928E-02 0.  1.
       -1   -1    0    0    0  501  0.00000000000E+00  0.00000000000E+00 -0.12113349989E+04  0.12113349989E+04  0.50400001928E-02 0. -1.
    10030    2    1    2    0    0  0.00000000000E+00  0.00000000000E+00  0.77152811615E+03  0.31941981140E+04  0.30996202924E+04 0.  0.
        4    1    3    3  502    0  0.32529793226E+03 -0.21433941920E+03  0.19315845634E+04  0.19704772695E+04  0.12699999809E+01 0.  1.
       -4    1    3    3    0  502 -0.32529793226E+03  0.21433941920E+03 -0.11600564472E+04  0.12237208444E+04  0.12699999809E+01 0. -1.
</event>
<event>
 5   0  0.1318916E-07  0.3099815E+04  0.7818609E-02  0.8215789E-01
        2   -1    0    0  501    0  0.00000000000E+00  0.00000000000E+00  0.10365967699E+04  0.10365967699E+04  0.25500000920E-02 0.  1.
       -2   -1    0    0    0  501  0.00000000000E+00  0.00000000000E+00 -0.23174034584E+04  0.23174034584E+04  0.25500000920E-02 0. -1.
    10030    2    1    2    0    0  0.00000000000E+00  0.00000000000E+00 -0.12808066885E+04  0.33540002283E+04  0.30998147941E+04 0.  0.
        5    1    3    3  502    0  0.59232778206E+03 -0.12652815076E+04  0.85748066144E+02  0.13997015095E+04  0.46999998093E+01 0.  1.
       -5    1    3    3    0  502 -0.59232778206E+03  0.12652815076E+04 -0.13665547546E+04  0.19542987188E+04  0.46999998093E+01 0. -1.
</event>
<event>
 5   0  0.4470354E-08  0.3100585E+04  0.7818609E-02  0.8215577E-01
       -1   -1    0    0    0  501  0.00000000000E+00  0.00000000000E+00  0.10109414136E+04  0.10109414136E+04  0.50400001928E-02 0.  1.
        1   -1    0    0  501    0  0.00000000000E+00  0.00000000000E+00 -0.23773947954E+04  0.23773947954E+04  0.50400001928E-02 0. -1.
    10030    2    1    2    0    0  0.00000000000E+00  0.00000000000E+00 -0.13664533818E+04  0.33883362090E+04  0.31005850126E+04 0.  0.
        1    1    3    3  502    0  0.11147863829E+04 -0.88866559744E+03 -0.13487906374E+04  0.19625777455E+04  0.50400001928E-02 0. -1.
       -1    1    3    3    0  502 -0.11147863829E+04  0.88866559744E+03 -0.17662744384E+02  0.14257584635E+04  0.50400001928E-02 0.  1.
</event>
<event>
 5   0  0.1325713E-07  0.3099747E+04  0.7818609E-02  0.8215807E-01
       -2   -1    0    0    0  501  0.00000000000E+00  0.00000000000E+00  0.21822061627E+04  0.21822061627E+04  0.25500000920E-02 0. -1.
        2   -1    0    0  501    0  0.00000000000E+00  0.00000000000E+00 -0.11007700713E+04  0.11007700713E+04  0.25500000920E-02 0.  1.
    10030    2    1    2    0    0  0.00000000000E+00  0.00000000000E+00  0.10814360914E+04  0.32829762340E+04  0.30997465917E+04 0.  0.
        4    1    3    3  502    0  0.33272123905E+03 -0.35378090740E+02  0.21434967659E+04  0.21694550077E+04  0.12699999809E+01 0. -1.
       -4    1    3    3    0  502 -0.33272123905E+03  0.35378090740E+02 -0.10620606744E+04  0.11135212263E+04  0.12699999809E+01 0.  1.
</event>
<event>
 5   0  0.4450600E-08  0.3101287E+04  0.7818609E-02  0.8215385E-01
        1   -1    0    0  501    0  0.00000000000E+00  0.00000000000E+00  0.24216502662E+04  0.24216502662E+04  0.50400001928E-02 0. -1.
       -1   -1    0    0    0  501  0.00000000000E+00  0.00000000000E+00 -0.99291566713E+03  0.99291566715E+03  0.50400001928E-02 0.  1.
    10030    2    1    2    0    0  0.00000000000E+00  0.00000000000E+00  0.14287345991E+04  0.34145659334E+04  0.31012865006E+04 0.  0.
        4    1    3    3  502    0 -0.10637112650E+04 -0.20040704597E+03  0.19368660494E+04  0.22188051617E+04  0.12699999809E+01 0. -1.
       -4    1    3    3    0  502  0.10637112650E+04  0.20040704597E+03 -0.50813145031E+03  0.11957607717E+04  0.12699999809E+01 0.  1.
</event>
<event>
 5   0  0.4517409E-08  0.3097764E+04  0.7818609E-02  0.8216352E-01
        1   -1    0    0  501    0  0.00000000000E+00  0.00000000000E+00  0.12232811942E+04  0.12232811942E+04  0.50400001928E-02 0. -1.
       -1   -1    0    0    0  501  0.00000000000E+00  0.00000000000E+00 -0.19611475080E+04  0.19611475080E+04  0.50400001928E-02 0.  1.
    10030    2    1    2    0    0  0.00000000000E+00  0.00000000000E+00 -0.73786631380E+03  0.31844287022E+04  0.30977636227E+04 0.  0.
        2    1    3    3  502    0  0.65949304069E+03 -0.97818319359E+03  0.66276904474E+03  0.13531578761E+04  0.25500000920E-02 0. -1.
       -2    1    3    3    0  502 -0.65949304069E+03  0.97818319359E+03 -0.14006353585E+04  0.18312708261E+04  0.25500000920E-02 0.  1.
</event>
<event>
 5   0  0.1377237E-07  0.3101209E+04  0.7818609E-02  0.8215406E-01
       -2   -1    0    0    0  501  0.00000000000E+00  0.00000000000E+00  0.12019654140E+04  0.12019654140E+04  0.25500000920E-02 0. -1.
        2   -1    0    0  501    0  0.00000000000E+00  0.00000000000E+00 -0.20003689631E+04  0.20003689631E+04  0.25500000920E-02 0.  1.
    10030    2    1    2    0    0  0.00000000000E+00  0.00000000000E+00 -0.79840354908E+03  0.32023343771E+04  0.31012089958E+04 0.  0.
        2    1    3    3  502    0 -0.68108737189E+02  0.20197427139E+03  0.11867656580E+04  0.12057550055E+04  0.25500000920E-02 0. -1.
       -2    1    3    3    0  502  0.68108737189E+02 -0.20197427139E+03 -0.19851692071E+04  0.19965793716E+04  0.25500000920E-02 0.  1.
</event>
<event>
 5   0  0.4838602E-08  0.3099983E+04  0.7818609E-02  0.8215743E-01
        1   -1    0    0  501    0  0.00000000000E+00  0.00000000000E+00  0.15960299469E+04  0.15960299469E+04  0.50400001928E-02 0. -1.
       -1   -1    0    0    0  501  0.00000000000E+00  0.00000000000E+00 -0.15052812190E+04  0.15052812190E+04  0.50400001928E-02 0.  1.
    10030    2    1    2    0    0  0.00000000000E+00  0.00000000000E+00  0.90748727912E+02  0.31013111659E+04  0.30999831638E+04 0.  0.
        5    1    3    3  502    0 -0.63011318711E+03 -0.10313088948E+04 -0.92551092635E+03  0.15222461134E+04  0.46999998093E+01 0.  1.
       -5    1    3    3    0  502  0.63011318711E+03  0.10313088948E+04  0.10162596543E+04  0.15790650525E+04  0.46999998093E+01 0. -1.
</event>
<event>
 5   0  0.4470354E-08  0.3100034E+04  0.7818609E-02  0.8215729E-01
       -1   -1    0    0    0  501  0.00000000000E+00  0.00000000000E+00  0.14239219484E+04  0.14239219484E+04  0.50400001928E-02 0.  1.
        1   -1    0    0  501    0  0.00000000000E+00  0.00000000000E+00 -0.16872778875E+04  0.16872778875E+04  0.50400001928E-02 0. -1.
    10030    2    1    2    0    0  0.00000000000E+00  0.00000000000E+00 -0.26335593906E+03  0.31111998359E+04  0.31000335592E+04 0.  0.
        1    1    3    3  502    0  0.13823603356E+04  0.29605443264E+03 -0.76956449611E+03  0.16095955512E+04  0.50400001928E-02 0. -1.
       -1    1    3    3    0  502 -0.13823603356E+04 -0.29605443264E+03  0.50620855705E+03  0.15016042847E+04  0.50400001928E-02 0.  1.
</event>
<event>
 5   0  0.4838602E-08  0.3102755E+04  0.7818609E-02  0.8214982E-01
        1   -1    0    0  501    0  0.00000000000E+00  0.00000000000E+00  0.26537839455E+04  0.26537839455E+04  0.50400001928E-02 0. -1.
       -1   -1    0    0    0  501  0.00000000000E+00  0.00000000000E+00 -0.90692085774E+03  0.90692085775E+03  0.50400001928E-02 0.  1.
    10030    2    1    2    0    0  0.00000000000E+00  0.00000000000E+00  0.17468630878E+04  0.35607048033E+04  0.31027549127E+04 0.  0.
        5    1    3    3  502    0  0.13239214169E+04  0.54738550313E+03  0.19029833145E+03  0.14452108331E+04  0.46999998093E+01 0.  1.
       -5    1    3    3    0  502 -0.13239214169E+04 -0.54738550313E+03  0.15565647563E+04  0.21154939702E+04  0.46999998093E+01 0. -1.
</event>
<event>
 5   0  0.1377237E-07  0.3099948E+04  0.7818609E-02  0.8215752E-01
        2   -1    0    0  501    0  0.00000000000E+00  0.00000000000E+00  0.21134483531E+04  0.21134483531E+04  0.25500000920E-02 0. -1.
       -2   -1    0    0    0  501  0.00000000000E+00  0.00000000000E+00 -0.11367295090E+04  0.11367295090E+04  0.25500000920E-02 0.  1.
    10030    2    1    2    0    0  0.00000000000E+00  0.00000000000E+00  0.97671884413E+03  0.32501778621E+04  0.30999478116E+04 0.  0.
        2    1    3    3  502    0 -0.14471220946E+04  0.36898379986E+03  0.53395831436E+02  0.14943769659E+04  0.25500000920E-02 0.  1.
       -2    1    3    3    0  502  0.14471220946E+04 -0.36898379986E+03  0.92332301269E+03  0.17558008962E+04  0.25500000920E-02 0. -1.
</event>
<event>
 5   0  0.1377237E-07  0.3098592E+04  0.7818609E-02  0.8216124E-01
        2   -1    0    0  501    0  0.00000000000E+00  0.00000000000E+00  0.20789042658E+04  0.20789042659E+04  0.25500000920E-02 0.  1.
       -2   -1    0    0    0  501  0.00000000000E+00  0.00000000000E+00 -0.11546076842E+04  0.11546076842E+04  0.25500000920E-02 0. -1.
    10030    2    1    2    0    0  0.00000000000E+00  0.00000000000E+00  0.92429658167E+03  0.32335119500E+04  0.30985924805E+04 0.  0.
        2    1    3    3  502    0  0.10389635118E+04 -0.10955255124E+04  0.82469099354E+03  0.17203884916E+04  0.25500000920E-02 0.  1.
       -2    1    3    3    0  502 -0.10389635118E+04  0.10955255124E+04  0.99605588125E+02  0.15131234584E+04  0.25500000920E-02 0. -1.
</event>
<event>
 5   0  0.4470354E-08  0.3100555E+04  0.7818609E-02  0.8215586E-01
        1   -1    0    0  501    0  0.00000000000E+00  0.00000000000E+00  0.23978202721E+04  0.23978202721E+04  0.50400001928E-02 0. -1.
       -1   -1    0    0    0  501  0.00000000000E+00  0.00000000000E+00 -0.10023103459E+04  0.10023103460E+04  0.50400001928E-02 0.  1.
    10030    2    1    2    0    0  0.00000000000E+00  0.00000000000E+00  0.13955099262E+04  0.34001306181E+04  0.31005548320E+04 0.  0.
        1    1    3    3  502    0 -0.20570944755E+03  0.10088646975E+04  0.19687161842E+04  0.22217037986E+04  0.50400001928E-02 0. -1.
       -1    1    3    3    0  502  0.20570944755E+03 -0.10088646975E+04 -0.57320625801E+03  0.11784268195E+04  0.50400001928E-02 0.  1.
</event>
<event>
 5   0  0.1398931E-07  0.3096567E+04  0.7818609E-02  0.8216681E-01
        2   -1    0    0  501    0  0.00000000000E+00  0.00000000000E+00  0.16473219841E+04  0.16473219841E+04  0.25500000920E-02 0.  1.
       -2   -1    0    0    0  501  0.00000000000E+00  0.00000000000E+00 -0.14551996427E+04  0.14551996427E+04  0.25500000920E-02 0. -1.
    10030    2    1    2    0    0  0.00000000000E+00  0.00000000000E+00  0.19212234142E+03  0.31025216267E+04  0.30965673657E+04 0.  0.
        3    1    3    3  502    0  0.83912523732E+03 -0.60596743844E+03 -0.10576105400E+04  0.14798201799E+04  0.10100000352E+00 0. -1.
       -3    1    3    3    0  502 -0.83912523732E+03  0.60596743844E+03  0.12497328814E+04  0.16227014468E+04  0.10100000352E+00 0.  1.
</event>
<event>
 5   0  0.1398931E-07  0.3099459E+04  0.7818609E-02  0.8215886E-01
       -2   -1    0    0    0  501  0.00000000000E+00  0.00000000000E+00  0.14543446370E+04  0.14543446370E+04  0.25500000920E-02 0. -1.
        2   -1    0    0  501    0  0.00000000000E+00  0.00000000000E+00 -0.16513700809E+04  0.16513700809E+04  0.25500000920E-02 0.  1.
    10030    2    1    2    0    0  0.00000000000E+00  0.00000000000E+00 -0.19702544394E+03  0.31057147179E+04  0.30994588050E+04 0.  0.
        3    1    3    3  502    0  0.10476453766E+01 -0.91156901985E+03  0.11572933972E+04  0.14731894627E+04  0.10100000352E+00 0. -1.
       -3    1    3    3    0  502 -0.10476453766E+01  0.91156901985E+03 -0.13543188411E+04  0.16325252553E+04  0.10100000352E+00 0.  1.
</event>
<event>
 5   0  0.1325713E-07  0.3099906E+04  0.7818609E-02  0.8215764E-01
       -2   -1    0    0    0  501  0.00000000000E+00  0.00000000000E+00  0.14479268535E+04  0.14479268535E+04  0.25500000920E-02 0. -1.
        2   -1    0    0  501    0  0.00000000000E+00  0.00000000000E+00 -0.16591686342E+04  0.16591686342E+04  0.25500000920E-02 0.  1.
    10030    2    1    2    0    0  0.00000000000E+00  0.00000000000E+00 -0.21124178065E+03  0.31070954877E+04  0.30999063340E+04 0.  0.
        4    1    3    3  502    0  0.44251595432E+02 -0.14972338546E+04  0.29365680061E+03  0.15264020926E+04  0.12699999809E+01 0. -1.
       -4    1    3    3    0  502 -0.44251595432E+02  0.14972338546E+04 -0.50489858125E+03  0.15806933951E+04  0.12699999809E+01 0.  1.
</event>
<event>
 5   0  0.4450600E-08  0.3099930E+04  0.7818609E-02  0.8215757E-01
        1   -1    0    0  501    0  0.00000000000E+00  0.00000000000E+00  0.23143532660E+04  0.23143532660E+04  0.50400001928E-02 0.  1.
       -1   -1    0    0    0  501  0.00000000000E+00  0.00000000000E+00 -0.10380401680E+04  0.10380401681E+04  0.50400001928E-02 0. -1.
    10030    2    1    2    0    0  0.00000000000E+00  0.00000000000E+00  0.12763130979E+04  0.33523934340E+04  0.30999300980E+04 0.  0.
        4    1    3    3  502    0 -0.92576181957E+03 -0.11556561424E+04  0.11335158087E+04  0.18647883975E+04  0.12699999809E+01 0.  1.
       -4    1    3    3    0  502  0.92576181957E+03  0.11556561424E+04  0.14279728922E+03  0.14876050365E+04  0.12699999809E+01 0. -1.
</event>
<event>
 5   0  0.4450600E-08  0.3097998E+04  0.7818609E-02  0.8216288E-01
       -1   -1    0    0    0  501  0.00000000000E+00  0.00000000000E+00  0.10491745000E+04  0.10491745001E+04  0.50400001928E-02 0.  1.
        1   -1    0    0  501    0  0.00000000000E+00  0.00000000000E+00 -0.22869390469E+04  0.22869390470E+04  0.50400001928E-02 0. -1.
    10030    2    1    2    0    0  0.00000000000E+00  0.00000000000E+00 -0.12377645469E+04  0.33361135470E+04  0.30979981480E+04 0.  0.
        4    1    3    3  502    0 -0.43613620660E+03  0.73519404691E+03  0.77217524061E+03  0.11519467403E+04  0.12699999809E+01 0.  1.
       -4    1    3    3    0  502  0.43613620660E+03 -0.73519404691E+03 -0.20099397875E+04  0.21841668067E+04  0.12699999809E+01 0. -1.
</event>
<event>
 5   0  0.1318916E-07  0.3110443E+04  0.7818609E-02  0.8212878E-01
        2   -1    0    0  501    0  0.00000000000E+00  0.00000000000E+00  0.97361589242E+03  0.97361589242E+03  0.25500000920E-02 0.  1.
       -2   -1    0    0    0  501  0.00000000000E+00  0.00000000000E+00 -0.24842593902E+04  0.24842593902E+04  0.25500000920E-02 0. -1.
    10030    2    1    2    0    0  0.00000000000E+00  0.00000000000E+00 -0.15106434978E+04  0.34578752827E+04  0.31104433274E+04 0.  0.
        5    1    3    3  502    0 -0.10337313180E+04 -0.44208192715E+03 -0.19498962497E+04  0.22508119297E+04  0.46999998093E+01 0. -1.
       -5    1    3    3    0  502  0.10337313180E+04  0.44208192715E+03  0.43925275190E+03  0.12070633530E+04  0.46999998093E+01 0.  1.
</event>
<event>
 5   0  0.4450600E-08  0.3100564E+04  0.7818609E-02  0.8215583E-01
        1   -1    0    0  501    0  0.00000000000E+00  0.00000000000E+00  0.12532638933E+04  0.12532638933E+04  0.50400001928E-02 0. -1.
       -1   -1    0    0    0  501  0.00000000000E+00  0.00000000000E+00 -0.19176916224E+04  0.19176916224E+04  0.50400001928E-02 0.  1.
    10030    2    1    2    0    0  0.00000000000E+00  0.00000000000E+00 -0.66442772904E+03  0.31709555157E+04  0.31005636061E+04 0.  0.
        4    1    3    3  502    0  0.11427520105E+04  0.97997351331E+03 -0.71094799619E+03  0.16648360011E+04  0.12699999809E+01 0. -1.
       -4    1    3    3    0  502 -0.11427520105E+04 -0.97997351331E+03  0.46520267148E+02  0.15061195146E+04  0.12699999809E+01 0.  1.
</event>
<event>
 5   0  0.1398931E-07  0.3099659E+04  0.7818609E-02  0.8215832E-01
       -2   -1    0    0    0  501  0.00000000000E+00  0.00000000000E+00  0.14175989554E+04  0.14175989554E+04  0.25500000920E-02 0.  1.
        2   -1    0    0  501    0  0.00000000000E+00  0.00000000000E+00 -0.16943939534E+04  0.16943939534E+04  0.25500000920E-02 0. -1.
    10030    2    1    2    0    0  0.00000000000E+00  0.00000000000E+00 -0.27679499803E+03  0.31119929088E+04  0.30996587543E+04 0.  0.
        3    1    3    3  502    0 -0.56770873956E+02 -0.13845614938E+04  0.55843756907E+03  0.14940167305E+04  0.10100000352E+00 0.  1.
       -3    1    3    3    0  502  0.56770873956E+02  0.13845614938E+04 -0.83523256710E+03  0.16179761783E+04  0.10100000352E+00 0. -1.
</event>
<event>
 5   0  0.1318916E-07  0.3103274E+04  0.7818609E-02  0.8214840E-01
        2   -1    0    0  501    0  0.00000000000E+00  0.00000000000E+00  0.19868575292E+04  0.19868575292E+04  0.25500000920E-02 0. -1.
       -2   -1    0    0    0  501  0.00000000000E+00  0.00000000000E+00 -0.12117513631E+04  0.12117513631E+04  0.25500000920E-02 0.  1.
    10030    2    1    2    0    0  0.00000000000E+00  0.00000000000E+00  0.77510616605E+03  0.31986088923E+04  0.31032739610E+04 0.  0.
        5    1    3    3  502    0  0.11826470279E+04  0.30913583090E+03  0.13725987757E+04  0.18380066495E+04  0.46999998093E+01 0. -1.
       -5    1    3    3    0  502 -0.11826470279E+04 -0.30913583090E+03 -0.59749260969E+03  0.13606022428E+04  0.46999998093E+01 0.  1.
</event>
<event>
 5   0  0.4450600E-08  0.3099974E+04  0.7818609E-02  0.8215745E-01
        1   -1    0    0  501    0  0.00000000000E+00  0.00000000000E+00  0.21341446161E+04  0.21341446161E+04  0.50400001928E-02 0. -1.
       -1   -1    0    0    0  501  0.00000000000E+00  0.00000000000E+00 -0.11257250317E+04  0.11257250317E+04  0.50400001928E-02 0.  1.
    10030    2    1    2    0    0  0.00000000000E+00  0.00000000000E+00  0.10084195844E+04  0.32598696479E+04  0.30999742036E+04 0.  0.
        4    1    3    3  502    0  0.12807698105E+03  0.14621954321E+04  0.10279336070E+04  0.17919453976E+04  0.12699999809E+01 0. -1.
       -4    1    3    3    0  502 -0.12807698105E+03 -0.14621954321E+04 -0.19514022617E+02  0.14679242503E+04  0.12699999809E+01 0.  1.
</event>
<event>
 5   0  0.4436241E-08  0.3099400E+04  0.7818609E-02  0.8215903E-01
        1   -1    0    0  501    0  0.00000000000E+00  0.00000000000E+00  0.11252735590E+04  0.11252735590E+04  0.50400001928E-02 0. -1.
       -1   -1    0    0    0  501  0.00000000000E+00  0.00000000000E+00 -0.21342095116E+04  0.21342095116E+04  0.50400001928E-02 0.  1.
    10030    2    1    2    0    0  0.00000000000E+00  0.00000000000E+00 -0.10089359526E+04  0.32594830706E+04  0.30993996405E+04 0.  0.
        3    1    3    3  502    0 -0.59917777033E+03 -0.13123465040E+04  0.90715815198E+02  0.14455091547E+04  0.10100000352E+00 0. -1.
       -3    1    3    3    0  502  0.59917777033E+03  0.13123465040E+04 -0.10996517678E+04  0.18139739159E+04  0.10100000352E+00 0.  1.
</event>
<event>
 5   0  0.4450600E-08  0.3103691E+04  0.7818609E-02  0.8214726E-01
       -1   -1    0    0    0  501  0.00000000000E+00  0.00000000000E+00  0.11487534426E+04  0.11487534426E+04  0.50400001928E-02 0.  1.
        1   -1    0    0  501    0  0.00000000000E+00  0.00000000000E+00 -0.20963802924E+04  0.20963802924E+04  0.50400001928E-02 0. -1.
    10030    2    1    2    0    0  0.00000000000E+00  0.00000000000E+00 -0.94762684976E+03  0.32451337350E+04  0.31036907565E+04 0.  0.
        4    1    3    3  502    0 -0.78416263084E+03 -0.13201339471E+04 -0.23871581194E+03  0.15539149017E+04  0.12699999809E+01 0.  1.
       -4    1    3    3    0  502  0.78416263084E+03  0.13201339471E+04 -0.70891103782E+03  0.16912188334E+04  0.12699999809E+01 0. -1.
</event>
<event>
 5   0  0.1318916E-07  0.3100422E+04  0.7818609E-02  0.8215622E-01
        2   -1    0    0  501    0  0.00000000000E+00  0.00000000000E+00  0.15225331860E+04  0.15225331861E+04  0.25500000920E-02 0. -1.
       -2   -1    0    0    0  501  0.00000000000E+00  0.00000000000E+00 -0.15783918290E+04  0.15783918290E+04  0.25500000920E-02 0.  1.
    10030    2    1    2    0    0  0.00000000000E+00  0.00000000000E+00 -0.55858642994E+02  0.31009250151E+04  0.31004218683E+04 0.  0.
        5    1    3    3  502    0 -0.13190275266E+04  0.81371864644E+03  0.61378959763E+01  0.15498488363E+04  0.46999998093E+01 0. -1.
       -5    1    3    3    0  502  0.13190275266E+04 -0.81371864644E+03 -0.61996538970E+02  0.15510761788E+04  0.46999998093E+01 0.  1.
</event>
<event>
 5   0  0.4450600E-08  0.3100294E+04  0.7818609E-02  0.8215657E-01
       -1   -1    0    0    0  501  0.00000000000E+00  0.00000000000E+00  0.12397316414E+04  0.12397316414E+04  0.50400001928E-02 0. -1.
        1   -1    0    0  501    0  0.00000000000E+00  0.00000000000E+00 -0.19382870390E+04  0.19382870390E+04  0.50400001928E-02 0.  1.
    10030    2    1    2    0    0  0.00000000000E+00  0.00000000000E+00 -0.69855539761E+03  0.31780186804E+04  0.31002940328E+04 0.  0.
        4    1    3    3  502    0 -0.94586763882E+03  0.10463663360E+04 -0.10083635379E+04  0.17338819847E+04  0.12699999809E+01 0.  1.
       -4    1    3    3    0  502  0.94586763882E+03 -0.10463663360E+04  0.30980814028E+03  0.14441366957E+04  0.12699999809E+01 0. -1.
</event>
<event>
 5   0  0.4517409E-08  0.3102969E+04  0.7818609E-02  0.8214924E-01
       -1   -1    0    0    0  501  0.00000000000E+00  0.00000000000E+00  0.16151889691E+04  0.16151889691E+04  0.50400001928E-02 0.  1.
        1   -1    0    0  501    0  0.00000000000E+00  0.00000000000E+00 -0.14902923834E+04  0.14902923834E+04  0.50400001928E-02 0. -1.
    10030    2    1    2    0    0  0.00000000000E+00  0.00000000000E+00  0.12489658568E+03  0.31054813525E+04  0.31029687838E+04 0.  0.
        2    1    3    3  502    0 -0.13027045524E+04  0.44764005748E+02  0.90459316915E+03  0.15866101502E+04  0.25500000920E-02 0.  1.
       -2    1    3    3    0  502  0.13027045524E+04 -0.44764005748E+02 -0.77969658346E+03  0.15188712023E+04  0.25500000920E-02 0. -1.
</event>
<event>
 5   0  0.4838602E-08  0.3099979E+04  0.7818609E-02  0.8215744E-01
        1   -1    0    0  501    0  0.00000000000E+00  0.00000000000E+00  0.24754266868E+04  0.24754266868E+04  0.50400001928E-02 0. -1.
       -1   -1    0    0    0  501  0.00000000000E+00  0.00000000000E+00 -0.97052656554E+03  0.97052656555E+03  0.50400001928E-02 0.  1.
    10030    2    1    2    0    0  0.00000000000E+00  0.00000000000E+00  0.15049001212E+04  0.34459532523E+04  0.30999789422E+04 0.  0.
        5    1    3    3  502    0  0.13049831850E+04 -0.77415064326E+03  0.40065736089E+03  0.15693434113E+04  0.46999998093E+01 0.  1.
       -5    1    3    3    0  502 -0.13049831850E+04  0.77415064326E+03  0.11042427603E+04  0.18766098410E+04  0.46999998093E+01 0. -1.
</event>
<event>
 5   0  0.1377237E-07  0.3099117E+04  0.7818609E-02  0.8215980E-01
        2   -1    0    0  501    0  0.00000000000E+00  0.00000000000E+00  0.14585424642E+04  0.14585424642E+04  0.25500000920E-02 0. -1.
       -2   -1    0    0    0  501  0.00000000000E+00  0.00000000000E+00 -0.16462537508E+04  0.16462537508E+04  0.25500000920E-02 0.  1.
    10030    2    1    2    0    0  0.00000000000E+00  0.00000000000E+00 -0.18771128665E+03  0.31047962150E+04  0.30991166499E+04 0.  0.
        2    1    3    3  502    0 -0.29101257405E+03 -0.36320470268E+01  0.14309156953E+04  0.14602127369E+04  0.25500000920E-02 0. -1.
       -2    1    3    3    0  502  0.29101257405E+03  0.36320470268E+01 -0.16186269819E+04  0.16445834781E+04  0.25500000920E-02 0.  1.
</event>
<event>
 5   0  0.1325713E-07  0.3109330E+04  0.7818609E-02  0.8213182E-01
       -2   -1    0    0    0  501  0.00000000000E+00  0.00000000000E+00  0.98786029731E+03  0.98786029731E+03  0.25500000920E-02 0. -1.
        2   -1    0    0  501    0  0.00000000000E+00  0.00000000000E+00 -0.24466856932E+04  0.24466856932E+04  0.25500000920E-02 0.  1.
    10030    2    1    2    0    0  0.00000000000E+00  0.00000000000E+00 -0.14588253959E+04  0.34345459905E+04  0.31093302535E+04 0.  0.
        4    1    3    3  502    0 -0.12366408119E+04 -0.72916109614E+02 -0.17670163450E+04  0.21579957445E+04  0.12699999809E+01 0. -1.
       -4    1    3    3    0  502  0.12366408119E+04  0.72916109614E+02  0.30819094913E+03  0.12765502460E+04  0.12699999809E+01 0.  1.
</event>
<event>
 5   0  0.1398931E-07  0.3099725E+04  0.7818609E-02  0.8215813E-01
        2   -1    0    0  501    0  0.00000000000E+00  0.00000000000E+00  0.21183490115E+04  0.21183490115E+04  0.25500000920E-02 0.  1.
       -2   -1    0    0    0  501  0.00000000000E+00  0.00000000000E+00 -0.11339369813E+04  0.11339369813E+04  0.25500000920E-02 0. -1.
    10030    2    1    2    0    0  0.00000000000E+00  0.00000000000E+00  0.98441203018E+03  0.32522859928E+04  0.30997253320E+04 0.  0.
        3    1    3    3  502    0  0.23260420262E+03 -0.12341081457E+04  0.14451742967E+04  0.19145903970E+04  0.10100000352E+00 0.  1.
       -3    1    3    3    0  502 -0.23260420262E+03  0.12341081457E+04 -0.46076226649E+03  0.13376955958E+04  0.10100000352E+00 0. -1.
</event>
<event>
 5   0  0.4470354E-08  0.3097369E+04  0.7818609E-02  0.8216460E-01
       -1   -1    0    0    0  501  0.00000000000E+00  0.00000000000E+00  0.11079353616E+04  0.11079353616E+04  0.50400001928E-02 0. -1.
        1   -1    0    0  501    0  0.00000000000E+00  0.00000000000E+00 -0.21647690692E+04  0.21647690692E+04  0.50400001928E-02 0.  1.
    10030    2    1    2    0    0  0.00000000000E+00  0.00000000000E+00 -0.10568337076E+04  0.32727044308E+04  0.30973693364E+04 0.  0.
        1    1    3    3  502    0  0.11434627353E+04  0.10430698756E+04 -0.58553634065E+03  0.16547974494E+04  0.50400001928E-02 0.  1.
       -1    1    3    3    0  502 -0.11434627353E+04 -0.10430698756E+04 -0.47129736700E+03  0.16179069814E+04  0.50400001928E-02 0. -1.
</event>
<event>
 5   0  0.4436241E-08  0.3099958E+04  0.7818609E-02  0.8215750E-01
       -1   -1    0    0    0  501  0.00000000000E+00  0.00000000000E+00  0.18006936252E+04  0.18006936253E+04  0.50400001928E-02 0. -1.
        1   -1    0    0  501    0  0.00000000000E+00  0.00000000000E+00 -0.13341717048E+04  0.13341717048E+04  0.50400001928E-02 0.  1.
    10030    2    1    2    0    0  0.00000000000E+00  0.00000000000E+00  0.46652192048E+03  0.31348653300E+04  0.30999577312E+04 0.  0.
        3    1    3    3  502    0 -0.93051964646E+03  0.17938449478E+03  0.14736078777E+04  0.17520176360E+04  0.10100000352E+00 0. -1.
       -3    1    3    3    0  502  0.93051964646E+03 -0.17938449478E+03 -0.10070859572E+04  0.13828476940E+04  0.10100000352E+00 0.  1.
</event>
<event>
 5   0  0.4838602E-08  0.3099778E+04  0.7818609E-02  0.8215799E-01
        1   -1    0    0  501    0  0.00000000000E+00  0.00000000000E+00  0.20567023252E+04  0.20567023252E+04  0.50400001928E-02 0. -1.
       -1   -1    0    0    0  501  0.00000000000E+00  0.00000000000E+00 -0.11679647593E+04  0.11679647593E+04  0.50400001928E-02 0.  1.
    10030    2    1    2    0    0  0.00000000000E+00  0.00000000000E+00  0.88873756589E+03  0.32246670845E+04  0.30997779508E+04 0.  0.
        5    1    3    3  502    0 -0.21896750042E+03  0.15315329423E+04  0.54080664899E+03  0.16389123958E+04  0.46999998093E+01 0. -1.
       -5    1    3    3    0  502  0.21896750042E+03 -0.15315329423E+04  0.34793091690E+03  0.15857546886E+04  0.46999998093E+01 0.  1.
</event>
<event>
 5   0  0.4838602E-08  0.3099760E+04  0.7818609E-02  0.8215804E-01
        1   -1    0    0  501    0  0.00000000000E+00  0.00000000000E+00  0.17896540990E+04  0.17896540990E+04  0.50400001928E-02 0.  1.
       -1   -1    0    0    0  501  0.00000000000E+00  0.00000000000E+00 -0.13422301820E+04  0.13422301820E+04  0.50400001928E-02 0. -1.
    10030    2    1    2    0    0  0.00000000000E+00  0.00000000000E+00  0.44742391703E+03  0.31318842810E+04  0.30997598275E+04 0.  0.
        5    1    3    3  502    0  0.12258395197E+02  0.52767917736E+03  0.16960408163E+04  0.17762804179E+04  0.46999998093E+01 0.  1.
       -5    1    3    3    0  502 -0.12258395197E+02 -0.52767917736E+03 -0.12486168993E+04  0.13556038631E+04  0.46999998093E+01 0. -1.
</event>
<event>
 5   0  0.1377237E-07  0.3100012E+04  0.7818609E-02  0.8215735E-01
        2   -1    0    0  501    0  0.00000000000E+00  0.00000000000E+00  0.99505511659E+03  0.99505511659E+03  0.25500000920E-02 0.  1.
       -2   -1    0    0    0  501  0.00000000000E+00  0.00000000000E+00 -0.24144580668E+04  0.24144580668E+04  0.25500000920E-02 0. -1.
    10030    2    1    2    0    0  0.00000000000E+00  0.00000000000E+00 -0.14194029502E+04  0.34095131833E+04  0.31000121633E+04 0.  0.
        2    1    3    3  502    0  0.12103692718E+04 -0.31229237792E+03 -0.17177193753E+04  0.21244011287E+04  0.25500000920E-02 0. -1.
       -2    1    3    3    0  502 -0.12103692718E+04  0.31229237792E+03  0.29831642509E+03  0.12851120546E+04  0.25500000920E-02 0.  1.
</event>
<event>
 5   0  0.1377237E-07  0.3099830E+04  0.7818609E-02  0.8215785E-01
       -2   -1    0    0    0  501  0.00000000000E+00  0.00000000000E+00  0.13907710537E+04  0.13907710537E+04  0.25500000920E-02 0. -1.
        2   -1    0    0  501    0  0.00000000000E+00  0.00000000000E+00 -0.17272698180E+04  0.17272698180E+04  0.25500000920E-02 0.  1.
    10030    2    1    2    0    0  0.00000000000E+00  0.00000000000E+00 -0.33649876424E+03  0.31180408717E+04  0.30998302307E+04 0.  0.
        2    1    3    3  502    0 -0.92104473943E+03 -0.21792996566E+03  0.10663240545E+04  0.14257853524E+04  0.25500000920E-02 0. -1.
       -2    1    3    3    0  502  0.92104473943E+03  0.21792996566E+03 -0.14028228187E+04  0.16922555193E+04  0.25500000920E-02 0.  1.
</event>
<event>
 5   0  0.4436241E-08  0.3101906E+04  0.7818609E-02  0.8215215E-01
        1   -1    0    0  501    0  0.00000000000E+00  0.00000000000E+00  0.16245818479E+04  0.16245818479E+04  0.50400001928E-02 0. -1.
       -1   -1    0    0    0  501  0.00000000000E+00  0.00000000000E+00 -0.14806611355E+04  0.14806611356E+04  0.50400001928E-02 0.  1.
    10030    2    1    2    0    0  0.00000000000E+00  0.00000000000E+00  0.14392071236E+03  0.31052429835E+04  0.31019059971E+04 0.  0.
        3    1    3    3  502    0  0.71139482019E+03 -0.23864111546E+03  0.14307794238E+04  0.16155995612E+04  0.10100000352E+00 0. -1.
       -3    1    3    3    0  502 -0.71139482019E+03  0.23864111546E+03 -0.12868587115E+04  0.14896434223E+04  0.10100000352E+00 0.  1.
</event>
<event>
 5   0  0.4470354E-08  0.3100768E+04  0.7818609E-02  0.8215527E-01
       -1   -1    0    0    0  501  0.00000000000E+00  0.00000000000E+00  0.11081933286E+04  0.11081933287E+04  0.50400001928E-02 0. -1.
        1   -1    0    0  501    0  0.00000000000E+00  0.00000000000E+00 -0.21690167904E+04  0.21690167904E+04  0.50400001928E-02 0.  1.
    10030    2    1    2    0    0  0.00000000000E+00  0.00000000000E+00 -0.10608234618E+04  0.32772101191E+04  0.31007676062E+04 0.  0.
        1    1    3    3  502    0  0.44196049050E+03  0.14856015276E+04 -0.49159356008E+03  0.16260397296E+04  0.50400001928E-02 0. -1.
       -1    1    3    3    0  502 -0.44196049050E+03 -0.14856015276E+04 -0.56922990169E+03  0.16511703895E+04  0.50400001928E-02 0.  1.
</event>
<event>
 5   0  0.1398931E-07  0.3100485E+04  0.7818609E-02  0.8215605E-01
        2   -1    0    0  501    0  0.00000000000E+00  0.00000000000E+00  0.78357211890E+03  0.78357211891E+03  0.25500000920E-02 0.  1.
       -2   -1    0    0    0  501  0.00000000000E+00  0.00000000000E+00 -0.30670455376E+04  0.30670455376E+04  0.25500000920E-02 0. -1.
    10030    2    1    2    0    0  0.00000000000E+00  0.00000000000E+00 -0.22834734187E+04  0.38506176565E+04  0.31004847174E+04 0.  0.
        3    1    3    3  502    0 -0.56376968928E+03  0.12189039079E+04 -0.17998356921E+03  0.13549749424E+04  0.10100000352E+00 0.  1.
       -3    1    3    3    0  502  0.56376968928E+03 -0.12189039079E+04 -0.21034898495E+04  0.24956427141E+04  0.10100000352E+00 0. -1.
</event>
<event>
 5   0  0.1318916E-07  0.3099777E+04  0.7818609E-02  0.8215799E-01
       -2   -1    0    0    0  501  0.00000000000E+00  0.00000000000E+00  0.11570295984E+04  0.11570295984E+04  0.25500000920E-02 0. -1.
        2   -1    0    0  501    0  0.00000000000E+00  0.00000000000E+00 -0.20761393523E+04  0.20761393523E+04  0.25500000920E-02 0.  1.
    10030    2    1    2    0    0  0.00000000000E+00  0.00000000000E+00 -0.91910975390E+03  0.32331689507E+04  0.30997772055E+04 0.  0.
        5    1    3    3  502    0  0.86832714793E+03  0.65284716120E+03 -0.16125335797E+04  0.19443477280E+04  0.46999998093E+01 0.  1.
       -5    1    3    3    0  502 -0.86832714793E+03 -0.65284716120E+03  0.69342382584E+03  0.12888212227E+04  0.46999998093E+01 0. -1.
</event>
<event>
 5   0  0.4517409E-08  0.3097650E+04  0.7818609E-02  0.8216383E-01
        1   -1    0    0  501    0  0.00000000000E+00  0.00000000000E+00  0.21870504686E+04  0.21870504686E+04  0.50400001928E-02 0.  1.
       -1   -1    0    0    0  501  0.00000000000E+00  0.00000000000E+00 -0.10968465220E+04  0.10968465221E+04  0.50400001928E-02 0. -1.
    10030    2    1    2    0    0  0.00000000000E+00  0.00000000000E+00  0.10902039466E+04  0.32838969907E+04  0.30976498834E+04 0.  0.
        2    1    3    3  502    0 -0.95365200010E+03 -0.61033881283E+03 -0.57527196933E+03  0.12700013553E+04  0.25500000920E-02 0. -1.
       -2    1    3    3    0  502  0.95365200010E+03  0.61033881283E+03  0.16654759159E+04  0.20138956354E+04  0.25500000920E-02 0.  1.
</event>
<event>
 5   0  0.4517409E-08  0.3099155E+04  0.7818609E-02  0.8215970E-01
        1   -1    0    0  501    0  0.00000000000E+00  0.00000000000E+00  0.17066197808E+04  0.17066197808E+04  0.50400001928E-02 0. -1.
       -1   -1    0    0    0  501  0.00000000000E+00  0.00000000000E+00 -0.14069864976E+04  0.14069864976E+04  0.50400001928E-02 0.  1.
    10030    2    1    2    0    0  0.00000000000E+00  0.00000000000E+00  0.29963328325E+03  0.31136062784E+04  0.30991553611E+04 0.  0.
        2    1    3    3  502    0 -0.12398151178E+04 -0.37127894088E+03 -0.70633144440E+03  0.14744129977E+04  0.25500000920E-02 0.  1.
       -2    1    3    3    0  502  0.12398151178E+04  0.37127894088E+03  0.10059647276E+04  0.16391932807E+04  0.25500000920E-02 0. -1.
</event>
<event>
 5   0  0.4436241E-08  0.3099196E+04  0.7818609E-02  0.8215959E-01
       -1   -1    0    0    0  501  0.00000000000E+00  0.00000000000E+00  0.11667165088E+04  0.11667165089E+04  0.50400001928E-02 0.  1.
        1   -1    0    0  501    0  0.00000000000E+00  0.00000000000E+00 -0.20581291630E+04  0.20581291630E+04  0.50400001928E-02 0. -1.
    10030    2    1    2    0    0  0.00000000000E+00  0.00000000000E+00 -0.89141265420E+03  0.32248456719E+04  0.30991955549E+04 0.  0.
        3    1    3    3  502    0 -0.49019701960E+03  0.80053958671E+03  0.83720174253E+03  0.12578010637E+04  0.10100000352E+00 0.  1.
       -3    1    3    3    0  502  0.49019701960E+03 -0.80053958671E+03 -0.17286143967E+04  0.19670446082E+04  0.10100000352E+00 0. -1.
</event>
<event>
 5   0  0.1398931E-07  0.3100601E+04  0.7818609E-02  0.8215573E-01
       -2   -1    0    0    0  501  0.00000000000E+00  0.00000000000E+00  0.11133595609E+04  0.11133595609E+04  0.25500000920E-02 0. -1.
        2   -1    0    0  501    0  0.00000000000E+00  0.00000000000E+00 -0.21587200642E+04  0.21587200642E+04  0.25500000920E-02 0.  1.
    10030    2    1    2    0    0  0.00000000000E+00  0.00000000000E+00 -0.10453605033E+04  0.32720796252E+04  0.31006009888E+04 0.  0.
        3    1    3    3  502    0 -0.60039078018E+03  0.50987624556E+03  0.88645371126E+03  0.11858511994E+04  0.10100000352E+00 0. -1.
       -3    1    3    3    0  502  0.60039078018E+03 -0.50987624556E+03 -0.19318142146E+04  0.20862284258E+04  0.10100000352E+00 0.  1.
</event>
<event>
 5   0  0.4838602E-08  0.3099465E+04  0.7818609E-02  0.8215885E-01
        1   -1    0    0  501    0  0.00000000000E+00  0.00000000000E+00  0.17747632424E+04  0.17747632424E+04  0.50400001928E-02 0. -1.
       -1   -1    0    0    0  501  0.00000000000E+00  0.00000000000E+00 -0.13532340816E+04  0.13532340816E+04  0.50400001928E-02 0.  1.
    10030    2    1    2    0    0  0.00000000000E+00  0.00000000000E+00  0.42152916080E+03  0.31279973240E+04  0.30994645385E+04 0.  0.
        5    1    3    3  502    0 -0.37934480977E+03  0.13174039640E+04  0.94004565623E+03  0.16622766361E+04  0.46999998093E+01 0. -1.
       -5    1    3    3    0  502  0.37934480977E+03 -0.13174039640E+04 -0.51851649543E+03  0.14657206879E+04  0.46999998093E+01 0.  1.
</event>
<event>
 5   0  0.4450600E-08  0.3101867E+04  0.7818609E-02  0.8215226E-01
       -1   -1    0    0    0  501  0.00000000000E+00  0.00000000000E+00  0.12732789435E+04  0.12732789435E+04  0.50400001928E-02 0.  1.
        1   -1    0    0  501    0  0.00000000000E+00  0.00000000000E+00 -0.18891336679E+04  0.18891336679E+04  0.50400001928E-02 0. -1.
    10030    2    1    2    0    0  0.00000000000E+00  0.00000000000E+00 -0.61585472437E+03  0.31624126114E+04  0.31018666127E+04 0.  0.
        4    1    3    3  502    0 -0.10304872648E+04  0.86352857662E+03  0.48034423348E+03  0.14276966768E+04  0.12699999809E+01 0.  1.
       -4    1    3    3    0  502  0.10304872648E+04 -0.86352857662E+03 -0.10961989579E+04  0.17347159346E+04  0.12699999809E+01 0. -1.
</event>
<event>
 5   0  0.1398931E-07  0.3099461E+04  0.7818609E-02  0.8215886E-01
       -2   -1    0    0    0  501  0.00000000000E+00  0.00000000000E+00  0.13993502902E+04  0.13993502902E+04  0.25500000920E-02 0. -1.
        2   -1    0    0  501    0  0.00000000000E+00  0.00000000000E+00 -0.17162706904E+04  0.17162706904E+04  0.25500000920E-02 0.  1.
    10030    2    1    2    0    0  0.00000000000E+00  0.00000000000E+00 -0.31692040015E+03  0.31156209806E+04  0.30994605264E+04 0.  0.
        3    1    3    3  502    0  0.24607571292E+03 -0.86076563206E+03 -0.14300432006E+04  0.16871556821E+04  0.10100000352E+00 0.  1.
       -3    1    3    3    0  502 -0.24607571292E+03  0.86076563206E+03  0.11131228005E+04  0.14284652985E+04  0.10100000352E+00 0. -1.
</event>
<event>
 5   0  0.1318916E-07  0.3101128E+04  0.7818609E-02  0.8215428E-01
        2   -1    0    0  501    0  0.00000000000E+00  0.00000000000E+00  0.12288202974E+04  0.12288202974E+04  0.25500000920E-02 0. -1.
       -2   -1    0    0    0  501  0.00000000000E+00  0.00000000000E+00 -0.19565504184E+04  0.19565504184E+04  0.25500000920E-02 0.  1.
    10030    2    1    2    0    0  0.00000000000E+00  0.00000000000E+00 -0.72773012093E+03  0.31853707158E+04  0.31011280960E+04 0.  0.
        5    1    3    3  502    0  0.15189053062E+04  0.23573902024E+03 -0.57331751589E+03  0.16405368874E+04  0.46999998093E+01 0.  1.
       -5    1    3    3    0  502 -0.15189053062E+04 -0.23573902024E+03 -0.15441260504E+03  0.15448338284E+04  0.46999998093E+01 0. -1.
</event>
<event>
 5   0  0.1318916E-07  0.3093112E+04  0.7818609E-02  0.8217631E-01
        2   -1    0    0  501    0  0.00000000000E+00  0.00000000000E+00  0.26881840417E+04  0.26881840417E+04  0.25500000920E-02 0. -1.
       -2   -1    0    0    0  501  0.00000000000E+00  0.00000000000E+00 -0.88975901605E+03  0.88975901606E+03  0.25500000920E-02 0.  1.
    10030    2    1    2    0    0  0.00000000000E+00  0.00000000000E+00  0.17984250257E+04  0.35779430578E+04  0.30931123406E+04 0.  0.
        5    1    3    3  502    0  0.14165253873E+04 -0.31796738712E+01  0.16171960295E+04  0.21498603143E+04  0.46999998093E+01 0. -1.
       -5    1    3    3    0  502 -0.14165253873E+04  0.31796738712E+01  0.18122899618E+03  0.14280827435E+04  0.46999998093E+01 0.  1.
</event>
<event>
 5   0  0.1318916E-07  0.3100084E+04  0.7818609E-02  0.8215715E-01
        2   -1    0    0  501    0  0.00000000000E+00  0.00000000000E+00  0.20341970692E+04  0.20341970692E+04  0.25500000920E-02 0. -1.
       -2   -1    0    0    0  501  0.00000000000E+00  0.00000000000E+00 -0.11811198660E+04  0.11811198660E+04  0.25500000920E-02 0.  1.
    10030    2    1    2    0    0  0.00000000000E+00  0.00000000000E+00  0.85307720315E+03  0.32153169352E+04  0.31000842374E+04 0.  0.
        5    1    3    3  502    0  0.81855170969E+03  0.45477390576E+03  0.17076701590E+04  0.19475640346E+04  0.46999998093E+01 0. -1.
       -5    1    3    3    0  502 -0.81855170969E+03 -0.45477390576E+03 -0.85459295587E+03  0.12677529006E+04  0.46999998093E+01 0.  1.
</event>
<event>
 5   0  0.1377237E-07  0.3094221E+04  0.7818609E-02  0.8217326E-01
        2   -1    0    0  501    0  0.00000000000E+00  0.00000000000E+00  0.23973997052E+04  0.23973997052E+04  0.25500000920E-02 0. -1.
       -2   -1    0    0    0  501  0.00000000000E+00  0.00000000000E+00 -0.99839481449E+03  0.99839481449E+03  0.25500000920E-02 0.  1.
    10030    2    1    2    0    0  0.00000000000E+00  0.00000000000E+00  0.13990048907E+04  0.33957945197E+04  0.30942213456E+04 0.  0.
        2    1    3    3  502    0  0.82880176932E+03 -0.28037400956E+02 -0.73387584576E+03  0.11073717649E+04  0.25500000920E-02 0.  1.
       -2    1    3    3    0  502 -0.82880176932E+03  0.28037400956E+02  0.21328807364E+04  0.22884227548E+04  0.25500000920E-02 0. -1.
</event>
<event>
 5   0  0.1325713E-07  0.3100175E+04  0.7818609E-02  0.8215690E-01
        2   -1    0    0  501    0  0.00000000000E+00  0.00000000000E+00  0.20054988681E+04  0.20054988681E+04  0.25500000920E-02 0.  1.
       -2   -1    0    0    0  501  0.00000000000E+00  0.00000000000E+00 -0.11980916588E+04  0.11980916589E+04  0.25500000920E-02 0. -1.
    10030    2    1    2    0    0  0.00000000000E+00  0.00000000000E+00  0.80740720929E+03  0.32035905270E+04  0.31001751342E+04 0.  0.
        4    1    3    3  502    0  0.91863432592E+02  0.12567667117E+04 -0.52910922175E+03  0.13666966157E+04  0.12699999809E+01 0. -1.
       -4    1    3    3    0  502 -0.91863432592E+02 -0.12567667117E+04  0.13365164310E+04  0.18368939113E+04  0.12699999809E+01 0.  1.
</event>
<event>
 5   0  0.1318916E-07  0.3098473E+04  0.7818609E-02  0.8216157E-01
        2   -1    0    0  501    0  0.00000000000E+00  0.00000000000E+00  0.18665556108E+04  0.18665556108E+04  0.25500000920E-02 0.  1.
       -2   -1    0    0    0  501  0.00000000000E+00  0.00000000000E+00 -0.12858626868E+04  0.12858626868E+04  0.25500000920E-02 0. -1.
    10030    2    1    2    0    0  0.00000000000E+00  0.00000000000E+00  0.58069292400E+03  0.31524182976E+04  0.30984733097E+04 0.  0.
        5    1    3    3  502    0 -0.11850753092E+04  0.55344215067E+03 -0.55441676752E+03  0.14205990795E+04  0.46999998093E+01 0. -1.
       -5    1    3    3    0  502  0.11850753092E+04 -0.55344215067E+03  0.11351096915E+04  0.17318192181E+04  0.46999998093E+01 0.  1.
</event>
<event>
 5   0  0.1318916E-07  0.3101113E+04  0.7818609E-02  0.8215432E-01
       -2   -1    0    0    0  501  0.00000000000E+00  0.00000000000E+00  0.14622854406E+04  0.14622854406E+04  0.25500000920E-02 0.  1.
        2   -1    0    0  501    0  0.00000000000E+00  0.00000000000E+00 -0.16441564578E+04  0.16441564578E+04  0.25500000920E-02 0. -1.
    10030    2    1    2    0    0  0.00000000000E+00  0.00000000000E+00 -0.18187101717E+03  0.31064418985E+04  0.31011133810E+04 0.  0.
        5    1    3    3  502    0 -0.12792028942E+04  0.82799345603E+03  0.19638612418E+03  0.15363992995E+04  0.46999998093E+01 0.  1.
       -5    1    3    3    0  502  0.12792028942E+04 -0.82799345603E+03 -0.37825714135E+03  0.15700425990E+04  0.46999998093E+01 0. -1.
</event>
<event>
 5   0  0.1329777E-07  0.3098554E+04  0.7818609E-02  0.8216135E-01
       -2   -1    0    0    0  501  0.00000000000E+00  0.00000000000E+00  0.10165637077E+04  0.10165637077E+04  0.25500000920E-02 0. -1.
        2   -1    0    0  501    0  0.00000000000E+00  0.00000000000E+00 -0.23611495866E+04  0.23611495866E+04  0.25500000920E-02 0.  1.
    10030    2    1    2    0    0  0.00000000000E+00  0.00000000000E+00 -0.13445858790E+04  0.33777132943E+04  0.30985538422E+04 0.  0.
        1    1    3    3  502    0 -0.10916887120E+04 -0.98704283942E+03 -0.11998589492E+04  0.18988679018E+04  0.50400001928E-02 0.  1.
       -1    1    3    3    0  502  0.10916887120E+04  0.98704283942E+03 -0.14472692977E+03  0.14788453925E+04  0.50400001928E-02 0. -1.
</event>
<event>
 5   0  0.4305500E-08  0.3099037E+04  0.7818609E-02  0.8216002E-01
        3   -1    0    0  501    0  0.00000000000E+00  0.00000000000E+00  0.18734243183E+04  0.18734243210E+04  0.10100000352E+00 0. -1.
       -3   -1    0    0    0  501  0.00000000000E+00  0.00000000000E+00 -0.12816142621E+04  0.12816142661E+04  0.10100000352E+00 0.  1.
    10030    2    1    2    0    0  0.00000000000E+00  0.00000000000E+00  0.59181005624E+03  0.31550385871E+04  0.30990368412E+04 0.  0.
        5    1    3    3  502    0 -0.14109332614E+04 -0.11811585070E+03  0.93680557554E+03  0.16977369640E+04  0.46999998093E+01 0. -1.
       -5    1    3    3    0  502  0.14109332614E+04  0.11811585070E+03 -0.34499551930E+03  0.14573016231E+04  0.46999998093E+01 0.  1.
</event>
<event>
 5   0  0.1329777E-07  0.3100342E+04  0.7818609E-02  0.8215644E-01
       -2   -1    0    0    0  501  0.00000000000E+00  0.00000000000E+00  0.10600809146E+04  0.10600809146E+04  0.25500000920E-02 0. -1.
        2   -1    0    0  501    0  0.00000000000E+00  0.00000000000E+00 -0.22668366840E+04  0.22668366840E+04  0.25500000920E-02 0.  1.
    10030    2    1    2    0    0  0.00000000000E+00  0.00000000000E+00 -0.12067557694E+04  0.33269175986E+04  0.31003421135E+04 0.  0.
        1    1    3    3  502    0  0.11866740775E+04 -0.98855271624E+03 -0.74573193635E+03  0.17150941548E+04  0.50400001928E-02 0. -1.
       -1    1    3    3    0  502 -0.11866740775E+04  0.98855271624E+03 -0.46102383307E+03  0.16118234437E+04  0.50400001928E-02 0.  1.
</event>
<event>
 5   0  0.4517409E-08  0.3099697E+04  0.7818609E-02  0.8215821E-01
       -1   -1    0    0    0  501  0.00000000000E+00  0.00000000000E+00  0.10740825208E+04  0.10740825208E+04  0.50400001928E-02 0.  1.
        1   -1    0    0  501    0  0.00000000000E+00  0.00000000000E+00 -0.22363551652E+04  0.22363551652E+04  0.50400001928E-02 0. -1.
    10030    2    1    2    0    0  0.00000000000E+00  0.00000000000E+00 -0.11622726444E+04  0.33104376860E+04  0.30996967550E+04 0.  0.
        2    1    3    3  502    0  0.95276638397E+03  0.64847164361E+03  0.52553319192E+03  0.12666745402E+04  0.25500000920E-02 0.  1.
       -2    1    3    3    0  502 -0.95276638397E+03 -0.64847164361E+03 -0.16878058363E+04  0.20437631458E+04  0.25500000920E-02 0. -1.
</event>
<event>
 5   0  0.1398931E-07  0.3100012E+04  0.7818609E-02  0.8215735E-01
       -2   -1    0    0    0  501  0.00000000000E+00  0.00000000000E+00  0.18766289966E+04  0.18766289966E+04  0.25500000920E-02 0. -1.
        2   -1    0    0  501    0  0.00000000000E+00  0.00000000000E+00 -0.12802308714E+04  0.12802308714E+04  0.25500000920E-02 0.  1.
    10030    2    1    2    0    0  0.00000000000E+00  0.00000000000E+00  0.59639812520E+03  0.31568598679E+04  0.31000118551E+04 0.  0.
        3    1    3    3  502    0 -0.10529606858E+04  0.10563652010E+04 -0.13129906378E+03  0.14972885821E+04  0.10100000352E+00 0.  1.
       -3    1    3    3    0  502  0.10529606858E+04 -0.10563652010E+04  0.72769718898E+03  0.16595712858E+04  0.10100000352E+00 0. -1.
</event>
<event>
 5   0  0.4450600E-08  0.3100262E+04  0.7818609E-02  0.8215666E-01
        1   -1    0    0  501    0  0.00000000000E+00  0.00000000000E+00  0.22010868384E+04  0.22010868384E+04  0.50400001928E-02 0. -1.
       -1   -1    0    0    0  501  0.00000000000E+00  0.00000000000E+00 -0.10916907511E+04  0.10916907511E+04  0.50400001928E-02 0.  1.
    10030    2    1    2    0    0  0.00000000000E+00  0.00000000000E+00  0.11093960873E+04  0.32927775894E+04  0.31002620172E+04 0.  0.
        4    1    3    3  502    0 -0.11186807173E+04 -0.20617121455E+03  0.16731575295E+04  0.20232179439E+04  0.12699999809E+01 0. -1.
       -4    1    3    3    0  502  0.11186807173E+04  0.20617121455E+03 -0.56376144225E+03  0.12695596456E+04  0.12699999809E+01 0.  1.
</event>
<event>
 5   0  0.4470354E-08  0.3099660E+04  0.7818609E-02  0.8215831E-01
       -1   -1    0    0    0  501  0.00000000000E+00  0.00000000000E+00  0.14795441336E+04  0.14795441336E+04  0.50400001928E-02 0. -1.
        1   -1    0    0  501    0  0.00000000000E+00  0.00000000000E+00 -0.16234551765E+04  0.16234551765E+04  0.50400001928E-02 0.  1.
    10030    2    1    2    0    0  0.00000000000E+00  0.00000000000E+00 -0.14391104292E+03  0.31029993101E+04  0.30996603573E+04 0.  0.
        1    1    3    3  502    0  0.47373504717E+03  0.14426750404E+04  0.23860020757E+03  0.15370966874E+04  0.50400001928E-02 0. -1.
       -1    1    3    3    0  502 -0.47373504717E+03 -0.14426750404E+04 -0.38251125049E+03  0.15659026228E+04  0.50400001928E-02 0.  1.
</event>
<event>
 5   0  0.4838602E-08  0.3100751E+04  0.7818609E-02  0.8215532E-01
       -1   -1    0    0    0  501  0.00000000000E+00  0.00000000000E+00  0.93877671670E+03  0.93877671672E+03  0.50400001928E-02 0.  1.
        1   -1    0    0  501    0  0.00000000000E+00  0.00000000000E+00 -0.25604212853E+04  0.25604212853E+04  0.50400001928E-02 0. -1.
    10030    2    1    2    0    0  0.00000000000E+00  0.00000000000E+00 -0.16216445686E+04  0.34991980020E+04  0.31007508043E+04 0.  0.
        5    1    3    3  502    0  0.71173310078E+03 -0.58807488312E+03  0.59471364299E+03  0.10982269720E+04  0.46999998093E+01 0.  1.
       -5    1    3    3    0  502 -0.71173310078E+03  0.58807488312E+03 -0.22163582115E+04  0.24009710300E+04  0.46999998093E+01 0. -1.
</event>
<event>
 5   0  0.1325713E-07  0.3100311E+04  0.7818609E-02  0.8215653E-01
        2   -1    0    0  501    0  0.00000000000E+00  0.00000000000E+00  0.19242668424E+04  0.19242668424E+04  0.25500000920E-02 0.  1.
       -2   -1    0    0    0  501  0.00000000000E+00  0.00000000000E+00 -0.12487777685E+04  0.12487777685E+04  0.25500000920E-02 0. -1.
    10030    2    1    2    0    0  0.00000000000E+00  0.00000000000E+00  0.67548907384E+03  0.31730446109E+04  0.31003107286E+04 0.  0.
        4    1    3    3  502    0 -0.82170996766E+03 -0.78807838931E+03  0.14144252524E+04  0.18157299431E+04  0.12699999809E+01 0.  1.
       -4    1    3    3    0  502  0.82170996766E+03  0.78807838931E+03 -0.73893617854E+03  0.13573146678E+04  0.12699999809E+01 0. -1.
</event>
<event>
 5   0  0.4450600E-08  0.3099025E+04  0.7818609E-02  0.8216006E-01
        1   -1    0    0  501    0  0.00000000000E+00  0.00000000000E+00  0.19258333041E+04  0.19258333041E+04  0.50400001928E-02 0. -1.
       -1   -1    0    0    0  501  0.00000000000E+00  0.00000000000E+00 -0.12467271437E+04  0.12467271437E+04  0.50400001928E-02 0.  1.
    10030    2    1    2    0    0  0.00000000000E+00  0.00000000000E+00  0.67910616038E+03  0.31725604478E+04  0.30990247850E+04 0.  0.
        4    1    3    3  502    0  0.21723655541E+03  0.99238450326E+02  0.19068769738E+04  0.19217755845E+04  0.12699999809E+01 0. -1.
       -4    1    3    3    0  502 -0.21723655541E+03 -0.99238450326E+02 -0.12277708134E+04  0.12507848633E+04  0.12699999809E+01 0.  1.
</event>
<event>
 5   0  0.1377237E-07  0.3100327E+04  0.7818609E-02  0.8215648E-01
       -2   -1    0    0    0  501  0.00000000000E+00  0.00000000000E+00  0.16588660907E+04  0.16588660907E+04  0.25500000920E-02 0. -1.
        2   -1    0    0  501    0  0.00000000000E+00  0.00000000000E+00 -0.14485836180E+04  0.14485836180E+04  0.25500000920E-02 0.  1.
    10030    2    1    2    0    0  0.00000000000E+00  0.00000000000E+00  0.21028247267E+03  0.31074497088E+04  0.31003265915E+04 0.  0.
        2    1    3    3  502    0  0.12501502515E+04 -0.53433490160E+03  0.85157826567E+03  0.16042365727E+04  0.25500000920E-02 0. -1.
       -2    1    3    3    0  502 -0.12501502515E+04  0.53433490160E+03 -0.64129579300E+03  0.15032131361E+04  0.25500000920E-02 0.  1.
</event>
<event>
 5   0  0.1329777E-07  0.3099979E+04  0.7818609E-02  0.8215744E-01
        2   -1    0    0  501    0  0.00000000000E+00  0.00000000000E+00  0.24402924910E+04  0.24402924910E+04  0.25500000920E-02 0.  1.
       -2   -1    0    0    0  501  0.00000000000E+00  0.00000000000E+00 -0.98449978675E+03  0.98449978676E+03  0.25500000920E-02 0. -1.
    10030    2    1    2    0    0  0.00000000000E+00  0.00000000000E+00  0.14557927043E+04  0.34247922778E+04  0.30999789916E+04 0.  0.
        1    1    3    3  502    0 -0.40376583323E+03  0.11552290819E+04  0.17788232440E+04  0.21591186195E+04  0.50400001928E-02 0.  1.
       -1    1    3    3    0  502  0.40376583323E+03 -0.11552290819E+04 -0.32303053972E+03  0.12656736583E+04  0.50400001928E-02 0. -1.
</event>
<event>
 5   0  0.1318916E-07  0.3099933E+04  0.7818609E-02  0.8215756E-01
        2   -1    0    0  501    0  0.00000000000E+00  0.00000000000E+00  0.18752005032E+04  0.18752005032E+04  0.25500000920E-02 0.  1.
       -2   -1    0    0    0  501  0.00000000000E+00  0.00000000000E+00 -0.12811409399E+04  0.12811409399E+04  0.25500000920E-02 0. -1.
    10030    2    1    2    0    0  0.00000000000E+00  0.00000000000E+00  0.59405956336E+03  0.31563414431E+04  0.30999329897E+04 0.  0.
        5    1    3    3  502    0  0.73463351616E+02 -0.77568382187E+03  0.16612962161E+04  0.18349412697E+04  0.46999998093E+01 0.  1.
       -5    1    3    3    0  502 -0.73463351616E+02  0.77568382187E+03 -0.10672366527E+04  0.13214001735E+04  0.46999998093E+01 0. -1.
</event>
<event>
 5   0  0.4517409E-08  0.3099408E+04  0.7818609E-02  0.8215900E-01
        1   -1    0    0  501    0  0.00000000000E+00  0.00000000000E+00  0.17852287247E+04  0.17852287247E+04  0.50400001928E-02 0. -1.
       -1   -1    0    0    0  501  0.00000000000E+00  0.00000000000E+00 -0.13452518690E+04  0.13452518690E+04  0.50400001928E-02 0.  1.
    10030    2    1    2    0    0  0.00000000000E+00  0.00000000000E+00  0.43997685568E+03  0.31304805938E+04  0.30994078651E+04 0.  0.
        2    1    3    3  502    0  0.73697482211E+03  0.13613344149E+04  0.14702151408E+03  0.15549850813E+04  0.25500000920E-02 0.  1.
       -2    1    3    3    0  502 -0.73697482211E+03 -0.13613344149E+04  0.29295534160E+03  0.15754955124E+04  0.25500000920E-02 0. -1.
</event>
<event>
 5   0  0.4450600E-08  0.3098756E+04  0.7818609E-02  0.8216079E-01
       -1   -1    0    0    0  501  0.00000000000E+00  0.00000000000E+00  0.10754784000E+04  0.10754784000E+04  0.50400001928E-02 0.  1.
        1   -1    0    0  501    0  0.00000000000E+00  0.00000000000E+00 -0.22320969216E+04  0.22320969216E+04  0.50400001928E-02 0. -1.
    10030    2    1    2    0    0  0.00000000000E+00  0.00000000000E+00 -0.11566185217E+04  0.33075753216E+04  0.30987558961E+04 0.  0.
        4    1    3    3  502    0 -0.13530757092E+03 -0.10268304578E+04 -0.18083005466E+04  0.20839005273E+04  0.12699999809E+01 0. -1.
       -4    1    3    3    0  502  0.13530757092E+03  0.10268304578E+04  0.65168202493E+03  0.12236747944E+04  0.12699999809E+01 0.  1.
</event>
<event>
 5   0  0.1325713E-07  0.3099976E+04  0.7818609E-02  0.8215745E-01
       -2   -1    0    0    0  501  0.00000000000E+00  0.00000000000E+00  0.13239386980E+04  0.13239386980E+04  0.25500000920E-02 0. -1.
        2   -1    0    0  501    0  0.00000000000E+00  0.00000000000E+00 -0.18146325720E+04  0.18146325720E+04  0.25500000920E-02 0.  1.
    10030    2    1    2    0    0  0.00000000000E+00  0.00000000000E+00 -0.49069387406E+03  0.31385712700E+04  0.30999756675E+04 0.  0.
        4    1    3    3  502    0 -0.70576161798E+03 -0.30026619961E+02 -0.16421833353E+04  0.17876713286E+04  0.12699999809E+01 0.  1.
       -4    1    3    3    0  502  0.70576161798E+03  0.30026619961E+02  0.11514894613E+04  0.13508999414E+04  0.12699999809E+01 0. -1.
</event>
<event>
 5   0  0.1398931E-07  0.3101564E+04  0.7818609E-02  0.8215309E-01
        2   -1    0    0  501    0  0.00000000000E+00  0.00000000000E+00  0.10612365046E+04  0.10612365046E+04  0.25500000920E-02 0. -1.
       -2   -1    0    0    0  501  0.00000000000E+00  0.00000000000E+00 -0.22661529177E+04  0.22661529177E+04  0.25500000920E-02 0.  1.
    10030    2    1    2    0    0  0.00000000000E+00  0.00000000000E+00 -0.12049164131E+04  0.33273894223E+04  0.31015636065E+04 0.  0.
        3    1    3    3  502    0 -0.12867996197E+04 -0.67867544727E+02 -0.15281044873E+04  0.19988903420E+04  0.10100000352E+00 0.  1.
       -3    1    3    3    0  502  0.12867996197E+04  0.67867544727E+02  0.32318807421E+03  0.13284990803E+04  0.10100000352E+00 0. -1.
</event>
<event>
 5   0  0.4470354E-08  0.3099778E+04  0.7818609E-02  0.8215799E-01
        1   -1    0    0  501    0  0.00000000000E+00  0.00000000000E+00  0.15674510456E+04  0.15674510456E+04  0.50400001928E-02 0. -1.
       -1   -1    0    0    0  501  0.00000000000E+00  0.00000000000E+00 -0.15325233782E+04  0.15325233782E+04  0.50400001928E-02 0.  1.
    10030    2    1    2    0    0  0.00000000000E+00  0.00000000000E+00  0.34927667387E+02  0.30999744238E+04  0.30997776511E+04 0.  0.
        1    1    3    3  502    0  0.11564881150E+04 -0.61125362774E+03 -0.81388889123E+03  0.15406202922E+04  0.50400001928E-02 0.  1.
       -1    1    3    3    0  502 -0.11564881150E+04  0.61125362774E+03  0.84881655862E+03  0.15593541316E+04  0.50400001928E-02 0. -1.
</event>
<event>
 5   0  0.4436241E-08  0.3100048E+04  0.7818609E-02  0.8215725E-01
       -1   -1    0    0    0  501  0.00000000000E+00  0.00000000000E+00  0.14627168297E+04  0.14627168298E+04  0.50400001928E-02 0. -1.
        1   -1    0    0  501    0  0.00000000000E+00  0.00000000000E+00 -0.16425421498E+04  0.16425421498E+04  0.50400001928E-02 0.  1.
    10030    2    1    2    0    0  0.00000000000E+00  0.00000000000E+00 -0.17982532008E+03  0.31052589796E+04  0.31000477713E+04 0.  0.
        3    1    3    3  502    0  0.80628374727E+03 -0.12328111279E+04  0.39324376707E+03  0.15246499365E+04  0.10100000352E+00 0. -1.
       -3    1    3    3    0  502 -0.80628374727E+03  0.12328111279E+04 -0.57306908715E+03  0.15806090431E+04  0.10100000352E+00 0.  1.
</event>
<event>
 5   0  0.4517409E-08  0.3099939E+04  0.7818609E-02  0.8215755E-01
       -1   -1    0    0    0  501  0.00000000000E+00  0.00000000000E+00  0.14000066100E+04  0.14000066100E+04  0.50400001928E-02 0.  1.
        1   -1    0    0  501    0  0.00000000000E+00  0.00000000000E+00 -0.17159961470E+04  0.17159961470E+04  0.50400001928E-02 0. -1.
    10030    2    1    2    0    0  0.00000000000E+00  0.00000000000E+00 -0.31598953701E+03  0.31160027570E+04  0.30999393210E+04 0.  0.
        2    1    3    3  502    0 -0.29349836225E+03 -0.71738333483E+03  0.11912071121E+04  0.14211806787E+04  0.25500000920E-02 0.  1.
       -2    1    3    3    0  502  0.29349836225E+03  0.71738333483E+03 -0.15071966491E+04  0.16948220782E+04  0.25500000920E-02 0. -1.
</event>
<event>
 5   0  0.4517409E-08  0.3100494E+04  0.7818609E-02  0.8215602E-01
       -1   -1    0    0    0  501  0.00000000000E+00  0.00000000000E+00  0.21443438422E+04  0.21443438422E+04  0.50400001928E-02 0.  1.
        1   -1    0    0  501    0  0.00000000000E+00  0.00000000000E+00 -0.11207464092E+04  0.11207464092E+04  0.50400001928E-02 0. -1.
    10030    2    1    2    0    0  0.00000000000E+00  0.00000000000E+00  0.10235974330E+04  0.32650902514E+04  0.31004939357E+04 0.  0.
        2    1    3    3  502    0  0.95279830091E+01 -0.70320266208E+03  0.19666914246E+04  0.20886502642E+04  0.25500000920E-02 0.  1.
       -2    1    3    3    0  502 -0.95279830091E+01  0.70320266208E+03 -0.94309399167E+03  0.11764399872E+04  0.25500000920E-02 0. -1.
</event>
<event>
 5   0  0.1318916E-07  0.3095720E+04  0.7818609E-02  0.8216913E-01
        2   -1    0    0  501    0  0.00000000000E+00  0.00000000000E+00  0.22988367271E+04  0.22988367271E+04  0.25500000920E-02 0.  1.
       -2   -1    0    0    0  501  0.00000000000E+00  0.00000000000E+00 -0.10422101208E+04  0.10422101208E+04  0.25500000920E-02 0. -1.
    10030    2    1    2    0    0  0.00000000000E+00  0.00000000000E+00  0.12566266063E+04  0.33410468479E+04  0.30957202090E+04 0.  0.
        5    1    3    3  502    0 -0.98610868193E+03  0.10720844054E+04  0.11933210369E+04  0.18830327910E+04  0.46999998093E+01 0. -1.
       -5    1    3    3    0  502  0.98610868193E+03 -0.10720844054E+04  0.63305569392E+02  0.14580140569E+04  0.46999998093E+01 0.  1.
</event>
<event>
 5   0  0.4838602E-08  0.3100109E+04  0.7818609E-02  0.8215708E-01
        1   -1    0    0  501    0  0.00000000000E+00  0.00000000000E+00  0.18615443919E+04  0.18615443919E+04  0.50400001928E-02 0. -1.
       -1   -1    0    0    0  501  0.00000000000E+00  0.00000000000E+00 -0.12906861058E+04  0.12906861058E+04  0.50400001928E-02 0.  1.
    10030    2    1    2    0    0  0.00000000000E+00  0.00000000000E+00  0.57085828614E+03  0.31522304977E+04  0.31001093412E+04 0.  0.
        5    1    3    3  502    0  0.62558461423E+03 -0.14077523754E+03  0.17203509415E+04  0.18359747354E+04  0.46999998093E+01 0. -1.
       -5    1    3    3    0  502 -0.62558461423E+03  0.14077523754E+03 -0.11494926554E+04  0.13162557623E+04  0.46999998093E+01 0.  1.
</event>
<event>
 5   0  0.4436241E-08  0.3099272E+04  0.7818609E-02  0.8215938E-01
       -1   -1    0    0    0  501  0.00000000000E+00  0.00000000000E+00  0.12064843310E+04  0.12064843310E+04  0.50400001928E-02 0. -1.
        1   -1    0    0  501    0  0.00000000000E+00  0.00000000000E+00 -0.19903882425E+04  0.19903882425E+04  0.50400001928E-02 0.  1.
    10030    2    1    2    0    0  0.00000000000E+00  0.00000000000E+00 -0.78390391148E+03  0.31968725735E+04  0.30992723192E+04 0.  0.
        3    1    3    3  502    0  0.87267457639E+03  0.92769319797E+03  0.51856727211E+03  0.13751682122E+04  0.10100000352E+00 0. -1.
       -3    1    3    3    0  502 -0.87267457639E+03 -0.92769319797E+03 -0.13024711836E+04  0.18217043613E+04  0.10100000352E+00 0.  1.
</event>
<event>
 5   0  0.4838602E-08  0.3099339E+04  0.7818609E-02  0.8215919E-01
       -1   -1    0    0    0  501  0.00000000000E+00  0.00000000000E+00  0.16560024423E+04  0.16560024423E+04  0.50400001928E-02 0. -1.
        1   -1    0    0  501    0  0.00000000000E+00  0.00000000000E+00 -0.14501638865E+04  0.14501638865E+04  0.50400001928E-02 0.  1.
    10030    2    1    2    0    0  0.00000000000E+00  0.00000000000E+00  0.20583855582E+03  0.31061663287E+04  0.30993385989E+04 0.  0.
        5    1    3    3  502    0 -0.34406852758E+03 -0.73072368204E+03 -0.12225344359E+04  0.14652483708E+04  0.46999998093E+01 0.  1.
       -5    1    3    3    0  502  0.34406852758E+03  0.73072368204E+03  0.14283729917E+04  0.16409179579E+04  0.46999998093E+01 0. -1.
</event>
<event>
 5   0  0.4470354E-08  0.3099966E+04  0.7818609E-02  0.8215747E-01
        1   -1    0    0  501    0  0.00000000000E+00  0.00000000000E+00  0.28422971050E+04  0.28422971050E+04  0.50400001928E-02 0.  1.
       -1   -1    0    0    0  501  0.00000000000E+00  0.00000000000E+00 -0.84524862965E+03  0.84524862966E+03  0.50400001928E-02 0. -1.
    10030    2    1    2    0    0  0.00000000000E+00  0.00000000000E+00  0.19970484753E+04  0.36875457346E+04  0.30999662792E+04 0.  0.
        1    1    3    3  502    0  0.12373004579E+03 -0.50021776147E+03  0.27374244432E+04  0.27855016631E+04  0.50400001928E-02 0.  1.
       -1    1    3    3    0  502 -0.12373004579E+03  0.50021776147E+03 -0.74037596786E+03  0.90204407151E+03  0.50400001928E-02 0. -1.
</event>
<event>
 5   0  0.1377237E-07  0.3100633E+04  0.7818609E-02  0.8215564E-01
       -2   -1    0    0    0  501  0.00000000000E+00  0.00000000000E+00  0.17797613323E+04  0.17797613323E+04  0.25500000920E-02 0. -1.
        2   -1    0    0  501    0  0.00000000000E+00  0.00000000000E+00 -0.13504511658E+04  0.13504511658E+04  0.25500000920E-02 0.  1.
    10030    2    1    2    0    0  0.00000000000E+00  0.00000000000E+00  0.42931016648E+03  0.31302124981E+04  0.31006326877E+04 0.  0.
        2    1    3    3  502    0  0.88342988024E+03 -0.12723202161E+04  0.14896761376E+03  0.15560971807E+04  0.25500000920E-02 0. -1.
       -2    1    3    3    0  502 -0.88342988024E+03  0.12723202161E+04  0.28034255272E+03  0.15741153174E+04  0.25500000920E-02 0.  1.
</event>
<event>
 5   0  0.1329777E-07  0.3099928E+04  0.7818609E-02  0.8215758E-01
        2   -1    0    0  501    0  0.00000000000E+00  0.00000000000E+00  0.16719982979E+04  0.16719982979E+04  0.25500000920E-02 0.  1.
       -2   -1    0    0    0  501  0.00000000000E+00  0.00000000000E+00 -0.14368367963E+04  0.14368367963E+04  0.25500000920E-02 0. -1.
    10030    2    1    2    0    0  0.00000000000E+00  0.00000000000E+00  0.23516150156E+03  0.31088350942E+04  0.30999281783E+04 0.  0.
        1    1    3    3  502    0 -0.81728606527E+03 -0.15059286996E+03 -0.11945186092E+04  0.14551664622E+04  0.50400001928E-02 0. -1.
       -1    1    3    3    0  502  0.81728606527E+03  0.15059286996E+03  0.14296801108E+04  0.16536686319E+04  0.50400001928E-02 0.  1.
</event>
<event>
 5   0  0.4838602E-08  0.3100102E+04  0.7818609E-02  0.8215710E-01
       -1   -1    0    0    0  501  0.00000000000E+00  0.00000000000E+00  0.12515276334E+04  0.12515276334E+04  0.50400001928E-02 0. -1.
        1   -1    0    0  501    0  0.00000000000E+00  0.00000000000E+00 -0.19197802695E+04  0.19197802695E+04  0.50400001928E-02 0.  1.
    10030    2    1    2    0    0  0.00000000000E+00  0.00000000000E+00 -0.66825263608E+03  0.31713079029E+04  0.31001019708E+04 0.  0.
        5    1    3    3  502    0  0.54644313139E+03 -0.10198938511E+04 -0.13892493914E+04  0.18079877004E+04  0.46999998093E+01 0.  1.
       -5    1    3    3    0  502 -0.54644313139E+03  0.10198938511E+04  0.72099675529E+03  0.13633202025E+04  0.46999998093E+01 0. -1.
</event>
<event>
 5   0  0.4517409E-08  0.3108659E+04  0.7818609E-02  0.8213366E-01
        1   -1    0    0  501    0  0.00000000000E+00  0.00000000000E+00  0.15255154650E+04  0.15255154650E+04  0.50400001928E-02 0. -1.
       -1   -1    0    0    0  501  0.00000000000E+00  0.00000000000E+00 -0.15836876391E+04  0.15836876391E+04  0.50400001928E-02 0.  1.
    10030    2    1    2    0    0  0.00000000000E+00  0.00000000000E+00 -0.58172174074E+02  0.31092031040E+04  0.31086588652E+04 0.  0.
        2    1    3    3  502    0  0.12216090847E+04 -0.86584592299E+03 -0.44619874572E+03  0.15624055936E+04  0.25500000920E-02 0.  1.
       -2    1    3    3    0  502 -0.12216090847E+04  0.86584592299E+03  0.38802657165E+03  0.15467975105E+04  0.25500000920E-02 0. -1.
</event>
<event>
 5   0  0.4436241E-08  0.3099534E+04  0.7818609E-02  0.8215866E-01
       -1   -1    0    0    0  501  0.00000000000E+00  0.00000000000E+00  0.11595194104E+04  0.11595194104E+04  0.50400001928E-02 0. -1.
        1   -1    0    0  501    0  0.00000000000E+00  0.00000000000E+00 -0.20713567804E+04  0.20713567804E+04  0.50400001928E-02 0.  1.
    10030    2    1    2    0    0  0.00000000000E+00  0.00000000000E+00 -0.91183737003E+03  0.32308761909E+04  0.30995344120E+04 0.  0.
        3    1    3    3  502    0 -0.15049507030E+03 -0.67531008147E+03 -0.19014356616E+04  0.20234006172E+04  0.10100000352E+00 0.  1.
       -3    1    3    3    0  502  0.15049507030E+03  0.67531008147E+03  0.98959829152E+03  0.12074755737E+04  0.10100000352E+00 0. -1.
</event>
<event>
 5   0  0.1377237E-07  0.3101261E+04  0.7818609E-02  0.8215392E-01
        2   -1    0    0  501    0  0.00000000000E+00  0.00000000000E+00  0.24663856073E+04  0.24663856073E+04  0.25500000920E-02 0. -1.
       -2   -1    0    0    0  501  0.00000000000E+00  0.00000000000E+00 -0.97489013213E+03  0.97489013214E+03  0.25500000920E-02 0.  1.
    10030    2    1    2    0    0  0.00000000000E+00  0.00000000000E+00  0.14914954752E+04  0.34412757395E+04  0.31012610278E+04 0.  0.
        2    1    3    3  502    0 -0.74678143765E+03  0.11322070978E+04 -0.88238880795E+02  0.13591767832E+04  0.25500000920E-02 0.  1.
       -2    1    3    3    0  502  0.74678143765E+03 -0.11322070978E+04  0.15797343560E+04  0.20820989562E+04  0.25500000920E-02 0. -1.
</event>
<event>
 5   0  0.1398931E-07  0.3098715E+04  0.7818609E-02  0.8216091E-01
       -2   -1    0    0    0  501  0.00000000000E+00  0.00000000000E+00  0.12336281134E+04  0.12336281134E+04  0.25500000920E-02 0. -1.
        2   -1    0    0  501    0  0.00000000000E+00  0.00000000000E+00 -0.19458935545E+04  0.19458935545E+04  0.25500000920E-02 0.  1.
    10030    2    1    2    0    0  0.00000000000E+00  0.00000000000E+00 -0.71226544114E+03  0.31795216679E+04  0.30987152141E+04 0.  0.
        3    1    3    3  502    0  0.46059551057E+03  0.12342746754E+04  0.48056201932E+03  0.14023273738E+04  0.10100000352E+00 0.  1.
       -3    1    3    3    0  502 -0.46059551057E+03 -0.12342746754E+04 -0.11928274605E+04  0.17771942942E+04  0.10100000352E+00 0. -1.
</event>
<event>
 5   0  0.4470354E-08  0.3099837E+04  0.7818609E-02  0.8215783E-01
       -1   -1    0    0    0  501  0.00000000000E+00  0.00000000000E+00  0.10019801144E+04  0.10019801144E+04  0.50400001928E-02 0. -1.
        1   -1    0    0  501    0  0.00000000000E+00  0.00000000000E+00 -0.23974992792E+04  0.23974992792E+04  0.50400001928E-02 0.  1.
    10030    2    1    2    0    0  0.00000000000E+00  0.00000000000E+00 -0.13955191648E+04  0.33994793936E+04  0.30998365132E+04 0.  0.
        1    1    3    3  502    0  0.15091652760E+04  0.34683159839E+03 -0.77029389459E+03  0.17295157334E+04  0.50400001928E-02 0. -1.
       -1    1    3    3    0  502 -0.15091652760E+04 -0.34683159839E+03 -0.62522527021E+03  0.16699636602E+04  0.50400001928E-02 0.  1.
</event>
<event>
 5   0  0.1377237E-07  0.3100913E+04  0.7818609E-02  0.8215487E-01
       -2   -1    0    0    0  501  0.00000000000E+00  0.00000000000E+00  0.20514013139E+04  0.20514013139E+04  0.25500000920E-02 0.  1.
        2   -1    0    0  501    0  0.00000000000E+00  0.00000000000E+00 -0.11718408745E+04  0.11718408745E+04  0.25500000920E-02 0. -1.
    10030    2    1    2    0    0  0.00000000000E+00  0.00000000000E+00  0.87956043937E+03  0.32232421884E+04  0.31009133555E+04 0.  0.
        2    1    3    3  502    0  0.29369741025E+03 -0.32425092436E+03 -0.11063526728E+04  0.11897113379E+04  0.25500000920E-02 0. -1.
       -2    1    3    3    0  502 -0.29369741025E+03  0.32425092436E+03  0.19859131122E+04  0.20335308505E+04  0.25500000920E-02 0.  1.
</event>
<event>
 5   0  0.4450600E-08  0.3106368E+04  0.7818609E-02  0.8213992E-01
        1   -1    0    0  501    0  0.00000000000E+00  0.00000000000E+00  0.85708066232E+03  0.85708066234E+03  0.50400001928E-02 0.  1.
       -1   -1    0    0    0  501  0.00000000000E+00  0.00000000000E+00 -0.28146483059E+04  0.28146483059E+04  0.50400001928E-02 0. -1.
    10030    2    1    2    0    0  0.00000000000E+00  0.00000000000E+00 -0.19575676435E+04  0.36717289682E+04  0.31063680620E+04 0.  0.
        4    1    3    3  502    0  0.34149806607E+03 -0.11769263420E+04  0.14914609878E+03  0.12345131491E+04  0.12699999809E+01 0.  1.
       -4    1    3    3    0  502 -0.34149806607E+03  0.11769263420E+04 -0.21067137423E+04  0.24372158191E+04  0.12699999809E+01 0. -1.
</event>
<event>
 5   0  0.4436241E-08  0.3100560E+04  0.7818609E-02  0.8215584E-01
        1   -1    0    0  501    0  0.00000000000E+00  0.00000000000E+00  0.17781382713E+04  0.17781382713E+04  0.50400001928E-02 0. -1.
       -1   -1    0    0    0  501  0.00000000000E+00  0.00000000000E+00 -0.13516205837E+04  0.13516205837E+04  0.50400001928E-02 0.  1.
    10030    2    1    2    0    0  0.00000000000E+00  0.00000000000E+00  0.42651768751E+03  0.31297588550E+04  0.31005601353E+04 0.  0.
        3    1    3    3  502    0  0.14643170527E+04  0.34466584457E+03  0.59141906862E+03  0.16164143962E+04  0.10100000352E+00 0. -1.
       -3    1    3    3    0  502 -0.14643170527E+04 -0.34466584457E+03 -0.16490138111E+03  0.15133444588E+04  0.10100000352E+00 0.  1.
</event>
<event>
 5   0  0.1318916E-07  0.3101653E+04  0.7818609E-02  0.8215284E-01
       -2   -1    0    0    0  501  0.00000000000E+00  0.00000000000E+00  0.11849880608E+04  0.11849880608E+04  0.25500000920E-02 0.  1.
        2   -1    0    0  501    0  0.00000000000E+00  0.00000000000E+00 -0.20296093762E+04  0.20296093762E+04  0.25500000920E-02 0. -1.
    10030    2    1    2    0    0  0.00000000000E+00  0.00000000000E+00 -0.84462131542E+03  0.32145974370E+04  0.31016530295E+04 0.  0.
        5    1    3    3  502    0 -0.11649769339E+04  0.36142548362E+03 -0.14149126589E+04  0.18681005216E+04  0.46999998093E+01 0. -1.
       -5    1    3    3    0  502  0.11649769339E+04 -0.36142548362E+03  0.57029134348E+03  0.13464969154E+04  0.46999998093E+01 0.  1.
</event>
<event>
 5   0  0.1377237E-07  0.3099651E+04  0.7818609E-02  0.8215834E-01
        2   -1    0    0  501    0  0.00000000000E+00  0.00000000000E+00  0.13209642108E+04  0.13209642108E+04  0.25500000920E-02 0. -1.
       -2   -1    0    0    0  501  0.00000000000E+00  0.00000000000E+00 -0.18183376910E+04  0.18183376910E+04  0.25500000920E-02 0.  1.
    10030    2    1    2    0    0  0.00000000000E+00  0.00000000000E+00 -0.49737348019E+03  0.31393019018E+04  0.30996509564E+04 0.  0.
        2    1    3    3  502    0  0.14173502390E+04  0.62406953612E+03 -0.18779673297E+03  0.15600038778E+04  0.25500000920E-02 0.  1.
       -2    1    3    3    0  502 -0.14173502390E+04 -0.62406953612E+03 -0.30957674723E+03  0.15792980239E+04  0.25500000920E-02 0. -1.
</event>
<event>
 5   0  0.4305500E-08  0.3099562E+04  0.7818609E-02  0.8215858E-01
        3   -1    0    0  501    0  0.00000000000E+00  0.00000000000E+00  0.11698642097E+04  0.11698642141E+04  0.10100000352E+00 0.  1.
       -3   -1    0    0    0  501  0.00000000000E+00  0.00000000000E+00 -0.20530764696E+04  0.20530764721E+04  0.10100000352E+00 0. -1.
    10030    2    1    2    0    0  0.00000000000E+00  0.00000000000E+00 -0.88321225988E+03  0.32229406862E+04  0.30995617062E+04 0.  0.
        3    1    3    3  502    0  0.12353262339E+04 -0.78750666890E+03 -0.96732311790E+03  0.17555374341E+04  0.10100000352E+00 0. -1.
       -3    1    3    3    0  502 -0.12353262339E+04  0.78750666890E+03  0.84110858023E+02  0.14674032521E+04  0.10100000352E+00 0.  1.
</event>
<event>
 5   0  0.4838602E-08  0.3100451E+04  0.7818609E-02  0.8215614E-01
       -1   -1    0    0    0  501  0.00000000000E+00  0.00000000000E+00  0.12793529970E+04  0.12793529970E+04  0.50400001928E-02 0.  1.
        1   -1    0    0  501    0  0.00000000000E+00  0.00000000000E+00 -0.18784491090E+04  0.18784491090E+04  0.50400001928E-02 0. -1.
    10030    2    1    2    0    0  0.00000000000E+00  0.00000000000E+00 -0.59909611207E+03  0.31578021060E+04  0.31004512558E+04 0.  0.
        5    1    3    3  502    0 -0.43937033390E+03 -0.12352714625E+04  0.54293817802E+03  0.14190651259E+04  0.46999998093E+01 0.  1.
       -5    1    3    3    0  502  0.43937033390E+03  0.12352714625E+04 -0.11420342901E+04  0.17387369801E+04  0.46999998093E+01 0. -1.
</event>
<event>
 5   0  0.4517409E-08  0.3099801E+04  0.7818609E-02  0.8215792E-01
       -1   -1    0    0    0  501  0.00000000000E+00  0.00000000000E+00  0.15627606180E+04  0.15627606180E+04  0.50400001928E-02 0. -1.
        1   -1    0    0  501    0  0.00000000000E+00  0.00000000000E+00 -0.15371465109E+04  0.15371465109E+04  0.50400001928E-02 0.  1.
    10030    2    1    2    0    0  0.00000000000E+00  0.00000000000E+00  0.25614107109E+02  0.30999071289E+04  0.30998013042E+04 0.  0.
        2    1    3    3  502    0  0.96760119999E+03 -0.11735909241E+04 -0.28490143335E+03  0.15474936401E+04  0.25500000920E-02 0.  1.
       -2    1    3    3    0  502 -0.96760119999E+03  0.11735909241E+04  0.31051554046E+03  0.15524134888E+04  0.25500000920E-02 0. -1.
</event>
<event>
 5   0  0.4470354E-08  0.3097235E+04  0.7818609E-02  0.8216497E-01
        1   -1    0    0  501    0  0.00000000000E+00  0.00000000000E+00  0.17425539672E+04  0.17425539672E+04  0.50400001928E-02 0.  1.
       -1   -1    0    0    0  501  0.00000000000E+00  0.00000000000E+00 -0.13762651892E+04  0.13762651892E+04  0.50400001928E-02 0. -1.
    10030    2    1    2    0    0  0.00000000000E+00  0.00000000000E+00  0.36628877799E+03  0.31188191564E+04  0.30972351318E+04 0.  0.
        1    1    3    3  502    0 -0.59543159808E+03 -0.16065132260E+03 -0.12472719803E+04  0.13914147579E+04  0.50400001928E-02 0. -1.
       -1    1    3    3    0  502  0.59543159808E+03  0.16065132260E+03  0.16135607583E+04  0.17274043986E+04  0.50400001928E-02 0.  1.
</event>
<event>
 5   0  0.1377237E-07  0.3103544E+04  0.7818609E-02  0.8214766E-01
        2   -1    0    0  501    0  0.00000000000E+00  0.00000000000E+00  0.18880459237E+04  0.18880459237E+04  0.25500000920E-02 0.  1.
       -2   -1    0    0    0  501  0.00000000000E+00  0.00000000000E+00 -0.12753908251E+04  0.12753908251E+04  0.25500000920E-02 0. -1.
    10030    2    1    2    0    0  0.00000000000E+00  0.00000000000E+00  0.61265509859E+03  0.31634367488E+04  0.31035440699E+04 0.  0.
        2    1    3    3  502    0 -0.12199840531E+04  0.32111875346E+03  0.12273795455E+04  0.17600962736E+04  0.25500000920E-02 0.  1.
       -2    1    3    3    0  502  0.12199840531E+04 -0.32111875346E+03 -0.61472444691E+03  0.14033404752E+04  0.25500000920E-02 0. -1.
</event>
<event>
 5   0  0.4470354E-08  0.3100020E+04  0.7818609E-02  0.8215732E-01
       -1   -1    0    0    0  501  0.00000000000E+00  0.00000000000E+00  0.97788224499E+03  0.97788224500E+03  0.50400001928E-02 0. -1.
        1   -1    0    0  501    0  0.00000000000E+00  0.00000000000E+00 -0.24568711940E+04  0.24568711940E+04  0.50400001928E-02 0.  1.
    10030    2    1    2    0    0  0.00000000000E+00  0.00000000000E+00 -0.14789889490E+04  0.34347534390E+04  0.31000198186E+04 0.  0.
        1    1    3    3  502    0  0.11637121981E+04  0.36736474183E+03 -0.17983804268E+04  0.21733281144E+04  0.50400001928E-02 0.  1.
       -1    1    3    3    0  502 -0.11637121981E+04 -0.36736474183E+03  0.31939147773E+03  0.12614253246E+04  0.50400001928E-02 0. -1.
</event>
<event>
 5   0  0.4517409E-08  0.3100111E+04  0.7818609E-02  0.8215708E-01
       -1   -1    0    0    0  501  0.00000000000E+00  0.00000000000E+00  0.12109394125E+04  0.12109394125E+04  0.50400001928E-02 0. -1.
        1   -1    0    0  501    0  0.00000000000E+00  0.00000000000E+00 -0.19841383618E+04  0.19841383618E+04  0.50400001928E-02 0.  1.
    10030    2    1    2    0    0  0.00000000000E+00  0.00000000000E+00 -0.77319894922E+03  0.31950777743E+04  0.31001105414E+04 0.  0.
        2    1    3    3  502    0 -0.36213958489E+03 -0.14995316888E+04 -0.54266807647E+03  0.16353070066E+04  0.25500000920E-02 0. -1.
       -2    1    3    3    0  502  0.36213958489E+03  0.14995316888E+04 -0.23053087276E+03  0.15597707677E+04  0.25500000920E-02 0.  1.
</event>
<event>
 5   0  0.4436241E-08  0.3101140E+04  0.7818609E-02  0.8215425E-01
       -1   -1    0    0    0  501  0.00000000000E+00  0.00000000000E+00  0.83395544401E+03  0.83395544402E+03  0.50400001928E-02 0.  1.
        1   -1    0    0  501    0  0.00000000000E+00  0.00000000000E+00 -0.28829692070E+04  0.28829692070E+04  0.50400001928E-02 0. -1.
    10030    2    1    2    0    0  0.00000000000E+00  0.00000000000E+00 -0.20490137630E+04  0.37169246510E+04  0.31011403484E+04 0.  0.
        3    1    3    3  502    0  0.13890387804E+04 -0.18163540099E+03 -0.22779987541E+03  0.14192649315E+04  0.10100000352E+00 0.  1.
       -3    1    3    3    0  502 -0.13890387804E+04  0.18163540099E+03 -0.18212138876E+04  0.22976597195E+04  0.10100000352E+00 0. -1.
</event>
<event>
 5   0  0.4305500E-08  0.3100470E+04  0.7818609E-02  0.8215609E-01
        3   -1    0    0  501    0  0.00000000000E+00  0.00000000000E+00  0.10696040069E+04  0.10696040117E+04  0.10100000352E+00 0.  1.
       -3   -1    0    0    0  501  0.00000000000E+00  0.00000000000E+00 -0.22468395524E+04  0.22468395547E+04  0.10100000352E+00 0. -1.
    10030    2    1    2    0    0  0.00000000000E+00  0.00000000000E+00 -0.11772355455E+04  0.33164435663E+04  0.31004700287E+04 0.  0.
        1    1    3    3  502    0 -0.14653183840E+03 -0.56933356692E+03  0.94574223712E+03  0.11135711334E+04  0.50400001928E-02 0.  1.
       -1    1    3    3    0  502  0.14653183840E+03  0.56933356692E+03 -0.21229777826E+04  0.22028724329E+04  0.50400001928E-02 0. -1.
</event>
<event>
 5   0  0.4838602E-08  0.3120020E+04  0.7818609E-02  0.8210265E-01
       -1   -1    0    0    0  501  0.00000000000E+00  0.00000000000E+00  0.15888373570E+04  0.15888373570E+04  0.50400001928E-02 0. -1.
        1   -1    0    0  501    0  0.00000000000E+00  0.00000000000E+00 -0.15317058726E+04  0.15317058726E+04  0.50400001928E-02 0.  1.
    10030    2    1    2    0    0  0.00000000000E+00  0.00000000000E+00  0.57131484373E+02  0.31205432296E+04  0.31200201989E+04 0.  0.
        5    1    3    3  502    0 -0.53151126266E+03  0.94801340373E+03 -0.10907178271E+04  0.15397795636E+04  0.46999998093E+01 0.  1.
       -5    1    3    3    0  502  0.53151126266E+03 -0.94801340373E+03  0.11478493115E+04  0.15807636661E+04  0.46999998093E+01 0. -1.
</event>
<event>
 5   0  0.1377237E-07  0.3098758E+04  0.7818609E-02  0.8216079E-01
        2   -1    0    0  501    0  0.00000000000E+00  0.00000000000E+00  0.15031834719E+04  0.15031834719E+04  0.25500000920E-02 0.  1.
       -2   -1    0    0    0  501  0.00000000000E+00  0.00000000000E+00 -0.15969946075E+04  0.15969946075E+04  0.25500000920E-02 0. -1.
    10030    2    1    2    0    0  0.00000000000E+00  0.00000000000E+00 -0.93811135521E+02  0.31001780794E+04  0.30987583957E+04 0.  0.
        2    1    3    3  502    0 -0.48624284085E+03  0.52199416898E+03  0.13291030083E+04  0.15084511325E+04  0.25500000920E-02 0.  1.
       -2    1    3    3    0  502  0.48624284085E+03 -0.52199416898E+03 -0.14229141438E+04  0.15917269468E+04  0.25500000920E-02 0. -1.
</event>
<event>
 5   0  0.4305500E-08  0.3101164E+04  0.7818609E-02  0.8215419E-01
        3   -1    0    0  501    0  0.00000000000E+00  0.00000000000E+00  0.26008492882E+04  0.26008492902E+04  0.10100000352E+00 0.  1.
       -3   -1    0    0    0  501  0.00000000000E+00  0.00000000000E+00 -0.92443053656E+03  0.92443054208E+03  0.10100000352E+00 0. -1.
    10030    2    1    2    0    0  0.00000000000E+00  0.00000000000E+00  0.16764187517E+04  0.35252798323E+04  0.31011639855E+04 0.  0.
        3    1    3    3  502    0  0.44282247731E+02  0.10666303012E+04  0.21165685830E+04  0.23705534572E+04  0.10100000352E+00 0.  1.
       -3    1    3    3    0  502 -0.44282247731E+02 -0.10666303012E+04 -0.44014983132E+03  0.11547263750E+04  0.10100000352E+00 0. -1.
</event>
<event>
 5   0  0.4470354E-08  0.3099810E+04  0.7818609E-02  0.8215790E-01
        1   -1    0    0  501    0  0.00000000000E+00  0.00000000000E+00  0.20956130977E+04  0.20956130977E+04  0.50400001928E-02 0.  1.
       -1   -1    0    0    0  501  0.00000000000E+00  0.00000000000E+00 -0.11463021135E+04  0.11463021135E+04  0.50400001928E-02 0. -1.
    10030    2    1    2    0    0  0.00000000000E+00  0.00000000000E+00  0.94931098421E+03  0.32419152113E+04  0.30998101381E+04 0.  0.
        1    1    3    3  502    0  0.14877774772E+04 -0.20287719959E+03  0.72903664589E+02  0.15033149784E+04  0.50400001928E-02 0. -1.
       -1    1    3    3    0  502 -0.14877774772E+04  0.20287719959E+03  0.87640731963E+03  0.17386002329E+04  0.50400001928E-02 0.  1.
</event>
<event>
 5   0  0.1377237E-07  0.3098330E+04  0.7818609E-02  0.8216196E-01
        2   -1    0    0  501    0  0.00000000000E+00  0.00000000000E+00  0.16427258860E+04  0.16427258860E+04  0.25500000920E-02 0.  1.
       -2   -1    0    0    0  501  0.00000000000E+00  0.00000000000E+00 -0.14609331794E+04  0.14609331794E+04  0.25500000920E-02 0. -1.
    10030    2    1    2    0    0  0.00000000000E+00  0.00000000000E+00  0.18179270661E+03  0.31036590654E+04  0.30983303578E+04 0.  0.
        2    1    3    3  502    0 -0.36602598799E+02  0.14274545395E+04 -0.51092518553E+03  0.15165786355E+04  0.25500000920E-02 0.  1.
       -2    1    3    3    0  502  0.36602598799E+02 -0.14274545395E+04  0.69271789214E+03  0.15870804298E+04  0.25500000920E-02 0. -1.
</event>
<event>
 5   0  0.4517409E-08  0.3093605E+04  0.7818609E-02  0.8217495E-01
       -1   -1    0    0    0  501  0.00000000000E+00  0.00000000000E+00  0.11144850125E+04  0.11144850125E+04  0.50400001928E-02 0. -1.
        1   -1    0    0  501    0  0.00000000000E+00  0.00000000000E+00 -0.21468198353E+04  0.21468198353E+04  0.50400001928E-02 0.  1.
    10030    2    1    2    0    0  0.00000000000E+00  0.00000000000E+00 -0.10323348228E+04  0.32613048479E+04  0.30936053602E+04 0.  0.
        2    1    3    3  502    0  0.85960252693E+03  0.38171827540E+03  0.77839589767E+03  0.12208708038E+04  0.25500000920E-02 0. -1.
       -2    1    3    3    0  502 -0.85960252693E+03 -0.38171827540E+03 -0.18107307205E+04  0.20404340441E+04  0.25500000920E-02 0.  1.
</event>
<event>
 5   0  0.4517409E-08  0.3100308E+04  0.7818609E-02  0.8215653E-01
        1   -1    0    0  501    0  0.00000000000E+00  0.00000000000E+00  0.24062721085E+04  0.24062721086E+04  0.50400001928E-02 0. -1.
       -1   -1    0    0    0  501  0.00000000000E+00  0.00000000000E+00 -0.99863097431E+03  0.99863097432E+03  0.50400001928E-02 0.  1.
    10030    2    1    2    0    0  0.00000000000E+00  0.00000000000E+00  0.14076411342E+04  0.34049030829E+04  0.31003082816E+04 0.  0.
        2    1    3    3  502    0 -0.25646027135E+03  0.12069644782E+04  0.17343263472E+04  0.21284790347E+04  0.25500000920E-02 0. -1.
       -2    1    3    3    0  502  0.25646027135E+03 -0.12069644782E+04 -0.32668521293E+03  0.12764240482E+04  0.25500000920E-02 0.  1.
</event>
<event>
 5   0  0.4450600E-08  0.3098496E+04  0.7818609E-02  0.8216151E-01
        1   -1    0    0  501    0  0.00000000000E+00  0.00000000000E+00  0.23477564869E+04  0.23477564869E+04  0.50400001928E-02 0. -1.
       -1   -1    0    0    0  501  0.00000000000E+00  0.00000000000E+00 -0.10223249736E+04  0.10223249736E+04  0.50400001928E-02 0.  1.
    10030    2    1    2    0    0  0.00000000000E+00  0.00000000000E+00  0.13254315133E+04  0.33700814606E+04  0.30984964667E+04 0.  0.
        4    1    3    3  502    0  0.10679726143E+04 -0.72320887675E+03  0.15961784468E+04  0.20521656442E+04  0.12699999809E+01 0. -1.
       -4    1    3    3    0  502 -0.10679726143E+04  0.72320887675E+03 -0.27074693351E+03  0.13179158164E+04  0.12699999809E+01 0.  1.
</event>
<event>
 5   0  0.4450600E-08  0.3085344E+04  0.7818609E-02  0.8219772E-01
        1   -1    0    0  501    0  0.00000000000E+00  0.00000000000E+00  0.13682343633E+04  0.13682343634E+04  0.50400001928E-02 0. -1.
       -1   -1    0    0    0  501  0.00000000000E+00  0.00000000000E+00 -0.17393492579E+04  0.17393492579E+04  0.50400001928E-02 0.  1.
    10030    2    1    2    0    0  0.00000000000E+00  0.00000000000E+00 -0.37111489452E+03  0.31075836212E+04  0.30853443403E+04 0.  0.
        4    1    3    3  502    0  0.45512456278E+03 -0.87174935441E+03  0.10116017852E+04  0.14108242588E+04  0.12699999809E+01 0. -1.
       -4    1    3    3    0  502 -0.45512456278E+03  0.87174935441E+03 -0.13827166797E+04  0.16967593624E+04  0.12699999809E+01 0.  1.
</event>
<event>
 5   0  0.4838602E-08  0.3097973E+04  0.7818609E-02  0.8216294E-01
       -1   -1    0    0    0  501  0.00000000000E+00  0.00000000000E+00  0.95368970828E+03  0.95368970829E+03  0.50400001928E-02 0. -1.
        1   -1    0    0  501    0  0.00000000000E+00  0.00000000000E+00 -0.25158696020E+04  0.25158696020E+04  0.50400001928E-02 0.  1.
    10030    2    1    2    0    0  0.00000000000E+00  0.00000000000E+00 -0.15621798938E+04  0.34695593103E+04  0.30979728513E+04 0.  0.
        5    1    3    3  502    0 -0.22650679566E+03 -0.14195915715E+04 -0.14271645799E+04  0.20256767724E+04  0.46999998093E+01 0.  1.
       -5    1    3    3    0  502  0.22650679566E+03  0.14195915715E+04 -0.13501531387E+03  0.14438825379E+04  0.46999998093E+01 0. -1.
</event>
<event>
 5   0  0.4436241E-08  0.3116639E+04  0.7818609E-02  0.8211186E-01
       -1   -1    0    0    0  501  0.00000000000E+00  0.00000000000E+00  0.19944629894E+04  0.19944629894E+04  0.50400001928E-02 0.  1.
        1   -1    0    0  501    0  0.00000000000E+00  0.00000000000E+00 -0.12175503418E+04  0.12175503418E+04  0.50400001928E-02 0. -1.
    10030    2    1    2    0    0  0.00000000000E+00  0.00000000000E+00  0.77691264755E+03  0.32120133312E+04  0.31166386345E+04 0.  0.
        3    1    3    3  502    0 -0.46881507767E+03  0.10495078116E+04 -0.69593308685E+03  0.13437176397E+04  0.10100000352E+00 0. -1.
       -3    1    3    3    0  502  0.46881507767E+03 -0.10495078116E+04  0.14728457344E+04  0.18682956916E+04  0.10100000352E+00 0.  1.
</event>
<event>
 5   0  0.1318916E-07  0.3099700E+04  0.7818609E-02  0.8215820E-01
       -2   -1    0    0    0  501  0.00000000000E+00  0.00000000000E+00  0.10683671007E+04  0.10683671007E+04  0.25500000920E-02 0. -1.
        2   -1    0    0  501    0  0.00000000000E+00  0.00000000000E+00 -0.22483243076E+04  0.22483243076E+04  0.25500000920E-02 0.  1.
    10030    2    1    2    0    0  0.00000000000E+00  0.00000000000E+00 -0.11799572069E+04  0.33166914083E+04  0.30997004513E+04 0.  0.
        5    1    3    3  502    0 -0.60349659190E+03  0.10758993774E+04  0.41391428008E+03  0.13011974208E+04  0.46999998093E+01 0. -1.
       -5    1    3    3    0  502  0.60349659190E+03 -0.10758993774E+04 -0.15938714869E+04  0.20154939875E+04  0.46999998093E+01 0.  1.
</event>
<event>
 5   0  0.4838602E-08  0.3103813E+04  0.7818609E-02  0.8214692E-01
       -1   -1    0    0    0  501  0.00000000000E+00  0.00000000000E+00  0.19983658356E+04  0.19983658356E+04  0.50400001928E-02 0. -1.
        1   -1    0    0  501    0  0.00000000000E+00  0.00000000000E+00 -0.12051918505E+04  0.12051918505E+04  0.50400001928E-02 0.  1.
    10030    2    1    2    0    0  0.00000000000E+00  0.00000000000E+00  0.79317398512E+03  0.32035576861E+04  0.31038132800E+04 0.  0.
        5    1    3    3  502    0  0.10038724716E+03 -0.13617165656E+04  0.11578827078E+04  0.17902692701E+04  0.46999998093E+01 0. -1.
       -5    1    3    3    0  502 -0.10038724716E+03  0.13617165656E+04 -0.36470872269E+03  0.14132884160E+04  0.46999998093E+01 0.  1.
</event>
<event>
 5   0  0.1329777E-07  0.3089836E+04  0.7818609E-02  0.8218533E-01
       -2   -1    0    0    0  501  0.00000000000E+00  0.00000000000E+00  0.12538590650E+04  0.12538590650E+04  0.25500000920E-02 0. -1.
        2   -1    0    0  501    0  0.00000000000E+00  0.00000000000E+00 -0.19035404960E+04  0.19035404960E+04  0.25500000920E-02 0.  1.
    10030    2    1    2    0    0  0.00000000000E+00  0.00000000000E+00 -0.64968143103E+03  0.31573995610E+04  0.30898359222E+04 0.  0.
        1    1    3    3  502    0 -0.13413862170E+04  0.28133758152E+03 -0.10533846670E+04  0.17286084214E+04  0.50400001928E-02 0.  1.
       -1    1    3    3    0  502  0.13413862170E+04 -0.28133758152E+03  0.40370323595E+03  0.14287911396E+04  0.50400001928E-02 0. -1.
</event>
<event>
 5   0  0.4436241E-08  0.3099119E+04  0.7818609E-02  0.8215980E-01
        1   -1    0    0  501    0  0.00000000000E+00  0.00000000000E+00  0.17560071572E+04  0.17560071572E+04  0.50400001928E-02 0. -1.
       -1   -1    0    0    0  501  0.00000000000E+00  0.00000000000E+00 -0.13673832834E+04  0.13673832834E+04  0.50400001928E-02 0.  1.
    10030    2    1    2    0    0  0.00000000000E+00  0.00000000000E+00  0.38862387382E+03  0.31233904407E+04  0.30991191215E+04 0.  0.
        3    1    3    3  502    0 -0.11823740367E+04  0.95558528755E+03  0.49663325096E+03  0.15993111644E+04  0.10100000352E+00 0. -1.
       -3    1    3    3    0  502  0.11823740367E+04 -0.95558528755E+03 -0.10800937714E+03  0.15240792762E+04  0.10100000352E+00 0.  1.
</event>
<event>
 5   0  0.4450600E-08  0.3099571E+04  0.7818609E-02  0.8215856E-01
       -1   -1    0    0    0  501  0.00000000000E+00  0.00000000000E+00  0.14165258042E+04  0.14165258042E+04  0.50400001928E-02 0. -1.
        1   -1    0    0  501    0  0.00000000000E+00  0.00000000000E+00 -0.16955818442E+04  0.16955818442E+04  0.50400001928E-02 0.  1.
    10030    2    1    2    0    0  0.00000000000E+00  0.00000000000E+00 -0.27905604007E+03  0.31121076484E+04  0.30995712190E+04 0.  0.
        4    1    3    3  502    0 -0.43526349658E+02 -0.88565969825E+03 -0.14157102100E+04  0.16704863531E+04  0.12699999809E+01 0.  1.
       -4    1    3    3    0  502  0.43526349658E+02  0.88565969825E+03  0.11366541699E+04  0.14416212953E+04  0.12699999809E+01 0. -1.
</event>
<event>
 5   0  0.1329777E-07  0.3101079E+04  0.7818609E-02  0.8215442E-01
        2   -1    0    0  501    0  0.00000000000E+00  0.00000000000E+00  0.23222047949E+04  0.23222047949E+04  0.25500000920E-02 0.  1.
       -2   -1    0    0    0  501  0.00000000000E+00  0.00000000000E+00 -0.10352977883E+04  0.10352977883E+04  0.25500000920E-02 0. -1.
    10030    2    1    2    0    0  0.00000000000E+00  0.00000000000E+00  0.12869070066E+04  0.33575025832E+04  0.31010794818E+04 0.  0.
        1    1    3    3  502    0  0.36632766381E+03 -0.70770202384E+02 -0.98597233817E+03  0.10542038847E+04  0.50400001928E-02 0. -1.
       -1    1    3    3    0  502 -0.36632766381E+03  0.70770202384E+02  0.22728793447E+04  0.23032986985E+04  0.50400001928E-02 0.  1.
</event>
<event>
 5   0  0.1318916E-07  0.3101576E+04  0.7818609E-02  0.8215305E-01
       -2   -1    0    0    0  501  0.00000000000E+00  0.00000000000E+00  0.85169071844E+03  0.85169071844E+03  0.25500000920E-02 0.  1.
        2   -1    0    0  501    0  0.00000000000E+00  0.00000000000E+00 -0.28237290460E+04  0.28237290460E+04  0.25500000920E-02 0. -1.
    10030    2    1    2    0    0  0.00000000000E+00  0.00000000000E+00 -0.19720383276E+04  0.36754197645E+04  0.31015762572E+04 0.  0.
        5    1    3    3  502    0  0.12007540979E+03  0.76250551182E+03  0.60785652288E+03  0.98251941558E+03  0.46999998093E+01 0.  1.
       -5    1    3    3    0  502 -0.12007540979E+03 -0.76250551182E+03 -0.25798948505E+04  0.26929003489E+04  0.46999998093E+01 0. -1.
</event>
<event>
 5   0  0.1329777E-07  0.3101752E+04  0.7818609E-02  0.8215257E-01
       -2   -1    0    0    0  501  0.00000000000E+00  0.00000000000E+00  0.12576789292E+04  0.12576789292E+04  0.25500000920E-02 0. -1.
        2   -1    0    0  501    0  0.00000000000E+00  0.00000000000E+00 -0.19124243746E+04  0.19124243746E+04  0.25500000920E-02 0.  1.
    10030    2    1    2    0    0  0.00000000000E+00  0.00000000000E+00 -0.65474544540E+03  0.31701033038E+04  0.31017516597E+04 0.  0.
        1    1    3    3  502    0  0.50483642250E+03 -0.80119331929E+02 -0.18238578084E+04  0.18941320509E+04  0.50400001928E-02 0.  1.
       -1    1    3    3    0  502 -0.50483642250E+03  0.80119331929E+02  0.11691123630E+04  0.12759712529E+04  0.50400001928E-02 0. -1.
</event>
<event>
 5   0  0.1398931E-07  0.3099330E+04  0.7818609E-02  0.8215922E-01
       -2   -1    0    0    0  501  0.00000000000E+00  0.00000000000E+00  0.13846457017E+04  0.13846457017E+04  0.25500000920E-02 0. -1.
        2   -1    0    0  501    0  0.00000000000E+00  0.00000000000E+00 -0.17343511717E+04  0.17343511717E+04  0.25500000920E-02 0.  1.
    10030    2    1    2    0    0  0.00000000000E+00  0.00000000000E+00 -0.34970546999E+03  0.31189968734E+04  0.30993301825E+04 0.  0.
        3    1    3    3  502    0  0.39454951306E+03 -0.96708603103E+02 -0.16798153810E+04  0.17282365569E+04  0.10100000352E+00 0.  1.
       -3    1    3    3    0  502 -0.39454951306E+03  0.96708603103E+02  0.13301099110E+04  0.13907603164E+04  0.10100000352E+00 0. -1.
</event>
<event>
 5   0  0.1377237E-07  0.3099968E+04  0.7818609E-02  0.8215747E-01
       -2   -1    0    0    0  501  0.00000000000E+00  0.00000000000E+00  0.18971038406E+04  0.18971038406E+04  0.25500000920E-02 0. -1.
        2   -1    0    0  501    0  0.00000000000E+00  0.00000000000E+00 -0.12663780325E+04  0.12663780325E+04  0.25500000920E-02 0.  1.
    10030    2    1    2    0    0  0.00000000000E+00  0.00000000000E+00  0.63072580812E+03  0.31634818731E+04  0.30999681476E+04 0.  0.
        2    1    3    3  502    0 -0.14519938856E+04 -0.24018486486E+03 -0.18088798908E+03  0.14827998779E+04  0.25500000920E-02 0.  1.
       -2    1    3    3    0  502  0.14519938856E+04  0.24018486486E+03  0.81161379720E+03  0.16806819952E+04  0.25500000920E-02 0. -1.
</event>
<event>
 5   0  0.1329777E-07  0.3099204E+04  0.7818609E-02  0.8215956E-01
       -2   -1    0    0    0  501  0.00000000000E+00  0.00000000000E+00  0.11649046846E+04  0.11649046846E+04  0.25500000920E-02 0. -1.
        2   -1    0    0  501    0  0.00000000000E+00  0.00000000000E+00 -0.20613418265E+04  0.20613418265E+04  0.25500000920E-02 0.  1.
    10030    2    1    2    0    0  0.00000000000E+00  0.00000000000E+00 -0.89643714194E+03  0.32262465111E+04  0.30992042529E+04 0.  0.
        1    1    3    3  502    0  0.13553216849E+04 -0.73818880823E+03 -0.59338810670E+03  0.16534597157E+04  0.50400001928E-02 0.  1.
       -1    1    3    3    0  502 -0.13553216849E+04  0.73818880823E+03 -0.30304903524E+03  0.15727867955E+04  0.50400001928E-02 0. -1.
</event>
<event>
 5   0  0.4838602E-08  0.3099038E+04  0.7818609E-02  0.8216002E-01
       -1   -1    0    0    0  501  0.00000000000E+00  0.00000000000E+00  0.15471717773E+04  0.15471717773E+04  0.50400001928E-02 0.  1.
        1   -1    0    0  501    0  0.00000000000E+00  0.00000000000E+00 -0.15518702331E+04  0.15518702331E+04  0.50400001928E-02 0. -1.
    10030    2    1    2    0    0  0.00000000000E+00  0.00000000000E+00 -0.46984557834E+01  0.30990420104E+04  0.30990384487E+04 0.  0.
        5    1    3    3  502    0 -0.14551326485E+04  0.51654448026E+03  0.12710559175E+03  0.15493247388E+04  0.46999998093E+01 0.  1.
       -5    1    3    3    0  502  0.14551326485E+04 -0.51654448026E+03 -0.13180404754E+03  0.15497172716E+04  0.46999998093E+01 0. -1.
</event>
<event>
 5   0  0.4838602E-08  0.3100385E+04  0.7818609E-02  0.8215632E-01
       -1   -1    0    0    0  501  0.00000000000E+00  0.00000000000E+00  0.10572816033E+04  0.10572816033E+04  0.50400001928E-02 0.  1.
        1   -1    0    0  501    0  0.00000000000E+00  0.00000000000E+00 -0.22729008714E+04  0.22729008714E+04  0.50400001928E-02 0. -1.
    10030    2    1    2    0    0  0.00000000000E+00  0.00000000000E+00 -0.12156192681E+04  0.33301824747E+04  0.31003846712E+04 0.  0.
        5    1    3    3  502    0 -0.10282054622E+04  0.26739398094E+03  0.60474107076E+03  0.12224728488E+04  0.46999998093E+01 0.  1.
       -5    1    3    3    0  502  0.10282054622E+04 -0.26739398094E+03 -0.18203603389E+04  0.21077096258E+04  0.46999998093E+01 0. -1.
</event>
<event>
 5   0  0.1377237E-07  0.3098812E+04  0.7818609E-02  0.8216064E-01
        2   -1    0    0  501    0  0.00000000000E+00  0.00000000000E+00  0.12407570131E+04  0.12407570131E+04  0.25500000920E-02 0. -1.
       -2   -1    0    0    0  501  0.00000000000E+00  0.00000000000E+00 -0.19348339077E+04  0.19348339077E+04  0.25500000920E-02 0.  1.
    10030    2    1    2    0    0  0.00000000000E+00  0.00000000000E+00 -0.69407689458E+03  0.31755909208E+04  0.30988118628E+04 0.  0.
        2    1    3    3  502    0 -0.10885227930E+04 -0.68353879562E+03 -0.12336639287E+04  0.17815818379E+04  0.25500000920E-02 0.  1.
       -2    1    3    3    0  502  0.10885227930E+04  0.68353879562E+03  0.53958703415E+03  0.13940090830E+04  0.25500000920E-02 0. -1.
</event>
<event>
 5   0  0.4436241E-08  0.3099241E+04  0.7818609E-02  0.8215946E-01
       -1   -1    0    0    0  501  0.00000000000E+00  0.00000000000E+00  0.13037598947E+04  0.13037598947E+04  0.50400001928E-02 0. -1.
        1   -1    0    0  501    0  0.00000000000E+00  0.00000000000E+00 -0.18418447442E+04  0.18418447442E+04  0.50400001928E-02 0.  1.
    10030    2    1    2    0    0  0.00000000000E+00  0.00000000000E+00 -0.53808484943E+03  0.31456046389E+04  0.30992407521E+04 0.  0.
        3    1    3    3  502    0  0.60583366273E+02  0.94770763281E+03 -0.15119033114E+04  0.17854052018E+04  0.10100000352E+00 0.  1.
       -3    1    3    3    0  502 -0.60583366273E+02 -0.94770763281E+03  0.97381846197E+03  0.13601994371E+04  0.10100000352E+00 0. -1.
</event>
<event>
 5   0  0.4838602E-08  0.3098358E+04  0.7818609E-02  0.8216189E-01
        1   -1    0    0  501    0  0.00000000000E+00  0.00000000000E+00  0.18715276374E+04  0.18715276374E+04  0.50400001928E-02 0. -1.
       -1   -1    0    0    0  501  0.00000000000E+00  0.00000000000E+00 -0.12823507683E+04  0.12823507683E+04  0.50400001928E-02 0.  1.
    10030    2    1    2    0    0  0.00000000000E+00  0.00000000000E+00  0.58917686911E+03  0.31538784057E+04  0.30983575673E+04 0.  0.
        5    1    3    3  502    0 -0.62625882726E+03  0.45445748504E+03  0.16607262398E+04  0.18321477719E+04  0.46999998093E+01 0. -1.
       -5    1    3    3    0  502  0.62625882726E+03 -0.45445748504E+03 -0.10715493707E+04  0.13217306338E+04  0.46999998093E+01 0.  1.
</event>
<event>
 5   0  0.4517409E-08  0.3100335E+04  0.7818609E-02  0.8215646E-01
        1   -1    0    0  501    0  0.00000000000E+00  0.00000000000E+00  0.10865866895E+04  0.10865866895E+04  0.50400001928E-02 0. -1.
       -1   -1    0    0    0  501  0.00000000000E+00  0.00000000000E+00 -0.22115297121E+04  0.22115297121E+04  0.50400001928E-02 0.  1.
    10030    2    1    2    0    0  0.00000000000E+00  0.00000000000E+00 -0.11249430226E+04  0.32981164016E+04  0.31003346584E+04 0.  0.
        2    1    3    3  502    0  0.12985106761E+04 -0.80473645067E+03 -0.28245317438E+03  0.15535477227E+04  0.25500000920E-02 0. -1.
       -2    1    3    3    0  502 -0.12985106761E+04  0.80473645067E+03 -0.84248984823E+03  0.17445686789E+04  0.25500000920E-02 0.  1.
</event>
<event>
 5   0  0.1398931E-07  0.3094120E+04  0.7818609E-02  0.8217353E-01
       -2   -1    0    0    0  501  0.00000000000E+00  0.00000000000E+00  0.25946734084E+04  0.25946734084E+04  0.25500000920E-02 0.  1.
        2   -1    0    0  501    0  0.00000000000E+00  0.00000000000E+00 -0.92242646230E+03  0.92242646230E+03  0.25500000920E-02 0. -1.
    10030    2    1    2    0    0  0.00000000000E+00  0.00000000000E+00  0.16722469461E+04  0.35170998707E+04  0.30941204973E+04 0.  0.
        3    1    3    3  502    0  0.14667695920E+04 -0.49189248876E+03  0.83053782980E+03  0.17558941749E+04  0.10100000352E+00 0.  1.
       -3    1    3    3    0  502 -0.14667695920E+04  0.49189248876E+03  0.84170911632E+03  0.17612056959E+04  0.10100000352E+00 0. -1.
</event>
<event>
 5   0  0.4838602E-08  0.3098238E+04  0.7818609E-02  0.8216222E-01
       -1   -1    0    0    0  501  0.00000000000E+00  0.00000000000E+00  0.18615337857E+04  0.18615337857E+04  0.50400001928E-02 0.  1.
        1   -1    0    0  501    0  0.00000000000E+00  0.00000000000E+00 -0.12891358516E+04  0.12891358516E+04  0.50400001928E-02 0. -1.
    10030    2    1    2    0    0  0.00000000000E+00  0.00000000000E+00  0.57239793416E+03  0.31506696373E+04  0.30982381717E+04 0.  0.
        5    1    3    3  502    0 -0.94959111844E+03  0.68345644426E+03 -0.74632188940E+03  0.13877515830E+04  0.46999998093E+01 0. -1.
       -5    1    3    3    0  502  0.94959111844E+03 -0.68345644426E+03  0.13187198236E+04  0.17629180544E+04  0.46999998093E+01 0.  1.
</event>
<event>
 5   0  0.1377237E-07  0.3100288E+04  0.7818609E-02  0.8215659E-01
       -2   -1    0    0    0  501  0.00000000000E+00  0.00000000000E+00  0.16924442049E+04  0.16924442049E+04  0.25500000920E-02 0. -1.
        2   -1    0    0  501    0  0.00000000000E+00  0.00000000000E+00 -0.14198079358E+04  0.14198079358E+04  0.25500000920E-02 0.  1.
    10030    2    1    2    0    0  0.00000000000E+00  0.00000000000E+00  0.27263626913E+03  0.31122521407E+04  0.31002875434E+04 0.  0.
        2    1    3    3  502    0  0.63512262269E+01 -0.10231210238E+04  0.13053416837E+04  0.16585336532E+04  0.25500000920E-02 0. -1.
       -2    1    3    3    0  502 -0.63512262269E+01  0.10231210238E+04 -0.10327054146E+04  0.14537184875E+04  0.25500000920E-02 0.  1.
</event>
<event>
 5   0  0.4470354E-08  0.3099357E+04  0.7818609E-02  0.8215914E-01
        1   -1    0    0  501    0  0.00000000000E+00  0.00000000000E+00  0.24929647625E+04  0.24929647625E+04  0.50400001928E-02 0. -1.
       -1   -1    0    0    0  501  0.00000000000E+00  0.00000000000E+00 -0.96331208908E+03  0.96331208910E+03  0.50400001928E-02 0.  1.
    10030    2    1    2    0    0  0.00000000000E+00  0.00000000000E+00  0.15296526734E+04  0.34562768516E+04  0.30993567677E+04 0.  0.
        1    1    3    3  502    0  0.54660945528E+03 -0.43296053928E+03 -0.77847788109E+03  0.10451146045E+04  0.50400001928E-02 0.  1.
       -1    1    3    3    0  502 -0.54660945528E+03  0.43296053928E+03  0.23081305545E+04  0.24111622471E+04  0.50400001928E-02 0. -1.
</event>
<event>
 5   0  0.1398931E-07  0.3098852E+04  0.7818609E-02  0.8216053E-01
        2   -1    0    0  501    0  0.00000000000E+00  0.00000000000E+00  0.27339846094E+04  0.27339846094E+04  0.25500000920E-02 0.  1.
       -2   -1    0    0    0  501  0.00000000000E+00  0.00000000000E+00 -0.87810307508E+03  0.87810307508E+03  0.25500000920E-02 0. -1.
    10030    2    1    2    0    0  0.00000000000E+00  0.00000000000E+00  0.18558815343E+04  0.36120876845E+04  0.30988515891E+04 0.  0.
        3    1    3    3  502    0 -0.88005912255E+03  0.93072065484E+03 -0.88207876344E+02  0.12839492343E+04  0.10100000352E+00 0.  1.
       -3    1    3    3    0  502  0.88005912255E+03 -0.93072065484E+03  0.19440894107E+04  0.23281384502E+04  0.10100000352E+00 0. -1.
</event>
<event>
 5   0  0.4517409E-08  0.3104155E+04  0.7818609E-02  0.8214598E-01
       -1   -1    0    0    0  501  0.00000000000E+00  0.00000000000E+00  0.25953359267E+04  0.25953359267E+04  0.50400001928E-02 0. -1.
        1   -1    0    0  501    0  0.00000000000E+00  0.00000000000E+00 -0.92818236008E+03  0.92818236009E+03  0.50400001928E-02 0.  1.
    10030    2    1    2    0    0  0.00000000000E+00  0.00000000000E+00  0.16671535666E+04  0.35235182868E+04  0.31041552961E+04 0.  0.
        2    1    3    3  502    0  0.15053825553E+04 -0.56779368459E+02  0.40955376030E+03  0.15611325430E+04  0.25500000920E-02 0. -1.
       -2    1    3    3    0  502 -0.15053825553E+04  0.56779368459E+02  0.12575998063E+04  0.19623857437E+04  0.25500000920E-02 0.  1.
</event>
<event>
 5   0  0.4436241E-08  0.3102967E+04  0.7818609E-02  0.8214924E-01
        1   -1    0    0  501    0  0.00000000000E+00  0.00000000000E+00  0.25122984205E+04  0.25122984205E+04  0.50400001928E-02 0. -1.
       -1   -1    0    0    0  501  0.00000000000E+00  0.00000000000E+00 -0.95812730693E+03  0.95812730695E+03  0.50400001928E-02 0.  1.
    10030    2    1    2    0    0  0.00000000000E+00  0.00000000000E+00  0.15541711135E+04  0.34704257274E+04  0.31029674312E+04 0.  0.
        3    1    3    3  502    0  0.53367601408E+03 -0.54227246195E+03 -0.73515615775E+03  0.10579811423E+04  0.10100000352E+00 0.  1.
       -3    1    3    3    0  502 -0.53367601408E+03  0.54227246195E+03  0.22893272713E+04  0.24124445851E+04  0.10100000352E+00 0. -1.
</event>
<event>
 5   0  0.4838602E-08  0.3100595E+04  0.7818609E-02  0.8215575E-01
       -1   -1    0    0    0  501  0.00000000000E+00  0.00000000000E+00  0.15258616516E+04  0.15258616516E+04  0.50400001928E-02 0.  1.
        1   -1    0    0  501    0  0.00000000000E+00  0.00000000000E+00 -0.15751248583E+04  0.15751248583E+04  0.50400001928E-02 0. -1.
    10030    2    1    2    0    0  0.00000000000E+00  0.00000000000E+00 -0.49263206737E+02  0.31009865099E+04  0.31005951801E+04 0.  0.
        5    1    3    3  502    0  0.12922451645E+04  0.52721129541E+02 -0.87956312553E+03  0.15640749549E+04  0.46999998093E+01 0. -1.
       -5    1    3    3    0  502 -0.12922451645E+04 -0.52721129541E+02  0.83029991879E+03  0.15369115550E+04  0.46999998093E+01 0.  1.
</event>
<event>
 5   0  0.4517409E-08  0.3099262E+04  0.7818609E-02  0.8215941E-01
        1   -1    0    0  501    0  0.00000000000E+00  0.00000000000E+00  0.18497709636E+04  0.18497709636E+04  0.50400001928E-02 0. -1.
       -1   -1    0    0    0  501  0.00000000000E+00  0.00000000000E+00 -0.12981909534E+04  0.12981909534E+04  0.50400001928E-02 0.  1.
    10030    2    1    2    0    0  0.00000000000E+00  0.00000000000E+00  0.55158001019E+03  0.31479619170E+04  0.30992618029E+04 0.  0.
        2    1    3    3  502    0  0.54099145995E+03 -0.98305778072E+03  0.13613599001E+04  0.17641924888E+04  0.25500000920E-02 0. -1.
       -2    1    3    3    0  502 -0.54099145995E+03  0.98305778072E+03 -0.80977988996E+03  0.13837694281E+04  0.25500000920E-02 0.  1.
</event>
<event>
 5   0  0.1325713E-07  0.3097949E+04  0.7818609E-02  0.8216301E-01
        2   -1    0    0  501    0  0.00000000000E+00  0.00000000000E+00  0.25946426306E+04  0.25946426306E+04  0.25500000920E-02 0. -1.
       -2   -1    0    0    0  501  0.00000000000E+00  0.00000000000E+00 -0.92472151277E+03  0.92472151278E+03  0.25500000920E-02 0.  1.
    10030    2    1    2    0    0  0.00000000000E+00  0.00000000000E+00  0.16699211178E+04  0.35193641433E+04  0.30979489075E+04 0.  0.
        4    1    3    3  502    0 -0.12208247684E+04  0.93396146148E+03  0.10523646025E+04  0.18628392298E+04  0.12699999809E+01 0.  1.
       -4    1    3    3    0  502  0.12208247684E+04 -0.93396146148E+03  0.61755651526E+03  0.16565249135E+04  0.12699999809E+01 0. -1.
</event>
<event>
 5   0  0.4450600E-08  0.3097427E+04  0.7818609E-02  0.8216444E-01
       -1   -1    0    0    0  501  0.00000000000E+00  0.00000000000E+00  0.21861485335E+04  0.21861485335E+04  0.50400001928E-02 0.  1.
        1   -1    0    0  501    0  0.00000000000E+00  0.00000000000E+00 -0.10971413557E+04  0.10971413557E+04  0.50400001928E-02 0. -1.
    10030    2    1    2    0    0  0.00000000000E+00  0.00000000000E+00  0.10890071778E+04  0.32832898892E+04  0.30974272975E+04 0.  0.
        4    1    3    3  502    0 -0.50473225870E+03  0.81985099019E+03  0.18303920537E+04  0.20681506189E+04  0.12699999809E+01 0.  1.
       -4    1    3    3    0  502  0.50473225870E+03 -0.81985099019E+03 -0.74138487593E+03  0.12151392703E+04  0.12699999809E+01 0. -1.
</event>
<event>
 5   0  0.4838602E-08  0.3103265E+04  0.7818609E-02  0.8214842E-01
        1   -1    0    0  501    0  0.00000000000E+00  0.00000000000E+00  0.11443462425E+04  0.11443462425E+04  0.50400001928E-02 0.  1.
       -1   -1    0    0    0  501  0.00000000000E+00  0.00000000000E+00 -0.21038768906E+04  0.21038768906E+04  0.50400001928E-02 0. -1.
    10030    2    1    2    0    0  0.00000000000E+00  0.00000000000E+00 -0.95953064815E+03  0.32482231331E+04  0.31032651285E+04 0.  0.
        5    1    3    3  502    0 -0.13177765776E+04 -0.76142743764E+03 -0.16360531612E+03  0.15307173615E+04  0.46999998093E+01 0.  1.
       -5    1    3    3    0  502  0.13177765776E+04  0.76142743764E+03 -0.79592533202E+03  0.17175057716E+04  0.46999998093E+01 0. -1.
</event>
<event>
 5   0  0.4517409E-08  0.3101170E+04  0.7818609E-02  0.8215417E-01
        1   -1    0    0  501    0  0.00000000000E+00  0.00000000000E+00  0.14605764537E+04  0.14605764537E+04  0.50400001928E-02 0.  1.
       -1   -1    0    0    0  501  0.00000000000E+00  0.00000000000E+00 -0.16461406504E+04  0.16461406504E+04  0.50400001928E-02 0. -1.
    10030    2    1    2    0    0  0.00000000000E+00  0.00000000000E+00 -0.18556419669E+03  0.31067171041E+04  0.31011702781E+04 0.  0.
        2    1    3    3  502    0  0.87041267467E+03  0.11468399505E+04 -0.66953241784E+03  0.15878078457E+04  0.25500000920E-02 0. -1.
       -2    1    3    3    0  502 -0.87041267467E+03 -0.11468399505E+04  0.48396822114E+03  0.15189092584E+04  0.25500000920E-02 0.  1.
</event>
<event>
 5   0  0.1329777E-07  0.3099410E+04  0.7818609E-02  0.8215900E-01
        2   -1    0    0  501    0  0.00000000000E+00  0.00000000000E+00  0.17026096396E+04  0.17026096396E+04  0.25500000920E-02 0. -1.
       -2   -1    0    0    0  501  0.00000000000E+00  0.00000000000E+00 -0.14105321841E+04  0.14105321841E+04  0.25500000920E-02 0.  1.
    10030    2    1    2    0    0  0.00000000000E+00  0.00000000000E+00  0.29207745546E+03  0.31131418237E+04  0.30994100687E+04 0.  0.
        1    1    3    3  502    0  0.99838038008E+03 -0.29860879987E+03 -0.10060631711E+04  0.14484797904E+04  0.50400001928E-02 0.  1.
       -1    1    3    3    0  502 -0.99838038008E+03  0.29860879987E+03  0.12981406266E+04  0.16646620333E+04  0.50400001928E-02 0. -1.
</event>
<event>
 5   0  0.1398931E-07  0.3101612E+04  0.7818609E-02  0.8215296E-01
        2   -1    0    0  501    0  0.00000000000E+00  0.00000000000E+00  0.26358994922E+04  0.26358994922E+04  0.25500000920E-02 0.  1.
       -2   -1    0    0    0  501  0.00000000000E+00  0.00000000000E+00 -0.91240183342E+03  0.91240183342E+03  0.25500000920E-02 0. -1.
    10030    2    1    2    0    0  0.00000000000E+00  0.00000000000E+00  0.17234976587E+04  0.35483013256E+04  0.31016121804E+04 0.  0.
        3    1    3    3  502    0 -0.90406501802E+03  0.81784810980E+02 -0.57670459461E+03  0.10754582799E+04  0.10100000352E+00 0. -1.
       -3    1    3    3    0  502  0.90406501802E+03 -0.81784810980E+02  0.23002022533E+04  0.24728430457E+04  0.10100000352E+00 0.  1.
</event>
<event>
 5   0  0.1398931E-07  0.3099319E+04  0.7818609E-02  0.8215925E-01
       -2   -1    0    0    0  501  0.00000000000E+00  0.00000000000E+00  0.18551761562E+04  0.18551761562E+04  0.25500000920E-02 0.  1.
        2   -1    0    0  501    0  0.00000000000E+00  0.00000000000E+00 -0.12944567457E+04  0.12944567457E+04  0.25500000920E-02 0. -1.
    10030    2    1    2    0    0  0.00000000000E+00  0.00000000000E+00  0.56071941049E+03  0.31496329018E+04  0.30993194671E+04 0.  0.
        3    1    3    3  502    0 -0.13487259475E+04  0.47043282271E+03  0.89101094206E+03  0.16835288032E+04  0.10100000352E+00 0.  1.
       -3    1    3    3    0  502  0.13487259475E+04 -0.47043282271E+03 -0.33029153157E+03  0.14661040987E+04  0.10100000352E+00 0. -1.
</event>
<event>
 5   0  0.4450600E-08  0.3100024E+04  0.7818609E-02  0.8215731E-01
       -1   -1    0    0    0  501  0.00000000000E+00  0.00000000000E+00  0.14089358144E+04  0.14089358144E+04  0.50400001928E-02 0. -1.
        1   -1    0    0  501    0  0.00000000000E+00  0.00000000000E+00 -0.17052145354E+04  0.17052145354E+04  0.50400001928E-02 0.  1.
    10030    2    1    2    0    0  0.00000000000E+00  0.00000000000E+00 -0.29627872098E+03  0.31141503498E+04  0.31000244065E+04 0.  0.
        4    1    3    3  502    0 -0.11460570942E+04  0.21345886461E+03  0.87804601956E+03  0.14594444064E+04  0.12699999809E+01 0.  1.
       -4    1    3    3    0  502  0.11460570942E+04 -0.21345886461E+03 -0.11743247405E+04  0.16547059434E+04  0.12699999809E+01 0. -1.
</event>
<event>
 5   0  0.1329777E-07  0.3100220E+04  0.7818609E-02  0.8215677E-01
        2   -1    0    0  501    0  0.00000000000E+00  0.00000000000E+00  0.19666610571E+04  0.19666610571E+04  0.25500000920E-02 0. -1.
       -2   -1    0    0    0  501  0.00000000000E+00  0.00000000000E+00 -0.12217874181E+04  0.12217874181E+04  0.25500000920E-02 0.  1.
    10030    2    1    2    0    0  0.00000000000E+00  0.00000000000E+00  0.74487363900E+03  0.31884484752E+04  0.31002204665E+04 0.  0.
        1    1    3    3  502    0  0.39181524902E+03  0.12176460807E+04 -0.52807286451E+03  0.13838504679E+04  0.50400001928E-02 0.  1.
       -1    1    3    3    0  502 -0.39181524902E+03 -0.12176460807E+04  0.12729465035E+04  0.18045980073E+04  0.50400001928E-02 0. -1.
</event>
<event>
 5   0  0.4517409E-08  0.3088269E+04  0.7818609E-02  0.8218965E-01
       -1   -1    0    0    0  501  0.00000000000E+00  0.00000000000E+00  0.14345190421E+04  0.14345190421E+04  0.50400001928E-02 0. -1.
        1   -1    0    0  501    0  0.00000000000E+00  0.00000000000E+00 -0.16621261379E+04  0.16621261379E+04  0.50400001928E-02 0.  1.
    10030    2    1    2    0    0  0.00000000000E+00  0.00000000000E+00 -0.22760709582E+03  0.30966451800E+04  0.30882691562E+04 0.  0.
        2    1    3    3  502    0 -0.26895345840E+03 -0.15170567072E+04 -0.21681767074E+03  0.15558942503E+04  0.25500000920E-02 0. -1.
       -2    1    3    3    0  502  0.26895345840E+03  0.15170567072E+04 -0.10789425082E+02  0.15407509297E+04  0.25500000920E-02 0.  1.
</event>
<event>
 5   0  0.4470354E-08  0.3097560E+04  0.7818609E-02  0.8216408E-01
        1   -1    0    0  501    0  0.00000000000E+00  0.00000000000E+00  0.19572469117E+04  0.19572469117E+04  0.50400001928E-02 0.  1.
       -1   -1    0    0    0  501  0.00000000000E+00  0.00000000000E+00 -0.12255579724E+04  0.12255579724E+04  0.50400001928E-02 0. -1.
    10030    2    1    2    0    0  0.00000000000E+00  0.00000000000E+00  0.73168893924E+03  0.31828048841E+04  0.30975600440E+04 0.  0.
        1    1    3    3  502    0 -0.10156431326E+04  0.44124392203E+03  0.14784604608E+04  0.18471796084E+04  0.50400001928E-02 0.  1.
       -1    1    3    3    0  502  0.10156431326E+04 -0.44124392203E+03 -0.74677152153E+03  0.13356252757E+04  0.50400001928E-02 0. -1.
</event>
<event>
 5   0  0.4838602E-08  0.3100384E+04  0.7818609E-02  0.8215633E-01
       -1   -1    0    0    0  501  0.00000000000E+00  0.00000000000E+00  0.13591222176E+04  0.13591222176E+04  0.50400001928E-02 0.  1.
        1   -1    0    0  501    0  0.00000000000E+00  0.00000000000E+00 -0.17681227183E+04  0.17681227183E+04  0.50400001928E-02 0. -1.
    10030    2    1    2    0    0  0.00000000000E+00  0.00000000000E+00 -0.40900050065E+03  0.31272449359E+04  0.31003837633E+04 0.  0.
        5    1    3    3  502    0  0.33223769110E+02 -0.51360631897E+03  0.12704192674E+04  0.13707233399E+04  0.46999998093E+01 0.  1.
       -5    1    3    3    0  502 -0.33223769110E+02  0.51360631897E+03 -0.16794197680E+04  0.17565215959E+04  0.46999998093E+01 0. -1.
</event>
<event>
 5   0  0.1377237E-07  0.3099846E+04  0.7818609E-02  0.8215780E-01
        2   -1    0    0  501    0  0.00000000000E+00  0.00000000000E+00  0.26050675279E+04  0.26050675279E+04  0.25500000920E-02 0. -1.
       -2   -1    0    0    0  501  0.00000000000E+00  0.00000000000E+00 -0.92214943783E+03  0.92214943784E+03  0.25500000920E-02 0.  1.
    10030    2    1    2    0    0  0.00000000000E+00  0.00000000000E+00  0.16829180901E+04  0.35272169658E+04  0.30998461616E+04 0.  0.
        2    1    3    3  502    0 -0.14218666855E+04 -0.61485039901E+03  0.89853051325E+03  0.17908386213E+04  0.25500000920E-02 0. -1.
       -2    1    3    3    0  502  0.14218666855E+04  0.61485039901E+03  0.78438757686E+03  0.17363783445E+04  0.25500000920E-02 0.  1.
</event>
<event>
 5   0  0.1329777E-07  0.3100012E+04  0.7818609E-02  0.8215735E-01
        2   -1    0    0  501    0  0.00000000000E+00  0.00000000000E+00  0.18229215757E+04  0.18229215757E+04  0.25500000920E-02 0. -1.
       -2   -1    0    0    0  501  0.00000000000E+00  0.00000000000E+00 -0.13179491147E+04  0.13179491147E+04  0.25500000920E-02 0.  1.
    10030    2    1    2    0    0  0.00000000000E+00  0.00000000000E+00  0.50497246095E+03  0.31408706904E+04  0.31000115334E+04 0.  0.
        1    1    3    3  502    0 -0.34030253786E+03  0.82559071709E+03  0.15361149395E+04  0.17768103323E+04  0.50400001928E-02 0. -1.
       -1    1    3    3    0  502  0.34030253786E+03 -0.82559071709E+03 -0.10311424786E+04  0.13640603581E+04  0.50400001928E-02 0.  1.
</event>
<event>
 5   0  0.1318916E-07  0.3099984E+04  0.7818609E-02  0.8215742E-01
        2   -1    0    0  501    0  0.00000000000E+00  0.00000000000E+00  0.10604280121E+04  0.10604280121E+04  0.25500000920E-02 0.  1.
       -2   -1    0    0    0  501  0.00000000000E+00  0.00000000000E+00 -0.22655718998E+04  0.22655718998E+04  0.25500000920E-02 0. -1.
    10030    2    1    2    0    0  0.00000000000E+00  0.00000000000E+00 -0.12051438878E+04  0.33259999119E+04  0.30999844554E+04 0.  0.
        5    1    3    3  502    0 -0.60598218620E+03  0.14260417020E+03  0.92039275983E+03  0.11111684308E+04  0.46999998093E+01 0.  1.
       -5    1    3    3    0  502  0.60598218620E+03 -0.14260417020E+03 -0.21255366476E+04  0.22148314811E+04  0.46999998093E+01 0. -1.
</event>
<event>
 5   0  0.4305500E-08  0.3099246E+04  0.7818609E-02  0.8215945E-01
       -3   -1    0    0    0  501  0.00000000000E+00  0.00000000000E+00  0.93969629648E+03  0.93969630191E+03  0.10100000352E+00 0. -1.
        3   -1    0    0  501    0  0.00000000000E+00  0.00000000000E+00 -0.25554334514E+04  0.25554334534E+04  0.10100000352E+00 0.  1.
    10030    2    1    2    0    0  0.00000000000E+00  0.00000000000E+00 -0.16157371549E+04  0.34951297553E+04  0.30992459490E+04 0.  0.
        5    1    3    3  502    0 -0.61572273361E+03  0.12868984932E+04 -0.14902064047E+04  0.20629976818E+04  0.46999998093E+01 0.  1.
       -5    1    3    3    0  502  0.61572273361E+03 -0.12868984932E+04 -0.12553075021E+03  0.14321320735E+04  0.46999998093E+01 0. -1.
</event>
<event>
 5   0  0.4517409E-08  0.3098811E+04  0.7818609E-02  0.8216064E-01
        1   -1    0    0  501    0  0.00000000000E+00  0.00000000000E+00  0.20044023917E+04  0.20044023917E+04  0.50400001928E-02 0. -1.
       -1   -1    0    0    0  501  0.00000000000E+00  0.00000000000E+00 -0.11976924608E+04  0.11976924608E+04  0.50400001928E-02 0.  1.
    10030    2    1    2    0    0  0.00000000000E+00  0.00000000000E+00  0.80670993087E+03  0.32020948526E+04  0.30988111482E+04 0.  0.
        2    1    3    3  502    0 -0.10845305302E+04  0.59674939083E+03 -0.55955197742E+03  0.13584604234E+04  0.25500000920E-02 0.  1.
       -2    1    3    3    0  502  0.10845305302E+04 -0.59674939083E+03  0.13662619083E+04  0.18436344292E+04  0.25500000920E-02 0. -1.
</event>
<event>
 5   0  0.1325713E-07  0.3098258E+04  0.7818609E-02  0.8216216E-01
       -2   -1    0    0    0  501  0.00000000000E+00  0.00000000000E+00  0.13454872462E+04  0.13454872462E+04  0.25500000920E-02 0.  1.
        2   -1    0    0  501    0  0.00000000000E+00  0.00000000000E+00 -0.17835927229E+04  0.17835927229E+04  0.25500000920E-02 0. -1.
    10030    2    1    2    0    0  0.00000000000E+00  0.00000000000E+00 -0.43810547662E+03  0.31290799691E+04  0.30982583889E+04 0.  0.
        4    1    3    3  502    0  0.94258161541E+03 -0.11490164287E+04 -0.66055229608E+03  0.16263547595E+04  0.12699999809E+01 0. -1.
       -4    1    3    3    0  502 -0.94258161541E+03  0.11490164287E+04  0.22244681946E+03  0.15027252096E+04  0.12699999809E+01 0.  1.
</event>
<event>
 5   0  0.1329777E-07  0.3098889E+04  0.7818609E-02  0.8216043E-01
       -2   -1    0    0    0  501  0.00000000000E+00  0.00000000000E+00  0.11064995569E+04  0.11064995569E+04  0.25500000920E-02 0. -1.
        2   -1    0    0  501    0  0.00000000000E+00  0.00000000000E+00 -0.21697053665E+04  0.21697053665E+04  0.25500000920E-02 0.  1.
    10030    2    1    2    0    0  0.00000000000E+00  0.00000000000E+00 -0.10632058095E+04  0.32762049234E+04  0.30988888503E+04 0.  0.
        1    1    3    3  502    0 -0.98344098324E+03 -0.11683667865E+02  0.73418717820E+03  0.12273237097E+04  0.50400001928E-02 0. -1.
       -1    1    3    3    0  502  0.98344098324E+03  0.11683667865E+02 -0.17973929877E+04  0.20488812137E+04  0.50400001928E-02 0.  1.
</event>
<event>
 5   0  0.4470354E-08  0.3086123E+04  0.7818609E-02  0.8219557E-01
       -1   -1    0    0    0  501  0.00000000000E+00  0.00000000000E+00  0.15268476940E+04  0.15268476940E+04  0.50400001928E-02 0.  1.
        1   -1    0    0  501    0  0.00000000000E+00  0.00000000000E+00 -0.15594474673E+04  0.15594474673E+04  0.50400001928E-02 0. -1.
    10030    2    1    2    0    0  0.00000000000E+00  0.00000000000E+00 -0.32599773284E+02  0.30862951613E+04  0.30861229848E+04 0.  0.
        1    1    3    3  502    0  0.11966318155E+04  0.96784137626E+03 -0.12763505971E+03  0.15443235866E+04  0.50400001928E-02 0. -1.
       -1    1    3    3    0  502 -0.11966318155E+04 -0.96784137626E+03  0.95035286428E+02  0.15419715747E+04  0.50400001928E-02 0.  1.
</event>
<event>
 5   0  0.4838602E-08  0.3103860E+04  0.7818609E-02  0.8214679E-01
        1   -1    0    0  501    0  0.00000000000E+00  0.00000000000E+00  0.16116909287E+04  0.16116909287E+04  0.50400001928E-02 0. -1.
       -1   -1    0    0    0  501  0.00000000000E+00  0.00000000000E+00 -0.14943848138E+04  0.14943848138E+04  0.50400001928E-02 0.  1.
    10030    2    1    2    0    0  0.00000000000E+00  0.00000000000E+00  0.11730611489E+03  0.31060757425E+04  0.31038598219E+04 0.  0.
        5    1    3    3  502    0  0.15050005974E+03 -0.83836756882E+03 -0.12395602420E+04  0.15040086875E+04  0.46999998093E+01 0.  1.
       -5    1    3    3    0  502 -0.15050005974E+03  0.83836756882E+03  0.13568663569E+04  0.16020670551E+04  0.46999998093E+01 0. -1.
</event>
<event>
 5   0  0.1318916E-07  0.3100123E+04  0.7818609E-02  0.8215704E-01
        2   -1    0    0  501    0  0.00000000000E+00  0.00000000000E+00  0.20891432040E+04  0.20891432040E+04  0.25500000920E-02 0. -1.
       -2   -1    0    0    0  501  0.00000000000E+00  0.00000000000E+00 -0.11500843633E+04  0.11500843633E+04  0.25500000920E-02 0.  1.
    10030    2    1    2    0    0  0.00000000000E+00  0.00000000000E+00  0.93905884068E+03  0.32392275673E+04  0.31001231793E+04 0.  0.
        5    1    3    3  502    0 -0.29966803737E+03  0.14138443208E+04  0.10549480911E+04  0.17893278797E+04  0.46999998093E+01 0.  1.
       -5    1    3    3    0  502  0.29966803737E+03 -0.14138443208E+04 -0.11588925043E+03  0.14498996877E+04  0.46999998093E+01 0. -1.
</event>
<event>
 5   0  0.1318916E-07  0.3100351E+04  0.7818609E-02  0.8215642E-01
       -2   -1    0    0    0  501  0.00000000000E+00  0.00000000000E+00  0.12766510283E+04  0.12766510283E+04  0.25500000920E-02 0. -1.
        2   -1    0    0  501    0  0.00000000000E+00  0.00000000000E+00 -0.18823032449E+04  0.18823032449E+04  0.25500000920E-02 0.  1.
    10030    2    1    2    0    0  0.00000000000E+00  0.00000000000E+00 -0.60565221658E+03  0.31589542732E+04  0.31003511886E+04 0.  0.
        5    1    3    3  502    0 -0.55824702139E+03 -0.48295587314E+03 -0.16917268740E+04  0.18457648871E+04  0.46999998093E+01 0.  1.
       -5    1    3    3    0  502  0.55824702139E+03  0.48295587314E+03  0.10860746574E+04  0.13131893861E+04  0.46999998093E+01 0. -1.
</event>
<event>
 5   0  0.1318916E-07  0.3100698E+04  0.7818609E-02  0.8215546E-01
       -2   -1    0    0    0  501  0.00000000000E+00  0.00000000000E+00  0.10406534492E+04  0.10406534492E+04  0.25500000920E-02 0.  1.
        2   -1    0    0  501    0  0.00000000000E+00  0.00000000000E+00 -0.23096847470E+04  0.23096847470E+04  0.25500000920E-02 0. -1.
    10030    2    1    2    0    0  0.00000000000E+00  0.00000000000E+00 -0.12690312978E+04  0.33503381962E+04  0.31006975980E+04 0.  0.
        5    1    3    3  502    0  0.98548176935E+03 -0.11888703876E+04 -0.78334479713E+03  0.17315421674E+04  0.46999998093E+01 0. -1.
       -5    1    3    3    0  502 -0.98548176935E+03  0.11888703876E+04 -0.48568650062E+03  0.16187960289E+04  0.46999998093E+01 0.  1.
</event>
<event>
 5   0  0.1325713E-07  0.3093030E+04  0.7818609E-02  0.8217653E-01
       -2   -1    0    0    0  501  0.00000000000E+00  0.00000000000E+00  0.16062192753E+04  0.16062192753E+04  0.25500000920E-02 0.  1.
        2   -1    0    0  501    0  0.00000000000E+00  0.00000000000E+00 -0.14890296231E+04  0.14890296231E+04  0.25500000920E-02 0. -1.
    10030    2    1    2    0    0  0.00000000000E+00  0.00000000000E+00  0.11718965221E+03  0.30952488985E+04  0.30930296360E+04 0.  0.
        4    1    3    3  502    0  0.50340838688E+03 -0.13890788749E+04  0.51581031691E+03  0.15649351490E+04  0.12699999809E+01 0.  1.
       -4    1    3    3    0  502 -0.50340838688E+03  0.13890788749E+04 -0.39862066470E+03  0.15303137495E+04  0.12699999809E+01 0. -1.
</event>
<event>
 5   0  0.1325713E-07  0.3096837E+04  0.7818609E-02  0.8216607E-01
       -2   -1    0    0    0  501  0.00000000000E+00  0.00000000000E+00  0.10823285275E+04  0.10823285275E+04  0.25500000920E-02 0. -1.
        2   -1    0    0  501    0  0.00000000000E+00  0.00000000000E+00 -0.22152233980E+04  0.22152233980E+04  0.25500000920E-02 0.  1.
    10030    2    1    2    0    0  0.00000000000E+00  0.00000000000E+00 -0.11328948705E+04  0.32975519255E+04  0.30968367593E+04 0.  0.
        4    1    3    3  502    0  0.12120668649E+04 -0.46126426466E+03  0.33439129084E+03  0.13392871071E+04  0.12699999809E+01 0. -1.
       -4    1    3    3    0  502 -0.12120668649E+04  0.46126426466E+03 -0.14672861613E+04  0.19582648184E+04  0.12699999809E+01 0.  1.
</event>
<event>
 5   0  0.4838602E-08  0.3099551E+04  0.7818609E-02  0.8215861E-01
        1   -1    0    0  501    0  0.00000000000E+00  0.00000000000E+00  0.20578984297E+04  0.20578984297E+04  0.50400001928E-02 0. -1.
       -1   -1    0    0    0  501  0.00000000000E+00  0.00000000000E+00 -0.11671152724E+04  0.11671152724E+04  0.50400001928E-02 0.  1.
    10030    2    1    2    0    0  0.00000000000E+00  0.00000000000E+00  0.89078315726E+03  0.32250137021E+04  0.30995513781E+04 0.  0.
        5    1    3    3  502    0 -0.10299817065E+04 -0.11411105421E+04  0.24047557271E+03  0.15559068662E+04  0.46999998093E+01 0.  1.
       -5    1    3    3    0  502  0.10299817065E+04  0.11411105421E+04  0.65030758455E+03  0.16691068359E+04  0.46999998093E+01 0. -1.
</event>
<event>
 5   0  0.1398931E-07  0.3101390E+04  0.7818609E-02  0.8215357E-01
       -2   -1    0    0    0  501  0.00000000000E+00  0.00000000000E+00  0.99946758913E+03  0.99946758913E+03  0.25500000920E-02 0. -1.
        2   -1    0    0  501    0  0.00000000000E+00  0.00000000000E+00 -0.24059359116E+04  0.24059359116E+04  0.25500000920E-02 0.  1.
    10030    2    1    2    0    0  0.00000000000E+00  0.00000000000E+00 -0.14064683225E+04  0.34054035008E+04  0.31013899885E+04 0.  0.
        3    1    3    3  502    0  0.12993024053E+04  0.77287290578E+03 -0.32423946480E+03  0.15461728589E+04  0.10100000352E+00 0.  1.
       -3    1    3    3    0  502 -0.12993024053E+04 -0.77287290578E+03 -0.10822288577E+04  0.18592306418E+04  0.10100000352E+00 0. -1.
</event>
<event>
 5   0  0.1325713E-07  0.3100605E+04  0.7818609E-02  0.8215572E-01
       -2   -1    0    0    0  501  0.00000000000E+00  0.00000000000E+00  0.97904641910E+03  0.97904641910E+03  0.25500000920E-02 0. -1.
        2   -1    0    0  501    0  0.00000000000E+00  0.00000000000E+00 -0.24548767274E+04  0.24548767274E+04  0.25500000920E-02 0.  1.
    10030    2    1    2    0    0  0.00000000000E+00  0.00000000000E+00 -0.14758303083E+04  0.34339231465E+04  0.31006052759E+04 0.  0.
        4    1    3    3  502    0  0.98760387914E+01  0.62362452312E+03  0.83396832502E+03  0.10413980325E+04  0.12699999809E+01 0. -1.
       -4    1    3    3    0  502 -0.98760387914E+01 -0.62362452312E+03 -0.23097986333E+04  0.23925251140E+04  0.12699999809E+01 0.  1.
</event>
<event>
 5   0  0.4436241E-08  0.3103219E+04  0.7818609E-02  0.8214855E-01
        1   -1    0    0  501    0  0.00000000000E+00  0.00000000000E+00  0.16771140775E+04  0.16771140775E+04  0.50400001928E-02 0.  1.
       -1   -1    0    0    0  501  0.00000000000E+00  0.00000000000E+00 -0.14354973484E+04  0.14354973484E+04  0.50400001928E-02 0. -1.
    10030    2    1    2    0    0  0.00000000000E+00  0.00000000000E+00  0.24161672915E+03  0.31126114259E+04  0.31032194967E+04 0.  0.
        3    1    3    3  502    0  0.11975599954E+03 -0.15127567095E+04 -0.20377330732E+03  0.15311100328E+04  0.10100000352E+00 0. -1.
       -3    1    3    3    0  502 -0.11975599954E+03  0.15127567095E+04  0.44539003647E+03  0.15815013931E+04  0.10100000352E+00 0.  1.
</event>
<event>
 5   0  0.1318916E-07  0.3100295E+04  0.7818609E-02  0.8215657E-01
        2   -1    0    0  501    0  0.00000000000E+00  0.00000000000E+00  0.23314126924E+04  0.23314126924E+04  0.25500000920E-02 0.  1.
       -2   -1    0    0    0  501  0.00000000000E+00  0.00000000000E+00 -0.10306873878E+04  0.10306873878E+04  0.25500000920E-02 0. -1.
    10030    2    1    2    0    0  0.00000000000E+00  0.00000000000E+00  0.13007253046E+04  0.33621000802E+04  0.31002952490E+04 0.  0.
        5    1    3    3  502    0  0.73569068741E+03 -0.12448325138E+04  0.12561849828E+04  0.19154298672E+04  0.46999998093E+01 0.  1.
       -5    1    3    3    0  502 -0.73569068741E+03  0.12448325138E+04  0.44540321833E+02  0.14466702130E+04  0.46999998093E+01 0. -1.
</event>
<event>
 5   0  0.1377237E-07  0.3098556E+04  0.7818609E-02  0.8216134E-01
       -2   -1    0    0    0  501  0.00000000000E+00  0.00000000000E+00  0.11935987259E+04  0.11935987259E+04  0.25500000920E-02 0. -1.
        2   -1    0    0  501    0  0.00000000000E+00  0.00000000000E+00 -0.20109452248E+04  0.20109452248E+04  0.25500000920E-02 0.  1.
    10030    2    1    2    0    0  0.00000000000E+00  0.00000000000E+00 -0.81734649886E+03  0.32045439507E+04  0.30985555720E+04 0.  0.
        2    1    3    3  502    0  0.94535724129E+03 -0.85263577240E+03 -0.13218093233E+04  0.18351751855E+04  0.25500000920E-02 0.  1.
       -2    1    3    3    0  502 -0.94535724129E+03  0.85263577240E+03  0.50446282449E+03  0.13693687653E+04  0.25500000920E-02 0. -1.
</event>
<event>
 5   0  0.4470354E-08  0.3102766E+04  0.7818609E-02  0.8214979E-01
        1   -1    0    0  501    0  0.00000000000E+00  0.00000000000E+00  0.17607677415E+04  0.17607677415E+04  0.50400001928E-02 0. -1.
       -1   -1    0    0    0  501  0.00000000000E+00  0.00000000000E+00 -0.13668974699E+04  0.13668974700E+04  0.50400001928E-02 0.  1.
    10030    2    1    2    0    0  0.00000000000E+00  0.00000000000E+00  0.39387027156E+03  0.31276652115E+04  0.31027658442E+04 0.  0.
        1    1    3    3  502    0  0.11634341181E+03 -0.10951938715E+04 -0.90444615119E+03  0.14251344660E+04  0.50400001928E-02 0.  1.
       -1    1    3    3    0  502 -0.11634341181E+03  0.10951938715E+04  0.12983164227E+04  0.17025307455E+04  0.50400001928E-02 0. -1.
</event>
<event>
 5   0  0.1318916E-07  0.3098344E+04  0.7818609E-02  0.8216192E-01
        2   -1    0    0  501    0  0.00000000000E+00  0.00000000000E+00  0.93679361415E+03  0.93679361416E+03  0.25500000920E-02 0. -1.
       -2   -1    0    0    0  501  0.00000000000E+00  0.00000000000E+00 -0.25618599808E+04  0.25618599808E+04  0.25500000920E-02 0.  1.
    10030    2    1    2    0    0  0.00000000000E+00  0.00000000000E+00 -0.16250663667E+04  0.34986535950E+04  0.30983441193E+04 0.  0.
        5    1    3    3  502    0 -0.36294540698E+03 -0.60601745053E+03 -0.23694085148E+04  0.24724694778E+04  0.46999998093E+01 0.  1.
       -5    1    3    3    0  502  0.36294540698E+03  0.60601745053E+03  0.74434214813E+03  0.10261841171E+04  0.46999998093E+01 0. -1.
</event>
<event>
 5   0  0.4517409E-08  0.3100779E+04  0.7818609E-02  0.8215524E-01
       -1   -1    0    0    0  501  0.00000000000E+00  0.00000000000E+00  0.15535296147E+04  0.15535296147E+04  0.50400001928E-02 0. -1.
        1   -1    0    0  501    0  0.00000000000E+00  0.00000000000E+00 -0.15472556393E+04  0.15472556393E+04  0.50400001928E-02 0.  1.
    10030    2    1    2    0    0  0.00000000000E+00  0.00000000000E+00  0.62739754011E+01  0.31007852540E+04  0.31007789068E+04 0.  0.
        2    1    3    3  502    0 -0.92024387988E+02  0.15433046050E+04 -0.11283680453E+03  0.15501579714E+04  0.25500000920E-02 0.  1.
       -2    1    3    3    0  502  0.92024387988E+02 -0.15433046050E+04  0.11911077993E+03  0.15506272827E+04  0.25500000920E-02 0. -1.
</event>
<event>
 5   0  0.1398931E-07  0.3100934E+04  0.7818609E-02  0.8215481E-01
       -2   -1    0    0    0  501  0.00000000000E+00  0.00000000000E+00  0.12760650434E+04  0.12760650434E+04  0.25500000920E-02 0. -1.
        2   -1    0    0  501    0  0.00000000000E+00  0.00000000000E+00 -0.18838762917E+04  0.18838762917E+04  0.25500000920E-02 0.  1.
    10030    2    1    2    0    0  0.00000000000E+00  0.00000000000E+00 -0.60781124828E+03  0.31599413352E+04  0.31009344927E+04 0.  0.
        3    1    3    3  502    0 -0.45292847426E+02 -0.10364441210E+04 -0.14780818095E+04  0.18058221684E+04  0.10100000352E+00 0.  1.
       -3    1    3    3    0  502  0.45292847426E+02  0.10364441210E+04  0.87027056125E+03  0.13541191668E+04  0.10100000352E+00 0. -1.
</event>
<event>
 5   0  0.4517409E-08  0.3100640E+04  0.7818609E-02  0.8215562E-01
       -1   -1    0    0    0  501  0.00000000000E+00  0.00000000000E+00  0.94676119866E+03  0.94676119867E+03  0.50400001928E-02 0. -1.
        1   -1    0    0  501    0  0.00000000000E+00  0.00000000000E+00 -0.25386467030E+04  0.25386467030E+04  0.50400001928E-02 0.  1.
    10030    2    1    2    0    0  0.00000000000E+00  0.00000000000E+00 -0.15918855043E+04  0.34854079016E+04  0.31006400601E+04 0.  0.
        2    1    3    3  502    0 -0.75244379807E+03  0.66246463643E+03  0.53337087786E+03  0.11355683851E+04  0.25500000920E-02 0. -1.
       -2    1    3    3    0  502  0.75244379807E+03 -0.66246463643E+03 -0.21252563822E+04  0.23498395166E+04  0.25500000920E-02 0.  1.
</event>
<event>
 5   0  0.4838602E-08  0.3099564E+04  0.7818609E-02  0.8215857E-01
        1   -1    0    0  501    0  0.00000000000E+00  0.00000000000E+00  0.18986037381E+04  0.18986037381E+04  0.50400001928E-02 0.  1.
       -1   -1    0    0    0  501  0.00000000000E+00  0.00000000000E+00 -0.12650480299E+04  0.12650480299E+04  0.50400001928E-02 0. -1.
    10030    2    1    2    0    0  0.00000000000E+00  0.00000000000E+00  0.63355570825E+03  0.31636517680E+04  0.30995644329E+04 0.  0.
        5    1    3    3  502    0  0.22319903032E+02  0.13835392800E+04 -0.39559545557E+03  0.14391653733E+04  0.46999998093E+01 0. -1.
       -5    1    3    3    0  502 -0.22319903032E+02 -0.13835392800E+04  0.10291511638E+04  0.17244863946E+04  0.46999998093E+01 0.  1.
</event>
<event>
 5   0  0.1377237E-07  0.3099549E+04  0.7818609E-02  0.8215862E-01
       -2   -1    0    0    0  501  0.00000000000E+00  0.00000000000E+00  0.12797480127E+04  0.12797480127E+04  0.25500000920E-02 0. -1.
        2   -1    0    0  501    0  0.00000000000E+00  0.00000000000E+00 -0.18767770302E+04  0.18767770302E+04  0.25500000920E-02 0.  1.
    10030    2    1    2    0    0  0.00000000000E+00  0.00000000000E+00 -0.59702901745E+03  0.31565250429E+04  0.30995494348E+04 0.  0.
        2    1    3    3  502    0  0.56504836066E+03  0.58353808137E+02  0.11699049192E+04  0.13005238701E+04  0.25500000920E-02 0. -1.
       -2    1    3    3    0  502 -0.56504836066E+03 -0.58353808137E+02 -0.17669339366E+04  0.18560011728E+04  0.25500000920E-02 0.  1.
</event>
<event>
 5   0  0.1329777E-07  0.3101161E+04  0.7818609E-02  0.8215419E-01
       -2   -1    0    0    0  501  0.00000000000E+00  0.00000000000E+00  0.11240290999E+04  0.11240290999E+04  0.25500000920E-02 0. -1.
        2   -1    0    0  501    0  0.00000000000E+00  0.00000000000E+00 -0.21390009274E+04  0.21390009274E+04  0.25500000920E-02 0.  1.
    10030    2    1    2    0    0  0.00000000000E+00  0.00000000000E+00 -0.10149718275E+04  0.32630300274E+04  0.31011606132E+04 0.  0.
        1    1    3    3  502    0  0.87636423155E+03  0.36390321359E+03  0.78284302824E+03  0.12301556902E+04  0.50400001928E-02 0. -1.
       -1    1    3    3    0  502 -0.87636423155E+03 -0.36390321359E+03 -0.17978148558E+04  0.20328743372E+04  0.50400001928E-02 0.  1.
</event>
<event>
 5   0  0.4450600E-08  0.3099272E+04  0.7818609E-02  0.8215938E-01
        1   -1    0    0  501    0  0.00000000000E+00  0.00000000000E+00  0.14002512543E+04  0.14002512543E+04  0.50400001928E-02 0. -1.
       -1   -1    0    0    0  501  0.00000000000E+00  0.00000000000E+00 -0.17149576145E+04  0.17149576145E+04  0.50400001928E-02 0.  1.
    10030    2    1    2    0    0  0.00000000000E+00  0.00000000000E+00 -0.31470636015E+03  0.31152088688E+04  0.30992718828E+04 0.  0.
        4    1    3    3  502    0  0.91011911693E+03  0.12091198495E+04  0.17765079948E+03  0.15237614764E+04  0.12699999809E+01 0.  1.
       -4    1    3    3    0  502 -0.91011911693E+03 -0.12091198495E+04 -0.49235715963E+03  0.15914473924E+04  0.12699999809E+01 0. -1.
</event>
<event>
 5   0  0.4436241E-08  0.3100484E+04  0.7818609E-02  0.8215605E-01
        1   -1    0    0  501    0  0.00000000000E+00  0.00000000000E+00  0.24843686926E+04  0.24843686926E+04  0.50400001928E-02 0. -1.
       -1   -1    0    0    0  501  0.00000000000E+00  0.00000000000E+00 -0.96734826666E+03  0.96734826667E+03  0.50400001928E-02 0.  1.
    10030    2    1    2    0    0  0.00000000000E+00  0.00000000000E+00  0.15170204259E+04  0.34517169592E+04  0.31004836710E+04 0.  0.
        3    1    3    3  502    0 -0.78762487793E+03  0.86210192377E+03 -0.37664424579E+03  0.12269611132E+04  0.10100000352E+00 0.  1.
       -3    1    3    3    0  502  0.78762487793E+03 -0.86210192377E+03  0.18936646717E+04  0.22247558460E+04  0.10100000352E+00 0. -1.
</event>
<event>
 5   0  0.1377237E-07  0.3088555E+04  0.7818609E-02  0.8218886E-01
        2   -1    0    0  501    0  0.00000000000E+00  0.00000000000E+00  0.21646254414E+04  0.21646254414E+04  0.25500000920E-02 0. -1.
       -2   -1    0    0    0  501  0.00000000000E+00  0.00000000000E+00 -0.11017116022E+04  0.11017116022E+04  0.25500000920E-02 0.  1.
    10030    2    1    2    0    0  0.00000000000E+00  0.00000000000E+00  0.10629138392E+04  0.32663370436E+04  0.30885549781E+04 0.  0.
        2    1    3    3  502    0  0.54127534031E+03  0.44307215142E+03 -0.92456419540E+03  0.11593579589E+04  0.25500000920E-02 0.  1.
       -2    1    3    3    0  502 -0.54127534031E+03 -0.44307215142E+03  0.19874780346E+04  0.21069790847E+04  0.25500000920E-02 0. -1.
</event>
<event>
 5   0  0.4470354E-08  0.3101755E+04  0.7818609E-02  0.8215256E-01
       -1   -1    0    0    0  501  0.00000000000E+00  0.00000000000E+00  0.10562733032E+04  0.10562733032E+04  0.50400001928E-02 0. -1.
        1   -1    0    0  501    0  0.00000000000E+00  0.00000000000E+00 -0.22770818722E+04  0.22770818722E+04  0.50400001928E-02 0.  1.
    10030    2    1    2    0    0  0.00000000000E+00  0.00000000000E+00 -0.12208085690E+04  0.33333551753E+04  0.31017548521E+04 0.  0.
        1    1    3    3  502    0  0.11689175224E+04  0.98771043114E+03 -0.88074398540E+03  0.17656868459E+04  0.50400001928E-02 0.  1.
       -1    1    3    3    0  502 -0.11689175224E+04 -0.98771043114E+03 -0.34006458360E+03  0.15676683294E+04  0.50400001928E-02 0. -1.
</event>
<event>
 5   0  0.4470354E-08  0.3100258E+04  0.7818609E-02  0.8215667E-01
       -1   -1    0    0    0  501  0.00000000000E+00  0.00000000000E+00  0.10532857481E+04  0.10532857481E+04  0.50400001928E-02 0.  1.
        1   -1    0    0  501    0  0.00000000000E+00  0.00000000000E+00 -0.22813369706E+04  0.22813369706E+04  0.50400001928E-02 0. -1.
    10030    2    1    2    0    0  0.00000000000E+00  0.00000000000E+00 -0.12280512225E+04  0.33346227186E+04  0.31002578716E+04 0.  0.
        1    1    3    3  502    0 -0.42509751230E+03  0.14565161922E+04 -0.95543589298E+03  0.17930435183E+04  0.50400001928E-02 0. -1.
       -1    1    3    3    0  502  0.42509751230E+03 -0.14565161922E+04 -0.27261532950E+03  0.15415792003E+04  0.50400001928E-02 0.  1.
</event>
<event>
 5   0  0.4517409E-08  0.3107269E+04  0.7818609E-02  0.8213746E-01
        1   -1    0    0  501    0  0.00000000000E+00  0.00000000000E+00  0.13531214490E+04  0.13531214490E+04  0.50400001928E-02 0. -1.
       -1   -1    0    0    0  501  0.00000000000E+00  0.00000000000E+00 -0.17838612527E+04  0.17838612527E+04  0.50400001928E-02 0.  1.
    10030    2    1    2    0    0  0.00000000000E+00  0.00000000000E+00 -0.43073980377E+03  0.31369827017E+04  0.31072694914E+04 0.  0.
        2    1    3    3  502    0  0.83221625614E+03 -0.53457016692E+03 -0.14249217208E+04  0.17345751845E+04  0.25500000920E-02 0.  1.
       -2    1    3    3    0  502 -0.83221625614E+03  0.53457016692E+03  0.99418191698E+03  0.14024075172E+04  0.25500000920E-02 0. -1.
</event>
<event>
 5   0  0.1325713E-07  0.3100430E+04  0.7818609E-02  0.8215620E-01
        2   -1    0    0  501    0  0.00000000000E+00  0.00000000000E+00  0.15662539189E+04  0.15662539189E+04  0.25500000920E-02 0. -1.
       -2   -1    0    0    0  501  0.00000000000E+00  0.00000000000E+00 -0.15343408141E+04  0.15343408141E+04  0.25500000920E-02 0.  1.
    10030    2    1    2    0    0  0.00000000000E+00  0.00000000000E+00  0.31913104816E+02  0.31005947330E+04  0.31004304947E+04 0.  0.
        4    1    3    3  502    0 -0.10519744530E+04  0.99465272657E+03 -0.53831228965E+03  0.15445925127E+04  0.12699999809E+01 0.  1.
       -4    1    3    3    0  502  0.10519744530E+04 -0.99465272657E+03  0.57022539447E+03  0.15560022203E+04  0.12699999809E+01 0. -1.
</event>
<event>
 5   0  0.4517409E-08  0.3099730E+04  0.7818609E-02  0.8215812E-01
       -1   -1    0    0    0  501  0.00000000000E+00  0.00000000000E+00  0.14031473420E+04  0.14031473420E+04  0.50400001928E-02 0. -1.
        1   -1    0    0  501    0  0.00000000000E+00  0.00000000000E+00 -0.17119238588E+04  0.17119238588E+04  0.50400001928E-02 0.  1.
    10030    2    1    2    0    0  0.00000000000E+00  0.00000000000E+00 -0.30877651679E+03  0.31150712009E+04  0.30997299317E+04 0.  0.
        2    1    3    3  502    0  0.30209412054E+03 -0.12968798770E+03  0.13677040003E+04  0.14066606074E+04  0.25500000920E-02 0. -1.
       -2    1    3    3    0  502 -0.30209412054E+03  0.12968798770E+03 -0.16764805171E+04  0.17084105935E+04  0.25500000920E-02 0.  1.
</event>
<event>
 5   0  0.1325713E-07  0.3093269E+04  0.7818609E-02  0.8217588E-01
       -2   -1    0    0    0  501  0.00000000000E+00  0.00000000000E+00  0.11125126013E+04  0.11125126013E+04  0.25500000920E-02 0.  1.
        2   -1    0    0  501    0  0.00000000000E+00  0.00000000000E+00 -0.21501579689E+04  0.21501579689E+04  0.25500000920E-02 0. -1.
    10030    2    1    2    0    0  0.00000000000E+00  0.00000000000E+00 -0.10376453677E+04  0.32626705702E+04  0.30932687146E+04 0.  0.
        4    1    3    3  502    0  0.18232278486E+03 -0.88196118087E+03  0.80740668442E+03  0.12095471423E+04  0.12699999809E+01 0.  1.
       -4    1    3    3    0  502 -0.18232278486E+03  0.88196118087E+03 -0.18450520521E+04  0.20531234279E+04  0.12699999809E+01 0. -1.
</event>
<event>
 5   0  0.1329777E-07  0.3100925E+04  0.7818609E-02  0.8215484E-01
       -2   -1    0    0    0  501  0.00000000000E+00  0.00000000000E+00  0.13089080656E+04  0.13089080656E+04  0.25500000920E-02 0. -1.
        2   -1    0    0  501    0  0.00000000000E+00  0.00000000000E+00 -0.18365950782E+04  0.18365950782E+04  0.25500000920E-02 0.  1.
    10030    2    1    2    0    0  0.00000000000E+00  0.00000000000E+00 -0.52768701263E+03  0.31455031438E+04  0.31009250950E+04 0.  0.
        1    1    3    3  502    0  0.10610697292E+04 -0.92281198884E+03  0.39860145154E+03  0.14616203522E+04  0.50400001928E-02 0. -1.
       -1    1    3    3    0  502 -0.10610697292E+04  0.92281198884E+03 -0.92628846418E+03  0.16838827916E+04  0.50400001928E-02 0.  1.
</event>
<event>
 5   0  0.4517409E-08  0.3100311E+04  0.7818609E-02  0.8215653E-01
       -1   -1    0    0    0  501  0.00000000000E+00  0.00000000000E+00  0.12209918542E+04  0.12209918542E+04  0.50400001928E-02 0. -1.
        1   -1    0    0  501    0  0.00000000000E+00  0.00000000000E+00 -0.19680574692E+04  0.19680574692E+04  0.50400001928E-02 0.  1.
    10030    2    1    2    0    0  0.00000000000E+00  0.00000000000E+00 -0.74706561500E+03  0.31890493233E+04  0.31003110414E+04 0.  0.
        2    1    3    3  502    0 -0.13203649825E+04  0.45724927300E+03 -0.10639687562E+04  0.17562659533E+04  0.25500000920E-02 0.  1.
       -2    1    3    3    0  502  0.13203649825E+04 -0.45724927300E+03  0.31690314116E+03  0.14327833700E+04  0.25500000920E-02 0. -1.
</event>
<event>
 5   0  0.1398931E-07  0.3100850E+04  0.7818609E-02  0.8215505E-01
       -2   -1    0    0    0  501  0.00000000000E+00  0.00000000000E+00  0.88606808300E+03  0.88606808301E+03  0.25500000920E-02 0. -1.
        2   -1    0    0  501    0  0.00000000000E+00  0.00000000000E+00 -0.27129045358E+04  0.27129045358E+04  0.25500000920E-02 0.  1.
    10030    2    1    2    0    0  0.00000000000E+00  0.00000000000E+00 -0.18268364528E+04  0.35989726188E+04  0.31008502843E+04 0.  0.
        3    1    3    3  502    0  0.88764106638E+03 -0.75869217898E+03 -0.20972133541E+04  0.24003800424E+04  0.10100000352E+00 0.  1.
       -3    1    3    3    0  502 -0.88764106638E+03  0.75869217898E+03  0.27037690133E+03  0.11985925764E+04  0.10100000352E+00 0. -1.
</event>
<event>
 5   0  0.1325713E-07  0.3080798E+04  0.7818609E-02  0.8221027E-01
        2   -1    0    0  501    0  0.00000000000E+00  0.00000000000E+00  0.79871275199E+03  0.79871275200E+03  0.25500000920E-02 0.  1.
       -2   -1    0    0    0  501  0.00000000000E+00  0.00000000000E+00 -0.29708174780E+04  0.29708174780E+04  0.25500000920E-02 0. -1.
    10030    2    1    2    0    0  0.00000000000E+00  0.00000000000E+00 -0.21721047260E+04  0.37695302300E+04  0.30807984702E+04 0.  0.
        4    1    3    3  502    0  0.32295427876E+03  0.86580842632E+03 -0.25940101143E+04  0.27536909382E+04  0.12699999809E+01 0. -1.
       -4    1    3    3    0  502 -0.32295427876E+03 -0.86580842632E+03  0.42190538825E+03  0.10158392918E+04  0.12699999809E+01 0.  1.
</event>
<event>
 5   0  0.4436241E-08  0.3100318E+04  0.7818609E-02  0.8215651E-01
       -1   -1    0    0    0  501  0.00000000000E+00  0.00000000000E+00  0.10611421966E+04  0.10611421966E+04  0.50400001928E-02 0. -1.
        1   -1    0    0  501    0  0.00000000000E+00  0.00000000000E+00 -0.22645348917E+04  0.22645348917E+04  0.50400001928E-02 0.  1.
    10030    2    1    2    0    0  0.00000000000E+00  0.00000000000E+00 -0.12033926951E+04  0.33256770884E+04  0.31003183897E+04 0.  0.
        3    1    3    3  502    0 -0.10864541155E+04  0.11045569048E+04 -0.65602375965E+03  0.16824968601E+04  0.10100000352E+00 0.  1.
       -3    1    3    3    0  502  0.10864541155E+04 -0.11045569048E+04 -0.54736893544E+03  0.16431802283E+04  0.10100000352E+00 0. -1.
</event>
<event>
 5   0  0.4517409E-08  0.3097660E+04  0.7818609E-02  0.8216380E-01
       -1   -1    0    0    0  501  0.00000000000E+00  0.00000000000E+00  0.11698752288E+04  0.11698752288E+04  0.50400001928E-02 0.  1.
        1   -1    0    0  501    0  0.00000000000E+00  0.00000000000E+00 -0.20505387092E+04  0.20505387092E+04  0.50400001928E-02 0. -1.
    10030    2    1    2    0    0  0.00000000000E+00  0.00000000000E+00 -0.88066348040E+03  0.32204139381E+04  0.30976600470E+04 0.  0.
        2    1    3    3  502    0  0.60923783218E+03 -0.29054233196E+03  0.10089293208E+04  0.12138879509E+04  0.25500000920E-02 0.  1.
       -2    1    3    3    0  502 -0.60923783218E+03  0.29054233196E+03 -0.18895928012E+04  0.20065259872E+04  0.25500000920E-02 0. -1.
</event>
<event>
 5   0  0.4838602E-08  0.3096734E+04  0.7818609E-02  0.8216635E-01
        1   -1    0    0  501    0  0.00000000000E+00  0.00000000000E+00  0.16693054022E+04  0.16693054022E+04  0.50400001928E-02 0. -1.
       -1   -1    0    0    0  501  0.00000000000E+00  0.00000000000E+00 -0.14361906628E+04  0.14361906628E+04  0.50400001928E-02 0.  1.
    10030    2    1    2    0    0  0.00000000000E+00  0.00000000000E+00  0.23311473937E+03  0.31054960650E+04  0.30967343005E+04 0.  0.
        5    1    3    3  502    0  0.15378201600E+04  0.15394047147E+03  0.22322200770E+02  0.15456742490E+04  0.46999998093E+01 0. -1.
       -5    1    3    3    0  502 -0.15378201600E+04 -0.15394047147E+03  0.21079253860E+03  0.15598218160E+04  0.46999998093E+01 0.  1.
</event>
<event>
 5   0  0.1325713E-07  0.3099974E+04  0.7818609E-02  0.8215745E-01
       -2   -1    0    0    0  501  0.00000000000E+00  0.00000000000E+00  0.92535400242E+03  0.92535400242E+03  0.25500000920E-02 0.  1.
        2   -1    0    0  501    0  0.00000000000E+00  0.00000000000E+00 -0.25962594007E+04  0.25962594007E+04  0.25500000920E-02 0. -1.
    10030    2    1    2    0    0  0.00000000000E+00  0.00000000000E+00 -0.16709053983E+04  0.35216134031E+04  0.30999735662E+04 0.  0.
        4    1    3    3  502    0  0.69533993455E+03  0.62735136317E+03 -0.22385059139E+04  0.24265155464E+04  0.12699999809E+01 0. -1.
       -4    1    3    3    0  502 -0.69533993455E+03 -0.62735136317E+03  0.56760051566E+03  0.10950978567E+04  0.12699999809E+01 0.  1.
</event>
<event>
 5   0  0.4470354E-08  0.3083007E+04  0.7818609E-02  0.8220417E-01
       -1   -1    0    0    0  501  0.00000000000E+00  0.00000000000E+00  0.12117135882E+04  0.12117135882E+04  0.50400001928E-02 0. -1.
        1   -1    0    0  501    0  0.00000000000E+00  0.00000000000E+00 -0.19610520267E+04  0.19610520267E+04  0.50400001928E-02 0.  1.
    10030    2    1    2    0    0  0.00000000000E+00  0.00000000000E+00 -0.74933843851E+03  0.31727656150E+04  0.30830072254E+04 0.  0.
        1    1    3    3  502    0 -0.90596240682E+03 -0.35908991954E+03 -0.16038121005E+04  0.18766797027E+04  0.50400001928E-02 0.  1.
       -1    1    3    3    0  502  0.90596240682E+03  0.35908991954E+03  0.85447366197E+03  0.12960859122E+04  0.50400001928E-02 0. -1.
</event>
<event>
 5   0  0.4838602E-08  0.3101288E+04  0.7818609E-02  0.8215385E-01
       -1   -1    0    0    0  501  0.00000000000E+00  0.00000000000E+00  0.16424388519E+04  0.16424388519E+04  0.50400001928E-02 0.  1.
        1   -1    0    0  501    0  0.00000000000E+00  0.00000000000E+00 -0.14639793033E+04  0.14639793033E+04  0.50400001928E-02 0. -1.
    10030    2    1    2    0    0  0.00000000000E+00  0.00000000000E+00  0.17845954854E+03  0.31064181552E+04  0.31012877881E+04 0.  0.
        5    1    3    3  502    0  0.79688650591E+03  0.14281254363E+03  0.14139344437E+04  0.16293115807E+04  0.46999998093E+01 0.  1.
       -5    1    3    3    0  502 -0.79688650591E+03 -0.14281254363E+03 -0.12354748952E+04  0.14771065745E+04  0.46999998093E+01 0. -1.
</event>
<event>
 5   0  0.4470354E-08  0.3099275E+04  0.7818609E-02  0.8215937E-01
       -1   -1    0    0    0  501  0.00000000000E+00  0.00000000000E+00  0.13246043706E+04  0.13246043706E+04  0.50400001928E-02 0.  1.
        1   -1    0    0  501    0  0.00000000000E+00  0.00000000000E+00 -0.18129014230E+04  0.18129014230E+04  0.50400001928E-02 0. -1.
    10030    2    1    2    0    0  0.00000000000E+00  0.00000000000E+00 -0.48829705248E+03  0.31375057936E+04  0.30992754949E+04 0.  0.
        1    1    3    3  502    0 -0.63710010268E+03  0.44744793791E+03 -0.16005534443E+04  0.17798532316E+04  0.50400001928E-02 0. -1.
       -1    1    3    3    0  502  0.63710010268E+03 -0.44744793791E+03  0.11122563918E+04  0.13576525620E+04  0.50400001928E-02 0.  1.
</event>
<event>
 5   0  0.4517409E-08  0.3099678E+04  0.7818609E-02  0.8215826E-01
       -1   -1    0    0    0  501  0.00000000000E+00  0.00000000000E+00  0.11807974755E+04  0.11807974755E+04  0.50400001928E-02 0.  1.
        1   -1    0    0  501    0  0.00000000000E+00  0.00000000000E+00 -0.20342197636E+04  0.20342197636E+04  0.50400001928E-02 0. -1.
    10030    2    1    2    0    0  0.00000000000E+00  0.00000000000E+00 -0.85342228812E+03  0.32150172392E+04  0.30996784101E+04 0.  0.
        2    1    3    3  502    0  0.50898067574E+03  0.10173897303E+04  0.66500262852E+03  0.13177145698E+04  0.25500000920E-02 0.  1.
       -2    1    3    3    0  502 -0.50898067574E+03 -0.10173897303E+04 -0.15184249166E+04  0.18973026693E+04  0.25500000920E-02 0. -1.
</event>
<event>
 5   0  0.1318916E-07  0.3100924E+04  0.7818609E-02  0.8215485E-01
        2   -1    0    0  501    0  0.00000000000E+00  0.00000000000E+00  0.17125385821E+04  0.17125385821E+04  0.25500000920E-02 0. -1.
       -2   -1    0    0    0  501  0.00000000000E+00  0.00000000000E+00 -0.14037240879E+04  0.14037240879E+04  0.25500000920E-02 0.  1.
    10030    2    1    2    0    0  0.00000000000E+00  0.00000000000E+00  0.30881449424E+03  0.31162626700E+04  0.31009235135E+04 0.  0.
        5    1    3    3  502    0 -0.11498192949E+04 -0.57634707513E+03  0.10245130120E+04  0.16443568237E+04  0.46999998093E+01 0. -1.
       -5    1    3    3    0  502  0.11498192949E+04  0.57634707513E+03 -0.71569851776E+03  0.14719058463E+04  0.46999998093E+01 0.  1.
</event>
<event>
 5   0  0.1325713E-07  0.3100146E+04  0.7818609E-02  0.8215698E-01
        2   -1    0    0  501    0  0.00000000000E+00  0.00000000000E+00  0.19953327283E+04  0.19953327283E+04  0.25500000920E-02 0. -1.
       -2   -1    0    0    0  501  0.00000000000E+00  0.00000000000E+00 -0.12041733160E+04  0.12041733160E+04  0.25500000920E-02 0.  1.
    10030    2    1    2    0    0  0.00000000000E+00  0.00000000000E+00  0.79115941230E+03  0.31995060443E+04  0.31001460791E+04 0.  0.
        4    1    3    3  502    0  0.18798981124E+03  0.12479618868E+03  0.19782918857E+04  0.19911189457E+04  0.12699999809E+01 0. -1.
       -4    1    3    3    0  502 -0.18798981124E+03 -0.12479618868E+03 -0.11871324734E+04  0.12083870986E+04  0.12699999809E+01 0.  1.
</event>
<event>
 5   0  0.4436241E-08  0.3085750E+04  0.7818609E-02  0.8219660E-01
        1   -1    0    0  501    0  0.00000000000E+00  0.00000000000E+00  0.21428173388E+04  0.21428173388E+04  0.50400001928E-02 0.  1.
       -1   -1    0    0    0  501  0.00000000000E+00  0.00000000000E+00 -0.11109034971E+04  0.11109034971E+04  0.50400001928E-02 0. -1.
    10030    2    1    2    0    0  0.00000000000E+00  0.00000000000E+00  0.10319138417E+04  0.32537208359E+04  0.30857500063E+04 0.  0.
        3    1    3    3  502    0 -0.93061066794E+03 -0.79991218858E+03 -0.47013233553E+03  0.13141233381E+04  0.10100000352E+00 0. -1.
       -3    1    3    3    0  502  0.93061066794E+03  0.79991218858E+03  0.15020461772E+04  0.19395974978E+04  0.10100000352E+00 0.  1.
</event>
<event>
 5   0  0.4517409E-08  0.3100072E+04  0.7818609E-02  0.8215718E-01
        1   -1    0    0  501    0  0.00000000000E+00  0.00000000000E+00  0.12162110074E+04  0.12162110074E+04  0.50400001928E-02 0.  1.
       -1   -1    0    0    0  501  0.00000000000E+00  0.00000000000E+00 -0.19754894462E+04  0.19754894462E+04  0.50400001928E-02 0. -1.
    10030    2    1    2    0    0  0.00000000000E+00  0.00000000000E+00 -0.75927843876E+03  0.31917004536E+04  0.31000722634E+04 0.  0.
        2    1    3    3  502    0  0.78465124224E+03 -0.24805284611E+03 -0.17320098674E+04  0.19175677217E+04  0.25500000920E-02 0. -1.
       -2    1    3    3    0  502 -0.78465124224E+03  0.24805284611E+03  0.97273142862E+03  0.12741327320E+04  0.25500000920E-02 0.  1.
</event>
<event>
 5   0  0.1325713E-07  0.3096301E+04  0.7818609E-02  0.8216754E-01
        2   -1    0    0  501    0  0.00000000000E+00  0.00000000000E+00  0.29711652272E+04  0.29711652272E+04  0.25500000920E-02 0.  1.
       -2   -1    0    0    0  501  0.00000000000E+00  0.00000000000E+00 -0.80667690894E+03  0.80667690894E+03  0.25500000920E-02 0. -1.
    10030    2    1    2    0    0  0.00000000000E+00  0.00000000000E+00  0.21644883182E+04  0.37778421361E+04  0.30963012653E+04 0.  0.
        4    1    3    3  502    0 -0.72551208971E+03 -0.13025963247E+04  0.57381526306E+03  0.15976202761E+04  0.12699999809E+01 0.  1.
       -4    1    3    3    0  502  0.72551208971E+03  0.13025963247E+04  0.15906730552E+04  0.21802218600E+04  0.12699999809E+01 0. -1.
</event>
<event>
 5   0  0.4470354E-08  0.3101101E+04  0.7818609E-02  0.8215436E-01
        1   -1    0    0  501    0  0.00000000000E+00  0.00000000000E+00  0.22277697863E+04  0.22277697863E+04  0.50400001928E-02 0. -1.
       -1   -1    0    0    0  501  0.00000000000E+00  0.00000000000E+00 -0.10791989078E+04  0.10791989078E+04  0.50400001928E-02 0.  1.
    10030    2    1    2    0    0  0.00000000000E+00  0.00000000000E+00  0.11485708784E+04  0.33069686941E+04  0.31011009144E+04 0.  0.
        1    1    3    3  502    0 -0.85116314315E+03 -0.62754536484E+02  0.19547458866E+04  0.21329435786E+04  0.50400001928E-02 0. -1.
       -1    1    3    3    0  502  0.85116314315E+03  0.62754536484E+02 -0.80617500818E+03  0.11740251156E+04  0.50400001928E-02 0.  1.
</event>
<event>
 5   0  0.1329777E-07  0.3097504E+04  0.7818609E-02  0.8216423E-01
       -2   -1    0    0    0  501  0.00000000000E+00  0.00000000000E+00  0.13289280439E+04  0.13289280439E+04  0.25500000920E-02 0. -1.
        2   -1    0    0  501    0  0.00000000000E+00  0.00000000000E+00 -0.18049378992E+04  0.18049378992E+04  0.25500000920E-02 0.  1.
    10030    2    1    2    0    0  0.00000000000E+00  0.00000000000E+00 -0.47600985531E+03  0.31338659431E+04  0.30975038929E+04 0.  0.
        1    1    3    3  502    0  0.12904963552E+03 -0.14933758766E+04  0.15619346167E+03  0.15070573030E+04  0.50400001928E-02 0. -1.
       -1    1    3    3    0  502 -0.12904963552E+03  0.14933758766E+04 -0.63220331698E+03  0.16268086400E+04  0.50400001928E-02 0.  1.
</event>
<event>
 5   0  0.4470354E-08  0.3099479E+04  0.7818609E-02  0.8215881E-01
        1   -1    0    0  501    0  0.00000000000E+00  0.00000000000E+00  0.14758109101E+04  0.14758109101E+04  0.50400001928E-02 0. -1.
       -1   -1    0    0    0  501  0.00000000000E+00  0.00000000000E+00 -0.16273712514E+04  0.16273712514E+04  0.50400001928E-02 0.  1.
    10030    2    1    2    0    0  0.00000000000E+00  0.00000000000E+00 -0.15156034130E+03  0.31031821615E+04  0.30994788256E+04 0.  0.
        1    1    3    3  502    0 -0.97447950160E+02  0.17849677822E+02  0.14726373118E+04  0.14759659096E+04  0.50400001928E-02 0. -1.
       -1    1    3    3    0  502  0.97447950160E+02 -0.17849677822E+02 -0.16241976532E+04  0.16272162519E+04  0.50400001928E-02 0.  1.
</event>
<event>
 5   0  0.4470354E-08  0.3100949E+04  0.7818609E-02  0.8215477E-01
        1   -1    0    0  501    0  0.00000000000E+00  0.00000000000E+00  0.13037507658E+04  0.13037507658E+04  0.50400001928E-02 0. -1.
       -1   -1    0    0    0  501  0.00000000000E+00  0.00000000000E+00 -0.18438891022E+04  0.18438891022E+04  0.50400001928E-02 0.  1.
    10030    2    1    2    0    0  0.00000000000E+00  0.00000000000E+00 -0.54013833639E+03  0.31476398681E+04  0.31009494218E+04 0.  0.
        1    1    3    3  502    0 -0.31854933668E+03  0.28151745317E+03  0.12434367436E+04  0.13141007160E+04  0.50400001928E-02 0. -1.
       -1    1    3    3    0  502  0.31854933668E+03 -0.28151745317E+03 -0.17835750800E+04  0.18335391521E+04  0.50400001928E-02 0.  1.
</event>
<event>
 5   0  0.1318916E-07  0.3099954E+04  0.7818609E-02  0.8215751E-01
       -2   -1    0    0    0  501  0.00000000000E+00  0.00000000000E+00  0.13375822689E+04  0.13375822689E+04  0.25500000920E-02 0.  1.
        2   -1    0    0  501    0  0.00000000000E+00  0.00000000000E+00 -0.17960977096E+04  0.17960977096E+04  0.25500000920E-02 0. -1.
    10030    2    1    2    0    0  0.00000000000E+00  0.00000000000E+00 -0.45851544072E+03  0.31336799785E+04  0.30999538381E+04 0.  0.
        5    1    3    3  502    0  0.10728026336E+04 -0.54730724886E+03 -0.12155548579E+04  0.17111535343E+04  0.46999998093E+01 0. -1.
       -5    1    3    3    0  502 -0.10728026336E+04  0.54730724886E+03  0.75703941717E+03  0.14225264442E+04  0.46999998093E+01 0.  1.
</event>
<event>
 5   0  0.4838602E-08  0.3100240E+04  0.7818609E-02  0.8215672E-01
       -1   -1    0    0    0  501  0.00000000000E+00  0.00000000000E+00  0.16235603078E+04  0.16235603078E+04  0.50400001928E-02 0.  1.
        1   -1    0    0  501    0  0.00000000000E+00  0.00000000000E+00 -0.14800016210E+04  0.14800016210E+04  0.50400001928E-02 0. -1.
    10030    2    1    2    0    0  0.00000000000E+00  0.00000000000E+00  0.14355868679E+03  0.31035619287E+04  0.31002399180E+04 0.  0.
        5    1    3    3  502    0  0.96286243516E+03 -0.55693842082E+02  0.12866050879E+04  0.16079740717E+04  0.46999998093E+01 0.  1.
       -5    1    3    3    0  502 -0.96286243516E+03  0.55693842082E+02 -0.11430464011E+04  0.14955878570E+04  0.46999998093E+01 0. -1.
</event>
<event>
 5   0  0.1398931E-07  0.3099017E+04  0.7818609E-02  0.8216008E-01
       -2   -1    0    0    0  501  0.00000000000E+00  0.00000000000E+00  0.16608944393E+04  0.16608944393E+04  0.25500000920E-02 0. -1.
        2   -1    0    0  501    0  0.00000000000E+00  0.00000000000E+00 -0.14455929227E+04  0.14455929227E+04  0.25500000920E-02 0.  1.
    10030    2    1    2    0    0  0.00000000000E+00  0.00000000000E+00  0.21530151660E+03  0.31064873619E+04  0.30990174228E+04 0.  0.
        3    1    3    3  502    0  0.12814708864E+04 -0.13148656888E+03  0.97084248128E+03  0.16130689645E+04  0.10100000352E+00 0. -1.
       -3    1    3    3    0  502 -0.12814708864E+04  0.13148656888E+03 -0.75554096467E+03  0.14934183975E+04  0.10100000352E+00 0.  1.
</event>
<event>
 5   0  0.1325713E-07  0.3103594E+04  0.7818609E-02  0.8214752E-01
       -2   -1    0    0    0  501  0.00000000000E+00  0.00000000000E+00  0.91999672166E+03  0.91999672166E+03  0.25500000920E-02 0.  1.
        2   -1    0    0  501    0  0.00000000000E+00  0.00000000000E+00 -0.26174803464E+04  0.26174803464E+04  0.25500000920E-02 0. -1.
    10030    2    1    2    0    0  0.00000000000E+00  0.00000000000E+00 -0.16974836247E+04  0.35374770680E+04  0.31035936188E+04 0.  0.
        4    1    3    3  502    0  0.79561839254E+03  0.87509939942E+03 -0.19938096174E+04  0.23182074948E+04  0.12699999809E+01 0. -1.
       -4    1    3    3    0  502 -0.79561839254E+03 -0.87509939942E+03  0.29632599270E+03  0.12192695733E+04  0.12699999809E+01 0.  1.
</event>
<event>
 5   0  0.1398931E-07  0.3097977E+04  0.7818609E-02  0.8216293E-01
       -2   -1    0    0    0  501  0.00000000000E+00  0.00000000000E+00  0.17139038774E+04  0.17139038774E+04  0.25500000920E-02 0. -1.
        2   -1    0    0  501    0  0.00000000000E+00  0.00000000000E+00 -0.13999414302E+04  0.13999414302E+04  0.25500000920E-02 0.  1.
    10030    2    1    2    0    0  0.00000000000E+00  0.00000000000E+00  0.31396244728E+03  0.31138453076E+04  0.30979767884E+04 0.  0.
        3    1    3    3  502    0  0.29627304073E+03 -0.10977294700E+04  0.12143092854E+04  0.16635308096E+04  0.10100000352E+00 0. -1.
       -3    1    3    3    0  502 -0.29627304073E+03  0.10977294700E+04 -0.90034683808E+03  0.14503144979E+04  0.10100000352E+00 0.  1.
</event>
<event>
 5   0  0.1329777E-07  0.3099173E+04  0.7818609E-02  0.8215965E-01
        2   -1    0    0  501    0  0.00000000000E+00  0.00000000000E+00  0.20742522046E+04  0.20742522046E+04  0.25500000920E-02 0.  1.
       -2   -1    0    0    0  501  0.00000000000E+00  0.00000000000E+00 -0.11576307626E+04  0.11576307626E+04  0.25500000920E-02 0. -1.
    10030    2    1    2    0    0  0.00000000000E+00  0.00000000000E+00  0.91662144200E+03  0.32318829671E+04  0.30991728970E+04 0.  0.
        1    1    3    3  502    0 -0.42737755393E+03  0.92558242506E+03 -0.75865025570E+03  0.12707889713E+04  0.50400001928E-02 0. -1.
       -1    1    3    3    0  502  0.42737755393E+03 -0.92558242506E+03  0.16752716977E+04  0.19610939958E+04  0.50400001928E-02 0.  1.
</event>
<event>
 5   0  0.4517409E-08  0.3100286E+04  0.7818609E-02  0.8215659E-01
        1   -1    0    0  501    0  0.00000000000E+00  0.00000000000E+00  0.15844902741E+04  0.15844902741E+04  0.50400001928E-02 0. -1.
       -1   -1    0    0    0  501  0.00000000000E+00  0.00000000000E+00 -0.15165404498E+04  0.15165404498E+04  0.50400001928E-02 0.  1.
    10030    2    1    2    0    0  0.00000000000E+00  0.00000000000E+00  0.67949824278E+02  0.31010307239E+04  0.31002861758E+04 0.  0.
        2    1    3    3  502    0 -0.68262096111E+03  0.68960412056E+03  0.12431566149E+04  0.15770109666E+04  0.25500000920E-02 0. -1.
       -2    1    3    3    0  502  0.68262096111E+03 -0.68960412056E+03 -0.11752067906E+04  0.15240197572E+04  0.25500000920E-02 0.  1.
</event>
<event>
 5   0  0.4450600E-08  0.3100507E+04  0.7818609E-02  0.8215599E-01
       -1   -1    0    0    0  501  0.00000000000E+00  0.00000000000E+00  0.14313634040E+04  0.14313634040E+04  0.50400001928E-02 0. -1.
        1   -1    0    0  501    0  0.00000000000E+00  0.00000000000E+00 -0.16790190598E+04  0.16790190598E+04  0.50400001928E-02 0.  1.
    10030    2    1    2    0    0  0.00000000000E+00  0.00000000000E+00 -0.24765565583E+03  0.31103824638E+04  0.31005073370E+04 0.  0.
        4    1    3    3  502    0  0.48695967182E+03  0.14717527778E+04 -0.11385318259E+03  0.15543970282E+04  0.12699999809E+01 0.  1.
       -4    1    3    3    0  502 -0.48695967182E+03 -0.14717527778E+04 -0.13380247324E+03  0.15559854356E+04  0.12699999809E+01 0. -1.
</event>
<event>
 5   0  0.1318916E-07  0.3101492E+04  0.7818609E-02  0.8215329E-01
       -2   -1    0    0    0  501  0.00000000000E+00  0.00000000000E+00  0.92547326974E+03  0.92547326974E+03  0.25500000920E-02 0. -1.
        2   -1    0    0  501    0  0.00000000000E+00  0.00000000000E+00 -0.25984685816E+04  0.25984685816E+04  0.25500000920E-02 0.  1.
    10030    2    1    2    0    0  0.00000000000E+00  0.00000000000E+00 -0.16729953119E+04  0.35239418514E+04  0.31014920374E+04 0.  0.
        5    1    3    3  502    0 -0.30049012231E+03  0.36501435076E+03  0.84157945452E+03  0.96530195179E+03  0.46999998093E+01 0. -1.
       -5    1    3    3    0  502  0.30049012231E+03 -0.36501435076E+03 -0.25145747664E+04  0.25586398996E+04  0.46999998093E+01 0.  1.
</event>
<event>
 5   0  0.4470354E-08  0.3100789E+04  0.7818609E-02  0.8215521E-01
       -1   -1    0    0    0  501  0.00000000000E+00  0.00000000000E+00  0.94895095255E+03  0.94895095256E+03  0.50400001928E-02 0. -1.
        1   -1    0    0  501    0  0.00000000000E+00  0.00000000000E+00 -0.25330315351E+04  0.25330315351E+04  0.50400001928E-02 0.  1.
    10030    2    1    2    0    0  0.00000000000E+00  0.00000000000E+00 -0.15840805826E+04  0.34819824877E+04  0.31007887307E+04 0.  0.
        1    1    3    3  502    0  0.17390477984E+03 -0.70431846854E+02  0.93615515975E+03  0.95477222449E+03  0.50400001928E-02 0. -1.
       -1    1    3    3    0  502 -0.17390477984E+03  0.70431846854E+02 -0.25202357423E+04  0.25272102632E+04  0.50400001928E-02 0.  1.
</event>
<event>
 5   0  0.4450600E-08  0.3100204E+04  0.7818609E-02  0.8215682E-01
        1   -1    0    0  501    0  0.00000000000E+00  0.00000000000E+00  0.20057184171E+04  0.20057184171E+04  0.50400001928E-02 0.  1.
       -1   -1    0    0    0  501  0.00000000000E+00  0.00000000000E+00 -0.11979824773E+04  0.11979824773E+04  0.50400001928E-02 0. -1.
    10030    2    1    2    0    0  0.00000000000E+00  0.00000000000E+00  0.80773593976E+03  0.32037008944E+04  0.31002035534E+04 0.  0.
        4    1    3    3  502    0  0.10589503638E+04 -0.58288366605E+03  0.14066683771E+04  0.18546823925E+04  0.12699999809E+01 0.  1.
       -4    1    3    3    0  502 -0.10589503638E+04  0.58288366605E+03 -0.59893243732E+03  0.13490185019E+04  0.12699999809E+01 0. -1.
</event>
<event>
 5   0  0.4838602E-08  0.3099051E+04  0.7818609E-02  0.8215998E-01
       -1   -1    0    0    0  501  0.00000000000E+00  0.00000000000E+00  0.12235861879E+04  0.12235861879E+04  0.50400001928E-02 0. -1.
        1   -1    0    0  501    0  0.00000000000E+00  0.00000000000E+00 -0.19622891646E+04  0.19622891646E+04  0.50400001928E-02 0.  1.
    10030    2    1    2    0    0  0.00000000000E+00  0.00000000000E+00 -0.73870297665E+03  0.31858753525E+04  0.30990514152E+04 0.  0.
        5    1    3    3  502    0  0.13465677316E+03 -0.11725025356E+04  0.66282662563E+03  0.13536084619E+04  0.46999998093E+01 0. -1.
       -5    1    3    3    0  502 -0.13465677316E+03  0.11725025356E+04 -0.14015296023E+04  0.18322668906E+04  0.46999998093E+01 0.  1.
</event>
<event>
 5   0  0.1325713E-07  0.3100412E+04  0.7818609E-02  0.8215625E-01
       -2   -1    0    0    0  501  0.00000000000E+00  0.00000000000E+00  0.12746859749E+04  0.12746859750E+04  0.25500000920E-02 0. -1.
        2   -1    0    0  501    0  0.00000000000E+00  0.00000000000E+00 -0.18852786833E+04  0.18852786833E+04  0.25500000920E-02 0.  1.
    10030    2    1    2    0    0  0.00000000000E+00  0.00000000000E+00 -0.61059270836E+03  0.31599646583E+04  0.31004117768E+04 0.  0.
        4    1    3    3  502    0  0.38269477632E+02  0.12078939829E+04 -0.12948546126E+04  0.17711923971E+04  0.12699999809E+01 0.  1.
       -4    1    3    3    0  502 -0.38269477632E+02 -0.12078939829E+04  0.68426190420E+03  0.13887722612E+04  0.12699999809E+01 0. -1.
</event>
<event>
 5   0  0.4470354E-08  0.3099779E+04  0.7818609E-02  0.8215799E-01
       -1   -1    0    0    0  501  0.00000000000E+00  0.00000000000E+00  0.97592862758E+03  0.97592862760E+03  0.50400001928E-02 0.  1.
        1   -1    0    0  501    0  0.00000000000E+00  0.00000000000E+00 -0.24614062361E+04  0.24614062362E+04  0.50400001928E-02 0. -1.
    10030    2    1    2    0    0  0.00000000000E+00  0.00000000000E+00 -0.14854776086E+04  0.34373348638E+04  0.30997785792E+04 0.  0.
        1    1    3    3  502    0 -0.80240649087E+02  0.15373390192E+04 -0.94205353944E+03  0.18048032283E+04  0.50400001928E-02 0. -1.
       -1    1    3    3    0  502  0.80240649087E+02 -0.15373390192E+04 -0.54342406912E+03  0.16325316354E+04  0.50400001928E-02 0.  1.
</event>
<event>
 5   0  0.1377237E-07  0.3099682E+04  0.7818609E-02  0.8215825E-01
        2   -1    0    0  501    0  0.00000000000E+00  0.00000000000E+00  0.13985525620E+04  0.13985525620E+04  0.25500000920E-02 0. -1.
       -2   -1    0    0    0  501  0.00000000000E+00  0.00000000000E+00 -0.17174951466E+04  0.17174951466E+04  0.25500000920E-02 0.  1.
    10030    2    1    2    0    0  0.00000000000E+00  0.00000000000E+00 -0.31894258458E+03  0.31160477086E+04  0.30996820724E+04 0.  0.
        2    1    3    3  502    0 -0.40534164873E+02 -0.13858247161E+04 -0.85584367720E+03  0.16293009428E+04  0.25500000920E-02 0.  1.
       -2    1    3    3    0  502  0.40534164873E+02  0.13858247161E+04  0.53690109262E+03  0.14867467658E+04  0.25500000920E-02 0. -1.
</event>
<event>
 5   0  0.1318916E-07  0.3097347E+04  0.7818609E-02  0.8216466E-01
       -2   -1    0    0    0  501  0.00000000000E+00  0.00000000000E+00  0.12039481353E+04  0.12039481353E+04  0.25500000920E-02 0.  1.
        2   -1    0    0  501    0  0.00000000000E+00  0.00000000000E+00 -0.19921032005E+04  0.19921032005E+04  0.25500000920E-02 0. -1.
    10030    2    1    2    0    0  0.00000000000E+00  0.00000000000E+00 -0.78815506522E+03  0.31960513357E+04  0.30973465634E+04 0.  0.
        5    1    3    3  502    0  0.96402098552E+03  0.56859586536E+03  0.71042043624E+03  0.13256534256E+04  0.46999998093E+01 0.  1.
       -5    1    3    3    0  502 -0.96402098552E+03 -0.56859586536E+03 -0.14985755015E+04  0.18703979101E+04  0.46999998093E+01 0. -1.
</event>
<event>
 5   0  0.4436241E-08  0.3097657E+04  0.7818609E-02  0.8216381E-01
        1   -1    0    0  501    0  0.00000000000E+00  0.00000000000E+00  0.12860389327E+04  0.12860389327E+04  0.50400001928E-02 0.  1.
       -1   -1    0    0    0  501  0.00000000000E+00  0.00000000000E+00 -0.18653159712E+04  0.18653159712E+04  0.50400001928E-02 0. -1.
    10030    2    1    2    0    0  0.00000000000E+00  0.00000000000E+00 -0.57927703844E+03  0.31513549039E+04  0.30976565083E+04 0.  0.
        3    1    3    3  502    0 -0.11284290866E+04  0.98150266453E+03  0.12004484962E+03  0.15003701077E+04  0.10100000352E+00 0.  1.
       -3    1    3    3    0  502  0.11284290866E+04 -0.98150266453E+03 -0.69932188806E+03  0.16509847962E+04  0.10100000352E+00 0. -1.
</event>
<event>
 5   0  0.4838602E-08  0.3100403E+04  0.7818609E-02  0.8215627E-01
        1   -1    0    0  501    0  0.00000000000E+00  0.00000000000E+00  0.22942096306E+04  0.22942096306E+04  0.50400001928E-02 0. -1.
       -1   -1    0    0    0  501  0.00000000000E+00  0.00000000000E+00 -0.10474742015E+04  0.10474742015E+04  0.50400001928E-02 0.  1.
    10030    2    1    2    0    0  0.00000000000E+00  0.00000000000E+00  0.12467354291E+04  0.33416838321E+04  0.31004034582E+04 0.  0.
        5    1    3    3  502    0  0.40895208956E+03  0.14614008386E+04  0.28224235574E+03  0.15435728230E+04  0.46999998093E+01 0.  1.
       -5    1    3    3    0  502 -0.40895208956E+03 -0.14614008386E+04  0.96449307339E+03  0.17981110091E+04  0.46999998093E+01 0. -1.
</event>
<event>
 5   0  0.1377237E-07  0.3099973E+04  0.7818609E-02  0.8215745E-01
       -2   -1    0    0    0  501  0.00000000000E+00  0.00000000000E+00  0.13167464902E+04  0.13167464902E+04  0.25500000920E-02 0.  1.
        2   -1    0    0  501    0  0.00000000000E+00  0.00000000000E+00 -0.18245408758E+04  0.18245408758E+04  0.25500000920E-02 0. -1.
    10030    2    1    2    0    0  0.00000000000E+00  0.00000000000E+00 -0.50779438558E+03  0.31412873660E+04  0.30999727705E+04 0.  0.
        2    1    3    3  502    0  0.10490148426E+04 -0.75952882270E+03 -0.11167986558E+04  0.17101331557E+04  0.25500000920E-02 0. -1.
       -2    1    3    3    0  502 -0.10490148426E+04  0.75952882270E+03  0.60900427022E+03  0.14311542103E+04  0.25500000920E-02 0.  1.
</event>
<event>
 5   0  0.4450600E-08  0.3097376E+04  0.7818609E-02  0.8216458E-01
       -1   -1    0    0    0  501  0.00000000000E+00  0.00000000000E+00  0.14932868855E+04  0.14932868855E+04  0.50400001928E-02 0.  1.
        1   -1    0    0  501    0  0.00000000000E+00  0.00000000000E+00 -0.16061448133E+04  0.16061448133E+04  0.50400001928E-02 0. -1.
    10030    2    1    2    0    0  0.00000000000E+00  0.00000000000E+00 -0.11285792774E+03  0.30994316988E+04  0.30973763000E+04 0.  0.
        4    1    3    3  502    0 -0.59560425604E+03  0.11608528416E+04  0.77845653584E+03  0.15193156159E+04  0.12699999809E+01 0.  1.
       -4    1    3    3    0  502  0.59560425604E+03 -0.11608528416E+04 -0.89131446359E+03  0.15801160829E+04  0.12699999809E+01 0. -1.
</event>
<event>
 5   0  0.1398931E-07  0.3099331E+04  0.7818609E-02  0.8215922E-01
       -2   -1    0    0    0  501  0.00000000000E+00  0.00000000000E+00  0.12637577722E+04  0.12637577722E+04  0.25500000920E-02 0. -1.
        2   -1    0    0  501    0  0.00000000000E+00  0.00000000000E+00 -0.19002557387E+04  0.19002557387E+04  0.25500000920E-02 0.  1.
    10030    2    1    2    0    0  0.00000000000E+00  0.00000000000E+00 -0.63649796652E+03  0.31640135109E+04  0.30993308691E+04 0.  0.
        3    1    3    3  502    0 -0.43537730097E+03  0.14825563095E+04 -0.19773295459E+03  0.15577627986E+04  0.10100000352E+00 0. -1.
       -3    1    3    3    0  502  0.43537730097E+03 -0.14825563095E+04 -0.43876501193E+03  0.16062507124E+04  0.10100000352E+00 0.  1.
</event>
<event>
 5   0  0.1318916E-07  0.3085834E+04  0.7818609E-02  0.8219636E-01
       -2   -1    0    0    0  501  0.00000000000E+00  0.00000000000E+00  0.10121475856E+04  0.10121475857E+04  0.25500000920E-02 0.  1.
        2   -1    0    0  501    0  0.00000000000E+00  0.00000000000E+00 -0.23520219178E+04  0.23520219178E+04  0.25500000920E-02 0. -1.
    10030    2    1    2    0    0  0.00000000000E+00  0.00000000000E+00 -0.13398743321E+04  0.33641695034E+04  0.30858342830E+04 0.  0.
        5    1    3    3  502    0  0.14025020629E+04 -0.73596761555E+02  0.26547058650E+02  0.14046904841E+04  0.46999998093E+01 0.  1.
       -5    1    3    3    0  502 -0.14025020629E+04  0.73596761555E+02 -0.13664213908E+04  0.19594790193E+04  0.46999998093E+01 0. -1.
</event>
<event>
 5   0  0.1329777E-07  0.3099152E+04  0.7818609E-02  0.8215971E-01
        2   -1    0    0  501    0  0.00000000000E+00  0.00000000000E+00  0.11293593318E+04  0.11293593318E+04  0.25500000920E-02 0.  1.
       -2   -1    0    0    0  501  0.00000000000E+00  0.00000000000E+00 -0.21261486024E+04  0.21261486024E+04  0.25500000920E-02 0. -1.
    10030    2    1    2    0    0  0.00000000000E+00  0.00000000000E+00 -0.99678927051E+03  0.32555079342E+04  0.30991519904E+04 0.  0.
        1    1    3    3  502    0  0.31371946489E+03 -0.45723819615E+03 -0.20183576312E+04  0.20931445718E+04  0.50400001928E-02 0. -1.
       -1    1    3    3    0  502 -0.31371946489E+03  0.45723819615E+03  0.10215683607E+04  0.11623633624E+04  0.50400001928E-02 0.  1.
</event>
<event>
 5   0  0.4470354E-08  0.3097200E+04  0.7818609E-02  0.8216507E-01
        1   -1    0    0  501    0  0.00000000000E+00  0.00000000000E+00  0.27690286927E+04  0.27690286927E+04  0.50400001928E-02 0.  1.
       -1   -1    0    0    0  501  0.00000000000E+00  0.00000000000E+00 -0.86606595683E+03  0.86606595684E+03  0.50400001928E-02 0. -1.
    10030    2    1    2    0    0  0.00000000000E+00  0.00000000000E+00  0.19029627359E+04  0.36350946495E+04  0.30971996928E+04 0.  0.
        1    1    3    3  502    0  0.97253799620E+03 -0.32216781872E+03 -0.41146356002E+03  0.11040491469E+04  0.50400001928E-02 0. -1.
       -1    1    3    3    0  502 -0.97253799620E+03  0.32216781872E+03  0.23144262959E+04  0.25310455027E+04  0.50400001928E-02 0.  1.
</event>
<event>
 5   0  0.1329777E-07  0.3100593E+04  0.7818609E-02  0.8215575E-01
        2   -1    0    0  501    0  0.00000000000E+00  0.00000000000E+00  0.13755541473E+04  0.13755541473E+04  0.25500000920E-02 0.  1.
       -2   -1    0    0    0  501  0.00000000000E+00  0.00000000000E+00 -0.17472369455E+04  0.17472369455E+04  0.25500000920E-02 0. -1.
    10030    2    1    2    0    0  0.00000000000E+00  0.00000000000E+00 -0.37168279819E+03  0.31227910929E+04  0.31005928638E+04 0.  0.
        1    1    3    3  502    0 -0.39586460870E+03  0.31290965811E+03 -0.16622139516E+04  0.17371172855E+04  0.50400001928E-02 0. -1.
       -1    1    3    3    0  502  0.39586460870E+03 -0.31290965811E+03  0.12905311534E+04  0.13856738074E+04  0.50400001928E-02 0.  1.
</event>
<event>
 5   0  0.4470354E-08  0.3099218E+04  0.7818609E-02  0.8215953E-01
        1   -1    0    0  501    0  0.00000000000E+00  0.00000000000E+00  0.19459783957E+04  0.19459783957E+04  0.50400001928E-02 0.  1.
       -1   -1    0    0    0  501  0.00000000000E+00  0.00000000000E+00 -0.12339743177E+04  0.12339743177E+04  0.50400001928E-02 0. -1.
    10030    2    1    2    0    0  0.00000000000E+00  0.00000000000E+00  0.71200407798E+03  0.31799527134E+04  0.30992175549E+04 0.  0.
        1    1    3    3  502    0  0.10993246047E+04  0.25865380448E+03 -0.73270971657E+03  0.13462094584E+04  0.50400001928E-02 0. -1.
       -1    1    3    3    0  502 -0.10993246047E+04 -0.25865380448E+03  0.14447137945E+04  0.18337432550E+04  0.50400001928E-02 0.  1.
</event>
<event>
 5   0  0.1325713E-07  0.3099532E+04  0.7818609E-02  0.8215866E-01
        2   -1    0    0  501    0  0.00000000000E+00  0.00000000000E+00  0.21322307668E+04  0.21322307668E+04  0.25500000920E-02 0.  1.
       -2   -1    0    0    0  501  0.00000000000E+00  0.00000000000E+00 -0.11264139327E+04  0.11264139327E+04  0.25500000920E-02 0. -1.
    10030    2    1    2    0    0  0.00000000000E+00  0.00000000000E+00  0.10058168341E+04  0.32586446996E+04  0.30995318637E+04 0.  0.
        4    1    3    3  502    0 -0.12794663639E+04 -0.18473571518E+03 -0.39572821550E+03  0.13519481847E+04  0.12699999809E+01 0. -1.
       -4    1    3    3    0  502  0.12794663639E+04  0.18473571518E+03  0.14015450496E+04  0.19066965148E+04  0.12699999809E+01 0.  1.
</event>
<event>
 5   0  0.4470354E-08  0.3099748E+04  0.7818609E-02  0.8215807E-01
        1   -1    0    0  501    0  0.00000000000E+00  0.00000000000E+00  0.19655189496E+04  0.19655189496E+04  0.50400001928E-02 0.  1.
       -1   -1    0    0    0  501  0.00000000000E+00  0.00000000000E+00 -0.12221249758E+04  0.12221249758E+04  0.50400001928E-02 0. -1.
    10030    2    1    2    0    0  0.00000000000E+00  0.00000000000E+00  0.74339397385E+03  0.31876439254E+04  0.30997482470E+04 0.  0.
        1    1    3    3  502    0 -0.60480338908E+03 -0.12732981149E+04  0.10341964274E+04  0.17483241917E+04  0.50400001928E-02 0.  1.
       -1    1    3    3    0  502  0.60480338908E+03  0.12732981149E+04 -0.29080245355E+03  0.14393197337E+04  0.50400001928E-02 0. -1.
</event>
<event>
 5   0  0.1318916E-07  0.3100189E+04  0.7818609E-02  0.8215686E-01
       -2   -1    0    0    0  501  0.00000000000E+00  0.00000000000E+00  0.10186842319E+04  0.10186842319E+04  0.25500000920E-02 0.  1.
        2   -1    0    0  501    0  0.00000000000E+00  0.00000000000E+00 -0.23587219356E+04  0.23587219356E+04  0.25500000920E-02 0. -1.
    10030    2    1    2    0    0  0.00000000000E+00  0.00000000000E+00 -0.13400377037E+04  0.33774061675E+04  0.31001889253E+04 0.  0.
        5    1    3    3  502    0 -0.67319610455E+02 -0.23881225030E+03 -0.23369401207E+04  0.23500796664E+04  0.46999998093E+01 0. -1.
       -5    1    3    3    0  502  0.67319610455E+02  0.23881225030E+03  0.99690241697E+03  0.10273265011E+04  0.46999998093E+01 0.  1.
</event>
<event>
 5   0  0.1318916E-07  0.3101030E+04  0.7818609E-02  0.8215455E-01
        2   -1    0    0  501    0  0.00000000000E+00  0.00000000000E+00  0.17333096687E+04  0.17333096687E+04  0.25500000920E-02 0. -1.
       -2   -1    0    0    0  501  0.00000000000E+00  0.00000000000E+00 -0.13869978864E+04  0.13869978864E+04  0.25500000920E-02 0.  1.
    10030    2    1    2    0    0  0.00000000000E+00  0.00000000000E+00  0.34631178230E+03  0.31203075550E+04  0.31010300526E+04 0.  0.
        5    1    3    3  502    0  0.59361985645E+02 -0.97757700854E+03  0.13826658176E+04  0.16943929610E+04  0.46999998093E+01 0. -1.
       -5    1    3    3    0  502 -0.59361985645E+02  0.97757700854E+03 -0.10363540353E+04  0.14259145940E+04  0.46999998093E+01 0.  1.
</event>
<event>
 5   0  0.1377237E-07  0.3099015E+04  0.7818609E-02  0.8216008E-01
       -2   -1    0    0    0  501  0.00000000000E+00  0.00000000000E+00  0.16984511355E+04  0.16984511355E+04  0.25500000920E-02 0. -1.
        2   -1    0    0  501    0  0.00000000000E+00  0.00000000000E+00 -0.14136251647E+04  0.14136251647E+04  0.25500000920E-02 0.  1.
    10030    2    1    2    0    0  0.00000000000E+00  0.00000000000E+00  0.28482597084E+03  0.31120763002E+04  0.30990148538E+04 0.  0.
        2    1    3    3  502    0  0.10308109144E+04 -0.10594109831E+04 -0.32435838415E+03  0.15133179223E+04  0.25500000920E-02 0.  1.
       -2    1    3    3    0  502 -0.10308109144E+04  0.10594109831E+04  0.60918435499E+03  0.15987583779E+04  0.25500000920E-02 0. -1.
</event>
<event>
 5   0  0.1377237E-07  0.3102703E+04  0.7818609E-02  0.8214996E-01
       -2   -1    0    0    0  501  0.00000000000E+00  0.00000000000E+00  0.12266255040E+04  0.12266255040E+04  0.25500000920E-02 0. -1.
        2   -1    0    0  501    0  0.00000000000E+00  0.00000000000E+00 -0.19620426458E+04  0.19620426458E+04  0.25500000920E-02 0.  1.
    10030    2    1    2    0    0  0.00000000000E+00  0.00000000000E+00 -0.73541714181E+03  0.31886681498E+04  0.31027030469E+04 0.  0.
        2    1    3    3  502    0 -0.12806652532E+04  0.45341538457E+03 -0.11374618158E+04  0.17718657918E+04  0.25500000920E-02 0.  1.
       -2    1    3    3    0  502  0.12806652532E+04 -0.45341538457E+03  0.40204467403E+03  0.14168023580E+04  0.25500000920E-02 0. -1.
</event>
<event>
 5   0  0.1329777E-07  0.3101021E+04  0.7818609E-02  0.8215458E-01
        2   -1    0    0  501    0  0.00000000000E+00  0.00000000000E+00  0.28047132722E+04  0.28047132722E+04  0.25500000920E-02 0. -1.
       -2   -1    0    0    0  501  0.00000000000E+00  0.00000000000E+00 -0.85715825263E+03  0.85715825263E+03  0.25500000920E-02 0.  1.
    10030    2    1    2    0    0  0.00000000000E+00  0.00000000000E+00  0.19475550196E+04  0.36618715248E+04  0.31010212044E+04 0.  0.
        1    1    3    3  502    0 -0.49809248021E+03  0.12699781962E+04  0.18440499225E+04  0.22937874475E+04  0.50400001928E-02 0. -1.
       -1    1    3    3    0  502  0.49809248021E+03 -0.12699781962E+04  0.10350509707E+03  0.13680840773E+04  0.50400001928E-02 0.  1.
</event>
<event>
 5   0  0.4838602E-08  0.3099864E+04  0.7818609E-02  0.8215775E-01
        1   -1    0    0  501    0  0.00000000000E+00  0.00000000000E+00  0.13792336593E+04  0.13792336593E+04  0.50400001928E-02 0.  1.
       -1   -1    0    0    0  501  0.00000000000E+00  0.00000000000E+00 -0.17417560662E+04  0.17417560662E+04  0.50400001928E-02 0. -1.
    10030    2    1    2    0    0  0.00000000000E+00  0.00000000000E+00 -0.36252240687E+03  0.31209897255E+04  0.30998636053E+04 0.  0.
        5    1    3    3  502    0 -0.13209759641E+04 -0.30309439118E+03 -0.93833185431E+03  0.16484333370E+04  0.46999998093E+01 0. -1.
       -5    1    3    3    0  502  0.13209759641E+04  0.30309439118E+03  0.57580944744E+03  0.14725563885E+04  0.46999998093E+01 0.  1.
</event>
<event>
 5   0  0.4436241E-08  0.3100423E+04  0.7818609E-02  0.8215622E-01
        1   -1    0    0  501    0  0.00000000000E+00  0.00000000000E+00  0.12605241421E+04  0.12605241422E+04  0.50400001928E-02 0. -1.
       -1   -1    0    0    0  501  0.00000000000E+00  0.00000000000E+00 -0.19064732587E+04  0.19064732588E+04  0.50400001928E-02 0.  1.
    10030    2    1    2    0    0  0.00000000000E+00  0.00000000000E+00 -0.64594911660E+03  0.31669974009E+04  0.31004229189E+04 0.  0.
        3    1    3    3  502    0  0.15035952520E+04  0.30751443178E+03 -0.99667093491E+02  0.15379523228E+04  0.10100000352E+00 0. -1.
       -3    1    3    3    0  502 -0.15035952520E+04 -0.30751443178E+03 -0.54628202311E+03  0.16290450781E+04  0.10100000352E+00 0.  1.
</event>
<event>
 5   0  0.1398931E-07  0.3100013E+04  0.7818609E-02  0.8215734E-01
        2   -1    0    0  501    0  0.00000000000E+00  0.00000000000E+00  0.17415427151E+04  0.17415427151E+04  0.25500000920E-02 0.  1.
       -2   -1    0    0    0  501  0.00000000000E+00  0.00000000000E+00 -0.13795355195E+04  0.13795355196E+04  0.25500000920E-02 0. -1.
    10030    2    1    2    0    0  0.00000000000E+00  0.00000000000E+00  0.36200719556E+03  0.31210782347E+04  0.31000129253E+04 0.  0.
        3    1    3    3  502    0 -0.56122181761E+03 -0.27718691814E+03  0.16086369331E+04  0.17261272574E+04  0.10100000352E+00 0.  1.
       -3    1    3    3    0  502  0.56122181761E+03  0.27718691814E+03 -0.12466297375E+04  0.13949509772E+04  0.10100000352E+00 0. -1.
</event>
<event>
 5   0  0.4470354E-08  0.3101677E+04  0.7818609E-02  0.8215278E-01
        1   -1    0    0  501    0  0.00000000000E+00  0.00000000000E+00  0.14039961620E+04  0.14039961620E+04  0.50400001928E-02 0. -1.
       -1   -1    0    0    0  501  0.00000000000E+00  0.00000000000E+00 -0.17130387189E+04  0.17130387189E+04  0.50400001928E-02 0.  1.
    10030    2    1    2    0    0  0.00000000000E+00  0.00000000000E+00 -0.30904255688E+03  0.31170348809E+04  0.31016768282E+04 0.  0.
        1    1    3    3  502    0 -0.55252482972E+03  0.12457643390E+04  0.58933792010E+03  0.14847665338E+04  0.50400001928E-02 0. -1.
       -1    1    3    3    0  502  0.55252482972E+03 -0.12457643390E+04 -0.89838047698E+03  0.16322683472E+04  0.50400001928E-02 0.  1.
</event>
<event>
 5   0  0.1377237E-07  0.3100066E+04  0.7818609E-02  0.8215720E-01
        2   -1    0    0  501    0  0.00000000000E+00  0.00000000000E+00  0.20662196416E+04  0.20662196416E+04  0.25500000920E-02 0. -1.
       -2   -1    0    0    0  501  0.00000000000E+00  0.00000000000E+00 -0.11628013875E+04  0.11628013875E+04  0.25500000920E-02 0.  1.
    10030    2    1    2    0    0  0.00000000000E+00  0.00000000000E+00  0.90341825412E+03  0.32290210291E+04  0.31000664936E+04 0.  0.
        2    1    3    3  502    0 -0.15915575291E+03 -0.11243115506E+04 -0.64726050703E+03  0.13070398542E+04  0.25500000920E-02 0.  1.
       -2    1    3    3    0  502  0.15915575291E+03  0.11243115506E+04  0.15506787612E+04  0.19219811749E+04  0.25500000920E-02 0. -1.
</event>
<event>
 5   0  0.4450600E-08  0.3096414E+04  0.7818609E-02  0.8216723E-01
       -1   -1    0    0    0  501  0.00000000000E+00  0.00000000000E+00  0.80811185169E+03  0.80811185171E+03  0.50400001928E-02 0.  1.
        1   -1    0    0  501    0  0.00000000000E+00  0.00000000000E+00 -0.29661046942E+04  0.29661046942E+04  0.50400001928E-02 0. -1.
    10030    2    1    2    0    0  0.00000000000E+00  0.00000000000E+00 -0.21579928425E+04  0.37742165459E+04  0.30964136395E+04 0.  0.
        4    1    3    3  502    0  0.13293998924E+04 -0.79177007370E+03 -0.10152068613E+04  0.18506351633E+04  0.12699999809E+01 0.  1.
       -4    1    3    3    0  502 -0.13293998924E+04  0.79177007370E+03 -0.11427859812E+04  0.19235813826E+04  0.12699999809E+01 0. -1.
</event>
<event>
 5   0  0.4470354E-08  0.3099804E+04  0.7818609E-02  0.8215792E-01
       -1   -1    0    0    0  501  0.00000000000E+00  0.00000000000E+00  0.17449104214E+04  0.17449104214E+04  0.50400001928E-02 0.  1.
        1   -1    0    0  501    0  0.00000000000E+00  0.00000000000E+00 -0.13766870113E+04  0.13766870113E+04  0.50400001928E-02 0. -1.
    10030    2    1    2    0    0  0.00000000000E+00  0.00000000000E+00  0.36822341014E+03  0.31215974327E+04  0.30998035506E+04 0.  0.
        1    1    3    3  502    0 -0.12448580117E+04 -0.82547151676E+03  0.60068761166E+03  0.16099379806E+04  0.50400001928E-02 0. -1.
       -1    1    3    3    0  502  0.12448580117E+04  0.82547151676E+03 -0.23246420152E+03  0.15116594522E+04  0.50400001928E-02 0.  1.
</event>
<event>
 5   0  0.4517409E-08  0.3099863E+04  0.7818609E-02  0.8215776E-01
       -1   -1    0    0    0  501  0.00000000000E+00  0.00000000000E+00  0.11053238286E+04  0.11053238286E+04  0.50400001928E-02 0.  1.
        1   -1    0    0  501    0  0.00000000000E+00  0.00000000000E+00 -0.21733786503E+04  0.21733786503E+04  0.50400001928E-02 0. -1.
    10030    2    1    2    0    0  0.00000000000E+00  0.00000000000E+00 -0.10680548217E+04  0.32787024789E+04  0.30998627135E+04 0.  0.
        2    1    3    3  502    0  0.33899535166E+03 -0.15498828649E+03  0.10572108585E+04  0.11209968852E+04  0.25500000920E-02 0.  1.
       -2    1    3    3    0  502 -0.33899535166E+03  0.15498828649E+03 -0.21252656802E+04  0.21577055936E+04  0.25500000920E-02 0. -1.
</event>
<event>
 5   0  0.4436241E-08  0.3097209E+04  0.7818609E-02  0.8216504E-01
        1   -1    0    0  501    0  0.00000000000E+00  0.00000000000E+00  0.19766665660E+04  0.19766665660E+04  0.50400001928E-02 0. -1.
       -1   -1    0    0    0  501  0.00000000000E+00  0.00000000000E+00 -0.12132422852E+04  0.12132422852E+04  0.50400001928E-02 0.  1.
    10030    2    1    2    0    0  0.00000000000E+00  0.00000000000E+00  0.76342428084E+03  0.31899088512E+04  0.30972087186E+04 0.  0.
        3    1    3    3  502    0 -0.91135064750E+03 -0.31864001784E+03 -0.86534750505E+03  0.12965021320E+04  0.10100000352E+00 0.  1.
       -3    1    3    3    0  502  0.91135064750E+03  0.31864001784E+03  0.16287717859E+04  0.18934067192E+04  0.10100000352E+00 0. -1.
</event>
<event>
 5   0  0.1325713E-07  0.3098494E+04  0.7818609E-02  0.8216151E-01
        2   -1    0    0  501    0  0.00000000000E+00  0.00000000000E+00  0.98803722601E+03  0.98803722601E+03  0.25500000920E-02 0.  1.
       -2   -1    0    0    0  501  0.00000000000E+00  0.00000000000E+00 -0.24292265859E+04  0.24292265859E+04  0.25500000920E-02 0. -1.
    10030    2    1    2    0    0  0.00000000000E+00  0.00000000000E+00 -0.14411893599E+04  0.34172638120E+04  0.30984940196E+04 0.  0.
        4    1    3    3  502    0  0.93401094524E+03  0.98671875775E+02 -0.20794436317E+04  0.22817098885E+04  0.12699999809E+01 0. -1.
       -4    1    3    3    0  502 -0.93401094524E+03 -0.98671875775E+02  0.63825427173E+03  0.11355539235E+04  0.12699999809E+01 0.  1.
</event>
<event>
 5   0  0.1325713E-07  0.3099973E+04  0.7818609E-02  0.8215745E-01
       -2   -1    0    0    0  501  0.00000000000E+00  0.00000000000E+00  0.32406742407E+04  0.32406742407E+04  0.25500000920E-02 0. -1.
        2   -1    0    0  501    0  0.00000000000E+00  0.00000000000E+00 -0.74134538734E+03  0.74134538734E+03  0.25500000920E-02 0.  1.
    10030    2    1    2    0    0  0.00000000000E+00  0.00000000000E+00  0.24993288534E+04  0.39820196280E+04  0.30999734839E+04 0.  0.
        4    1    3    3  502    0 -0.10110032518E+04  0.98943235368E+03  0.43588097813E+03  0.14802357236E+04  0.12699999809E+01 0.  1.
       -4    1    3    3    0  502  0.10110032518E+04 -0.98943235368E+03  0.20634478752E+04  0.25017839044E+04  0.12699999809E+01 0. -1.
</event>
<event>
 5   0  0.4517409E-08  0.3099145E+04  0.7818609E-02  0.8215973E-01
       -1   -1    0    0    0  501  0.00000000000E+00  0.00000000000E+00  0.18457470958E+04  0.18457470958E+04  0.50400001928E-02 0. -1.
        1   -1    0    0  501    0  0.00000000000E+00  0.00000000000E+00 -0.13009230861E+04  0.13009230861E+04  0.50400001928E-02 0.  1.
    10030    2    1    2    0    0  0.00000000000E+00  0.00000000000E+00  0.54482400970E+03  0.31466701820E+04  0.30991450487E+04 0.  0.
        2    1    3    3  502    0  0.99058638888E+03 -0.11791521758E+04  0.44684217222E+03  0.16035364587E+04  0.25500000920E-02 0. -1.
       -2    1    3    3    0  502 -0.99058638888E+03  0.11791521758E+04  0.97981837479E+02  0.15431337233E+04  0.25500000920E-02 0.  1.
</event>
<event>
 5   0  0.1325713E-07  0.3100703E+04  0.7818609E-02  0.8215545E-01
       -2   -1    0    0    0  501  0.00000000000E+00  0.00000000000E+00  0.89272948466E+03  0.89272948467E+03  0.25500000920E-02 0. -1.
        2   -1    0    0  501    0  0.00000000000E+00  0.00000000000E+00 -0.26924060915E+04  0.26924060915E+04  0.25500000920E-02 0.  1.
    10030    2    1    2    0    0  0.00000000000E+00  0.00000000000E+00 -0.17996766068E+04  0.35851355761E+04  0.31007033412E+04 0.  0.
        4    1    3    3  502    0  0.14931575519E+04  0.32575174148E+03 -0.12012472447E+04  0.19438699102E+04  0.12699999809E+01 0.  1.
       -4    1    3    3    0  502 -0.14931575519E+04 -0.32575174148E+03 -0.59842936209E+03  0.16412656659E+04  0.12699999809E+01 0. -1.
</event>
<event>
 5   0  0.1329777E-07  0.3100360E+04  0.7818609E-02  0.8215639E-01
       -2   -1    0    0    0  501  0.00000000000E+00  0.00000000000E+00  0.14534912842E+04  0.14534912842E+04  0.25500000920E-02 0.  1.
        2   -1    0    0  501    0  0.00000000000E+00  0.00000000000E+00 -0.16533002242E+04  0.16533002242E+04  0.25500000920E-02 0. -1.
    10030    2    1    2    0    0  0.00000000000E+00  0.00000000000E+00 -0.19980893996E+03  0.31067915084E+04  0.31003596347E+04 0.  0.
        1    1    3    3  502    0  0.19782143127E+02  0.20141356082E+03 -0.16400049520E+04  0.16524451574E+04  0.50400001928E-02 0. -1.
       -1    1    3    3    0  502 -0.19782143127E+02 -0.20141356082E+03  0.14401960120E+04  0.14543463510E+04  0.50400001928E-02 0.  1.
</event>
<event>
 5   0  0.1325713E-07  0.3099716E+04  0.7818609E-02  0.8215816E-01
        2   -1    0    0  501    0  0.00000000000E+00  0.00000000000E+00  0.14601601795E+04  0.14601601795E+04  0.25500000920E-02 0.  1.
       -2   -1    0    0    0  501  0.00000000000E+00  0.00000000000E+00 -0.16450655988E+04  0.16450655988E+04  0.25500000920E-02 0. -1.
    10030    2    1    2    0    0  0.00000000000E+00  0.00000000000E+00 -0.18490541927E+03  0.31052257782E+04  0.30997156514E+04 0.  0.
        4    1    3    3  502    0  0.62859800576E+03  0.10292225919E+04  0.88273706607E+03  0.14945437221E+04  0.12699999809E+01 0.  1.
       -4    1    3    3    0  502 -0.62859800576E+03 -0.10292225919E+04 -0.10676424853E+04  0.16106820561E+04  0.12699999809E+01 0. -1.
</event>
<event>
 5   0  0.4838602E-08  0.3099527E+04  0.7818609E-02  0.8215868E-01
       -1   -1    0    0    0  501  0.00000000000E+00  0.00000000000E+00  0.16106084892E+04  0.16106084892E+04  0.50400001928E-02 0.  1.
        1   -1    0    0  501    0  0.00000000000E+00  0.00000000000E+00 -0.14912168893E+04  0.14912168893E+04  0.50400001928E-02 0. -1.
    10030    2    1    2    0    0  0.00000000000E+00  0.00000000000E+00  0.11939159994E+03  0.31018253785E+04  0.30995267904E+04 0.  0.
        5    1    3    3  502    0 -0.43963424808E+03 -0.22448387537E+03  0.15298234205E+04  0.16074990109E+04  0.46999998093E+01 0.  1.
       -5    1    3    3    0  502  0.43963424808E+03  0.22448387537E+03 -0.14104318205E+04  0.14943263675E+04  0.46999998093E+01 0. -1.
</event>
<event>
 5   0  0.1318916E-07  0.3100555E+04  0.7818609E-02  0.8215586E-01
        2   -1    0    0  501    0  0.00000000000E+00  0.00000000000E+00  0.22861067280E+04  0.22861067280E+04  0.25500000920E-02 0.  1.
       -2   -1    0    0    0  501  0.00000000000E+00  0.00000000000E+00 -0.10512894217E+04  0.10512894217E+04  0.25500000920E-02 0. -1.
    10030    2    1    2    0    0  0.00000000000E+00  0.00000000000E+00  0.12348173063E+04  0.33373961497E+04  0.31005546729E+04 0.  0.
        5    1    3    3  502    0  0.11313167384E+04 -0.10359616011E+04  0.85868197112E+03  0.17579678095E+04  0.46999998093E+01 0.  1.
       -5    1    3    3    0  502 -0.11313167384E+04  0.10359616011E+04  0.37613533522E+03  0.15794283402E+04  0.46999998093E+01 0. -1.
</event>
<event>
 5   0  0.4838602E-08  0.3099601E+04  0.7818609E-02  0.8215847E-01
       -1   -1    0    0    0  501  0.00000000000E+00  0.00000000000E+00  0.15911250117E+04  0.15911250117E+04  0.50400001928E-02 0. -1.
        1   -1    0    0  501    0  0.00000000000E+00  0.00000000000E+00 -0.15095495880E+04  0.15095495880E+04  0.50400001928E-02 0.  1.
    10030    2    1    2    0    0  0.00000000000E+00  0.00000000000E+00  0.81575423724E+02  0.31006745998E+04  0.30996013331E+04 0.  0.
        5    1    3    3  502    0  0.97667876294E+03 -0.10905781125E+04  0.54948910316E+03  0.15637206880E+04  0.46999998093E+01 0. -1.
       -5    1    3    3    0  502 -0.97667876294E+03  0.10905781125E+04 -0.46791367944E+03  0.15369539118E+04  0.46999998093E+01 0.  1.
</event>
<event>
 5   0  0.4436241E-08  0.3099499E+04  0.7818609E-02  0.8215875E-01
        1   -1    0    0  501    0  0.00000000000E+00  0.00000000000E+00  0.20008166385E+04  0.20008166385E+04  0.50400001928E-02 0. -1.
       -1   -1    0    0    0  501  0.00000000000E+00  0.00000000000E+00 -0.12003715650E+04  0.12003715651E+04  0.50400001928E-02 0.  1.
    10030    2    1    2    0    0  0.00000000000E+00  0.00000000000E+00  0.80044507348E+03  0.32011882036E+04  0.30994989271E+04 0.  0.
        3    1    3    3  502    0  0.60463686293E+03  0.13823632924E+04  0.76568110848E+03  0.16919756435E+04  0.10100000352E+00 0. -1.
       -3    1    3    3    0  502 -0.60463686293E+03 -0.13823632924E+04  0.34763965001E+02  0.15092125601E+04  0.10100000352E+00 0.  1.
</event>
<event>
 5   0  0.1318916E-07  0.3094816E+04  0.7818609E-02  0.8217162E-01
        2   -1    0    0  501    0  0.00000000000E+00  0.00000000000E+00  0.27556046389E+04  0.27556046389E+04  0.25500000920E-02 0.  1.
       -2   -1    0    0    0  501  0.00000000000E+00  0.00000000000E+00 -0.86894623743E+03  0.86894623743E+03  0.25500000920E-02 0. -1.
    10030    2    1    2    0    0  0.00000000000E+00  0.00000000000E+00  0.18866584015E+04  0.36245508764E+04  0.30948164940E+04 0.  0.
        5    1    3    3  502    0  0.22216765959E+03  0.18959145004E+03 -0.83636370635E+03  0.88590616105E+03  0.46999998093E+01 0. -1.
       -5    1    3    3    0  502 -0.22216765959E+03 -0.18959145004E+03  0.27230221078E+04  0.27386447153E+04  0.46999998093E+01 0.  1.
</event>
<event>
 5   0  0.4470354E-08  0.3105572E+04  0.7818609E-02  0.8214211E-01
        1   -1    0    0  501    0  0.00000000000E+00  0.00000000000E+00  0.13378272582E+04  0.13378272583E+04  0.50400001928E-02 0. -1.
       -1   -1    0    0    0  501  0.00000000000E+00  0.00000000000E+00 -0.18022832384E+04  0.18022832384E+04  0.50400001928E-02 0.  1.
    10030    2    1    2    0    0  0.00000000000E+00  0.00000000000E+00 -0.46445598016E+03  0.31401104967E+04  0.31055715374E+04 0.  0.
        1    1    3    3  502    0 -0.43921012303E+03  0.81237236698E+03 -0.14944258225E+04  0.17567478287E+04  0.50400001928E-02 0.  1.
       -1    1    3    3    0  502  0.43921012303E+03 -0.81237236698E+03  0.10299698424E+04  0.13833626679E+04  0.50400001928E-02 0. -1.
</event>
<event>
 5   0  0.4450600E-08  0.3099068E+04  0.7818609E-02  0.8215994E-01
       -1   -1    0    0    0  501  0.00000000000E+00  0.00000000000E+00  0.32051953517E+04  0.32051953517E+04  0.50400001928E-02 0. -1.
        1   -1    0    0  501    0  0.00000000000E+00  0.00000000000E+00 -0.74911342317E+03  0.74911342318E+03  0.50400001928E-02 0.  1.
    10030    2    1    2    0    0  0.00000000000E+00  0.00000000000E+00  0.24560819286E+04  0.39543087749E+04  0.30990675126E+04 0.  0.
        4    1    3    3  502    0  0.14430427044E+04 -0.59069590160E+02  0.19443938034E+04  0.24220921409E+04  0.12699999809E+01 0. -1.
       -4    1    3    3    0  502 -0.14430427044E+04  0.59069590160E+02  0.51168812515E+03  0.15322166340E+04  0.12699999809E+01 0.  1.
</event>
<event>
 5   0  0.4838602E-08  0.3100480E+04  0.7818609E-02  0.8215606E-01
       -1   -1    0    0    0  501  0.00000000000E+00  0.00000000000E+00  0.87228213624E+03  0.87228213625E+03  0.50400001928E-02 0.  1.
        1   -1    0    0  501    0  0.00000000000E+00  0.00000000000E+00 -0.27551225013E+04  0.27551225013E+04  0.50400001928E-02 0. -1.
    10030    2    1    2    0    0  0.00000000000E+00  0.00000000000E+00 -0.18828403651E+04  0.36274046376E+04  0.31004800539E+04 0.  0.
        5    1    3    3  502    0 -0.39039839205E+03  0.14965107326E+04 -0.81723583803E+03  0.17492432027E+04  0.46999998093E+01 0.  1.
       -5    1    3    3    0  502  0.39039839205E+03 -0.14965107326E+04 -0.10656045271E+04  0.18781614349E+04  0.46999998093E+01 0. -1.
</event>
<event>
 5   0  0.4470354E-08  0.3099274E+04  0.7818609E-02  0.8215937E-01
        1   -1    0    0  501    0  0.00000000000E+00  0.00000000000E+00  0.13929389733E+04  0.13929389733E+04  0.50400001928E-02 0.  1.
       -1   -1    0    0    0  501  0.00000000000E+00  0.00000000000E+00 -0.17239631796E+04  0.17239631796E+04  0.50400001928E-02 0. -1.
    10030    2    1    2    0    0  0.00000000000E+00  0.00000000000E+00 -0.33102420631E+03  0.31169021528E+04  0.30992744321E+04 0.  0.
        1    1    3    3  502    0 -0.26059900705E+03  0.11003905093E+03 -0.16977772468E+04  0.17211821562E+04  0.50400001928E-02 0. -1.
       -1    1    3    3    0  502  0.26059900705E+03 -0.11003905093E+03  0.13667530405E+04  0.13957199966E+04  0.50400001928E-02 0.  1.
</event>
<event>
 5   0  0.4470354E-08  0.3100022E+04  0.7818609E-02  0.8215732E-01
        1   -1    0    0  501    0  0.00000000000E+00  0.00000000000E+00  0.21921862771E+04  0.21921862771E+04  0.50400001928E-02 0.  1.
       -1   -1    0    0    0  501  0.00000000000E+00  0.00000000000E+00 -0.10959532614E+04  0.10959532614E+04  0.50400001928E-02 0. -1.
    10030    2    1    2    0    0  0.00000000000E+00  0.00000000000E+00  0.10962330157E+04  0.32881395385E+04  0.31000217418E+04 0.  0.
        1    1    3    3  502    0  0.84061396106E+03 -0.15600893445E+03  0.19194620050E+04  0.21012627175E+04  0.50400001928E-02 0.  1.
       -1    1    3    3    0  502 -0.84061396106E+03  0.15600893445E+03 -0.82322898939E+03  0.11868768210E+04  0.50400001928E-02 0. -1.
</event>
<event>
 5   0  0.1325713E-07  0.3100750E+04  0.7818609E-02  0.8215532E-01
        2   -1    0    0  501    0  0.00000000000E+00  0.00000000000E+00  0.21533470640E+04  0.21533470640E+04  0.25500000920E-02 0. -1.
       -2   -1    0    0    0  501  0.00000000000E+00  0.00000000000E+00 -0.11162445824E+04  0.11162445824E+04  0.25500000920E-02 0.  1.
    10030    2    1    2    0    0  0.00000000000E+00  0.00000000000E+00  0.10371024816E+04  0.32695916464E+04  0.31007495831E+04 0.  0.
        4    1    3    3  502    0  0.14486306157E+04  0.44675493783E+03  0.86110981616E+03  0.17434541472E+04  0.12699999809E+01 0. -1.
       -4    1    3    3    0  502 -0.14486306157E+04 -0.44675493783E+03  0.17599266548E+03  0.15261374992E+04  0.12699999809E+01 0.  1.
</event>
<event>
 5   0  0.4450600E-08  0.3101464E+04  0.7818609E-02  0.8215336E-01
       -1   -1    0    0    0  501  0.00000000000E+00  0.00000000000E+00  0.11272106808E+04  0.11272106808E+04  0.50400001928E-02 0. -1.
        1   -1    0    0  501    0  0.00000000000E+00  0.00000000000E+00 -0.21333809620E+04  0.21333809620E+04  0.50400001928E-02 0.  1.
    10030    2    1    2    0    0  0.00000000000E+00  0.00000000000E+00 -0.10061702812E+04  0.32605916428E+04  0.31014640456E+04 0.  0.
        4    1    3    3  502    0  0.77465219568E+03  0.49330610823E+03  0.81055734748E+03  0.12249252088E+04  0.12699999809E+01 0. -1.
       -4    1    3    3    0  502 -0.77465219568E+03 -0.49330610823E+03 -0.18167276287E+04  0.20356664340E+04  0.12699999809E+01 0.  1.
</event>
<event>
 5   0  0.4470354E-08  0.3090673E+04  0.7818609E-02  0.8218302E-01
       -1   -1    0    0    0  501  0.00000000000E+00  0.00000000000E+00  0.12044962613E+04  0.12044962613E+04  0.50400001928E-02 0. -1.
        1   -1    0    0  501    0  0.00000000000E+00  0.00000000000E+00 -0.19826255902E+04  0.19826255903E+04  0.50400001928E-02 0.  1.
    10030    2    1    2    0    0  0.00000000000E+00  0.00000000000E+00 -0.77812932893E+03  0.31871218516E+04  0.30906731377E+04 0.  0.
        1    1    3    3  502    0  0.11456478215E+04  0.51593230003E+03  0.53866010723E+03  0.13670588064E+04  0.50400001928E-02 0.  1.
       -1    1    3    3    0  502 -0.11456478215E+04 -0.51593230003E+03 -0.13167894362E+04  0.18200630451E+04  0.50400001928E-02 0. -1.
</event>
<event>
 5   0  0.4436241E-08  0.3096687E+04  0.7818609E-02  0.8216648E-01
        1   -1    0    0  501    0  0.00000000000E+00  0.00000000000E+00  0.20919343557E+04  0.20919343557E+04  0.50400001928E-02 0. -1.
       -1   -1    0    0    0  501  0.00000000000E+00  0.00000000000E+00 -0.11460048809E+04  0.11460048810E+04  0.50400001928E-02 0.  1.
    10030    2    1    2    0    0  0.00000000000E+00  0.00000000000E+00  0.94592947478E+03  0.32379392367E+04  0.30966866049E+04 0.  0.
        3    1    3    3  502    0  0.92579492960E+03 -0.12115858808E+04  0.19175406803E+03  0.15368169152E+04  0.10100000352E+00 0. -1.
       -3    1    3    3    0  502 -0.92579492960E+03  0.12115858808E+04  0.75417540675E+03  0.17011223214E+04  0.10100000352E+00 0.  1.
</event>
<event>
 5   0  0.4436241E-08  0.3099802E+04  0.7818609E-02  0.8215792E-01
        1   -1    0    0  501    0  0.00000000000E+00  0.00000000000E+00  0.25848814022E+04  0.25848814022E+04  0.50400001928E-02 0.  1.
       -1   -1    0    0    0  501  0.00000000000E+00  0.00000000000E+00 -0.92932458703E+03  0.92932458704E+03  0.50400001928E-02 0. -1.
    10030    2    1    2    0    0  0.00000000000E+00  0.00000000000E+00  0.16555568151E+04  0.35142059892E+04  0.30998024722E+04 0.  0.
        3    1    3    3  502    0  0.10370702140E+04  0.32954119877E+03  0.20789919075E+04  0.23465547921E+04  0.10100000352E+00 0.  1.
       -3    1    3    3    0  502 -0.10370702140E+04 -0.32954119877E+03 -0.42343509240E+03  0.11676511971E+04  0.10100000352E+00 0. -1.
</event>
<event>
 5   0  0.1325713E-07  0.3099653E+04  0.7818609E-02  0.8215833E-01
       -2   -1    0    0    0  501  0.00000000000E+00  0.00000000000E+00  0.16286225660E+04  0.16286225660E+04  0.25500000920E-02 0.  1.
        2   -1    0    0  501    0  0.00000000000E+00  0.00000000000E+00 -0.14748431223E+04  0.14748431223E+04  0.25500000920E-02 0. -1.
    10030    2    1    2    0    0  0.00000000000E+00  0.00000000000E+00  0.15377944364E+03  0.31034656883E+04  0.30996533937E+04 0.  0.
        4    1    3    3  502    0  0.11072249519E+04  0.60325481876E+03  0.97916271241E+03  0.15964412613E+04  0.12699999809E+01 0.  1.
       -4    1    3    3    0  502 -0.11072249519E+04 -0.60325481876E+03 -0.82538326877E+03  0.15070244270E+04  0.12699999809E+01 0. -1.
</event>
<event>
 5   0  0.4517409E-08  0.3097946E+04  0.7818609E-02  0.8216302E-01
        1   -1    0    0  501    0  0.00000000000E+00  0.00000000000E+00  0.81352425745E+03  0.81352425747E+03  0.50400001928E-02 0. -1.
       -1   -1    0    0    0  501  0.00000000000E+00  0.00000000000E+00 -0.29492882463E+04  0.29492882463E+04  0.50400001928E-02 0.  1.
    10030    2    1    2    0    0  0.00000000000E+00  0.00000000000E+00 -0.21357639888E+04  0.37628125038E+04  0.30979461135E+04 0.  0.
        2    1    3    3  502    0 -0.14389637397E+04 -0.15244377414E+03 -0.39658120194E+03  0.15003774186E+04  0.25500000920E-02 0. -1.
       -2    1    3    3    0  502  0.14389637397E+04  0.15244377414E+03 -0.17391827869E+04  0.22624350852E+04  0.25500000920E-02 0.  1.
</event>
<event>
 5   0  0.4450600E-08  0.3099948E+04  0.7818609E-02  0.8215752E-01
       -1   -1    0    0    0  501  0.00000000000E+00  0.00000000000E+00  0.16636442970E+04  0.16636442970E+04  0.50400001928E-02 0. -1.
        1   -1    0    0  501    0  0.00000000000E+00  0.00000000000E+00 -0.14440704702E+04  0.14440704702E+04  0.50400001928E-02 0.  1.
    10030    2    1    2    0    0  0.00000000000E+00  0.00000000000E+00  0.21957382677E+03  0.31077147672E+04  0.30999481300E+04 0.  0.
        4    1    3    3  502    0  0.93723772201E+03 -0.10377159540E+04 -0.56058047063E+03  0.15064929558E+04  0.12699999809E+01 0.  1.
       -4    1    3    3    0  502 -0.93723772201E+03  0.10377159540E+04  0.78015429740E+03  0.16012218114E+04  0.12699999809E+01 0. -1.
</event>
<event>
 5   0  0.1325713E-07  0.3099430E+04  0.7818609E-02  0.8215894E-01
       -2   -1    0    0    0  501  0.00000000000E+00  0.00000000000E+00  0.21771000741E+04  0.21771000741E+04  0.25500000920E-02 0. -1.
        2   -1    0    0  501    0  0.00000000000E+00  0.00000000000E+00 -0.11031266727E+04  0.11031266727E+04  0.25500000920E-02 0.  1.
    10030    2    1    2    0    0  0.00000000000E+00  0.00000000000E+00  0.10739734014E+04  0.32802267468E+04  0.30994303741E+04 0.  0.
        4    1    3    3  502    0  0.19613176401E+03  0.70935776820E+03  0.19803435488E+04  0.21126803583E+04  0.12699999809E+01 0. -1.
       -4    1    3    3    0  502 -0.19613176401E+03 -0.70935776820E+03 -0.90637014748E+03  0.11675463885E+04  0.12699999809E+01 0.  1.
</event>
<event>
 5   0  0.1318916E-07  0.3100128E+04  0.7818609E-02  0.8215703E-01
        2   -1    0    0  501    0  0.00000000000E+00  0.00000000000E+00  0.15607196186E+04  0.15607196186E+04  0.25500000920E-02 0.  1.
       -2   -1    0    0    0  501  0.00000000000E+00  0.00000000000E+00 -0.15394807664E+04  0.15394807664E+04  0.25500000920E-02 0. -1.
    10030    2    1    2    0    0  0.00000000000E+00  0.00000000000E+00  0.21238852141E+02  0.31002003850E+04  0.31001276326E+04 0.  0.
        5    1    3    3  502    0 -0.75322303704E+02 -0.12406989407E+04 -0.91550620734E+03  0.15437554912E+04  0.46999998093E+01 0. -1.
       -5    1    3    3    0  502  0.75322303704E+02  0.12406989407E+04  0.93674505948E+03  0.15564448938E+04  0.46999998093E+01 0.  1.
</event>
<event>
 5   0  0.4450600E-08  0.3099911E+04  0.7818609E-02  0.8215762E-01
       -1   -1    0    0    0  501  0.00000000000E+00  0.00000000000E+00  0.12996608256E+04  0.12996608256E+04  0.50400001928E-02 0. -1.
        1   -1    0    0  501    0  0.00000000000E+00  0.00000000000E+00 -0.18484526844E+04  0.18484526844E+04  0.50400001928E-02 0.  1.
    10030    2    1    2    0    0  0.00000000000E+00  0.00000000000E+00 -0.54879185881E+03  0.31481135099E+04  0.30999106708E+04 0.  0.
        4    1    3    3  502    0 -0.43739509947E+03  0.74404382042E+02  0.12337927093E+04  0.13111432216E+04  0.12699999809E+01 0. -1.
       -4    1    3    3    0  502  0.43739509947E+03 -0.74404382042E+02 -0.17825845681E+04  0.18369702884E+04  0.12699999809E+01 0.  1.
</event>
<event>
 5   0  0.1325713E-07  0.3101283E+04  0.7818609E-02  0.8215386E-01
        2   -1    0    0  501    0  0.00000000000E+00  0.00000000000E+00  0.14957673864E+04  0.14957673864E+04  0.25500000920E-02 0.  1.
       -2   -1    0    0    0  501  0.00000000000E+00  0.00000000000E+00 -0.16075284392E+04  0.16075284392E+04  0.25500000920E-02 0. -1.
    10030    2    1    2    0    0  0.00000000000E+00  0.00000000000E+00 -0.11176105286E+03  0.31032958256E+04  0.31012827101E+04 0.  0.
        4    1    3    3  502    0 -0.21596985529E+03  0.15296020265E+04  0.78972161078E+02  0.15467913734E+04  0.12699999809E+01 0.  1.
       -4    1    3    3    0  502  0.21596985529E+03 -0.15296020265E+04 -0.19073321394E+03  0.15565044522E+04  0.12699999809E+01 0. -1.
</event>
<event>
 5   0  0.1398931E-07  0.3099174E+04  0.7818609E-02  0.8215965E-01
        2   -1    0    0  501    0  0.00000000000E+00  0.00000000000E+00  0.17188263556E+04  0.17188263556E+04  0.25500000920E-02 0.  1.
       -2   -1    0    0    0  501  0.00000000000E+00  0.00000000000E+00 -0.13970113843E+04  0.13970113843E+04  0.25500000920E-02 0. -1.
    10030    2    1    2    0    0  0.00000000000E+00  0.00000000000E+00  0.32181497127E+03  0.31158377398E+04  0.30991740747E+04 0.  0.
        3    1    3    3  502    0 -0.59236119425E+03  0.10214581018E+03 -0.12750206607E+04  0.14096110267E+04  0.10100000352E+00 0. -1.
       -3    1    3    3    0  502  0.59236119425E+03 -0.10214581018E+03  0.15968356320E+04  0.17062267132E+04  0.10100000352E+00 0.  1.
</event>
<event>
 5   0  0.4838602E-08  0.3100266E+04  0.7818609E-02  0.8215665E-01
       -1   -1    0    0    0  501  0.00000000000E+00  0.00000000000E+00  0.13813155154E+04  0.13813155154E+04  0.50400001928E-02 0.  1.
        1   -1    0    0  501    0  0.00000000000E+00  0.00000000000E+00 -0.17395820987E+04  0.17395820987E+04  0.50400001928E-02 0. -1.
    10030    2    1    2    0    0  0.00000000000E+00  0.00000000000E+00 -0.35826658337E+03  0.31208976141E+04  0.31002656294E+04 0.  0.
        5    1    3    3  502    0 -0.38886034550E+03  0.47091224634E+02 -0.16889343458E+04  0.17337679389E+04  0.46999998093E+01 0. -1.
       -5    1    3    3    0  502  0.38886034550E+03 -0.47091224634E+02  0.13306677624E+04  0.13871296751E+04  0.46999998093E+01 0.  1.
</event>
<event>
 5   0  0.1377237E-07  0.3100808E+04  0.7818609E-02  0.8215516E-01
       -2   -1    0    0    0  501  0.00000000000E+00  0.00000000000E+00  0.10566195895E+04  0.10566195895E+04  0.25500000920E-02 0.  1.
        2   -1    0    0  501    0  0.00000000000E+00  0.00000000000E+00 -0.22749456302E+04  0.22749456302E+04  0.25500000920E-02 0. -1.
    10030    2    1    2    0    0  0.00000000000E+00  0.00000000000E+00 -0.12183260406E+04  0.33315652197E+04  0.31008077128E+04 0.  0.
        2    1    3    3  502    0 -0.42828578261E+03  0.67137940448E+03 -0.20384114971E+04  0.21884470402E+04  0.25500000920E-02 0. -1.
       -2    1    3    3    0  502  0.42828578261E+03 -0.67137940448E+03  0.82008545645E+03  0.11431181795E+04  0.25500000920E-02 0.  1.
</event>
<event>
 5   0  0.4305500E-08  0.3103702E+04  0.7818609E-02  0.8214723E-01
       -3   -1    0    0    0  501  0.00000000000E+00  0.00000000000E+00  0.15421948683E+04  0.15421948716E+04  0.10100000352E+00 0. -1.
        3   -1    0    0  501    0  0.00000000000E+00  0.00000000000E+00 -0.15615670935E+04  0.15615670968E+04  0.10100000352E+00 0.  1.
    10030    2    1    2    0    0  0.00000000000E+00  0.00000000000E+00 -0.19372225229E+02  0.31037619684E+04  0.31037015116E+04 0.  0.
        4    1    3    3  502    0 -0.68100909572E+03  0.13342120094E+04 -0.41508774500E+03  0.15544113109E+04  0.12699999809E+01 0. -1.
       -4    1    3    3    0  502  0.68100909572E+03 -0.13342120094E+04  0.39571551977E+03  0.15493506575E+04  0.12699999809E+01 0.  1.
</event>
<event>
 5   0  0.1377237E-07  0.3099338E+04  0.7818609E-02  0.8215920E-01
        2   -1    0    0  501    0  0.00000000000E+00  0.00000000000E+00  0.19219212949E+04  0.19219212949E+04  0.25500000920E-02 0. -1.
       -2   -1    0    0    0  501  0.00000000000E+00  0.00000000000E+00 -0.12495171528E+04  0.12495171528E+04  0.25500000920E-02 0.  1.
    10030    2    1    2    0    0  0.00000000000E+00  0.00000000000E+00  0.67240414212E+03  0.31714384477E+04  0.30993377514E+04 0.  0.
        2    1    3    3  502    0 -0.73724415093E+03 -0.66885929783E+03 -0.87910212860E+03  0.13280520513E+04  0.25500000920E-02 0.  1.
       -2    1    3    3    0  502  0.73724415093E+03  0.66885929783E+03  0.15515062707E+04  0.18433863964E+04  0.25500000920E-02 0. -1.
</event>
<event>
 5   0  0.4436241E-08  0.3100437E+04  0.7818609E-02  0.8215618E-01
       -1   -1    0    0    0  501  0.00000000000E+00  0.00000000000E+00  0.97597731745E+03  0.97597731746E+03  0.50400001928E-02 0.  1.
        1   -1    0    0  501    0  0.00000000000E+00  0.00000000000E+00 -0.24623298034E+04  0.24623298034E+04  0.50400001928E-02 0. -1.
    10030    2    1    2    0    0  0.00000000000E+00  0.00000000000E+00 -0.14863524859E+04  0.34383071208E+04  0.31004374118E+04 0.  0.
        3    1    3    3  502    0  0.16377192989E+03 -0.82938568815E+03  0.69784095735E+03  0.10962134266E+04  0.10100000352E+00 0.  1.
       -3    1    3    3    0  502 -0.16377192989E+03  0.82938568815E+03 -0.21841934433E+04  0.23420936942E+04  0.10100000352E+00 0. -1.
</event>
<event>
 5   0  0.1398931E-07  0.3099292E+04  0.7818609E-02  0.8215932E-01
        2   -1    0    0  501    0  0.00000000000E+00  0.00000000000E+00  0.21952082519E+04  0.21952082519E+04  0.25500000920E-02 0.  1.
       -2   -1    0    0    0  501  0.00000000000E+00  0.00000000000E+00 -0.10939291604E+04  0.10939291604E+04  0.25500000920E-02 0. -1.
    10030    2    1    2    0    0  0.00000000000E+00  0.00000000000E+00  0.11012790914E+04  0.32891374123E+04  0.30992917384E+04 0.  0.
        3    1    3    3  502    0 -0.11577793536E+04 -0.92724987780E+03  0.74661335262E+02  0.14852002197E+04  0.10100000352E+00 0. -1.
       -3    1    3    3    0  502  0.11577793536E+04  0.92724987780E+03  0.10266177562E+04  0.18039371926E+04  0.10100000352E+00 0.  1.
</event>
<event>
 5   0  0.4450600E-08  0.3099115E+04  0.7818609E-02  0.8215981E-01
        1   -1    0    0  501    0  0.00000000000E+00  0.00000000000E+00  0.21789292284E+04  0.21789292284E+04  0.50400001928E-02 0.  1.
       -1   -1    0    0    0  501  0.00000000000E+00  0.00000000000E+00 -0.11019765240E+04  0.11019765240E+04  0.50400001928E-02 0. -1.
    10030    2    1    2    0    0  0.00000000000E+00  0.00000000000E+00  0.10769527044E+04  0.32809057525E+04  0.30991152655E+04 0.  0.
        4    1    3    3  502    0 -0.10459483327E+04  0.83639675887E+03 -0.28670715245E+03  0.13695875500E+04  0.12699999809E+01 0. -1.
       -4    1    3    3    0  502  0.10459483327E+04 -0.83639675887E+03  0.13636598569E+04  0.19113182025E+04  0.12699999809E+01 0.  1.
</event>
<event>
 5   0  0.4470354E-08  0.3099577E+04  0.7818609E-02  0.8215854E-01
       -1   -1    0    0    0  501  0.00000000000E+00  0.00000000000E+00  0.11212286286E+04  0.11212286286E+04  0.50400001928E-02 0. -1.
        1   -1    0    0  501    0  0.00000000000E+00  0.00000000000E+00 -0.21421535658E+04  0.21421535658E+04  0.50400001928E-02 0.  1.
    10030    2    1    2    0    0  0.00000000000E+00  0.00000000000E+00 -0.10209249372E+04  0.32633821943E+04  0.30995766838E+04 0.  0.
        1    1    3    3  502    0  0.12693646659E+04 -0.22540627426E+03  0.39507791786E+03  0.13483994975E+04  0.50400001928E-02 0. -1.
       -1    1    3    3    0  502 -0.12693646659E+04  0.22540627426E+03 -0.14160028551E+04  0.19149826969E+04  0.50400001928E-02 0.  1.
</event>
<event>
 5   0  0.1377237E-07  0.3100552E+04  0.7818609E-02  0.8215586E-01
        2   -1    0    0  501    0  0.00000000000E+00  0.00000000000E+00  0.15215241446E+04  0.15215241446E+04  0.25500000920E-02 0.  1.
       -2   -1    0    0    0  501  0.00000000000E+00  0.00000000000E+00 -0.15795713848E+04  0.15795713848E+04  0.25500000920E-02 0. -1.
    10030    2    1    2    0    0  0.00000000000E+00  0.00000000000E+00 -0.58047240223E+02  0.31010955293E+04  0.31005522089E+04 0.  0.
        2    1    3    3  502    0  0.70863526676E+03 -0.37074165550E+03  0.12992688444E+04  0.15256843862E+04  0.25500000920E-02 0.  1.
       -2    1    3    3    0  502 -0.70863526676E+03  0.37074165550E+03 -0.13573160846E+04  0.15754111431E+04  0.25500000920E-02 0. -1.
</event>
<event>
 5   0  0.4436241E-08  0.3110895E+04  0.7818609E-02  0.8212754E-01
       -1   -1    0    0    0  501  0.00000000000E+00  0.00000000000E+00  0.15572337901E+04  0.15572337901E+04  0.50400001928E-02 0. -1.
        1   -1    0    0  501    0  0.00000000000E+00  0.00000000000E+00 -0.15536636690E+04  0.15536636690E+04  0.50400001928E-02 0.  1.
    10030    2    1    2    0    0  0.00000000000E+00  0.00000000000E+00  0.35701211174E+01  0.31108974591E+04  0.31108954105E+04 0.  0.
        3    1    3    3  502    0  0.12253379799E+03  0.31124548245E+03  0.15208414488E+04  0.15571920256E+04  0.10100000352E+00 0. -1.
       -3    1    3    3    0  502 -0.12253379799E+03 -0.31124548245E+03 -0.15172713277E+04  0.15537054335E+04  0.10100000352E+00 0.  1.
</event>
<event>
 5   0  0.1325713E-07  0.3101159E+04  0.7818609E-02  0.8215420E-01
       -2   -1    0    0    0  501  0.00000000000E+00  0.00000000000E+00  0.12624207938E+04  0.12624207938E+04  0.25500000920E-02 0. -1.
        2   -1    0    0  501    0  0.00000000000E+00  0.00000000000E+00 -0.19045133932E+04  0.19045133932E+04  0.25500000920E-02 0.  1.
    10030    2    1    2    0    0  0.00000000000E+00  0.00000000000E+00 -0.64209259936E+03  0.31669341870E+04  0.31011593378E+04 0.  0.
        4    1    3    3  502    0 -0.12226900131E+03 -0.30606023156E+03  0.12262375133E+04  0.12697569161E+04  0.12699999809E+01 0. -1.
       -4    1    3    3    0  502  0.12226900131E+03  0.30606023156E+03 -0.18683301127E+04  0.18971772708E+04  0.12699999809E+01 0.  1.
</event>
<event>
 5   0  0.1398931E-07  0.3114511E+04  0.7818609E-02  0.8211767E-01
       -2   -1    0    0    0  501  0.00000000000E+00  0.00000000000E+00  0.19226405537E+04  0.19226405537E+04  0.25500000920E-02 0.  1.
        2   -1    0    0  501    0  0.00000000000E+00  0.00000000000E+00 -0.12613097915E+04  0.12613097915E+04  0.25500000920E-02 0. -1.
    10030    2    1    2    0    0  0.00000000000E+00  0.00000000000E+00  0.66133076222E+03  0.31839503452E+04  0.31145114261E+04 0.  0.
        3    1    3    3  502    0  0.11085043501E+04 -0.52900259709E+03  0.13093067423E+04  0.17952464448E+04  0.10100000352E+00 0.  1.
       -3    1    3    3    0  502 -0.11085043501E+04  0.52900259709E+03 -0.64797598007E+03  0.13887039004E+04  0.10100000352E+00 0. -1.
</event>
<event>
 5   0  0.4305500E-08  0.3098715E+04  0.7818609E-02  0.8216091E-01
        4   -1    0    0  501    0  0.00000000000E+00  0.00000000000E+00  0.14612357818E+04  0.14612363337E+04  0.12699999809E+01 0. -1.
       -4   -1    0    0    0  501  0.00000000000E+00  0.00000000000E+00 -0.16427919227E+04  0.16427924136E+04  0.12699999809E+01 0.  1.
    10030    2    1    2    0    0  0.00000000000E+00  0.00000000000E+00 -0.18155614097E+03  0.31040287473E+04  0.30987145451E+04 0.  0.
        5    1    3    3  502    0 -0.60831052832E+03  0.62328567018E+03  0.11928090098E+04  0.14769367452E+04  0.46999998093E+01 0. -1.
       -5    1    3    3    0  502  0.60831052832E+03 -0.62328567018E+03 -0.13743651508E+04  0.16270920021E+04  0.46999998093E+01 0.  1.
</event>
<event>
 5   0  0.4450600E-08  0.3100350E+04  0.7818609E-02  0.8215642E-01
       -1   -1    0    0    0  501  0.00000000000E+00  0.00000000000E+00  0.18859415282E+04  0.18859415282E+04  0.50400001928E-02 0.  1.
        1   -1    0    0  501    0  0.00000000000E+00  0.00000000000E+00 -0.12741872589E+04  0.12741872589E+04  0.50400001928E-02 0. -1.
    10030    2    1    2    0    0  0.00000000000E+00  0.00000000000E+00  0.61175426930E+03  0.31601287871E+04  0.31003500875E+04 0.  0.
        4    1    3    3  502    0 -0.62878485929E+03  0.13064899149E+04  0.86486231946E+03  0.16882756711E+04  0.12699999809E+01 0.  1.
       -4    1    3    3    0  502  0.62878485929E+03 -0.13064899149E+04 -0.25310805016E+03  0.14718531160E+04  0.12699999809E+01 0. -1.
</event>
<event>
 5   0  0.4436241E-08  0.3096962E+04  0.7818609E-02  0.8216572E-01
       -1   -1    0    0    0  501  0.00000000000E+00  0.00000000000E+00  0.11660731053E+04  0.11660731053E+04  0.50400001928E-02 0. -1.
        1   -1    0    0  501    0  0.00000000000E+00  0.00000000000E+00 -0.20562975828E+04  0.20562975829E+04  0.50400001928E-02 0.  1.
    10030    2    1    2    0    0  0.00000000000E+00  0.00000000000E+00 -0.89022447755E+03  0.32223706882E+04  0.30969619358E+04 0.  0.
        3    1    3    3  502    0 -0.68658803637E+03 -0.12400368159E+04  0.20359129686E+03  0.14319720189E+04  0.10100000352E+00 0.  1.
       -3    1    3    3    0  502  0.68658803637E+03  0.12400368159E+04 -0.10938157744E+04  0.17903986693E+04  0.10100000352E+00 0. -1.
</event>
<event>
 5   0  0.4838602E-08  0.3099968E+04  0.7818609E-02  0.8215747E-01
       -1   -1    0    0    0  501  0.00000000000E+00  0.00000000000E+00  0.17328272931E+04  0.17328272931E+04  0.50400001928E-02 0.  1.
        1   -1    0    0  501    0  0.00000000000E+00  0.00000000000E+00 -0.13864340355E+04  0.13864340356E+04  0.50400001928E-02 0. -1.
    10030    2    1    2    0    0  0.00000000000E+00  0.00000000000E+00  0.34639325754E+03  0.31192613286E+04  0.30999682172E+04 0.  0.
        5    1    3    3  502    0 -0.10163772981E+04 -0.32003996970E+03 -0.95941089641E+03  0.14338548575E+04  0.46999998093E+01 0. -1.
       -5    1    3    3    0  502  0.10163772981E+04  0.32003996970E+03  0.13058041539E+04  0.16854064711E+04  0.46999998093E+01 0.  1.
</event>
<event>
 5   0  0.1325713E-07  0.3096881E+04  0.7818609E-02  0.8216594E-01
       -2   -1    0    0    0  501  0.00000000000E+00  0.00000000000E+00  0.10445595282E+04  0.10445595282E+04  0.25500000920E-02 0. -1.
        2   -1    0    0  501    0  0.00000000000E+00  0.00000000000E+00 -0.22953872586E+04  0.22953872586E+04  0.25500000920E-02 0.  1.
    10030    2    1    2    0    0  0.00000000000E+00  0.00000000000E+00 -0.12508277304E+04  0.33399467868E+04  0.30968814196E+04 0.  0.
        4    1    3    3  502    0  0.40978555532E+03  0.65439416581E+02 -0.22342985452E+04  0.22725092124E+04  0.12699999809E+01 0.  1.
       -4    1    3    3    0  502 -0.40978555532E+03 -0.65439416581E+02  0.98347081480E+03  0.10674375743E+04  0.12699999809E+01 0. -1.
</event>
<event>
 5   0  0.1329777E-07  0.3101646E+04  0.7818609E-02  0.8215286E-01
       -2   -1    0    0    0  501  0.00000000000E+00  0.00000000000E+00  0.83608202348E+03  0.83608202348E+03  0.25500000920E-02 0.  1.
        2   -1    0    0  501    0  0.00000000000E+00  0.00000000000E+00 -0.28765739517E+04  0.28765739517E+04  0.25500000920E-02 0. -1.
    10030    2    1    2    0    0  0.00000000000E+00  0.00000000000E+00 -0.20404919282E+04  0.37126559751E+04  0.31016458664E+04 0.  0.
        1    1    3    3  502    0 -0.19689802875E+02  0.64441707822E+03 -0.27085573167E+04  0.27842312758E+04  0.50400001928E-02 0. -1.
       -1    1    3    3    0  502  0.19689802875E+02 -0.64441707822E+03  0.66806538853E+03  0.92842469937E+03  0.50400001928E-02 0.  1.
</event>
<event>
 5   0  0.1318916E-07  0.3104456E+04  0.7818609E-02  0.8214516E-01
       -2   -1    0    0    0  501  0.00000000000E+00  0.00000000000E+00  0.14958365847E+04  0.14958365847E+04  0.25500000920E-02 0. -1.
        2   -1    0    0  501    0  0.00000000000E+00  0.00000000000E+00 -0.16107450476E+04  0.16107450476E+04  0.25500000920E-02 0.  1.
    10030    2    1    2    0    0  0.00000000000E+00  0.00000000000E+00 -0.11490846298E+03  0.31065816323E+04  0.31044557467E+04 0.  0.
        5    1    3    3  502    0 -0.86427777307E+03 -0.81795041089E+03 -0.10548163993E+04  0.15901819612E+04  0.46999998093E+01 0.  1.
       -5    1    3    3    0  502  0.86427777307E+03  0.81795041089E+03  0.93990793628E+03  0.15163996711E+04  0.46999998093E+01 0. -1.
</event>
<event>
 5   0  0.1325713E-07  0.3097016E+04  0.7818609E-02  0.8216557E-01
        2   -1    0    0  501    0  0.00000000000E+00  0.00000000000E+00  0.15537759502E+04  0.15537759502E+04  0.25500000920E-02 0.  1.
       -2   -1    0    0    0  501  0.00000000000E+00  0.00000000000E+00 -0.15432583370E+04  0.15432583370E+04  0.25500000920E-02 0. -1.
    10030    2    1    2    0    0  0.00000000000E+00  0.00000000000E+00  0.10517613159E+02  0.30970342872E+04  0.30970164281E+04 0.  0.
        4    1    3    3  502    0  0.57604768948E+02  0.10655841549E+04  0.11273562607E+04  0.15523278172E+04  0.12699999809E+01 0.  1.
       -4    1    3    3    0  502 -0.57604768948E+02 -0.10655841549E+04 -0.11168386476E+04  0.15447064699E+04  0.12699999809E+01 0. -1.
</event>
<event>
 5   0  0.1377237E-07  0.3102347E+04  0.7818609E-02  0.8215094E-01
        2   -1    0    0  501    0  0.00000000000E+00  0.00000000000E+00  0.18355062003E+04  0.18355062003E+04  0.25500000920E-02 0. -1.
       -2   -1    0    0    0  501  0.00000000000E+00  0.00000000000E+00 -0.13108856946E+04  0.13108856946E+04  0.25500000920E-02 0.  1.
    10030    2    1    2    0    0  0.00000000000E+00  0.00000000000E+00  0.52462050576E+03  0.31463918949E+04  0.31023467378E+04 0.  0.
        2    1    3    3  502    0 -0.34240178561E+03  0.60366660233E+03 -0.11446437848E+04  0.13386044015E+04  0.25500000920E-02 0.  1.
       -2    1    3    3    0  502  0.34240178561E+03 -0.60366660233E+03  0.16692642906E+04  0.18077874934E+04  0.25500000920E-02 0. -1.
</event>
<event>
 5   0  0.1318916E-07  0.3099873E+04  0.7818609E-02  0.8215773E-01
        2   -1    0    0  501    0  0.00000000000E+00  0.00000000000E+00  0.18391268464E+04  0.18391268464E+04  0.25500000920E-02 0. -1.
       -2   -1    0    0    0  501  0.00000000000E+00  0.00000000000E+00 -0.13062191131E+04  0.13062191131E+04  0.25500000920E-02 0.  1.
    10030    2    1    2    0    0  0.00000000000E+00  0.00000000000E+00  0.53290773329E+03  0.31453459595E+04  0.30998726672E+04 0.  0.
        5    1    3    3  502    0  0.81797822197E+03 -0.11657479307E+04 -0.35425842958E+03  0.14675073201E+04  0.46999998093E+01 0. -1.
       -5    1    3    3    0  502 -0.81797822197E+03  0.11657479307E+04  0.88716616287E+03  0.16778386394E+04  0.46999998093E+01 0.  1.
</event>
<event>
 5   0  0.1318916E-07  0.3093170E+04  0.7818609E-02  0.8217615E-01
       -2   -1    0    0    0  501  0.00000000000E+00  0.00000000000E+00  0.12627040710E+04  0.12627040710E+04  0.25500000920E-02 0.  1.
        2   -1    0    0  501    0  0.00000000000E+00  0.00000000000E+00 -0.18942885302E+04  0.18942885302E+04  0.25500000920E-02 0. -1.
    10030    2    1    2    0    0  0.00000000000E+00  0.00000000000E+00 -0.63158445920E+03  0.31569926012E+04  0.30931704374E+04 0.  0.
        5    1    3    3  502    0 -0.10955990919E+04 -0.29410998554E+02 -0.14294997192E+04  0.18013033931E+04  0.46999998093E+01 0. -1.
       -5    1    3    3    0  502  0.10955990919E+04  0.29410998554E+02  0.79791525996E+03  0.13556892081E+04  0.46999998093E+01 0.  1.
</event>
<event>
 5   0  0.4517409E-08  0.3099324E+04  0.7818609E-02  0.8215923E-01
        1   -1    0    0  501    0  0.00000000000E+00  0.00000000000E+00  0.86552772438E+03  0.86552772439E+03  0.50400001928E-02 0.  1.
       -1   -1    0    0    0  501  0.00000000000E+00  0.00000000000E+00 -0.27745535794E+04  0.27745535795E+04  0.50400001928E-02 0. -1.
    10030    2    1    2    0    0  0.00000000000E+00  0.00000000000E+00 -0.19090258551E+04  0.36400813038E+04  0.30993244721E+04 0.  0.
        2    1    3    3  502    0 -0.69925297097E+03  0.13188312979E+04 -0.14432731293E+04  0.20763689545E+04  0.25500000920E-02 0. -1.
       -2    1    3    3    0  502  0.69925297097E+03 -0.13188312979E+04 -0.46575272581E+03  0.15637123493E+04  0.25500000920E-02 0.  1.
</event>
<event>
 5   0  0.4517409E-08  0.3087941E+04  0.7818609E-02  0.8219055E-01
        1   -1    0    0  501    0  0.00000000000E+00  0.00000000000E+00  0.13550924322E+04  0.13550924322E+04  0.50400001928E-02 0.  1.
       -1   -1    0    0    0  501  0.00000000000E+00  0.00000000000E+00 -0.17591747378E+04  0.17591747378E+04  0.50400001928E-02 0. -1.
    10030    2    1    2    0    0  0.00000000000E+00  0.00000000000E+00 -0.40408230559E+03  0.31142671700E+04  0.30879406562E+04 0.  0.
        2    1    3    3  502    0 -0.65422102055E+03  0.15291180386E+02  0.12083109067E+04  0.13741376245E+04  0.25500000920E-02 0.  1.
       -2    1    3    3    0  502  0.65422102055E+03 -0.15291180386E+02 -0.16123932123E+04  0.17401295454E+04  0.25500000920E-02 0. -1.
</event>
<event>
 5   0  0.4517409E-08  0.3104038E+04  0.7818609E-02  0.8214631E-01
       -1   -1    0    0    0  501  0.00000000000E+00  0.00000000000E+00  0.10274521776E+04  0.10274521777E+04  0.50400001928E-02 0. -1.
        1   -1    0    0  501    0  0.00000000000E+00  0.00000000000E+00 -0.23444039295E+04  0.23444039295E+04  0.50400001928E-02 0.  1.
    10030    2    1    2    0    0  0.00000000000E+00  0.00000000000E+00 -0.13169517518E+04  0.33718561071E+04  0.31040379654E+04 0.  0.
        2    1    3    3  502    0  0.14890358941E+04 -0.43736568208E+03 -0.64142822587E+03  0.16792697230E+04  0.25500000920E-02 0. -1.
       -2    1    3    3    0  502 -0.14890358941E+04  0.43736568208E+03 -0.67552352595E+03  0.16925863841E+04  0.25500000920E-02 0.  1.
</event>
<event>
 5   0  0.4838602E-08  0.3099860E+04  0.7818609E-02  0.8215776E-01
       -1   -1    0    0    0  501  0.00000000000E+00  0.00000000000E+00  0.13296726794E+04  0.13296726794E+04  0.50400001928E-02 0.  1.
        1   -1    0    0  501    0  0.00000000000E+00  0.00000000000E+00 -0.18066723185E+04  0.18066723185E+04  0.50400001928E-02 0. -1.
    10030    2    1    2    0    0  0.00000000000E+00  0.00000000000E+00 -0.47699963902E+03  0.31363449979E+04  0.30998598824E+04 0.  0.
        5    1    3    3  502    0  0.64942129675E+03 -0.14043096966E+04 -0.14562072941E+03  0.15540467276E+04  0.46999998093E+01 0. -1.
       -5    1    3    3    0  502 -0.64942129675E+03  0.14043096966E+04 -0.33137890961E+03  0.15822982703E+04  0.46999998093E+01 0.  1.
</event>
<event>
 5   0  0.1318916E-07  0.3101202E+04  0.7818609E-02  0.8215408E-01
       -2   -1    0    0    0  501  0.00000000000E+00  0.00000000000E+00  0.86452742179E+03  0.86452742180E+03  0.25500000920E-02 0. -1.
        2   -1    0    0  501    0  0.00000000000E+00  0.00000000000E+00 -0.27811303205E+04  0.27811303205E+04  0.25500000920E-02 0.  1.
    10030    2    1    2    0    0  0.00000000000E+00  0.00000000000E+00 -0.19166028987E+04  0.36456577423E+04  0.31012019771E+04 0.  0.
        5    1    3    3  502    0 -0.10557385791E+04  0.10371417787E+04 -0.41436468436E+03  0.15368692846E+04  0.46999998093E+01 0. -1.
       -5    1    3    3    0  502  0.10557385791E+04 -0.10371417787E+04 -0.15022382143E+04  0.21087884576E+04  0.46999998093E+01 0.  1.
</event>
<event>
 5   0  0.4470354E-08  0.3100332E+04  0.7818609E-02  0.8215647E-01
       -1   -1    0    0    0  501  0.00000000000E+00  0.00000000000E+00  0.12667955684E+04  0.12667955684E+04  0.50400001928E-02 0. -1.
        1   -1    0    0  501    0  0.00000000000E+00  0.00000000000E+00 -0.18969233364E+04  0.18969233364E+04  0.50400001928E-02 0.  1.
    10030    2    1    2    0    0  0.00000000000E+00  0.00000000000E+00 -0.63012776803E+03  0.31637189048E+04  0.31003316443E+04 0.  0.
        1    1    3    3  502    0  0.85217407714E+03 -0.27064075661E+03 -0.16072744614E+04  0.18392330660E+04  0.50400001928E-02 0.  1.
       -1    1    3    3    0  502 -0.85217407714E+03  0.27064075661E+03  0.97714669336E+03  0.13244858388E+04  0.50400001928E-02 0. -1.
</event>
<event>
 5   0  0.4517409E-08  0.3100519E+04  0.7818609E-02  0.8215595E-01
        1   -1    0    0  501    0  0.00000000000E+00  0.00000000000E+00  0.15845900293E+04  0.15845900293E+04  0.50400001928E-02 0.  1.
       -1   -1    0    0    0  501  0.00000000000E+00  0.00000000000E+00 -0.15166729620E+04  0.15166729620E+04  0.50400001928E-02 0. -1.
    10030    2    1    2    0    0  0.00000000000E+00  0.00000000000E+00  0.67917067322E+02  0.31012629914E+04  0.31005192168E+04 0.  0.
        2    1    3    3  502    0  0.11530312943E+04 -0.93033607948E+03  0.49046528618E+03  0.15606289064E+04  0.25500000920E-02 0. -1.
       -2    1    3    3    0  502 -0.11530312943E+04  0.93033607948E+03 -0.42254821886E+03  0.15406340850E+04  0.25500000920E-02 0.  1.
</event>
<event>
 5   0  0.4838602E-08  0.3099524E+04  0.7818609E-02  0.8215869E-01
       -1   -1    0    0    0  501  0.00000000000E+00  0.00000000000E+00  0.16344357954E+04  0.16344357954E+04  0.50400001928E-02 0.  1.
        1   -1    0    0  501    0  0.00000000000E+00  0.00000000000E+00 -0.14694744934E+04  0.14694744934E+04  0.50400001928E-02 0. -1.
    10030    2    1    2    0    0  0.00000000000E+00  0.00000000000E+00  0.16496130199E+03  0.31039102888E+04  0.30995236488E+04 0.  0.
        5    1    3    3  502    0  0.66000252705E+02  0.77746729558E+03 -0.12584170755E+04  0.14806914112E+04  0.46999998093E+01 0. -1.
       -5    1    3    3    0  502 -0.66000252705E+02 -0.77746729558E+03  0.14233783775E+04  0.16232188776E+04  0.46999998093E+01 0.  1.
</event>
<event>
 5   0  0.1377237E-07  0.3100562E+04  0.7818609E-02  0.8215584E-01
       -2   -1    0    0    0  501  0.00000000000E+00  0.00000000000E+00  0.18193293149E+04  0.18193293149E+04  0.25500000920E-02 0.  1.
        2   -1    0    0  501    0  0.00000000000E+00  0.00000000000E+00 -0.13210202704E+04  0.13210202704E+04  0.25500000920E-02 0. -1.
    10030    2    1    2    0    0  0.00000000000E+00  0.00000000000E+00  0.49830904451E+03  0.31403495853E+04  0.31005618223E+04 0.  0.
        2    1    3    3  502    0  0.25057846979E+03  0.81178930365E+03 -0.10642433201E+04  0.13617655038E+04  0.25500000920E-02 0.  1.
       -2    1    3    3    0  502 -0.25057846979E+03 -0.81178930365E+03  0.15625523646E+04  0.17785840815E+04  0.25500000920E-02 0. -1.
</event>
<event>
 5   0  0.1325713E-07  0.3095528E+04  0.7818609E-02  0.8216966E-01
       -2   -1    0    0    0  501  0.00000000000E+00  0.00000000000E+00  0.13996378494E+04  0.13996378494E+04  0.25500000920E-02 0.  1.
        2   -1    0    0  501    0  0.00000000000E+00  0.00000000000E+00 -0.17115663614E+04  0.17115663614E+04  0.25500000920E-02 0. -1.
    10030    2    1    2    0    0  0.00000000000E+00  0.00000000000E+00 -0.31192851197E+03  0.31112042108E+04  0.30955277813E+04 0.  0.
        4    1    3    3  502    0  0.26145270200E+03  0.72250358927E+03  0.11944181615E+04  0.14202131211E+04  0.12699999809E+01 0.  1.
       -4    1    3    3    0  502 -0.26145270200E+03 -0.72250358927E+03 -0.15063466735E+04  0.16909910897E+04  0.12699999809E+01 0. -1.
</event>
<event>
 5   0  0.4436241E-08  0.3099857E+04  0.7818609E-02  0.8215777E-01
        1   -1    0    0  501    0  0.00000000000E+00  0.00000000000E+00  0.26520442967E+04  0.26520442967E+04  0.50400001928E-02 0. -1.
       -1   -1    0    0    0  501  0.00000000000E+00  0.00000000000E+00 -0.90582111200E+03  0.90582111202E+03  0.50400001928E-02 0.  1.
    10030    2    1    2    0    0  0.00000000000E+00  0.00000000000E+00  0.17462231847E+04  0.35578654087E+04  0.30998565863E+04 0.  0.
        3    1    3    3  502    0 -0.13094164359E+04  0.48610190417E+03  0.16442531308E+04  0.21574139223E+04  0.10100000352E+00 0. -1.
       -3    1    3    3    0  502  0.13094164359E+04 -0.48610190417E+03  0.10197005388E+03  0.14004514864E+04  0.10100000352E+00 0.  1.
</event>
<event>
 5   0  0.1377237E-07  0.3099900E+04  0.7818609E-02  0.8215765E-01
        2   -1    0    0  501    0  0.00000000000E+00  0.00000000000E+00  0.23279801111E+04  0.23279801111E+04  0.25500000920E-02 0.  1.
       -2   -1    0    0    0  501  0.00000000000E+00  0.00000000000E+00 -0.10319440442E+04  0.10319440442E+04  0.25500000920E-02 0. -1.
    10030    2    1    2    0    0  0.00000000000E+00  0.00000000000E+00  0.12960360668E+04  0.33599241553E+04  0.30999001344E+04 0.  0.
        2    1    3    3  502    0 -0.56902802805E+03  0.11344214657E+04  0.16123925048E+04  0.20519538367E+04  0.25500000920E-02 0.  1.
       -2    1    3    3    0  502  0.56902802805E+03 -0.11344214657E+04 -0.31635643797E+03  0.13079703186E+04  0.25500000920E-02 0. -1.
</event>
<event>
 5   0  0.4838602E-08  0.3098813E+04  0.7818609E-02  0.8216064E-01
        1   -1    0    0  501    0  0.00000000000E+00  0.00000000000E+00  0.14854241414E+04  0.14854241414E+04  0.50400001928E-02 0. -1.
       -1   -1    0    0    0  501  0.00000000000E+00  0.00000000000E+00 -0.16161447669E+04  0.16161447669E+04  0.50400001928E-02 0.  1.
    10030    2    1    2    0    0  0.00000000000E+00  0.00000000000E+00 -0.13072062551E+03  0.31015689083E+04  0.30988129681E+04 0.  0.
        5    1    3    3  502    0  0.51108349361E+01 -0.94126870417E+03 -0.12971560514E+04  0.16027004729E+04  0.46999998093E+01 0.  1.
       -5    1    3    3    0  502 -0.51108349361E+01  0.94126870417E+03  0.11664354259E+04  0.14988684355E+04  0.46999998093E+01 0. -1.
</event>
<event>
 5   0  0.4450600E-08  0.3100162E+04  0.7818609E-02  0.8215693E-01
        1   -1    0    0  501    0  0.00000000000E+00  0.00000000000E+00  0.16872344637E+04  0.16872344638E+04  0.50400001928E-02 0. -1.
       -1   -1    0    0    0  501  0.00000000000E+00  0.00000000000E+00 -0.14240768143E+04  0.14240768143E+04  0.50400001928E-02 0.  1.
    10030    2    1    2    0    0  0.00000000000E+00  0.00000000000E+00  0.26315764944E+03  0.31113112781E+04  0.31001622410E+04 0.  0.
        4    1    3    3  502    0 -0.86976233151E+03  0.11131930540E+03  0.14144054693E+04  0.16641583295E+04  0.12699999809E+01 0. -1.
       -4    1    3    3    0  502  0.86976233151E+03 -0.11131930540E+03 -0.11512478198E+04  0.14471529486E+04  0.12699999809E+01 0.  1.
</event>
<event>
 5   0  0.4450600E-08  0.3101957E+04  0.7818609E-02  0.8215201E-01
        1   -1    0    0  501    0  0.00000000000E+00  0.00000000000E+00  0.11223727731E+04  0.11223727731E+04  0.50400001928E-02 0. -1.
       -1   -1    0    0    0  501  0.00000000000E+00  0.00000000000E+00 -0.21432583038E+04  0.21432583038E+04  0.50400001928E-02 0.  1.
    10030    2    1    2    0    0  0.00000000000E+00  0.00000000000E+00 -0.10208855307E+04  0.32656310769E+04  0.31019572955E+04 0.  0.
        4    1    3    3  502    0 -0.22810091942E+02  0.15154968421E+04 -0.85686821501E+03  0.17411133592E+04  0.12699999809E+01 0.  1.
       -4    1    3    3    0  502  0.22810091942E+02 -0.15154968421E+04 -0.16401731573E+03  0.15245177177E+04  0.12699999809E+01 0. -1.
</event>
<event>
 5   0  0.4838602E-08  0.3098840E+04  0.7818609E-02  0.8216056E-01
        1   -1    0    0  501    0  0.00000000000E+00  0.00000000000E+00  0.14558378576E+04  0.14558378576E+04  0.50400001928E-02 0. -1.
       -1   -1    0    0    0  501  0.00000000000E+00  0.00000000000E+00 -0.16490172810E+04  0.16490172810E+04  0.50400001928E-02 0.  1.
    10030    2    1    2    0    0  0.00000000000E+00  0.00000000000E+00 -0.19317942344E+03  0.31048551386E+04  0.30988396445E+04 0.  0.
        5    1    3    3  502    0 -0.25204783858E+02 -0.32472381249E+03 -0.16143235806E+04  0.16468586911E+04  0.46999998093E+01 0.  1.
       -5    1    3    3    0  502  0.25204783858E+02  0.32472381249E+03  0.14211441572E+04  0.14579964475E+04  0.46999998093E+01 0. -1.
</event>
<event>
 5   0  0.4470354E-08  0.3102129E+04  0.7818609E-02  0.8215154E-01
       -1   -1    0    0    0  501  0.00000000000E+00  0.00000000000E+00  0.10969361376E+04  0.10969361376E+04  0.50400001928E-02 0.  1.
        1   -1    0    0  501    0  0.00000000000E+00  0.00000000000E+00 -0.21932003308E+04  0.21932003308E+04  0.50400001928E-02 0. -1.
    10030    2    1    2    0    0  0.00000000000E+00  0.00000000000E+00 -0.10962641932E+04  0.32901364684E+04  0.31021287528E+04 0.  0.
        1    1    3    3  502    0 -0.29195727744E+03  0.59808631704E+03 -0.20340613626E+04  0.21401756753E+04  0.50400001928E-02 0. -1.
       -1    1    3    3    0  502  0.29195727744E+03 -0.59808631704E+03  0.93779716942E+03  0.11499607930E+04  0.50400001928E-02 0.  1.
</event>
<event>
 5   0  0.1398931E-07  0.3100387E+04  0.7818609E-02  0.8215632E-01
        2   -1    0    0  501    0  0.00000000000E+00  0.00000000000E+00  0.94615258445E+03  0.94615258446E+03  0.25500000920E-02 0. -1.
       -2   -1    0    0    0  501  0.00000000000E+00  0.00000000000E+00 -0.25398650051E+04  0.25398650051E+04  0.25500000920E-02 0.  1.
    10030    2    1    2    0    0  0.00000000000E+00  0.00000000000E+00 -0.15937124207E+04  0.34860175896E+04  0.31003869686E+04 0.  0.
        3    1    3    3  502    0 -0.52200946051E+03  0.13727586040E+04 -0.23902274631E+03  0.14879825084E+04  0.10100000352E+00 0. -1.
       -3    1    3    3    0  502  0.52200946051E+03 -0.13727586040E+04 -0.13546896744E+04  0.19980350812E+04  0.10100000352E+00 0.  1.
</event>
<event>
 5   0  0.1398931E-07  0.3099740E+04  0.7818609E-02  0.8215809E-01
       -2   -1    0    0    0  501  0.00000000000E+00  0.00000000000E+00  0.14509324309E+04  0.14509324309E+04  0.25500000920E-02 0. -1.
        2   -1    0    0  501    0  0.00000000000E+00  0.00000000000E+00 -0.16555544315E+04  0.16555544315E+04  0.25500000920E-02 0.  1.
    10030    2    1    2    0    0  0.00000000000E+00  0.00000000000E+00 -0.20462200060E+03  0.31064868625E+04  0.30997403865E+04 0.  0.
        3    1    3    3  502    0  0.44961096519E+03 -0.26724075668E+03 -0.15644345887E+04  0.16495524346E+04  0.10100000352E+00 0.  1.
       -3    1    3    3    0  502 -0.44961096519E+03  0.26724075668E+03  0.13598125881E+04  0.14569344278E+04  0.10100000352E+00 0. -1.
</event>
<event>
 5   0  0.4838602E-08  0.3108067E+04  0.7818609E-02  0.8213528E-01
        1   -1    0    0  501    0  0.00000000000E+00  0.00000000000E+00  0.23878916115E+04  0.23878916115E+04  0.50400001928E-02 0.  1.
       -1   -1    0    0    0  501  0.00000000000E+00  0.00000000000E+00 -0.10113607299E+04  0.10113607299E+04  0.50400001928E-02 0. -1.
    10030    2    1    2    0    0  0.00000000000E+00  0.00000000000E+00  0.13765308816E+04  0.33992523414E+04  0.31080667967E+04 0.  0.
        5    1    3    3  502    0 -0.53649975214E+03  0.14577706267E+04  0.63849932733E+03  0.16794733297E+04  0.46999998093E+01 0.  1.
       -5    1    3    3    0  502  0.53649975214E+03 -0.14577706267E+04  0.73803155424E+03  0.17197790117E+04  0.46999998093E+01 0. -1.
</event>
<event>
 5   0  0.4436241E-08  0.3100097E+04  0.7818609E-02  0.8215711E-01
        1   -1    0    0  501    0  0.00000000000E+00  0.00000000000E+00  0.11216893883E+04  0.11216893884E+04  0.50400001928E-02 0.  1.
       -1   -1    0    0    0  501  0.00000000000E+00  0.00000000000E+00 -0.21419927704E+04  0.21419927704E+04  0.50400001928E-02 0. -1.
    10030    2    1    2    0    0  0.00000000000E+00  0.00000000000E+00 -0.10203033821E+04  0.32636821588E+04  0.31000971343E+04 0.  0.
        3    1    3    3  502    0 -0.37324959881E+03 -0.40395352314E+03 -0.20358140101E+04  0.21087988064E+04  0.10100000352E+00 0. -1.
       -3    1    3    3    0  502  0.37324959881E+03  0.40395352314E+03  0.10155106280E+04  0.11548833524E+04  0.10100000352E+00 0.  1.
</event>
<event>
 5   0  0.4436241E-08  0.3100168E+04  0.7818609E-02  0.8215692E-01
        1   -1    0    0  501    0  0.00000000000E+00  0.00000000000E+00  0.14337872235E+04  0.14337872235E+04  0.50400001928E-02 0. -1.
       -1   -1    0    0    0  501  0.00000000000E+00  0.00000000000E+00 -0.16758134726E+04  0.16758134727E+04  0.50400001928E-02 0.  1.
    10030    2    1    2    0    0  0.00000000000E+00  0.00000000000E+00 -0.24202624916E+03  0.31096006962E+04  0.31001677026E+04 0.  0.
        3    1    3    3  502    0 -0.60953358442E+03 -0.35874997158E+03 -0.15045313194E+04  0.16624822507E+04  0.10100000352E+00 0.  1.
       -3    1    3    3    0  502  0.60953358442E+03  0.35874997158E+03  0.12625050702E+04  0.14471184455E+04  0.10100000352E+00 0. -1.
</event>
<event>
 5   0  0.1377237E-07  0.3097236E+04  0.7818609E-02  0.8216497E-01
        2   -1    0    0  501    0  0.00000000000E+00  0.00000000000E+00  0.16846875692E+04  0.16846875692E+04  0.25500000920E-02 0.  1.
       -2   -1    0    0    0  501  0.00000000000E+00  0.00000000000E+00 -0.14235389610E+04  0.14235389610E+04  0.25500000920E-02 0. -1.
    10030    2    1    2    0    0  0.00000000000E+00  0.00000000000E+00  0.26114860819E+03  0.31082265303E+04  0.30972364404E+04 0.  0.
        2    1    3    3  502    0  0.15854483211E+02 -0.78415131402E+03 -0.12094817195E+04  0.14415237347E+04  0.25500000920E-02 0. -1.
       -2    1    3    3    0  502 -0.15854483211E+02  0.78415131402E+03  0.14706303277E+04  0.16667027955E+04  0.25500000920E-02 0.  1.
</event>
<event>
 5   0  0.1377237E-07  0.3102727E+04  0.7818609E-02  0.8214990E-01
        2   -1    0    0  501    0  0.00000000000E+00  0.00000000000E+00  0.19053548862E+04  0.19053548862E+04  0.25500000920E-02 0. -1.
       -2   -1    0    0    0  501  0.00000000000E+00  0.00000000000E+00 -0.12631393045E+04  0.12631393045E+04  0.25500000920E-02 0.  1.
    10030    2    1    2    0    0  0.00000000000E+00  0.00000000000E+00  0.64221558167E+03  0.31684941907E+04  0.31027269592E+04 0.  0.
        2    1    3    3  502    0  0.55876443325E+03 -0.10607921284E+04 -0.68425546205E+03  0.13804720819E+04  0.25500000920E-02 0.  1.
       -2    1    3    3    0  502 -0.55876443325E+03  0.10607921284E+04  0.13264710437E+04  0.17880221088E+04  0.25500000920E-02 0. -1.
</event>
<event>
 5   0  0.4450600E-08  0.3100749E+04  0.7818609E-02  0.8215533E-01
        1   -1    0    0  501    0  0.00000000000E+00  0.00000000000E+00  0.22594755231E+04  0.22594755232E+04  0.50400001928E-02 0.  1.
       -1   -1    0    0    0  501  0.00000000000E+00  0.00000000000E+00 -0.10638134286E+04  0.10638134286E+04  0.50400001928E-02 0. -1.
    10030    2    1    2    0    0  0.00000000000E+00  0.00000000000E+00  0.11956620946E+04  0.33232889517E+04  0.31007485568E+04 0.  0.
        4    1    3    3  502    0 -0.72174196226E+03  0.12117241695E+04 -0.92168939296E+02  0.14133943715E+04  0.12699999809E+01 0.  1.
       -4    1    3    3    0  502  0.72174196226E+03 -0.12117241695E+04  0.12878310339E+04  0.19098945803E+04  0.12699999809E+01 0. -1.
</event>
<event>
 5   0  0.1329777E-07  0.3099384E+04  0.7818609E-02  0.8215907E-01
        2   -1    0    0  501    0  0.00000000000E+00  0.00000000000E+00  0.25362772825E+04  0.25362772825E+04  0.25500000920E-02 0. -1.
       -2   -1    0    0    0  501  0.00000000000E+00  0.00000000000E+00 -0.94687774844E+03  0.94687774844E+03  0.25500000920E-02 0.  1.
    10030    2    1    2    0    0  0.00000000000E+00  0.00000000000E+00  0.15893995340E+04  0.34831550309E+04  0.30993835017E+04 0.  0.
        1    1    3    3  502    0  0.84289916864E+03  0.47424296037E+03 -0.56608062347E+03  0.11206394006E+04  0.50400001928E-02 0.  1.
       -1    1    3    3    0  502 -0.84289916864E+03 -0.47424296037E+03  0.21554801575E+04  0.23625156303E+04  0.50400001928E-02 0. -1.
</event>
<event>
 5   0  0.4305500E-08  0.3094256E+04  0.7818609E-02  0.8217316E-01
       -4   -1    0    0    0  501  0.00000000000E+00  0.00000000000E+00  0.11705865719E+04  0.11705872608E+04  0.12699999809E+01 0. -1.
        4   -1    0    0  501    0  0.00000000000E+00  0.00000000000E+00 -0.20447902041E+04  0.20447905985E+04  0.12699999809E+01 0.  1.
    10030    2    1    2    0    0  0.00000000000E+00  0.00000000000E+00 -0.87420363223E+03  0.32153778593E+04  0.30942564191E+04 0.  0.
        5    1    3    3  502    0  0.43274531501E+01  0.15338824370E+04 -0.22728336690E+03  0.15506430525E+04  0.46999998093E+01 0.  1.
       -5    1    3    3    0  502 -0.43274531501E+01 -0.15338824370E+04 -0.64692026533E+03  0.16647348068E+04  0.46999998093E+01 0. -1.
</event>
<event>
 5   0  0.4305500E-08  0.3099331E+04  0.7818609E-02  0.8215922E-01
        4   -1    0    0  501    0  0.00000000000E+00  0.00000000000E+00  0.15726984300E+04  0.15726989428E+04  0.12699999809E+01 0.  1.
       -4   -1    0    0    0  501  0.00000000000E+00  0.00000000000E+00 -0.15269685876E+04  0.15269691158E+04  0.12699999809E+01 0. -1.
    10030    2    1    2    0    0  0.00000000000E+00  0.00000000000E+00  0.45729842355E+02  0.30996680586E+04  0.30993307108E+04 0.  0.
        3    1    3    3  502    0  0.89845518463E+03 -0.20577567175E+03 -0.12230223970E+04  0.15314532770E+04  0.10100000352E+00 0. -1.
       -3    1    3    3    0  502 -0.89845518463E+03  0.20577567175E+03  0.12687522394E+04  0.15682147815E+04  0.10100000352E+00 0.  1.
</event>
<event>
 5   0  0.1377237E-07  0.3107438E+04  0.7818609E-02  0.8213700E-01
       -2   -1    0    0    0  501  0.00000000000E+00  0.00000000000E+00  0.10887150197E+04  0.10887150197E+04  0.25500000920E-02 0. -1.
        2   -1    0    0  501    0  0.00000000000E+00  0.00000000000E+00 -0.22173325094E+04  0.22173325094E+04  0.25500000920E-02 0.  1.
    10030    2    1    2    0    0  0.00000000000E+00  0.00000000000E+00 -0.11286174897E+04  0.33060475291E+04  0.31074383062E+04 0.  0.
        2    1    3    3  502    0  0.73866529464E+03  0.21475870189E+03 -0.20005122352E+04  0.21433144708E+04  0.25500000920E-02 0.  1.
       -2    1    3    3    0  502 -0.73866529464E+03 -0.21475870189E+03  0.87189474552E+03  0.11627330583E+04  0.25500000920E-02 0. -1.
</event>
<event>
 5   0  0.4838602E-08  0.3100033E+04  0.7818609E-02  0.8215729E-01
        1   -1    0    0  501    0  0.00000000000E+00  0.00000000000E+00  0.21392837575E+04  0.21392837575E+04  0.50400001928E-02 0. -1.
       -1   -1    0    0    0  501  0.00000000000E+00  0.00000000000E+00 -0.11230630402E+04  0.11230630403E+04  0.50400001928E-02 0.  1.
    10030    2    1    2    0    0  0.00000000000E+00  0.00000000000E+00  0.10162207173E+04  0.32623467978E+04  0.31000325938E+04 0.  0.
        5    1    3    3  502    0 -0.84589545213E+03 -0.12915586215E+03  0.18681831632E+04  0.20548359482E+04  0.46999998093E+01 0. -1.
       -5    1    3    3    0  502  0.84589545213E+03  0.12915586215E+03 -0.85196244592E+03  0.12075108496E+04  0.46999998093E+01 0.  1.
</event>
<event>
 5   0  0.1318916E-07  0.3099534E+04  0.7818609E-02  0.8215866E-01
        2   -1    0    0  501    0  0.00000000000E+00  0.00000000000E+00  0.25542336886E+04  0.25542336886E+04  0.25500000920E-02 0.  1.
       -2   -1    0    0    0  501  0.00000000000E+00  0.00000000000E+00 -0.94031225729E+03  0.94031225729E+03  0.25500000920E-02 0. -1.
    10030    2    1    2    0    0  0.00000000000E+00  0.00000000000E+00  0.16139214313E+04  0.34945459458E+04  0.30995336716E+04 0.  0.
        5    1    3    3  502    0  0.19043369968E+03 -0.14830924272E+04  0.12662147126E+04  0.19593748825E+04  0.46999998093E+01 0. -1.
       -5    1    3    3    0  502 -0.19043369968E+03  0.14830924272E+04  0.34770671861E+03  0.15351710634E+04  0.46999998093E+01 0.  1.
</event>
<event>
 5   0  0.4436241E-08  0.3101335E+04  0.7818609E-02  0.8215372E-01
        1   -1    0    0  501    0  0.00000000000E+00  0.00000000000E+00  0.12709726023E+04  0.12709726023E+04  0.50400001928E-02 0.  1.
       -1   -1    0    0    0  501  0.00000000000E+00  0.00000000000E+00 -0.18919127571E+04  0.18919127571E+04  0.50400001928E-02 0. -1.
    10030    2    1    2    0    0  0.00000000000E+00  0.00000000000E+00 -0.62094015482E+03  0.31628853594E+04  0.31013347322E+04 0.  0.
        3    1    3    3  502    0 -0.62052457954E+03 -0.31034892468E+03  0.11038485651E+04  0.13037825254E+04  0.10100000352E+00 0.  1.
       -3    1    3    3    0  502  0.62052457954E+03  0.31034892468E+03 -0.17247887199E+04  0.18591028340E+04  0.10100000352E+00 0. -1.
</event>
<event>
 5   0  0.1325713E-07  0.3098599E+04  0.7818609E-02  0.8216122E-01
       -2   -1    0    0    0  501  0.00000000000E+00  0.00000000000E+00  0.13598430822E+04  0.13598430822E+04  0.25500000920E-02 0.  1.
        2   -1    0    0  501    0  0.00000000000E+00  0.00000000000E+00 -0.17651516720E+04  0.17651516720E+04  0.25500000920E-02 0. -1.
    10030    2    1    2    0    0  0.00000000000E+00  0.00000000000E+00 -0.40530858984E+03  0.31249947542E+04  0.30985992256E+04 0.  0.
        4    1    3    3  502    0 -0.87327087556E+03  0.12776666995E+04 -0.27603024099E+03  0.15720141615E+04  0.12699999809E+01 0. -1.
       -4    1    3    3    0  502  0.87327087556E+03 -0.12776666995E+04 -0.12927834885E+03  0.15529805928E+04  0.12699999809E+01 0.  1.
</event>
<event>
 5   0  0.4450600E-08  0.3101013E+04  0.7818609E-02  0.8215460E-01
       -1   -1    0    0    0  501  0.00000000000E+00  0.00000000000E+00  0.12895367658E+04  0.12895367658E+04  0.50400001928E-02 0.  1.
        1   -1    0    0  501    0  0.00000000000E+00  0.00000000000E+00 -0.18642905155E+04  0.18642905155E+04  0.50400001928E-02 0. -1.
    10030    2    1    2    0    0  0.00000000000E+00  0.00000000000E+00 -0.57475374970E+03  0.31538272813E+04  0.31010134871E+04 0.  0.
        4    1    3    3  502    0  0.29490711227E+03  0.60492687500E+03  0.11332532062E+04  0.13180178949E+04  0.12699999809E+01 0.  1.
       -4    1    3    3    0  502 -0.29490711227E+03 -0.60492687500E+03 -0.17080069559E+04  0.18358093864E+04  0.12699999809E+01 0. -1.
</event>
<event>
 5   0  0.4470354E-08  0.3101396E+04  0.7818609E-02  0.8215355E-01
       -1   -1    0    0    0  501  0.00000000000E+00  0.00000000000E+00  0.19658058717E+04  0.19658058717E+04  0.50400001928E-02 0.  1.
        1   -1    0    0  501    0  0.00000000000E+00  0.00000000000E+00 -0.12232457069E+04  0.12232457069E+04  0.50400001928E-02 0. -1.
    10030    2    1    2    0    0  0.00000000000E+00  0.00000000000E+00  0.74256016489E+03  0.31890515786E+04  0.31013955524E+04 0.  0.
        1    1    3    3  502    0  0.51250227621E+03  0.14459871200E+04  0.60378192032E+03  0.16486630771E+04  0.50400001928E-02 0.  1.
       -1    1    3    3    0  502 -0.51250227621E+03 -0.14459871200E+04  0.13877824457E+03  0.15403885015E+04  0.50400001928E-02 0. -1.
</event>
<event>
 5   0  0.1318916E-07  0.3099341E+04  0.7818609E-02  0.8215919E-01
        2   -1    0    0  501    0  0.00000000000E+00  0.00000000000E+00  0.22454685823E+04  0.22454685823E+04  0.25500000920E-02 0. -1.
       -2   -1    0    0    0  501  0.00000000000E+00  0.00000000000E+00 -0.10694778951E+04  0.10694778951E+04  0.25500000920E-02 0.  1.
    10030    2    1    2    0    0  0.00000000000E+00  0.00000000000E+00  0.11759906872E+04  0.33149464774E+04  0.30993412286E+04 0.  0.
        5    1    3    3  502    0 -0.13529990301E+04 -0.54645746740E+03  0.11460528248E+04  0.18554463901E+04  0.46999998093E+01 0. -1.
       -5    1    3    3    0  502  0.13529990301E+04  0.54645746740E+03  0.29937862429E+02  0.14595000873E+04  0.46999998093E+01 0.  1.
</event>
<event>
 5   0  0.4838602E-08  0.3098432E+04  0.7818609E-02  0.8216168E-01
       -1   -1    0    0    0  501  0.00000000000E+00  0.00000000000E+00  0.15589350226E+04  0.15589350226E+04  0.50400001928E-02 0. -1.
        1   -1    0    0  501    0  0.00000000000E+00  0.00000000000E+00 -0.15395580014E+04  0.15395580015E+04  0.50400001928E-02 0.  1.
    10030    2    1    2    0    0  0.00000000000E+00  0.00000000000E+00  0.19377021185E+02  0.30984930241E+04  0.30984324345E+04 0.  0.
        5    1    3    3  502    0 -0.11635810458E+04  0.35553597843E+02 -0.10125173171E+04  0.15428539516E+04  0.46999998093E+01 0.  1.
       -5    1    3    3    0  502  0.11635810458E+04 -0.35553597843E+02  0.10318943383E+04  0.15556390725E+04  0.46999998093E+01 0. -1.
</event>
<event>
 5   0  0.1398931E-07  0.3100089E+04  0.7818609E-02  0.8215713E-01
       -2   -1    0    0    0  501  0.00000000000E+00  0.00000000000E+00  0.14300363318E+04  0.14300363318E+04  0.25500000920E-02 0.  1.
        2   -1    0    0  501    0  0.00000000000E+00  0.00000000000E+00 -0.16801237454E+04  0.16801237454E+04  0.25500000920E-02 0. -1.
    10030    2    1    2    0    0  0.00000000000E+00  0.00000000000E+00 -0.25008741355E+03  0.31101600772E+04  0.31000890296E+04 0.  0.
        3    1    3    3  502    0 -0.31806230581E+02 -0.42967812943E+02 -0.16791986052E+04  0.16800493550E+04  0.10100000352E+00 0. -1.
       -3    1    3    3    0  502  0.31806230581E+02  0.42967812943E+02  0.14291111917E+04  0.14301107222E+04  0.10100000352E+00 0.  1.
</event>
<event>
 5   0  0.1329777E-07  0.3100943E+04  0.7818609E-02  0.8215479E-01
        2   -1    0    0  501    0  0.00000000000E+00  0.00000000000E+00  0.12546697436E+04  0.12546697436E+04  0.25500000920E-02 0. -1.
       -2   -1    0    0    0  501  0.00000000000E+00  0.00000000000E+00 -0.19160122532E+04  0.19160122532E+04  0.25500000920E-02 0.  1.
    10030    2    1    2    0    0  0.00000000000E+00  0.00000000000E+00 -0.66134250957E+03  0.31706819968E+04  0.31009434709E+04 0.  0.
        1    1    3    3  502    0  0.60407559214E+03 -0.95011458882E+03 -0.14206361641E+04  0.18126864494E+04  0.50400001928E-02 0.  1.
       -1    1    3    3    0  502 -0.60407559214E+03  0.95011458882E+03  0.75929365458E+03  0.13579955474E+04  0.50400001928E-02 0. -1.
</event>
<event>
 5   0  0.4517409E-08  0.3099843E+04  0.7818609E-02  0.8215781E-01
       -1   -1    0    0    0  501  0.00000000000E+00  0.00000000000E+00  0.11658897389E+04  0.11658897389E+04  0.50400001928E-02 0. -1.
        1   -1    0    0  501    0  0.00000000000E+00  0.00000000000E+00 -0.20604494088E+04  0.20604494088E+04  0.50400001928E-02 0.  1.
    10030    2    1    2    0    0  0.00000000000E+00  0.00000000000E+00 -0.89455966991E+03  0.32263391477E+04  0.30998431078E+04 0.  0.
        2    1    3    3  502    0  0.87103165296E+02 -0.99953865344E+03 -0.16768394582E+04  0.19540867559E+04  0.25500000920E-02 0.  1.
       -2    1    3    3    0  502 -0.87103165296E+02  0.99953865344E+03  0.78227978831E+03  0.12722523918E+04  0.25500000920E-02 0. -1.
</event>
<event>
 5   0  0.4517409E-08  0.3096683E+04  0.7818609E-02  0.8216649E-01
       -1   -1    0    0    0  501  0.00000000000E+00  0.00000000000E+00  0.11340841610E+04  0.11340841611E+04  0.50400001928E-02 0. -1.
        1   -1    0    0  501    0  0.00000000000E+00  0.00000000000E+00 -0.21139178159E+04  0.21139178159E+04  0.50400001928E-02 0.  1.
    10030    2    1    2    0    0  0.00000000000E+00  0.00000000000E+00 -0.97983365483E+03  0.32480019769E+04  0.30966825557E+04 0.  0.
        2    1    3    3  502    0 -0.19727657381E+03 -0.10844001504E+04 -0.16304913263E+04  0.19680812223E+04  0.25500000920E-02 0.  1.
       -2    1    3    3    0  502  0.19727657381E+03  0.10844001504E+04  0.65065767142E+03  0.12799207546E+04  0.25500000920E-02 0. -1.
</event>
<event>
 5   0  0.1398931E-07  0.3098624E+04  0.7818609E-02  0.8216116E-01
       -2   -1    0    0    0  501  0.00000000000E+00  0.00000000000E+00  0.24696884745E+04  0.24696884745E+04  0.25500000920E-02 0.  1.
        2   -1    0    0  501    0  0.00000000000E+00  0.00000000000E+00 -0.97193156656E+03  0.97193156656E+03  0.25500000920E-02 0. -1.
    10030    2    1    2    0    0  0.00000000000E+00  0.00000000000E+00  0.14977569079E+04  0.34416200410E+04  0.30986243321E+04 0.  0.
        3    1    3    3  502    0 -0.76270595517E+03 -0.12084506748E+04  0.84042910546E+02  0.14314805722E+04  0.10100000352E+00 0. -1.
       -3    1    3    3    0  502  0.76270595517E+03  0.12084506748E+04  0.14137139974E+04  0.20101394688E+04  0.10100000352E+00 0.  1.
</event>
<event>
 5   0  0.1318916E-07  0.3100071E+04  0.7818609E-02  0.8215718E-01
        2   -1    0    0  501    0  0.00000000000E+00  0.00000000000E+00  0.25898843639E+04  0.25898843639E+04  0.25500000920E-02 0.  1.
       -2   -1    0    0    0  501  0.00000000000E+00  0.00000000000E+00 -0.92769000974E+03  0.92769000974E+03  0.25500000920E-02 0. -1.
    10030    2    1    2    0    0  0.00000000000E+00  0.00000000000E+00  0.16621943541E+04  0.35175743736E+04  0.31000708706E+04 0.  0.
        5    1    3    3  502    0 -0.44272626504E+03  0.10539425363E+04 -0.35667899450E+03  0.11975155159E+04  0.46999998093E+01 0. -1.
       -5    1    3    3    0  502  0.44272626504E+03 -0.10539425363E+04  0.20188733486E+04  0.23200588577E+04  0.46999998093E+01 0.  1.
</event>
<event>
 5   0  0.4450600E-08  0.3101125E+04  0.7818609E-02  0.8215429E-01
       -1   -1    0    0    0  501  0.00000000000E+00  0.00000000000E+00  0.14081326689E+04  0.14081326689E+04  0.50400001928E-02 0.  1.
        1   -1    0    0  501    0  0.00000000000E+00  0.00000000000E+00 -0.17073991158E+04  0.17073991158E+04  0.50400001928E-02 0. -1.
    10030    2    1    2    0    0  0.00000000000E+00  0.00000000000E+00 -0.29926644695E+03  0.31155317847E+04  0.31011252628E+04 0.  0.
        4    1    3    3  502    0 -0.23258119797E+03 -0.13294988376E+04 -0.91644944626E+03  0.16314234193E+04  0.12699999809E+01 0. -1.
       -4    1    3    3    0  502  0.23258119797E+03  0.13294988376E+04  0.61718299931E+03  0.14841083654E+04  0.12699999809E+01 0.  1.
</event>
<event>
 5   0  0.4450600E-08  0.3099802E+04  0.7818609E-02  0.8215792E-01
        1   -1    0    0  501    0  0.00000000000E+00  0.00000000000E+00  0.19534980228E+04  0.19534980228E+04  0.50400001928E-02 0. -1.
       -1   -1    0    0    0  501  0.00000000000E+00  0.00000000000E+00 -0.12296883101E+04  0.12296883101E+04  0.50400001928E-02 0.  1.
    10030    2    1    2    0    0  0.00000000000E+00  0.00000000000E+00  0.72380971274E+03  0.31831863329E+04  0.30998023695E+04 0.  0.
        4    1    3    3  502    0 -0.17463811795E+03  0.13635917451E+04 -0.37310804062E+03  0.14244620537E+04  0.12699999809E+01 0.  1.
       -4    1    3    3    0  502  0.17463811795E+03 -0.13635917451E+04  0.10969177534E+04  0.17587242792E+04  0.12699999809E+01 0. -1.
</event>
<event>
 5   0  0.4470354E-08  0.3100164E+04  0.7818609E-02  0.8215693E-01
        1   -1    0    0  501    0  0.00000000000E+00  0.00000000000E+00  0.20458432406E+04  0.20458432406E+04  0.50400001928E-02 0.  1.
       -1   -1    0    0    0  501  0.00000000000E+00  0.00000000000E+00 -0.11744568421E+04  0.11744568421E+04  0.50400001928E-02 0. -1.
    10030    2    1    2    0    0  0.00000000000E+00  0.00000000000E+00  0.87138639847E+03  0.32203000828E+04  0.31001642485E+04 0.  0.
        1    1    3    3  502    0 -0.98617822732E+03  0.14722910971E+03 -0.79711296108E+03  0.12765629556E+04  0.50400001928E-02 0. -1.
       -1    1    3    3    0  502  0.98617822732E+03 -0.14722910971E+03  0.16684993596E+04  0.19437371272E+04  0.50400001928E-02 0.  1.
</event>
<event>
 5   0  0.4470354E-08  0.3100351E+04  0.7818609E-02  0.8215642E-01
       -1   -1    0    0    0  501  0.00000000000E+00  0.00000000000E+00  0.10723440380E+04  0.10723440380E+04  0.50400001928E-02 0.  1.
        1   -1    0    0  501    0  0.00000000000E+00  0.00000000000E+00 -0.22409266237E+04  0.22409266237E+04  0.50400001928E-02 0. -1.
    10030    2    1    2    0    0  0.00000000000E+00  0.00000000000E+00 -0.11685825857E+04  0.33132706617E+04  0.31003511443E+04 0.  0.
        1    1    3    3  502    0  0.98756762872E+03 -0.37387922315E+03  0.62853527885E+03  0.12288743189E+04  0.50400001928E-02 0.  1.
       -1    1    3    3    0  502 -0.98756762872E+03  0.37387922315E+03 -0.17971178646E+04  0.20843963428E+04  0.50400001928E-02 0. -1.
</event>
<event>
 5   0  0.4517409E-08  0.3100377E+04  0.7818609E-02  0.8215634E-01
        1   -1    0    0  501    0  0.00000000000E+00  0.00000000000E+00  0.13136523089E+04  0.13136523089E+04  0.50400001928E-02 0. -1.
       -1   -1    0    0    0  501  0.00000000000E+00  0.00000000000E+00 -0.18293152001E+04  0.18293152001E+04  0.50400001928E-02 0.  1.
    10030    2    1    2    0    0  0.00000000000E+00  0.00000000000E+00 -0.51566289120E+03  0.31429675090E+04  0.31003768393E+04 0.  0.
        2    1    3    3  502    0  0.10030429920E+04  0.90120559585E+02  0.93686002958E+03  0.13754721641E+04  0.25500000920E-02 0. -1.
       -2    1    3    3    0  502 -0.10030429920E+04 -0.90120559585E+02 -0.14525229208E+04  0.17674953450E+04  0.25500000920E-02 0.  1.
</event>
<event>
 5   0  0.4838602E-08  0.3099151E+04  0.7818609E-02  0.8215971E-01
        1   -1    0    0  501    0  0.00000000000E+00  0.00000000000E+00  0.21846538978E+04  0.21846538978E+04  0.50400001928E-02 0. -1.
       -1   -1    0    0    0  501  0.00000000000E+00  0.00000000000E+00 -0.10991142775E+04  0.10991142775E+04  0.50400001928E-02 0.  1.
    10030    2    1    2    0    0  0.00000000000E+00  0.00000000000E+00  0.10855396203E+04  0.32837681754E+04  0.30991510389E+04 0.  0.
        5    1    3    3  502    0 -0.80748433104E+03  0.10673591304E+04 -0.28469670276E+03  0.13683423404E+04  0.46999998093E+01 0.  1.
       -5    1    3    3    0  502  0.80748433104E+03 -0.10673591304E+04  0.13702363231E+04  0.19154258349E+04  0.46999998093E+01 0. -1.
</event>
<event>
 5   0  0.4517409E-08  0.3097840E+04  0.7818609E-02  0.8216331E-01
       -1   -1    0    0    0  501  0.00000000000E+00  0.00000000000E+00  0.13627786656E+04  0.13627786656E+04  0.50400001928E-02 0.  1.
        1   -1    0    0  501    0  0.00000000000E+00  0.00000000000E+00 -0.17604864121E+04  0.17604864121E+04  0.50400001928E-02 0. -1.
    10030    2    1    2    0    0  0.00000000000E+00  0.00000000000E+00 -0.39770774649E+03  0.31232650778E+04  0.30978401015E+04 0.  0.
        2    1    3    3  502    0 -0.11570003186E+04 -0.87148999990E+03  0.35429167286E+03  0.14911965486E+04  0.25500000920E-02 0.  1.
       -2    1    3    3    0  502  0.11570003186E+04  0.87148999990E+03 -0.75199941936E+03  0.16320685291E+04  0.25500000920E-02 0. -1.
</event>
<event>
 5   0  0.1329777E-07  0.3100413E+04  0.7818609E-02  0.8215625E-01
        2   -1    0    0  501    0  0.00000000000E+00  0.00000000000E+00  0.16186544691E+04  0.16186544691E+04  0.25500000920E-02 0. -1.
       -2   -1    0    0    0  501  0.00000000000E+00  0.00000000000E+00 -0.14846525462E+04  0.14846525462E+04  0.25500000920E-02 0.  1.
    10030    2    1    2    0    0  0.00000000000E+00  0.00000000000E+00  0.13400192294E+03  0.31033070153E+04  0.31004125396E+04 0.  0.
        1    1    3    3  502    0  0.87878037530E+03 -0.73367767679E+03 -0.97925073220E+03  0.15064759799E+04  0.50400001928E-02 0.  1.
       -1    1    3    3    0  502 -0.87878037530E+03  0.73367767679E+03  0.11132526551E+04  0.15968310354E+04  0.50400001928E-02 0. -1.
</event>
<event>
 5   0  0.1329777E-07  0.3102385E+04  0.7818609E-02  0.8215084E-01
        2   -1    0    0  501    0  0.00000000000E+00  0.00000000000E+00  0.14457475870E+04  0.14457475870E+04  0.25500000920E-02 0. -1.
       -2   -1    0    0    0  501  0.00000000000E+00  0.00000000000E+00 -0.16643280255E+04  0.16643280255E+04  0.25500000920E-02 0.  1.
    10030    2    1    2    0    0  0.00000000000E+00  0.00000000000E+00 -0.21858043856E+03  0.31100756125E+04  0.31023850353E+04 0.  0.
        1    1    3    3  502    0  0.87658293438E+03 -0.88901720189E+03  0.81356173627E+03  0.14901784876E+04  0.50400001928E-02 0. -1.
       -1    1    3    3    0  502 -0.87658293438E+03  0.88901720189E+03 -0.10321421748E+04  0.16198971249E+04  0.50400001928E-02 0.  1.
</event>
<event>
 5   0  0.1377237E-07  0.3099709E+04  0.7818609E-02  0.8215818E-01
        2   -1    0    0  501    0  0.00000000000E+00  0.00000000000E+00  0.22210148535E+04  0.22210148535E+04  0.25500000920E-02 0. -1.
       -2   -1    0    0    0  501  0.00000000000E+00  0.00000000000E+00 -0.10815093360E+04  0.10815093360E+04  0.25500000920E-02 0.  1.
    10030    2    1    2    0    0  0.00000000000E+00  0.00000000000E+00  0.11395055175E+04  0.33025241894E+04  0.30997085665E+04 0.  0.
        2    1    3    3  502    0  0.70333931672E+02  0.67919113346E+03 -0.91261336279E+03  0.11397853340E+04  0.25500000920E-02 0.  1.
       -2    1    3    3    0  502 -0.70333931672E+02 -0.67919113346E+03  0.20521188803E+04  0.21627388554E+04  0.25500000920E-02 0. -1.
</event>
<event>
 5   0  0.4450600E-08  0.3104624E+04  0.7818609E-02  0.8214470E-01
        1   -1    0    0  501    0  0.00000000000E+00  0.00000000000E+00  0.27072677325E+04  0.27072677325E+04  0.50400001928E-02 0. -1.
       -1   -1    0    0    0  501  0.00000000000E+00  0.00000000000E+00 -0.89007556665E+03  0.89007556666E+03  0.50400001928E-02 0.  1.
    10030    2    1    2    0    0  0.00000000000E+00  0.00000000000E+00  0.18171921658E+04  0.35973432991E+04  0.31046242034E+04 0.  0.
        4    1    3    3  502    0  0.21704469510E+03 -0.15331067716E+04  0.10362981665E+04  0.18631801511E+04  0.12699999809E+01 0. -1.
       -4    1    3    3    0  502 -0.21704469510E+03  0.15331067716E+04  0.78089399929E+03  0.17341631480E+04  0.12699999809E+01 0.  1.
</event>
<event>
 5   0  0.4450600E-08  0.3099074E+04  0.7818609E-02  0.8215992E-01
        1   -1    0    0  501    0  0.00000000000E+00  0.00000000000E+00  0.20328349375E+04  0.20328349375E+04  0.50400001928E-02 0. -1.
       -1   -1    0    0    0  501  0.00000000000E+00  0.00000000000E+00 -0.11811413795E+04  0.11811413795E+04  0.50400001928E-02 0.  1.
    10030    2    1    2    0    0  0.00000000000E+00  0.00000000000E+00  0.85169355795E+03  0.32139763170E+04  0.30990743537E+04 0.  0.
        4    1    3    3  502    0  0.36988590956E+03  0.47573091753E+03  0.19063356000E+04  0.19993130132E+04  0.12699999809E+01 0. -1.
       -4    1    3    3    0  502 -0.36988590956E+03 -0.47573091753E+03 -0.10546420420E+04  0.12146633038E+04  0.12699999809E+01 0.  1.
</event>
<event>
 5   0  0.4470354E-08  0.3099759E+04  0.7818609E-02  0.8215804E-01
       -1   -1    0    0    0  501  0.00000000000E+00  0.00000000000E+00  0.18159552988E+04  0.18159552988E+04  0.50400001928E-02 0.  1.
        1   -1    0    0  501    0  0.00000000000E+00  0.00000000000E+00 -0.13227897634E+04  0.13227897634E+04  0.50400001928E-02 0. -1.
    10030    2    1    2    0    0  0.00000000000E+00  0.00000000000E+00  0.49316553546E+03  0.31387450622E+04  0.30997593972E+04 0.  0.
        1    1    3    3  502    0  0.17961868675E+02 -0.38117279229E+03 -0.12744790241E+04  0.13303804377E+04  0.50400001928E-02 0. -1.
       -1    1    3    3    0  502 -0.17961868675E+02  0.38117279229E+03  0.17676445595E+04  0.18083646245E+04  0.50400001928E-02 0.  1.
</event>
<event>
 5   0  0.4517409E-08  0.3105095E+04  0.7818609E-02  0.8214341E-01
        1   -1    0    0  501    0  0.00000000000E+00  0.00000000000E+00  0.24778728919E+04  0.24778728919E+04  0.50400001928E-02 0. -1.
       -1   -1    0    0    0  501  0.00000000000E+00  0.00000000000E+00 -0.97277156892E+03  0.97277156894E+03  0.50400001928E-02 0.  1.
    10030    2    1    2    0    0  0.00000000000E+00  0.00000000000E+00  0.15051013230E+04  0.34506444608E+04  0.31050953613E+04 0.  0.
        2    1    3    3  502    0  0.94244352962E+03  0.25547313796E+03  0.20939120543E+04  0.23103969403E+04  0.25500000920E-02 0.  1.
       -2    1    3    3    0  502 -0.94244352962E+03 -0.25547313796E+03 -0.58881073131E+03  0.11402475205E+04  0.25500000920E-02 0. -1.
</event>
<event>
 5   0  0.4517409E-08  0.3100266E+04  0.7818609E-02  0.8215665E-01
       -1   -1    0    0    0  501  0.00000000000E+00  0.00000000000E+00  0.17492082421E+04  0.17492082421E+04  0.50400001928E-02 0. -1.
        1   -1    0    0  501    0  0.00000000000E+00  0.00000000000E+00 -0.13737140195E+04  0.13737140195E+04  0.50400001928E-02 0.  1.
    10030    2    1    2    0    0  0.00000000000E+00  0.00000000000E+00  0.37549422258E+03  0.31229222615E+04  0.31002657209E+04 0.  0.
        2    1    3    3  502    0  0.85222270637E+03  0.25717393949E+03  0.14660720425E+04  0.17151644849E+04  0.25500000920E-02 0. -1.
       -2    1    3    3    0  502 -0.85222270637E+03 -0.25717393949E+03 -0.10905778199E+04  0.14077577767E+04  0.25500000920E-02 0.  1.
</event>
<event>
 5   0  0.1398931E-07  0.3099246E+04  0.7818609E-02  0.8215945E-01
        2   -1    0    0  501    0  0.00000000000E+00  0.00000000000E+00  0.22135212777E+04  0.22135212777E+04  0.25500000920E-02 0. -1.
       -2   -1    0    0    0  501  0.00000000000E+00  0.00000000000E+00 -0.10848467211E+04  0.10848467211E+04  0.25500000920E-02 0.  1.
    10030    2    1    2    0    0  0.00000000000E+00  0.00000000000E+00  0.11286745566E+04  0.32983679989E+04  0.30992459085E+04 0.  0.
        3    1    3    3  502    0  0.96460347181E+03 -0.62795235692E+03 -0.53989292928E+03  0.12713254523E+04  0.10100000352E+00 0.  1.
       -3    1    3    3    0  502 -0.96460347181E+03  0.62795235692E+03  0.16685674859E+04  0.20270425466E+04  0.10100000352E+00 0. -1.
</event>
<event>
 5   0  0.1329777E-07  0.3096348E+04  0.7818609E-02  0.8216741E-01
       -2   -1    0    0    0  501  0.00000000000E+00  0.00000000000E+00  0.14353345938E+04  0.14353345938E+04  0.25500000920E-02 0.  1.
        2   -1    0    0  501    0  0.00000000000E+00  0.00000000000E+00 -0.16698842956E+04  0.16698842956E+04  0.25500000920E-02 0. -1.
    10030    2    1    2    0    0  0.00000000000E+00  0.00000000000E+00 -0.23454970173E+03  0.31052188894E+04  0.30963479760E+04 0.  0.
        1    1    3    3  502    0 -0.12460759595E+04  0.91781150437E+03 -0.75208965615E+02  0.15494320388E+04  0.50400001928E-02 0.  1.
       -1    1    3    3    0  502  0.12460759595E+04 -0.91781150437E+03 -0.15934073611E+03  0.15557868506E+04  0.50400001928E-02 0. -1.
</event>
<event>
 5   0  0.1398931E-07  0.3099173E+04  0.7818609E-02  0.8215965E-01
        2   -1    0    0  501    0  0.00000000000E+00  0.00000000000E+00  0.20801715725E+04  0.20801715725E+04  0.25500000920E-02 0. -1.
       -2   -1    0    0    0  501  0.00000000000E+00  0.00000000000E+00 -0.11543368909E+04  0.11543368909E+04  0.25500000920E-02 0.  1.
    10030    2    1    2    0    0  0.00000000000E+00  0.00000000000E+00  0.92583468156E+03  0.32345084634E+04  0.30991732998E+04 0.  0.
        3    1    3    3  502    0  0.70501897680E+03  0.71582182514E+03  0.16941654088E+04  0.19696824834E+04  0.10100000352E+00 0. -1.
       -3    1    3    3    0  502 -0.70501897680E+03 -0.71582182514E+03 -0.76833072724E+03  0.12648259800E+04  0.10100000352E+00 0.  1.
</event>
<event>
 5   0  0.4470354E-08  0.3100276E+04  0.7818609E-02  0.8215662E-01
       -1   -1    0    0    0  501  0.00000000000E+00  0.00000000000E+00  0.19606879275E+04  0.19606879275E+04  0.50400001928E-02 0.  1.
        1   -1    0    0  501    0  0.00000000000E+00  0.00000000000E+00 -0.12255531033E+04  0.12255531033E+04  0.50400001928E-02 0. -1.
    10030    2    1    2    0    0  0.00000000000E+00  0.00000000000E+00  0.73513482425E+03  0.31862410308E+04  0.31002755840E+04 0.  0.
        1    1    3    3  502    0 -0.43305291683E+03  0.59548633626E+03  0.17694989872E+04  0.19165764976E+04  0.50400001928E-02 0.  1.
       -1    1    3    3    0  502  0.43305291683E+03 -0.59548633626E+03 -0.10343641629E+04  0.12696645333E+04  0.50400001928E-02 0. -1.
</event>
<event>
 5   0  0.1377237E-07  0.3101773E+04  0.7818609E-02  0.8215252E-01
        2   -1    0    0  501    0  0.00000000000E+00  0.00000000000E+00  0.13711703344E+04  0.13711703344E+04  0.25500000920E-02 0. -1.
       -2   -1    0    0    0  501  0.00000000000E+00  0.00000000000E+00 -0.17541576381E+04  0.17541576381E+04  0.25500000920E-02 0.  1.
    10030    2    1    2    0    0  0.00000000000E+00  0.00000000000E+00 -0.38298730373E+03  0.31253279726E+04  0.31017729867E+04 0.  0.
        2    1    3    3  502    0 -0.16021448317E+03  0.10282304241E+04 -0.13501490036E+04  0.17046491773E+04  0.25500000920E-02 0.  1.
       -2    1    3    3    0  502  0.16021448317E+03 -0.10282304241E+04  0.96716169983E+03  0.14206787953E+04  0.25500000920E-02 0. -1.
</event>
<event>
 5   0  0.1377237E-07  0.3098670E+04  0.7818609E-02  0.8216103E-01
        2   -1    0    0  501    0  0.00000000000E+00  0.00000000000E+00  0.12800033616E+04  0.12800033616E+04  0.25500000920E-02 0.  1.
       -2   -1    0    0    0  501  0.00000000000E+00  0.00000000000E+00 -0.18753385089E+04  0.18753385089E+04  0.25500000920E-02 0. -1.
    10030    2    1    2    0    0  0.00000000000E+00  0.00000000000E+00 -0.59533514730E+03  0.31553418706E+04  0.30986704218E+04 0.  0.
        2    1    3    3  502    0 -0.68977940626E+03 -0.13670809765E+04 -0.57270340218E+02  0.15323139096E+04  0.25500000920E-02 0.  1.
       -2    1    3    3    0  502  0.68977940626E+03  0.13670809765E+04 -0.53806480709E+03  0.16230279610E+04  0.25500000920E-02 0. -1.
</event>
<event>
 5   0  0.4470354E-08  0.3100277E+04  0.7818609E-02  0.8215662E-01
        1   -1    0    0  501    0  0.00000000000E+00  0.00000000000E+00  0.16360659858E+04  0.16360659858E+04  0.50400001928E-02 0. -1.
       -1   -1    0    0    0  501  0.00000000000E+00  0.00000000000E+00 -0.14687241415E+04  0.14687241415E+04  0.50400001928E-02 0.  1.
    10030    2    1    2    0    0  0.00000000000E+00  0.00000000000E+00  0.16734184436E+03  0.31047901273E+04  0.31002771556E+04 0.  0.
        1    1    3    3  502    0 -0.11820976360E+04  0.42337909551E+03  0.99401832290E+03  0.16014609286E+04  0.50400001928E-02 0. -1.
       -1    1    3    3    0  502  0.11820976360E+04 -0.42337909551E+03 -0.82667647854E+03  0.15033291987E+04  0.50400001928E-02 0.  1.
</event>
<event>
 5   0  0.4450600E-08  0.3100630E+04  0.7818609E-02  0.8215565E-01
       -1   -1    0    0    0  501  0.00000000000E+00  0.00000000000E+00  0.14788813714E+04  0.14788813714E+04  0.50400001928E-02 0.  1.
        1   -1    0    0  501    0  0.00000000000E+00  0.00000000000E+00 -0.16251990939E+04  0.16251990939E+04  0.50400001928E-02 0. -1.
    10030    2    1    2    0    0  0.00000000000E+00  0.00000000000E+00 -0.14631772258E+03  0.31040804653E+04  0.31006300423E+04 0.  0.
        4    1    3    3  502    0  0.84278158233E+03 -0.32148031301E+03  0.11891347000E+04  0.14925392239E+04  0.12699999809E+01 0.  1.
       -4    1    3    3    0  502 -0.84278158233E+03  0.32148031301E+03 -0.13354524225E+04  0.16115412415E+04  0.12699999809E+01 0. -1.
</event>
<event>
 5   0  0.4838602E-08  0.3101748E+04  0.7818609E-02  0.8215258E-01
        1   -1    0    0  501    0  0.00000000000E+00  0.00000000000E+00  0.10790297497E+04  0.10790297497E+04  0.50400001928E-02 0.  1.
       -1   -1    0    0    0  501  0.00000000000E+00  0.00000000000E+00 -0.22290496654E+04  0.22290496654E+04  0.50400001928E-02 0. -1.
    10030    2    1    2    0    0  0.00000000000E+00  0.00000000000E+00 -0.11500199157E+04  0.33080794151E+04  0.31017484762E+04 0.  0.
        5    1    3    3  502    0 -0.98723546220E+03  0.10492143114E+04  0.37385053195E+02  0.14411468562E+04  0.46999998093E+01 0. -1.
       -5    1    3    3    0  502  0.98723546220E+03 -0.10492143114E+04 -0.11874049689E+04  0.18669325588E+04  0.46999998093E+01 0.  1.
</event>
<event>
 5   0  0.1325713E-07  0.3099608E+04  0.7818609E-02  0.8215846E-01
       -2   -1    0    0    0  501  0.00000000000E+00  0.00000000000E+00  0.13329884580E+04  0.13329884580E+04  0.25500000920E-02 0.  1.
        2   -1    0    0  501    0  0.00000000000E+00  0.00000000000E+00 -0.18018848396E+04  0.18018848396E+04  0.25500000920E-02 0. -1.
    10030    2    1    2    0    0  0.00000000000E+00  0.00000000000E+00 -0.46889638164E+03  0.31348732976E+04  0.30996075196E+04 0.  0.
        4    1    3    3  502    0 -0.11801877174E+04  0.97995494512E+03 -0.45772071318E+03  0.16008324731E+04  0.12699999809E+01 0.  1.
       -4    1    3    3    0  502  0.11801877174E+04 -0.97995494512E+03 -0.11175668464E+02  0.15340408245E+04  0.12699999809E+01 0. -1.
</event>
<event>
 5   0  0.4838602E-08  0.3100800E+04  0.7818609E-02  0.8215518E-01
       -1   -1    0    0    0  501  0.00000000000E+00  0.00000000000E+00  0.13408203138E+04  0.13408203138E+04  0.50400001928E-02 0. -1.
        1   -1    0    0  501    0  0.00000000000E+00  0.00000000000E+00 -0.17927387871E+04  0.17927387871E+04  0.50400001928E-02 0.  1.
    10030    2    1    2    0    0  0.00000000000E+00  0.00000000000E+00 -0.45191847328E+03  0.31335591008E+04  0.31008002728E+04 0.  0.
        5    1    3    3  502    0 -0.13339131267E+04 -0.38421237715E+03  0.47182456784E+03  0.14661459318E+04  0.46999998093E+01 0. -1.
       -5    1    3    3    0  502  0.13339131267E+04  0.38421237715E+03 -0.92374304112E+03  0.16674131691E+04  0.46999998093E+01 0.  1.
</event>
<event>
 5   0  0.1398931E-07  0.3104526E+04  0.7818609E-02  0.8214497E-01
       -2   -1    0    0    0  501  0.00000000000E+00  0.00000000000E+00  0.15714109989E+04  0.15714109989E+04  0.25500000920E-02 0. -1.
        2   -1    0    0  501    0  0.00000000000E+00  0.00000000000E+00 -0.15333482113E+04  0.15333482113E+04  0.25500000920E-02 0.  1.
    10030    2    1    2    0    0  0.00000000000E+00  0.00000000000E+00  0.38062787589E+02  0.31047592102E+04  0.31045258862E+04 0.  0.
        3    1    3    3  502    0  0.26667184948E+03  0.29250076658E+03 -0.14820309980E+04  0.15339773346E+04  0.10100000352E+00 0.  1.
       -3    1    3    3    0  502 -0.26667184948E+03 -0.29250076658E+03  0.15200937856E+04  0.15707818757E+04  0.10100000352E+00 0. -1.
</event>
<event>
 5   0  0.4838602E-08  0.3101432E+04  0.7818609E-02  0.8215345E-01
       -1   -1    0    0    0  501  0.00000000000E+00  0.00000000000E+00  0.13106385887E+04  0.13106385888E+04  0.50400001928E-02 0.  1.
        1   -1    0    0  501    0  0.00000000000E+00  0.00000000000E+00 -0.18347697496E+04  0.18347697496E+04  0.50400001928E-02 0. -1.
    10030    2    1    2    0    0  0.00000000000E+00  0.00000000000E+00 -0.52413116081E+03  0.31454083383E+04  0.31014319501E+04 0.  0.
        5    1    3    3  502    0  0.14370027530E+04 -0.48259747298E+03  0.69403109583E+02  0.15174703011E+04  0.46999998093E+01 0.  1.
       -5    1    3    3    0  502 -0.14370027530E+04  0.48259747298E+03 -0.59353427039E+03  0.16279380373E+04  0.46999998093E+01 0. -1.
</event>
<event>
 5   0  0.4436241E-08  0.3099637E+04  0.7818609E-02  0.8215837E-01
       -1   -1    0    0    0  501  0.00000000000E+00  0.00000000000E+00  0.10207095711E+04  0.10207095711E+04  0.50400001928E-02 0. -1.
        1   -1    0    0  501    0  0.00000000000E+00  0.00000000000E+00 -0.23532040160E+04  0.23532040160E+04  0.50400001928E-02 0.  1.
    10030    2    1    2    0    0  0.00000000000E+00  0.00000000000E+00 -0.13324944449E+04  0.33739135872E+04  0.30996373091E+04 0.  0.
        3    1    3    3  502    0 -0.11920747657E+03 -0.15451658845E+04 -0.68124381654E+03  0.16928795530E+04  0.10100000352E+00 0. -1.
       -3    1    3    3    0  502  0.11920747657E+03  0.15451658845E+04 -0.65125062837E+03  0.16810340342E+04  0.10100000352E+00 0.  1.
</event>
<event>
 5   0  0.4436241E-08  0.3101399E+04  0.7818609E-02  0.8215354E-01
        1   -1    0    0  501    0  0.00000000000E+00  0.00000000000E+00  0.17611134322E+04  0.17611134322E+04  0.50400001928E-02 0. -1.
       -1   -1    0    0    0  501  0.00000000000E+00  0.00000000000E+00 -0.13654252602E+04  0.13654252602E+04  0.50400001928E-02 0.  1.
    10030    2    1    2    0    0  0.00000000000E+00  0.00000000000E+00  0.39568817200E+03  0.31265386923E+04  0.31013988884E+04 0.  0.
        3    1    3    3  502    0  0.41982983706E+03 -0.11500514671E+04  0.11572905124E+04  0.16846948713E+04  0.10100000352E+00 0. -1.
       -3    1    3    3    0  502 -0.41982983706E+03  0.11500514671E+04 -0.76160234040E+03  0.14418438210E+04  0.10100000352E+00 0.  1.
</event>
<event>
 5   0  0.4838602E-08  0.3098467E+04  0.7818609E-02  0.8216159E-01
        1   -1    0    0  501    0  0.00000000000E+00  0.00000000000E+00  0.17449489579E+04  0.17449489579E+04  0.50400001928E-02 0.  1.
       -1   -1    0    0    0  501  0.00000000000E+00  0.00000000000E+00 -0.13754696004E+04  0.13754696004E+04  0.50400001928E-02 0. -1.
    10030    2    1    2    0    0  0.00000000000E+00  0.00000000000E+00  0.36947935754E+03  0.31204185584E+04  0.30984668763E+04 0.  0.
        5    1    3    3  502    0 -0.60899658124E+03  0.38243587268E+02  0.16188235934E+04  0.17300148336E+04  0.46999998093E+01 0.  1.
       -5    1    3    3    0  502  0.60899658124E+03 -0.38243587268E+02 -0.12493442359E+04  0.13904037247E+04  0.46999998093E+01 0. -1.
</event>
<event>
 5   0  0.1325713E-07  0.3099641E+04  0.7818609E-02  0.8215836E-01
       -2   -1    0    0    0  501  0.00000000000E+00  0.00000000000E+00  0.10090030525E+04  0.10090030525E+04  0.25500000920E-02 0. -1.
        2   -1    0    0  501    0  0.00000000000E+00  0.00000000000E+00 -0.23805120803E+04  0.23805120803E+04  0.25500000920E-02 0.  1.
    10030    2    1    2    0    0  0.00000000000E+00  0.00000000000E+00 -0.13715090278E+04  0.33895151328E+04  0.30996412409E+04 0.  0.
        4    1    3    3  502    0 -0.80984123908E+03 -0.16456528075E+03  0.74797204641E+03  0.11146247616E+04  0.12699999809E+01 0. -1.
       -4    1    3    3    0  502  0.80984123908E+03  0.16456528075E+03 -0.21194810742E+04  0.22748903712E+04  0.12699999809E+01 0.  1.
</event>
<event>
 5   0  0.1398931E-07  0.3099940E+04  0.7818609E-02  0.8215754E-01
       -2   -1    0    0    0  501  0.00000000000E+00  0.00000000000E+00  0.21726035172E+04  0.21726035172E+04  0.25500000920E-02 0. -1.
        2   -1    0    0  501    0  0.00000000000E+00  0.00000000000E+00 -0.11057735331E+04  0.11057735331E+04  0.25500000920E-02 0.  1.
    10030    2    1    2    0    0  0.00000000000E+00  0.00000000000E+00  0.10668299841E+04  0.32783770504E+04  0.30999403009E+04 0.  0.
        3    1    3    3  502    0  0.11962073617E+03 -0.34512965093E+02  0.21673069575E+04  0.21708799422E+04  0.10100000352E+00 0. -1.
       -3    1    3    3    0  502 -0.11962073617E+03  0.34512965093E+02 -0.11004769734E+04  0.11074971081E+04  0.10100000352E+00 0.  1.
</event>
<event>
 5   0  0.1377237E-07  0.3100171E+04  0.7818609E-02  0.8215691E-01
       -2   -1    0    0    0  501  0.00000000000E+00  0.00000000000E+00  0.20980988530E+04  0.20980988530E+04  0.25500000920E-02 0. -1.
        2   -1    0    0  501    0  0.00000000000E+00  0.00000000000E+00 -0.11452106405E+04  0.11452106405E+04  0.25500000920E-02 0.  1.
    10030    2    1    2    0    0  0.00000000000E+00  0.00000000000E+00  0.95288821254E+03  0.32433094935E+04  0.31001710477E+04 0.  0.
        2    1    3    3  502    0  0.13740834006E+04 -0.10404168969E+03  0.12190305532E+04  0.18398275340E+04  0.25500000920E-02 0. -1.
       -2    1    3    3    0  502 -0.13740834006E+04  0.10404168969E+03 -0.26614234070E+03  0.14034819595E+04  0.25500000920E-02 0.  1.
</event>
<event>
 5   0  0.1329777E-07  0.3099778E+04  0.7818609E-02  0.8215799E-01
       -2   -1    0    0    0  501  0.00000000000E+00  0.00000000000E+00  0.15550137741E+04  0.15550137741E+04  0.25500000920E-02 0. -1.
        2   -1    0    0  501    0  0.00000000000E+00  0.00000000000E+00 -0.15447809597E+04  0.15447809597E+04  0.25500000920E-02 0.  1.
    10030    2    1    2    0    0  0.00000000000E+00  0.00000000000E+00  0.10232814375E+02  0.30997947338E+04  0.30997778438E+04 0.  0.
        1    1    3    3  502    0 -0.77722292365E+03 -0.13234762464E+04  0.22073488731E+03  0.15506091508E+04  0.50400001928E-02 0. -1.
       -1    1    3    3    0  502  0.77722292365E+03  0.13234762464E+04 -0.21050207293E+03  0.15491855830E+04  0.50400001928E-02 0.  1.
</event>
<event>
 5   0  0.1318916E-07  0.3100148E+04  0.7818609E-02  0.8215697E-01
       -2   -1    0    0    0  501  0.00000000000E+00  0.00000000000E+00  0.18280056193E+04  0.18280056193E+04  0.25500000920E-02 0. -1.
        2   -1    0    0  501    0  0.00000000000E+00  0.00000000000E+00 -0.13143994962E+04  0.13143994962E+04  0.25500000920E-02 0.  1.
    10030    2    1    2    0    0  0.00000000000E+00  0.00000000000E+00  0.51360612311E+03  0.31424051156E+04  0.31001481676E+04 0.  0.
        5    1    3    3  502    0  0.72786394565E+03 -0.50078369456E+03 -0.10341888859E+04  0.13601981377E+04  0.46999998093E+01 0.  1.
       -5    1    3    3    0  502 -0.72786394565E+03  0.50078369456E+03  0.15477950090E+04  0.17822069779E+04  0.46999998093E+01 0. -1.
</event>
<event>
 5   0  0.1398931E-07  0.3107386E+04  0.7818609E-02  0.8213714E-01
        2   -1    0    0  501    0  0.00000000000E+00  0.00000000000E+00  0.15221721750E+04  0.15221721750E+04  0.25500000920E-02 0. -1.
       -2   -1    0    0    0  501  0.00000000000E+00  0.00000000000E+00 -0.15858667244E+04  0.15858667244E+04  0.25500000920E-02 0.  1.
    10030    2    1    2    0    0  0.00000000000E+00  0.00000000000E+00 -0.63694549459E+02  0.31080388994E+04  0.31073861692E+04 0.  0.
        3    1    3    3  502    0 -0.12945575594E+04  0.55596160967E+03  0.62326328754E+03  0.15405939510E+04  0.10100000352E+00 0.  1.
       -3    1    3    3    0  502  0.12945575594E+04 -0.55596160967E+03 -0.68695783700E+03  0.15674449484E+04  0.10100000352E+00 0. -1.
</event>
<event>
 5   0  0.4470354E-08  0.3108026E+04  0.7818609E-02  0.8213539E-01
       -1   -1    0    0    0  501  0.00000000000E+00  0.00000000000E+00  0.10910042514E+04  0.10910042514E+04  0.50400001928E-02 0.  1.
        1   -1    0    0  501    0  0.00000000000E+00  0.00000000000E+00 -0.22135176383E+04  0.22135176383E+04  0.50400001928E-02 0. -1.
    10030    2    1    2    0    0  0.00000000000E+00  0.00000000000E+00 -0.11225133869E+04  0.33045218897E+04  0.31080264825E+04 0.  0.
        1    1    3    3  502    0 -0.12662840492E+04  0.88981223389E+03 -0.71054777657E+03  0.17029736485E+04  0.50400001928E-02 0. -1.
       -1    1    3    3    0  502  0.12662840492E+04 -0.88981223389E+03 -0.41196561030E+03  0.16015482412E+04  0.50400001928E-02 0.  1.
</event>
<event>
 5   0  0.4436241E-08  0.3099313E+04  0.7818609E-02  0.8215926E-01
       -1   -1    0    0    0  501  0.00000000000E+00  0.00000000000E+00  0.16176359748E+04  0.16176359748E+04  0.50400001928E-02 0.  1.
        1   -1    0    0  501    0  0.00000000000E+00  0.00000000000E+00 -0.14845341356E+04  0.14845341357E+04  0.50400001928E-02 0. -1.
    10030    2    1    2    0    0  0.00000000000E+00  0.00000000000E+00  0.13310183916E+03  0.31021701105E+04  0.30993133586E+04 0.  0.
        3    1    3    3  502    0  0.48846533851E+03  0.33130244490E+03  0.15007275661E+04  0.16126198978E+04  0.10100000352E+00 0.  1.
       -3    1    3    3    0  502 -0.48846533851E+03 -0.33130244490E+03 -0.13676257269E+04  0.14895502127E+04  0.10100000352E+00 0. -1.
</event>
<event>
 5   0  0.4838602E-08  0.3100278E+04  0.7818609E-02  0.8215662E-01
       -1   -1    0    0    0  501  0.00000000000E+00  0.00000000000E+00  0.19280379350E+04  0.19280379350E+04  0.50400001928E-02 0.  1.
        1   -1    0    0  501    0  0.00000000000E+00  0.00000000000E+00 -0.12463091331E+04  0.12463091331E+04  0.50400001928E-02 0. -1.
    10030    2    1    2    0    0  0.00000000000E+00  0.00000000000E+00  0.68172880192E+03  0.31743470681E+04  0.31002782374E+04 0.  0.
        5    1    3    3  502    0  0.20405155405E+03  0.10116574989E+03  0.19108061155E+04  0.19243371967E+04  0.46999998093E+01 0.  1.
       -5    1    3    3    0  502 -0.20405155405E+03 -0.10116574989E+03 -0.12290773136E+04  0.12500098713E+04  0.46999998093E+01 0. -1.
</event>
<event>
 5   0  0.4436241E-08  0.3095759E+04  0.7818609E-02  0.8216903E-01
        1   -1    0    0  501    0  0.00000000000E+00  0.00000000000E+00  0.17622265373E+04  0.17622265374E+04  0.50400001928E-02 0. -1.
       -1   -1    0    0    0  501  0.00000000000E+00  0.00000000000E+00 -0.13596045079E+04  0.13596045079E+04  0.50400001928E-02 0.  1.
    10030    2    1    2    0    0  0.00000000000E+00  0.00000000000E+00  0.40262202941E+03  0.31218310453E+04  0.30957591277E+04 0.  0.
        3    1    3    3  502    0  0.57766122388E+03  0.13945711769E+04 -0.14422597814E+03  0.15163516743E+04  0.10100000352E+00 0.  1.
       -3    1    3    3    0  502 -0.57766122388E+03 -0.13945711769E+04  0.54684800755E+03  0.16054793710E+04  0.10100000352E+00 0. -1.
</event>
<event>
 5   0  0.1377237E-07  0.3101706E+04  0.7818609E-02  0.8215270E-01
        2   -1    0    0  501    0  0.00000000000E+00  0.00000000000E+00  0.13219886677E+04  0.13219886677E+04  0.25500000920E-02 0. -1.
       -2   -1    0    0    0  501  0.00000000000E+00  0.00000000000E+00 -0.18193386088E+04  0.18193386088E+04  0.25500000920E-02 0.  1.
    10030    2    1    2    0    0  0.00000000000E+00  0.00000000000E+00 -0.49734994110E+03  0.31413272766E+04  0.31017059975E+04 0.  0.
        2    1    3    3  502    0  0.15259107546E+04 -0.11186375571E+03  0.79946051234E+01  0.15300264849E+04  0.25500000920E-02 0.  1.
       -2    1    3    3    0  502 -0.15259107546E+04  0.11186375571E+03 -0.50534454622E+03  0.16113007917E+04  0.25500000920E-02 0. -1.
</event>
<event>
 5   0  0.1398931E-07  0.3106504E+04  0.7818609E-02  0.8213955E-01
        2   -1    0    0  501    0  0.00000000000E+00  0.00000000000E+00  0.21279470948E+04  0.21279470948E+04  0.25500000920E-02 0.  1.
       -2   -1    0    0    0  501  0.00000000000E+00  0.00000000000E+00 -0.11337647281E+04  0.11337647281E+04  0.25500000920E-02 0. -1.
    10030    2    1    2    0    0  0.00000000000E+00  0.00000000000E+00  0.99418236668E+03  0.32617118229E+04  0.31065037321E+04 0.  0.
        3    1    3    3  502    0  0.53787588618E+03 -0.48563208416E+03 -0.94539132937E+03  0.11911816679E+04  0.10100000352E+00 0. -1.
       -3    1    3    3    0  502 -0.53787588618E+03  0.48563208416E+03  0.19395736960E+04  0.20705301550E+04  0.10100000352E+00 0.  1.
</event>
<event>
 5   0  0.4436241E-08  0.3099479E+04  0.7818609E-02  0.8215881E-01
        1   -1    0    0  501    0  0.00000000000E+00  0.00000000000E+00  0.97534122416E+03  0.97534122418E+03  0.50400001928E-02 0.  1.
       -1   -1    0    0    0  501  0.00000000000E+00  0.00000000000E+00 -0.24624130910E+04  0.24624130910E+04  0.50400001928E-02 0. -1.
    10030    2    1    2    0    0  0.00000000000E+00  0.00000000000E+00 -0.14870718668E+04  0.34377543151E+04  0.30994793102E+04 0.  0.
        3    1    3    3  502    0  0.11715677536E+04  0.32329630160E+03  0.32297027595E+03  0.12575377964E+04  0.10100000352E+00 0.  1.
       -3    1    3    3    0  502 -0.11715677536E+04 -0.32329630160E+03 -0.18100421428E+04  0.21802165188E+04  0.10100000352E+00 0. -1.
</event>
<event>
 5   0  0.4517409E-08  0.3102543E+04  0.7818609E-02  0.8215040E-01
        1   -1    0    0  501    0  0.00000000000E+00  0.00000000000E+00  0.17080367778E+04  0.17080367779E+04  0.50400001928E-02 0.  1.
       -1   -1    0    0    0  501  0.00000000000E+00  0.00000000000E+00 -0.14088939198E+04  0.14088939198E+04  0.50400001928E-02 0. -1.
    10030    2    1    2    0    0  0.00000000000E+00  0.00000000000E+00  0.29914285807E+03  0.31169306976E+04  0.31025425903E+04 0.  0.
        2    1    3    3  502    0 -0.62980725063E+03  0.12666181135E+04  0.78928498116E+03  0.16198609199E+04  0.25500000920E-02 0.  1.
       -2    1    3    3    0  502  0.62980725063E+03 -0.12666181135E+04 -0.49014212309E+03  0.14970697777E+04  0.25500000920E-02 0. -1.
</event>
<event>
 5   0  0.1377237E-07  0.3101968E+04  0.7818609E-02  0.8215198E-01
        2   -1    0    0  501    0  0.00000000000E+00  0.00000000000E+00  0.16124801137E+04  0.16124801137E+04  0.25500000920E-02 0.  1.
       -2   -1    0    0    0  501  0.00000000000E+00  0.00000000000E+00 -0.14918330122E+04  0.14918330122E+04  0.25500000920E-02 0. -1.
    10030    2    1    2    0    0  0.00000000000E+00  0.00000000000E+00  0.12064710147E+03  0.31043131259E+04  0.31019678046E+04 0.  0.
        2    1    3    3  502    0 -0.11336904780E+04  0.63206398828E+03 -0.78931310002E+03  0.15191359896E+04  0.25500000920E-02 0. -1.
       -2    1    3    3    0  502  0.11336904780E+04 -0.63206398828E+03  0.90996020149E+03  0.15851771363E+04  0.25500000920E-02 0.  1.
</event>
<event>
 5   0  0.4450600E-08  0.3098651E+04  0.7818609E-02  0.8216108E-01
        1   -1    0    0  501    0  0.00000000000E+00  0.00000000000E+00  0.18684304291E+04  0.18684304291E+04  0.50400001928E-02 0.  1.
       -1   -1    0    0    0  501  0.00000000000E+00  0.00000000000E+00 -0.12847196395E+04  0.12847196395E+04  0.50400001928E-02 0. -1.
    10030    2    1    2    0    0  0.00000000000E+00  0.00000000000E+00  0.58371078957E+03  0.31531500686E+04  0.30986508466E+04 0.  0.
        4    1    3    3  502    0 -0.75493244063E+03 -0.74286187402E+02 -0.10828176393E+04  0.13220957153E+04  0.12699999809E+01 0. -1.
       -4    1    3    3    0  502  0.75493244063E+03  0.74286187402E+02  0.16665284289E+04  0.18310543533E+04  0.12699999809E+01 0.  1.
</event>
<event>
 5   0  0.1329777E-07  0.3100052E+04  0.7818609E-02  0.8215724E-01
       -2   -1    0    0    0  501  0.00000000000E+00  0.00000000000E+00  0.17647042008E+04  0.17647042008E+04  0.25500000920E-02 0. -1.
        2   -1    0    0  501    0  0.00000000000E+00  0.00000000000E+00 -0.13614633862E+04  0.13614633862E+04  0.25500000920E-02 0.  1.
    10030    2    1    2    0    0  0.00000000000E+00  0.00000000000E+00  0.40324081453E+03  0.31261675870E+04  0.31000517137E+04 0.  0.
        1    1    3    3  502    0  0.11862699965E+04 -0.39075864958E+03  0.11273140316E+04  0.16824879651E+04  0.50400001928E-02 0. -1.
       -1    1    3    3    0  502 -0.11862699965E+04  0.39075864958E+03 -0.72407321711E+03  0.14436796219E+04  0.50400001928E-02 0.  1.
</event>
<event>
 5   0  0.4450600E-08  0.3100673E+04  0.7818609E-02  0.8215553E-01
       -1   -1    0    0    0  501  0.00000000000E+00  0.00000000000E+00  0.10536737705E+04  0.10536737705E+04  0.50400001928E-02 0. -1.
        1   -1    0    0  501    0  0.00000000000E+00  0.00000000000E+00 -0.22811074012E+04  0.22811074012E+04  0.50400001928E-02 0.  1.
    10030    2    1    2    0    0  0.00000000000E+00  0.00000000000E+00 -0.12274336307E+04  0.33347811717E+04  0.31006728536E+04 0.  0.
        4    1    3    3  502    0  0.15062376479E+04 -0.36370211786E+03 -0.55983059101E+03  0.16475566715E+04  0.12699999809E+01 0. -1.
       -4    1    3    3    0  502 -0.15062376479E+04  0.36370211786E+03 -0.66760303974E+03  0.16872245002E+04  0.12699999809E+01 0.  1.
</event>
<event>
 5   0  0.4436241E-08  0.3100513E+04  0.7818609E-02  0.8215597E-01
       -1   -1    0    0    0  501  0.00000000000E+00  0.00000000000E+00  0.11714157149E+04  0.11714157149E+04  0.50400001928E-02 0. -1.
        1   -1    0    0  501    0  0.00000000000E+00  0.00000000000E+00 -0.20516161338E+04  0.20516161338E+04  0.50400001928E-02 0.  1.
    10030    2    1    2    0    0  0.00000000000E+00  0.00000000000E+00 -0.88020041885E+03  0.32230318487E+04  0.31005131060E+04 0.  0.
        3    1    3    3  502    0  0.40329762572E+03  0.63338839008E+03  0.96976259843E+03  0.12264865817E+04  0.10100000352E+00 0. -1.
       -3    1    3    3    0  502 -0.40329762572E+03 -0.63338839008E+03 -0.18499630173E+04  0.19965452670E+04  0.10100000352E+00 0.  1.
</event>
<event>
 5   0  0.4517409E-08  0.3104544E+04  0.7818609E-02  0.8214492E-01
        1   -1    0    0  501    0  0.00000000000E+00  0.00000000000E+00  0.21599020764E+04  0.21599020764E+04  0.50400001928E-02 0. -1.
       -1   -1    0    0    0  501  0.00000000000E+00  0.00000000000E+00 -0.11155822333E+04  0.11155822333E+04  0.50400001928E-02 0.  1.
    10030    2    1    2    0    0  0.00000000000E+00  0.00000000000E+00  0.10443198431E+04  0.32754843097E+04  0.31045440129E+04 0.  0.
        2    1    3    3  502    0  0.58918227133E+03 -0.15952256253E+03 -0.98364774995E+03  0.11576467910E+04  0.25500000920E-02 0.  1.
       -2    1    3    3    0  502 -0.58918227133E+03  0.15952256253E+03  0.20279675930E+04  0.21178375186E+04  0.25500000920E-02 0. -1.
</event>
<event>
 5   0  0.1329777E-07  0.3099005E+04  0.7818609E-02  0.8216011E-01
        2   -1    0    0  501    0  0.00000000000E+00  0.00000000000E+00  0.21801249988E+04  0.21801249988E+04  0.25500000920E-02 0.  1.
       -2   -1    0    0    0  501  0.00000000000E+00  0.00000000000E+00 -0.11012940702E+04  0.11012940702E+04  0.25500000920E-02 0. -1.
    10030    2    1    2    0    0  0.00000000000E+00  0.00000000000E+00  0.10788309286E+04  0.32814190690E+04  0.30990054750E+04 0.  0.
        1    1    3    3  502    0 -0.62994797061E+03 -0.26148539530E+03  0.20126230677E+04  0.21250554511E+04  0.50400001928E-02 0.  1.
       -1    1    3    3    0  502  0.62994797061E+03  0.26148539530E+03 -0.93379213912E+03  0.11563636179E+04  0.50400001928E-02 0. -1.
</event>
<event>
 5   0  0.1318916E-07  0.3097938E+04  0.7818609E-02  0.8216304E-01
       -2   -1    0    0    0  501  0.00000000000E+00  0.00000000000E+00  0.14934139603E+04  0.14934139603E+04  0.25500000920E-02 0. -1.
        2   -1    0    0  501    0  0.00000000000E+00  0.00000000000E+00 -0.16065903954E+04  0.16065903954E+04  0.25500000920E-02 0.  1.
    10030    2    1    2    0    0  0.00000000000E+00  0.00000000000E+00 -0.11317643513E+03  0.31000043557E+04  0.30979377172E+04 0.  0.
        5    1    3    3  502    0  0.28096645035E+03  0.13689894295E+04  0.61184559470E+03  0.15255986779E+04  0.46999998093E+01 0. -1.
       -5    1    3    3    0  502 -0.28096645035E+03 -0.13689894295E+04 -0.72502202984E+03  0.15744056777E+04  0.46999998093E+01 0.  1.
</event>
<event>
 5   0  0.4838602E-08  0.3099835E+04  0.7818609E-02  0.8215783E-01
        1   -1    0    0  501    0  0.00000000000E+00  0.00000000000E+00  0.13551269650E+04  0.13551269650E+04  0.50400001928E-02 0. -1.
       -1   -1    0    0    0  501  0.00000000000E+00  0.00000000000E+00 -0.17727077693E+04  0.17727077693E+04  0.50400001928E-02 0.  1.
    10030    2    1    2    0    0  0.00000000000E+00  0.00000000000E+00 -0.41758080427E+03  0.31278347343E+04  0.30998348984E+04 0.  0.
        5    1    3    3  502    0  0.13781979483E+04 -0.43738927095E+03  0.35435746582E+03  0.14887344500E+04  0.46999998093E+01 0. -1.
       -5    1    3    3    0  502 -0.13781979483E+04  0.43738927095E+03 -0.77193827010E+03  0.16391002843E+04  0.46999998093E+01 0.  1.
</event>
<event>
 5   0  0.1325713E-07  0.3108933E+04  0.7818609E-02  0.8213291E-01
       -2   -1    0    0    0  501  0.00000000000E+00  0.00000000000E+00  0.94407655045E+03  0.94407655046E+03  0.25500000920E-02 0. -1.
        2   -1    0    0  501    0  0.00000000000E+00  0.00000000000E+00 -0.25595023497E+04  0.25595023497E+04  0.25500000920E-02 0.  1.
    10030    2    1    2    0    0  0.00000000000E+00  0.00000000000E+00 -0.16154257993E+04  0.35035789002E+04  0.31089330319E+04 0.  0.
        4    1    3    3  502    0 -0.12311613454E+04  0.94827101474E+03 -0.76572233945E+03  0.17324284949E+04  0.12699999809E+01 0.  1.
       -4    1    3    3    0  502  0.12311613454E+04 -0.94827101474E+03 -0.84970345981E+03  0.17711504053E+04  0.12699999809E+01 0. -1.
</event>
<event>
 5   0  0.4470354E-08  0.3099305E+04  0.7818609E-02  0.8215929E-01
        1   -1    0    0  501    0  0.00000000000E+00  0.00000000000E+00  0.26244203600E+04  0.26244203600E+04  0.50400001928E-02 0.  1.
       -1   -1    0    0    0  501  0.00000000000E+00  0.00000000000E+00 -0.91502978978E+03  0.91502978979E+03  0.50400001928E-02 0. -1.
    10030    2    1    2    0    0  0.00000000000E+00  0.00000000000E+00  0.17093905702E+04  0.35394501498E+04  0.30993049610E+04 0.  0.
        1    1    3    3  502    0 -0.78840443797E+03 -0.75476560607E+02 -0.66643351216E+03  0.10350902836E+04  0.50400001928E-02 0. -1.
       -1    1    3    3    0  502  0.78840443797E+03  0.75476560607E+02  0.23758240824E+04  0.25043598662E+04  0.50400001928E-02 0.  1.
</event>
<event>
 5   0  0.4838602E-08  0.3089977E+04  0.7818609E-02  0.8218494E-01
        1   -1    0    0  501    0  0.00000000000E+00  0.00000000000E+00  0.19832542586E+04  0.19832542586E+04  0.50400001928E-02 0. -1.
       -1   -1    0    0    0  501  0.00000000000E+00  0.00000000000E+00 -0.12035724150E+04  0.12035724150E+04  0.50400001928E-02 0.  1.
    10030    2    1    2    0    0  0.00000000000E+00  0.00000000000E+00  0.77968184361E+03  0.31868266736E+04  0.30899774223E+04 0.  0.
        5    1    3    3  502    0 -0.77851674433E+03  0.13123360233E+04  0.63961735930E+03  0.16545230780E+04  0.46999998093E+01 0.  1.
       -5    1    3    3    0  502  0.77851674433E+03 -0.13123360233E+04  0.14006448431E+03  0.15323035956E+04  0.46999998093E+01 0. -1.
</event>
<event>
 5   0  0.4517409E-08  0.3096325E+04  0.7818609E-02  0.8216747E-01
        1   -1    0    0  501    0  0.00000000000E+00  0.00000000000E+00  0.12548645281E+04  0.12548645281E+04  0.50400001928E-02 0.  1.
       -1   -1    0    0    0  501  0.00000000000E+00  0.00000000000E+00 -0.19100128136E+04  0.19100128136E+04  0.50400001928E-02 0. -1.
    10030    2    1    2    0    0  0.00000000000E+00  0.00000000000E+00 -0.65514828553E+03  0.31648773418E+04  0.30963251303E+04 0.  0.
        2    1    3    3  502    0  0.26172005168E+03  0.11615217642E+04 -0.13390160808E+04  0.17918131205E+04  0.25500000920E-02 0. -1.
       -2    1    3    3    0  502 -0.26172005168E+03 -0.11615217642E+04  0.68386779531E+03  0.13730642212E+04  0.25500000920E-02 0.  1.
</event>
<event>
 5   0  0.4517409E-08  0.3100050E+04  0.7818609E-02  0.8215724E-01
       -1   -1    0    0    0  501  0.00000000000E+00  0.00000000000E+00  0.26848935399E+04  0.26848935399E+04  0.50400001928E-02 0.  1.
        1   -1    0    0  501    0  0.00000000000E+00  0.00000000000E+00 -0.89485001147E+03  0.89485001148E+03  0.50400001928E-02 0. -1.
    10030    2    1    2    0    0  0.00000000000E+00  0.00000000000E+00  0.17900435284E+04  0.35797435514E+04  0.31000496867E+04 0.  0.
        2    1    3    3  502    0  0.66575226413E+03 -0.13997623930E+04  0.89037677287E+03  0.17875490572E+04  0.25500000920E-02 0.  1.
       -2    1    3    3    0  502 -0.66575226413E+03  0.13997623930E+04  0.89966675557E+03  0.17921944942E+04  0.25500000920E-02 0. -1.
</event>
<event>
 5   0  0.4838602E-08  0.3100113E+04  0.7818609E-02  0.8215707E-01
        1   -1    0    0  501    0  0.00000000000E+00  0.00000000000E+00  0.19869860696E+04  0.19869860696E+04  0.50400001928E-02 0. -1.
       -1   -1    0    0    0  501  0.00000000000E+00  0.00000000000E+00 -0.12092058286E+04  0.12092058286E+04  0.50400001928E-02 0.  1.
    10030    2    1    2    0    0  0.00000000000E+00  0.00000000000E+00  0.77778024100E+03  0.31961918981E+04  0.31001129893E+04 0.  0.
        5    1    3    3  502    0 -0.10078646162E+04 -0.11707177290E+04  0.52044551985E+03  0.16301094181E+04  0.46999998093E+01 0. -1.
       -5    1    3    3    0  502  0.10078646162E+04  0.11707177290E+04  0.25733472115E+03  0.15660824801E+04  0.46999998093E+01 0.  1.
</event>
<event>
 5   0  0.4838602E-08  0.3098403E+04  0.7818609E-02  0.8216176E-01
       -1   -1    0    0    0  501  0.00000000000E+00  0.00000000000E+00  0.16809738487E+04  0.16809738487E+04  0.50400001928E-02 0. -1.
        1   -1    0    0  501    0  0.00000000000E+00  0.00000000000E+00 -0.14277589544E+04  0.14277589544E+04  0.50400001928E-02 0.  1.
    10030    2    1    2    0    0  0.00000000000E+00  0.00000000000E+00  0.25321489427E+03  0.31087328031E+04  0.30984031142E+04 0.  0.
        5    1    3    3  502    0  0.52926129945E+03  0.82825144642E+03  0.13280491310E+04  0.16522271532E+04  0.46999998093E+01 0. -1.
       -5    1    3    3    0  502 -0.52926129945E+03 -0.82825144642E+03 -0.10748342367E+04  0.14565056498E+04  0.46999998093E+01 0.  1.
</event>
<event>
 5   0  0.4517409E-08  0.3100262E+04  0.7818609E-02  0.8215666E-01
       -1   -1    0    0    0  501  0.00000000000E+00  0.00000000000E+00  0.97647228063E+03  0.97647228065E+03  0.50400001928E-02 0. -1.
        1   -1    0    0  501    0  0.00000000000E+00  0.00000000000E+00 -0.24608038099E+04  0.24608038100E+04  0.50400001928E-02 0.  1.
    10030    2    1    2    0    0  0.00000000000E+00  0.00000000000E+00 -0.14843315293E+04  0.34372760906E+04  0.31002623815E+04 0.  0.
        2    1    3    3  502    0  0.15225819633E+04 -0.11623401454E+03 -0.10378815493E+04  0.18463380762E+04  0.25500000920E-02 0.  1.
       -2    1    3    3    0  502 -0.15225819633E+04  0.11623401454E+03 -0.44644998000E+03  0.15909380144E+04  0.25500000920E-02 0. -1.
</event>
<event>
 5   0  0.4517409E-08  0.3100988E+04  0.7818609E-02  0.8215467E-01
       -1   -1    0    0    0  501  0.00000000000E+00  0.00000000000E+00  0.10957209029E+04  0.10957209029E+04  0.50400001928E-02 0. -1.
        1   -1    0    0  501    0  0.00000000000E+00  0.00000000000E+00 -0.21940181381E+04  0.21940181381E+04  0.50400001928E-02 0.  1.
    10030    2    1    2    0    0  0.00000000000E+00  0.00000000000E+00 -0.10982972352E+04  0.32897390410E+04  0.31009879298E+04 0.  0.
        2    1    3    3  502    0  0.11644303910E+04 -0.99118173528E+03 -0.82105422775E+03  0.17356466843E+04  0.25500000920E-02 0. -1.
       -2    1    3    3    0  502 -0.11644303910E+04  0.99118173528E+03 -0.27724300745E+03  0.15540923567E+04  0.25500000920E-02 0.  1.
</event>
<event>
 5   0  0.4517409E-08  0.3100987E+04  0.7818609E-02  0.8215467E-01
        1   -1    0    0  501    0  0.00000000000E+00  0.00000000000E+00  0.17480756680E+04  0.17480756680E+04  0.50400001928E-02 0.  1.
       -1   -1    0    0    0  501  0.00000000000E+00  0.00000000000E+00 -0.13752438949E+04  0.13752438949E+04  0.50400001928E-02 0. -1.
    10030    2    1    2    0    0  0.00000000000E+00  0.00000000000E+00  0.37283177315E+03  0.31233195629E+04  0.31009871914E+04 0.  0.
        2    1    3    3  502    0  0.61108995740E+03 -0.10405899584E+04 -0.79413104384E+03  0.14446115437E+04  0.25500000920E-02 0. -1.
       -2    1    3    3    0  502 -0.61108995740E+03  0.10405899584E+04  0.11669628170E+04  0.16787080192E+04  0.25500000920E-02 0.  1.
</event>
<event>
 5   0  0.1329777E-07  0.3100166E+04  0.7818609E-02  0.8215692E-01
       -2   -1    0    0    0  501  0.00000000000E+00  0.00000000000E+00  0.81932111441E+03  0.81932111441E+03  0.25500000920E-02 0.  1.
        2   -1    0    0  501    0  0.00000000000E+00  0.00000000000E+00 -0.29326192206E+04  0.29326192206E+04  0.25500000920E-02 0. -1.
    10030    2    1    2    0    0  0.00000000000E+00  0.00000000000E+00 -0.21132981062E+04  0.37519403351E+04  0.31001657040E+04 0.  0.
        1    1    3    3  502    0  0.13776547958E+04 -0.70663261630E+03 -0.96694059029E+03  0.18254414523E+04  0.50400001928E-02 0.  1.
       -1    1    3    3    0  502 -0.13776547958E+04  0.70663261630E+03 -0.11463575159E+04  0.19264988827E+04  0.50400001928E-02 0. -1.
</event>
<event>
 5   0  0.4838602E-08  0.3100585E+04  0.7818609E-02  0.8215577E-01
       -1   -1    0    0    0  501  0.00000000000E+00  0.00000000000E+00  0.14529896278E+04  0.14529896278E+04  0.50400001928E-02 0.  1.
        1   -1    0    0  501    0  0.00000000000E+00  0.00000000000E+00 -0.16541118614E+04  0.16541118614E+04  0.50400001928E-02 0. -1.
    10030    2    1    2    0    0  0.00000000000E+00  0.00000000000E+00 -0.20112223363E+03  0.31071014892E+04  0.31005853498E+04 0.  0.
        5    1    3    3  502    0  0.69123683748E+03  0.33006871157E+03 -0.14512184374E+04  0.16409785992E+04  0.46999998093E+01 0. -1.
       -5    1    3    3    0  502 -0.69123683748E+03 -0.33006871157E+03  0.12500962038E+04  0.14661228900E+04  0.46999998093E+01 0.  1.
</event>
<event>
 5   0  0.4517409E-08  0.3080674E+04  0.7818609E-02  0.8221062E-01
       -1   -1    0    0    0  501  0.00000000000E+00  0.00000000000E+00  0.16745976429E+04  0.16745976430E+04  0.50400001928E-02 0.  1.
        1   -1    0    0  501    0  0.00000000000E+00  0.00000000000E+00 -0.14168406087E+04  0.14168406087E+04  0.50400001928E-02 0. -1.
    10030    2    1    2    0    0  0.00000000000E+00  0.00000000000E+00  0.25775703426E+03  0.30914382516E+04  0.30806739157E+04 0.  0.
        2    1    3    3  502    0  0.99121673501E+03  0.66183979123E+03  0.11080417164E+04  0.16273595086E+04  0.25500000920E-02 0.  1.
       -2    1    3    3    0  502 -0.99121673501E+03 -0.66183979123E+03 -0.85028468215E+03  0.14640787430E+04  0.25500000920E-02 0. -1.
</event>
<event>
 5   0  0.4470354E-08  0.3099737E+04  0.7818609E-02  0.8215810E-01
        1   -1    0    0  501    0  0.00000000000E+00  0.00000000000E+00  0.21361718199E+04  0.21361718199E+04  0.50400001928E-02 0. -1.
       -1   -1    0    0    0  501  0.00000000000E+00  0.00000000000E+00 -0.11244848505E+04  0.11244848505E+04  0.50400001928E-02 0.  1.
    10030    2    1    2    0    0  0.00000000000E+00  0.00000000000E+00  0.10116869694E+04  0.32606566705E+04  0.30997373112E+04 0.  0.
        1    1    3    3  502    0 -0.58512630163E+03 -0.12336394178E+04  0.12773015456E+04  0.18696893433E+04  0.50400001928E-02 0.  1.
       -1    1    3    3    0  502  0.58512630163E+03  0.12336394178E+04 -0.26561457619E+03  0.13909673272E+04  0.50400001928E-02 0. -1.
</event>
<event>
 5   0  0.1318916E-07  0.3100599E+04  0.7818609E-02  0.8215573E-01
       -2   -1    0    0    0  501  0.00000000000E+00  0.00000000000E+00  0.15430209492E+04  0.15430209492E+04  0.25500000920E-02 0.  1.
        2   -1    0    0  501    0  0.00000000000E+00  0.00000000000E+00 -0.15576126342E+04  0.15576126342E+04  0.25500000920E-02 0. -1.
    10030    2    1    2    0    0  0.00000000000E+00  0.00000000000E+00 -0.14591685062E+02  0.31006335834E+04  0.31005992487E+04 0.  0.
        5    1    3    3  502    0  0.77480697808E+03  0.38163483743E+03 -0.12947244971E+04  0.15563754739E+04  0.46999998093E+01 0. -1.
       -5    1    3    3    0  502 -0.77480697808E+03 -0.38163483743E+03  0.12801328120E+04  0.15442581095E+04  0.46999998093E+01 0.  1.
</event>
<event>
 5   0  0.1318916E-07  0.3099781E+04  0.7818609E-02  0.8215798E-01
       -2   -1    0    0    0  501  0.00000000000E+00  0.00000000000E+00  0.20587054207E+04  0.20587054207E+04  0.25500000920E-02 0.  1.
        2   -1    0    0  501    0  0.00000000000E+00  0.00000000000E+00 -0.11668307941E+04  0.11668307941E+04  0.25500000920E-02 0. -1.
    10030    2    1    2    0    0  0.00000000000E+00  0.00000000000E+00  0.89187462663E+03  0.32255362148E+04  0.30997812057E+04 0.  0.
        5    1    3    3  502    0  0.59893159153E+03 -0.54646258836E+03  0.18204333949E+04  0.19928221815E+04  0.46999998093E+01 0.  1.
       -5    1    3    3    0  502 -0.59893159153E+03  0.54646258836E+03 -0.92855876826E+03  0.12327140333E+04  0.46999998093E+01 0. -1.
</event>
<event>
 5   0  0.1325713E-07  0.3100369E+04  0.7818609E-02  0.8215637E-01
        2   -1    0    0  501    0  0.00000000000E+00  0.00000000000E+00  0.12269414154E+04  0.12269414154E+04  0.25500000920E-02 0.  1.
       -2   -1    0    0    0  501  0.00000000000E+00  0.00000000000E+00 -0.19585877252E+04  0.19585877252E+04  0.25500000920E-02 0. -1.
    10030    2    1    2    0    0  0.00000000000E+00  0.00000000000E+00 -0.73164630976E+03  0.31855291406E+04  0.31003692656E+04 0.  0.
        4    1    3    3  502    0 -0.24856315061E+03 -0.10796174820E+04  0.74826322007E+03  0.13368833183E+04  0.12699999809E+01 0.  1.
       -4    1    3    3    0  502  0.24856315061E+03  0.10796174820E+04 -0.14799095298E+04  0.18486458224E+04  0.12699999809E+01 0. -1.
</event>
<event>
 5   0  0.4838602E-08  0.3104362E+04  0.7818609E-02  0.8214542E-01
       -1   -1    0    0    0  501  0.00000000000E+00  0.00000000000E+00  0.11935088053E+04  0.11935088053E+04  0.50400001928E-02 0.  1.
        1   -1    0    0  501    0  0.00000000000E+00  0.00000000000E+00 -0.20186413579E+04  0.20186413579E+04  0.50400001928E-02 0. -1.
    10030    2    1    2    0    0  0.00000000000E+00  0.00000000000E+00 -0.82513255257E+03  0.32121501632E+04  0.31043622440E+04 0.  0.
        5    1    3    3  502    0 -0.53779136552E+03 -0.50551110314E+03  0.10003052554E+04  0.12431386577E+04  0.46999998093E+01 0.  1.
       -5    1    3    3    0  502  0.53779136552E+03  0.50551110314E+03 -0.18254378080E+04  0.19690115056E+04  0.46999998093E+01 0. -1.
</event>
<event>
 5   0  0.1377237E-07  0.3100796E+04  0.7818609E-02  0.8215520E-01
       -2   -1    0    0    0  501  0.00000000000E+00  0.00000000000E+00  0.23923148971E+04  0.23923148971E+04  0.25500000920E-02 0. -1.
        2   -1    0    0  501    0  0.00000000000E+00  0.00000000000E+00 -0.10047731278E+04  0.10047731278E+04  0.25500000920E-02 0.  1.
    10030    2    1    2    0    0  0.00000000000E+00  0.00000000000E+00  0.13875417694E+04  0.33970880249E+04  0.31007958474E+04 0.  0.
        2    1    3    3  502    0 -0.64564283482E+03  0.24689607140E+03 -0.82661176194E+03  0.10775431988E+04  0.25500000920E-02 0.  1.
       -2    1    3    3    0  502  0.64564283482E+03 -0.24689607140E+03  0.22141535313E+04  0.23195448261E+04  0.25500000920E-02 0. -1.
</event>
<event>
 5   0  0.4517409E-08  0.3099355E+04  0.7818609E-02  0.8215915E-01
        1   -1    0    0  501    0  0.00000000000E+00  0.00000000000E+00  0.17060636631E+04  0.17060636631E+04  0.50400001928E-02 0.  1.
       -1   -1    0    0    0  501  0.00000000000E+00  0.00000000000E+00 -0.14076265447E+04  0.14076265447E+04  0.50400001928E-02 0. -1.
    10030    2    1    2    0    0  0.00000000000E+00  0.00000000000E+00  0.29843711844E+03  0.31136902079E+04  0.30993550937E+04 0.  0.
        2    1    3    3  502    0 -0.23542125291E+01 -0.38418366511E+03  0.16574610822E+04  0.17014052632E+04  0.25500000920E-02 0.  1.
       -2    1    3    3    0  502  0.23542125291E+01  0.38418366511E+03 -0.13590239637E+04  0.14122849446E+04  0.25500000920E-02 0. -1.
</event>
<event>
 5   0  0.1377237E-07  0.3100978E+04  0.7818609E-02  0.8215470E-01
        2   -1    0    0  501    0  0.00000000000E+00  0.00000000000E+00  0.17768515444E+04  0.17768515444E+04  0.25500000920E-02 0.  1.
       -2   -1    0    0    0  501  0.00000000000E+00  0.00000000000E+00 -0.13529640023E+04  0.13529640023E+04  0.25500000920E-02 0. -1.
    10030    2    1    2    0    0  0.00000000000E+00  0.00000000000E+00  0.42388754204E+03  0.31298155467E+04  0.31009780245E+04 0.  0.
        2    1    3    3  502    0  0.11618171150E+04  0.50032456680E+03 -0.69298342397E+03  0.14423486773E+04  0.25500000920E-02 0. -1.
       -2    1    3    3    0  502 -0.11618171150E+04 -0.50032456680E+03  0.11168709660E+04  0.16874668695E+04  0.25500000920E-02 0.  1.
</event>
<event>
 5   0  0.4838602E-08  0.3098072E+04  0.7818609E-02  0.8216267E-01
        1   -1    0    0  501    0  0.00000000000E+00  0.00000000000E+00  0.12808026414E+04  0.12808026414E+04  0.50400001928E-02 0. -1.
       -1   -1    0    0    0  501  0.00000000000E+00  0.00000000000E+00 -0.18734446756E+04  0.18734446756E+04  0.50400001928E-02 0.  1.
    10030    2    1    2    0    0  0.00000000000E+00  0.00000000000E+00 -0.59264203420E+03  0.31542473170E+04  0.30980722322E+04 0.  0.
        5    1    3    3  502    0  0.33713647340E+03 -0.12969984095E+04 -0.10873416007E+04  0.17257461350E+04  0.46999998093E+01 0.  1.
       -5    1    3    3    0  502 -0.33713647340E+03  0.12969984095E+04  0.49469956648E+03  0.14285011820E+04  0.46999998093E+01 0. -1.
</event>
<event>
 5   0  0.1325713E-07  0.3100175E+04  0.7818609E-02  0.8215690E-01
       -2   -1    0    0    0  501  0.00000000000E+00  0.00000000000E+00  0.17721453860E+04  0.17721453860E+04  0.25500000920E-02 0.  1.
        2   -1    0    0  501    0  0.00000000000E+00  0.00000000000E+00 -0.13558542420E+04  0.13558542420E+04  0.25500000920E-02 0. -1.
    10030    2    1    2    0    0  0.00000000000E+00  0.00000000000E+00  0.41629114397E+03  0.31279996280E+04  0.31001747299E+04 0.  0.
        4    1    3    3  502    0  0.24289724699E+03 -0.62763301150E+03 -0.12007564203E+04  0.13764955007E+04  0.12699999809E+01 0. -1.
       -4    1    3    3    0  502 -0.24289724699E+03  0.62763301150E+03  0.16170475643E+04  0.17515041272E+04  0.12699999809E+01 0.  1.
</event>
<event>
 5   0  0.4470354E-08  0.3100196E+04  0.7818609E-02  0.8215684E-01
       -1   -1    0    0    0  501  0.00000000000E+00  0.00000000000E+00  0.82332830861E+03  0.82332830863E+03  0.50400001928E-02 0.  1.
        1   -1    0    0  501    0  0.00000000000E+00  0.00000000000E+00 -0.29184029514E+04  0.29184029514E+04  0.50400001928E-02 0. -1.
    10030    2    1    2    0    0  0.00000000000E+00  0.00000000000E+00 -0.20950746427E+04  0.37417312600E+04  0.31001959718E+04 0.  0.
        1    1    3    3  502    0  0.76296061414E+03  0.12272943148E+04 -0.37074600561E+03  0.14919158269E+04  0.50400001928E-02 0.  1.
       -1    1    3    3    0  502 -0.76296061414E+03 -0.12272943148E+04 -0.17243286371E+04  0.22498154331E+04  0.50400001928E-02 0. -1.
</event>
<event>
 5   0  0.4838602E-08  0.3102100E+04  0.7818609E-02  0.8215162E-01
        1   -1    0    0  501    0  0.00000000000E+00  0.00000000000E+00  0.25531380105E+04  0.25531380105E+04  0.50400001928E-02 0.  1.
       -1   -1    0    0    0  501  0.00000000000E+00  0.00000000000E+00 -0.94227415788E+03  0.94227415790E+03  0.50400001928E-02 0. -1.
    10030    2    1    2    0    0  0.00000000000E+00  0.00000000000E+00  0.16108638526E+04  0.34954121684E+04  0.31020999138E+04 0.  0.
        5    1    3    3  502    0  0.67861635756E+03 -0.65897509768E+03 -0.57963223432E+03  0.11093980157E+04  0.46999998093E+01 0. -1.
       -5    1    3    3    0  502 -0.67861635756E+03  0.65897509768E+03  0.21904960869E+04  0.23860141527E+04  0.46999998093E+01 0.  1.
</event>
<event>
 5   0  0.4470354E-08  0.3101584E+04  0.7818609E-02  0.8215303E-01
        1   -1    0    0  501    0  0.00000000000E+00  0.00000000000E+00  0.22937204023E+04  0.22937204023E+04  0.50400001928E-02 0.  1.
       -1   -1    0    0    0  501  0.00000000000E+00  0.00000000000E+00 -0.10484953334E+04  0.10484953334E+04  0.50400001928E-02 0. -1.
    10030    2    1    2    0    0  0.00000000000E+00  0.00000000000E+00  0.12452250689E+04  0.33422157357E+04  0.31015835555E+04 0.  0.
        1    1    3    3  502    0  0.92453626960E+03 -0.59737442932E+03 -0.55453681669E+03  0.12325317861E+04  0.50400001928E-02 0. -1.
       -1    1    3    3    0  502 -0.92453626960E+03  0.59737442932E+03  0.17997618856E+04  0.21096839497E+04  0.50400001928E-02 0.  1.
</event>
<event>
 5   0  0.1377237E-07  0.3122112E+04  0.7818609E-02  0.8209695E-01
       -2   -1    0    0    0  501  0.00000000000E+00  0.00000000000E+00  0.15323139490E+04  0.15323139490E+04  0.25500000920E-02 0. -1.
        2   -1    0    0  501    0  0.00000000000E+00  0.00000000000E+00 -0.15903375071E+04  0.15903375072E+04  0.25500000920E-02 0.  1.
    10030    2    1    2    0    0  0.00000000000E+00  0.00000000000E+00 -0.58023558104E+02  0.31226514562E+04  0.31221123272E+04 0.  0.
        2    1    3    3  502    0  0.73230274804E+02 -0.94449000800E+03  0.12119572045E+04  0.15382666589E+04  0.25500000920E-02 0. -1.
       -2    1    3    3    0  502 -0.73230274804E+02  0.94449000800E+03 -0.12699807626E+04  0.15843847973E+04  0.25500000920E-02 0.  1.
</event>
<event>
 5   0  0.1398931E-07  0.3098312E+04  0.7818609E-02  0.8216201E-01
       -2   -1    0    0    0  501  0.00000000000E+00  0.00000000000E+00  0.17758372767E+04  0.17758372767E+04  0.25500000920E-02 0. -1.
        2   -1    0    0  501    0  0.00000000000E+00  0.00000000000E+00 -0.13514096997E+04  0.13514096997E+04  0.25500000920E-02 0.  1.
    10030    2    1    2    0    0  0.00000000000E+00  0.00000000000E+00  0.42442757705E+03  0.31272469764E+04  0.30983116182E+04 0.  0.
        3    1    3    3  502    0  0.15422854988E+04 -0.11722304832E+03  0.12481465295E+03  0.15517617441E+04  0.10100000352E+00 0.  1.
       -3    1    3    3    0  502 -0.15422854988E+04  0.11722304832E+03  0.29961292409E+03  0.15754852323E+04  0.10100000352E+00 0. -1.
</event>
<event>
 5   0  0.4838602E-08  0.3100072E+04  0.7818609E-02  0.8215718E-01
       -1   -1    0    0    0  501  0.00000000000E+00  0.00000000000E+00  0.27864716922E+04  0.27864716922E+04  0.50400001928E-02 0. -1.
        1   -1    0    0  501    0  0.00000000000E+00  0.00000000000E+00 -0.86224148422E+03  0.86224148424E+03  0.50400001928E-02 0.  1.
    10030    2    1    2    0    0  0.00000000000E+00  0.00000000000E+00  0.19242302080E+04  0.36487131765E+04  0.31000719267E+04 0.  0.
        5    1    3    3  502    0  0.34020663009E+03 -0.13910427646E+04  0.16602607555E+04  0.21925392563E+04  0.46999998093E+01 0.  1.
       -5    1    3    3    0  502 -0.34020663009E+03  0.13910427646E+04  0.26396945246E+03  0.14561739202E+04  0.46999998093E+01 0. -1.
</event>
<event>
 5   0  0.4305500E-08  0.3100407E+04  0.7818609E-02  0.8215626E-01
       -4   -1    0    0    0  501  0.00000000000E+00  0.00000000000E+00  0.13083144093E+04  0.13083150257E+04  0.12699999809E+01 0. -1.
        4   -1    0    0  501    0  0.00000000000E+00  0.00000000000E+00 -0.18368134626E+04  0.18368139016E+04  0.12699999809E+01 0.  1.
    10030    2    1    2    0    0  0.00000000000E+00  0.00000000000E+00 -0.52849905330E+03  0.31451289273E+04  0.31004071861E+04 0.  0.
        2    1    3    3  502    0 -0.66457502894E+03  0.97575486584E+03  0.75491828844E+03  0.14013062297E+04  0.25500000920E-02 0. -1.
       -2    1    3    3    0  502  0.66457502894E+03 -0.97575486584E+03 -0.12834173417E+04  0.17438226975E+04  0.25500000920E-02 0.  1.
</event>
<event>
 5   0  0.1318916E-07  0.3099992E+04  0.7818609E-02  0.8215740E-01
       -2   -1    0    0    0  501  0.00000000000E+00  0.00000000000E+00  0.17978220082E+04  0.17978220082E+04  0.25500000920E-02 0. -1.
        2   -1    0    0  501    0  0.00000000000E+00  0.00000000000E+00 -0.13363319285E+04  0.13363319285E+04  0.25500000920E-02 0.  1.
    10030    2    1    2    0    0  0.00000000000E+00  0.00000000000E+00  0.46149007972E+03  0.31341539366E+04  0.30999915814E+04 0.  0.
        5    1    3    3  502    0  0.63598246298E+03 -0.13317990856E+04 -0.24807986807E+03  0.14965721529E+04  0.46999998093E+01 0.  1.
       -5    1    3    3    0  502 -0.63598246298E+03  0.13317990856E+04  0.70956994779E+03  0.16375817838E+04  0.46999998093E+01 0. -1.
</event>
<event>
 5   0  0.1318916E-07  0.3100381E+04  0.7818609E-02  0.8215633E-01
        2   -1    0    0  501    0  0.00000000000E+00  0.00000000000E+00  0.19148569092E+04  0.19148569092E+04  0.25500000920E-02 0.  1.
       -2   -1    0    0    0  501  0.00000000000E+00  0.00000000000E+00 -0.12549709933E+04  0.12549709933E+04  0.25500000920E-02 0. -1.
    10030    2    1    2    0    0  0.00000000000E+00  0.00000000000E+00  0.65988591588E+03  0.31698279026E+04  0.31003805427E+04 0.  0.
        5    1    3    3  502    0 -0.29923300846E+03  0.14207997700E+04 -0.22522607045E+03  0.14693404142E+04  0.46999998093E+01 0.  1.
       -5    1    3    3    0  502  0.29923300846E+03 -0.14207997700E+04  0.88511198633E+03  0.17004874884E+04  0.46999998093E+01 0. -1.
</event>
<event>
 5   0  0.4470354E-08  0.3100368E+04  0.7818609E-02  0.8215637E-01
       -1   -1    0    0    0  501  0.00000000000E+00  0.00000000000E+00  0.14316007554E+04  0.14316007554E+04  0.50400001928E-02 0. -1.
        1   -1    0    0  501    0  0.00000000000E+00  0.00000000000E+00 -0.16785895914E+04  0.16785895915E+04  0.50400001928E-02 0.  1.
    10030    2    1    2    0    0  0.00000000000E+00  0.00000000000E+00 -0.24698883604E+03  0.31101903469E+04  0.31003678021E+04 0.  0.
        1    1    3    3  502    0 -0.37245985074E+03  0.14189053691E+04  0.37914324001E+03  0.15151793238E+04  0.50400001928E-02 0. -1.
       -1    1    3    3    0  502  0.37245985074E+03 -0.14189053691E+04 -0.62613207605E+03  0.15950110230E+04  0.50400001928E-02 0.  1.
</event>
<event>
 5   0  0.1325713E-07  0.3099416E+04  0.7818609E-02  0.8215898E-01
        2   -1    0    0  501    0  0.00000000000E+00  0.00000000000E+00  0.23250747251E+04  0.23250747251E+04  0.25500000920E-02 0.  1.
       -2   -1    0    0    0  501  0.00000000000E+00  0.00000000000E+00 -0.10329110607E+04  0.10329110607E+04  0.25500000920E-02 0. -1.
    10030    2    1    2    0    0  0.00000000000E+00  0.00000000000E+00  0.12921636644E+04  0.33579857857E+04  0.30994163324E+04 0.  0.
        4    1    3    3  502    0 -0.70591540520E+03 -0.13777459067E+04  0.56875953675E+03  0.16492390264E+04  0.12699999809E+01 0. -1.
       -4    1    3    3    0  502  0.70591540520E+03  0.13777459067E+04  0.72340412765E+03  0.17087467593E+04  0.12699999809E+01 0.  1.
</event>
<event>
 5   0  0.4470354E-08  0.3099048E+04  0.7818609E-02  0.8215999E-01
       -1   -1    0    0    0  501  0.00000000000E+00  0.00000000000E+00  0.16234942707E+04  0.16234942707E+04  0.50400001928E-02 0. -1.
        1   -1    0    0  501    0  0.00000000000E+00  0.00000000000E+00 -0.14789243188E+04  0.14789243188E+04  0.50400001928E-02 0.  1.
    10030    2    1    2    0    0  0.00000000000E+00  0.00000000000E+00  0.14456995187E+03  0.31024185895E+04  0.30990483432E+04 0.  0.
        1    1    3    3  502    0 -0.15035626243E+04  0.13833991181E+03 -0.27621235393E+03  0.15349696286E+04  0.50400001928E-02 0.  1.
       -1    1    3    3    0  502  0.15035626243E+04 -0.13833991181E+03  0.42078230581E+03  0.15674489609E+04  0.50400001928E-02 0. -1.
</event>
<event>
 5   0  0.4436241E-08  0.3099474E+04  0.7818609E-02  0.8215882E-01
        1   -1    0    0  501    0  0.00000000000E+00  0.00000000000E+00  0.14280099529E+04  0.14280099529E+04  0.50400001928E-02 0. -1.
       -1   -1    0    0    0  501  0.00000000000E+00  0.00000000000E+00 -0.16818398710E+04  0.16818398710E+04  0.50400001928E-02 0.  1.
    10030    2    1    2    0    0  0.00000000000E+00  0.00000000000E+00 -0.25382991808E+03  0.31098498240E+04  0.30994735521E+04 0.  0.
        3    1    3    3  502    0  0.27535273095E+03  0.14375980633E+04  0.38388340722E+03  0.15132328963E+04  0.10100000352E+00 0. -1.
       -3    1    3    3    0  502 -0.27535273095E+03 -0.14375980633E+04 -0.63771332531E+03  0.15966169276E+04  0.10100000352E+00 0.  1.
</event>
<event>
 5   0  0.4450600E-08  0.3098143E+04  0.7818609E-02  0.8216248E-01
        1   -1    0    0  501    0  0.00000000000E+00  0.00000000000E+00  0.19016172022E+04  0.19016172022E+04  0.50400001928E-02 0. -1.
       -1   -1    0    0    0  501  0.00000000000E+00  0.00000000000E+00 -0.12618848469E+04  0.12618848469E+04  0.50400001928E-02 0.  1.
    10030    2    1    2    0    0  0.00000000000E+00  0.00000000000E+00  0.63973235534E+03  0.31635020491E+04  0.30981426255E+04 0.  0.
        4    1    3    3  502    0 -0.14078171094E+04 -0.64281190985E+03  0.25164231434E+03  0.15679546014E+04  0.12699999809E+01 0.  1.
       -4    1    3    3    0  502  0.14078171094E+04  0.64281190985E+03  0.38809004101E+03  0.15955474477E+04  0.12699999809E+01 0. -1.
</event>
<event>
 5   0  0.1325713E-07  0.3100033E+04  0.7818609E-02  0.8215729E-01
       -2   -1    0    0    0  501  0.00000000000E+00  0.00000000000E+00  0.18874219257E+04  0.18874219257E+04  0.25500000920E-02 0.  1.
        2   -1    0    0  501    0  0.00000000000E+00  0.00000000000E+00 -0.12729274619E+04  0.12729274619E+04  0.25500000920E-02 0. -1.
    10030    2    1    2    0    0  0.00000000000E+00  0.00000000000E+00  0.61449446380E+03  0.31603493875E+04  0.31000330329E+04 0.  0.
        4    1    3    3  502    0 -0.10254975626E+04 -0.11046644282E+04 -0.61199755817E+02  0.15085343128E+04  0.12699999809E+01 0.  1.
       -4    1    3    3    0  502  0.10254975626E+04  0.11046644282E+04  0.67569421962E+03  0.16518150748E+04  0.12699999809E+01 0. -1.
</event>
<event>
 5   0  0.4450600E-08  0.3105257E+04  0.7818609E-02  0.8214297E-01
       -1   -1    0    0    0  501  0.00000000000E+00  0.00000000000E+00  0.12968997212E+04  0.12968997212E+04  0.50400001928E-02 0. -1.
        1   -1    0    0  501    0  0.00000000000E+00  0.00000000000E+00 -0.18587830078E+04  0.18587830078E+04  0.50400001928E-02 0.  1.
    10030    2    1    2    0    0  0.00000000000E+00  0.00000000000E+00 -0.56188328653E+03  0.31556827290E+04  0.31052569392E+04 0.  0.
        4    1    3    3  502    0 -0.12841347141E+04  0.57190214235E+03  0.38898989515E+03  0.14585570869E+04  0.12699999809E+01 0. -1.
       -4    1    3    3    0  502  0.12841347141E+04 -0.57190214235E+03 -0.95087318167E+03  0.16971256421E+04  0.12699999809E+01 0.  1.
</event>
<event>
 5   0  0.4436241E-08  0.3099729E+04  0.7818609E-02  0.8215812E-01
       -1   -1    0    0    0  501  0.00000000000E+00  0.00000000000E+00  0.87668900999E+03  0.87668901001E+03  0.50400001928E-02 0. -1.
        1   -1    0    0  501    0  0.00000000000E+00  0.00000000000E+00 -0.27399448191E+04  0.27399448191E+04  0.50400001928E-02 0.  1.
    10030    2    1    2    0    0  0.00000000000E+00  0.00000000000E+00 -0.18632558091E+04  0.36166338292E+04  0.30997287049E+04 0.  0.
        3    1    3    3  502    0 -0.14519484382E+04 -0.10763078195E+03 -0.31166213289E+03  0.14889163670E+04  0.10100000352E+00 0. -1.
       -3    1    3    3    0  502  0.14519484382E+04  0.10763078195E+03 -0.15515936763E+04  0.21277174622E+04  0.10100000352E+00 0.  1.
</event>
<event>
 5   0  0.1329777E-07  0.3099775E+04  0.7818609E-02  0.8215800E-01
       -2   -1    0    0    0  501  0.00000000000E+00  0.00000000000E+00  0.17795655478E+04  0.17795655478E+04  0.25500000920E-02 0. -1.
        2   -1    0    0  501    0  0.00000000000E+00  0.00000000000E+00 -0.13498523354E+04  0.13498523354E+04  0.25500000920E-02 0.  1.
    10030    2    1    2    0    0  0.00000000000E+00  0.00000000000E+00  0.42971321245E+03  0.31294178832E+04  0.30997746438E+04 0.  0.
        1    1    3    3  502    0  0.63821682133E+03 -0.51784424573E+03  0.15414498324E+04  0.17468689017E+04  0.50400001928E-02 0. -1.
       -1    1    3    3    0  502 -0.63821682133E+03  0.51784424573E+03 -0.11117366200E+04  0.13825489814E+04  0.50400001928E-02 0.  1.
</event>
<event>
 5   0  0.1318916E-07  0.3099498E+04  0.7818609E-02  0.8215876E-01
       -2   -1    0    0    0  501  0.00000000000E+00  0.00000000000E+00  0.15722067239E+04  0.15722067239E+04  0.25500000920E-02 0. -1.
        2   -1    0    0  501    0  0.00000000000E+00  0.00000000000E+00 -0.15276118618E+04  0.15276118618E+04  0.25500000920E-02 0.  1.
    10030    2    1    2    0    0  0.00000000000E+00  0.00000000000E+00  0.44594862078E+02  0.30998185856E+04  0.30994977919E+04 0.  0.
        5    1    3    3  502    0  0.10911294983E+04  0.11005102721E+04  0.18676363211E+02  0.15498571991E+04  0.46999998093E+01 0. -1.
       -5    1    3    3    0  502 -0.10911294983E+04 -0.11005102721E+04  0.25918498867E+02  0.15499613865E+04  0.46999998093E+01 0.  1.
</event>
<event>
 5   0  0.4450600E-08  0.3099880E+04  0.7818609E-02  0.8215771E-01
       -1   -1    0    0    0  501  0.00000000000E+00  0.00000000000E+00  0.12021757638E+04  0.12021757638E+04  0.50400001928E-02 0. -1.
        1   -1    0    0  501    0  0.00000000000E+00  0.00000000000E+00 -0.19983055457E+04  0.19983055457E+04  0.50400001928E-02 0.  1.
    10030    2    1    2    0    0  0.00000000000E+00  0.00000000000E+00 -0.79612978194E+03  0.32004813095E+04  0.30998803175E+04 0.  0.
        4    1    3    3  502    0 -0.75227450577E+03 -0.15078559681E+03 -0.17884921222E+04  0.19461137974E+04  0.12699999809E+01 0.  1.
       -4    1    3    3    0  502  0.75227450577E+03  0.15078559681E+03  0.99236234026E+03  0.12543675121E+04  0.12699999809E+01 0. -1.
</event>
<event>
 5   0  0.1325713E-07  0.3098219E+04  0.7818609E-02  0.8216227E-01
        2   -1    0    0  501    0  0.00000000000E+00  0.00000000000E+00  0.26919913223E+04  0.26919913223E+04  0.25500000920E-02 0. -1.
       -2   -1    0    0    0  501  0.00000000000E+00  0.00000000000E+00 -0.89143696868E+03  0.89143696869E+03  0.25500000920E-02 0.  1.
    10030    2    1    2    0    0  0.00000000000E+00  0.00000000000E+00  0.18005543536E+04  0.35834282910E+04  0.30982192202E+04 0.  0.
        4    1    3    3  502    0  0.13998382596E+04 -0.29692755439E+03  0.21404062053E+03  0.14469029427E+04  0.12699999809E+01 0.  1.
       -4    1    3    3    0  502 -0.13998382596E+04  0.29692755439E+03  0.15865137331E+04  0.21365253483E+04  0.12699999809E+01 0. -1.
</event>
<event>
 5   0  0.1377237E-07  0.3101206E+04  0.7818609E-02  0.8215407E-01
        2   -1    0    0  501    0  0.00000000000E+00  0.00000000000E+00  0.20607266873E+04  0.20607266873E+04  0.25500000920E-02 0. -1.
       -2   -1    0    0    0  501  0.00000000000E+00  0.00000000000E+00 -0.11667577827E+04  0.11667577827E+04  0.25500000920E-02 0.  1.
    10030    2    1    2    0    0  0.00000000000E+00  0.00000000000E+00  0.89396890464E+03  0.32274844700E+04  0.31012055078E+04 0.  0.
        2    1    3    3  502    0 -0.85889390463E+03 -0.21212163997E+03 -0.87831942315E+03  0.12466512498E+04  0.25500000920E-02 0.  1.
       -2    1    3    3    0  502  0.85889390463E+03  0.21212163997E+03  0.17722883278E+04  0.19808332202E+04  0.25500000920E-02 0. -1.
</event>
<event>
 5   0  0.4470354E-08  0.3100245E+04  0.7818609E-02  0.8215671E-01
       -1   -1    0    0    0  501  0.00000000000E+00  0.00000000000E+00  0.13328658598E+04  0.13328658598E+04  0.50400001928E-02 0. -1.
        1   -1    0    0  501    0  0.00000000000E+00  0.00000000000E+00 -0.18027918662E+04  0.18027918663E+04  0.50400001928E-02 0.  1.
    10030    2    1    2    0    0  0.00000000000E+00  0.00000000000E+00 -0.46992600641E+03  0.31356577261E+04  0.31002449780E+04 0.  0.
        1    1    3    3  502    0 -0.13829375677E+04  0.40492170932E+03  0.34287875987E+03  0.14812304854E+04  0.50400001928E-02 0. -1.
       -1    1    3    3    0  502  0.13829375677E+04 -0.40492170932E+03 -0.81280476628E+03  0.16544272407E+04  0.50400001928E-02 0.  1.
</event>
<event>
 5   0  0.1377237E-07  0.3097689E+04  0.7818609E-02  0.8216372E-01
       -2   -1    0    0    0  501  0.00000000000E+00  0.00000000000E+00  0.13256121127E+04  0.13256121127E+04  0.25500000920E-02 0.  1.
        2   -1    0    0  501    0  0.00000000000E+00  0.00000000000E+00 -0.18096690997E+04  0.18096690997E+04  0.25500000920E-02 0. -1.
    10030    2    1    2    0    0  0.00000000000E+00  0.00000000000E+00 -0.48405698704E+03  0.31352812124E+04  0.30976889957E+04 0.  0.
        2    1    3    3  502    0 -0.10736089200E+04 -0.99765412242E+03 -0.74907651016E+03  0.16459238984E+04  0.25500000920E-02 0. -1.
       -2    1    3    3    0  502  0.10736089200E+04  0.99765412242E+03  0.26501952311E+03  0.14893573140E+04  0.25500000920E-02 0.  1.
</event>
<event>
 5   0  0.4450600E-08  0.3100057E+04  0.7818609E-02  0.8215722E-01
        1   -1    0    0  501    0  0.00000000000E+00  0.00000000000E+00  0.13075363635E+04  0.13075363635E+04  0.50400001928E-02 0.  1.
       -1   -1    0    0    0  501  0.00000000000E+00  0.00000000000E+00 -0.18374920564E+04  0.18374920564E+04  0.50400001928E-02 0. -1.
    10030    2    1    2    0    0  0.00000000000E+00  0.00000000000E+00 -0.52995569293E+03  0.31450284199E+04  0.31000565681E+04 0.  0.
        4    1    3    3  502    0 -0.55884090199E+03 -0.91606126225E+03 -0.13997365314E+04  0.17637276888E+04  0.12699999809E+01 0. -1.
       -4    1    3    3    0  502  0.55884090199E+03  0.91606126225E+03  0.86978083849E+03  0.13813007311E+04  0.12699999809E+01 0.  1.
</event>
<event>
 5   0  0.4470354E-08  0.3101128E+04  0.7818609E-02  0.8215428E-01
       -1   -1    0    0    0  501  0.00000000000E+00  0.00000000000E+00  0.18983626808E+04  0.18983626808E+04  0.50400001928E-02 0.  1.
        1   -1    0    0  501    0  0.00000000000E+00  0.00000000000E+00 -0.12664856738E+04  0.12664856738E+04  0.50400001928E-02 0. -1.
    10030    2    1    2    0    0  0.00000000000E+00  0.00000000000E+00  0.63187700700E+03  0.31648483547E+04  0.31011282715E+04 0.  0.
        1    1    3    3  502    0 -0.78361347864E+02  0.82401151086E+02  0.18941016742E+04  0.18975119506E+04  0.50400001928E-02 0.  1.
       -1    1    3    3    0  502  0.78361347864E+02 -0.82401151086E+02 -0.12622246672E+04  0.12673364041E+04  0.50400001928E-02 0. -1.
</event>
<event>
 5   0  0.1329777E-07  0.3099608E+04  0.7818609E-02  0.8215845E-01
        2   -1    0    0  501    0  0.00000000000E+00  0.00000000000E+00  0.12885855403E+04  0.12885855404E+04  0.25500000920E-02 0.  1.
       -2   -1    0    0    0  501  0.00000000000E+00  0.00000000000E+00 -0.18639762976E+04  0.18639762976E+04  0.25500000920E-02 0. -1.
    10030    2    1    2    0    0  0.00000000000E+00  0.00000000000E+00 -0.57539075730E+03  0.31525618380E+04  0.30996083009E+04 0.  0.
        1    1    3    3  502    0 -0.13793082567E+04 -0.27422496436E+02 -0.10059105183E+04  0.17073661679E+04  0.50400001928E-02 0. -1.
       -1    1    3    3    0  502  0.13793082567E+04  0.27422496436E+02  0.43051976102E+03  0.14451956701E+04  0.50400001928E-02 0.  1.
</event>
<event>
 5   0  0.1377237E-07  0.3100217E+04  0.7818609E-02  0.8215678E-01
       -2   -1    0    0    0  501  0.00000000000E+00  0.00000000000E+00  0.12229374202E+04  0.12229374202E+04  0.25500000920E-02 0.  1.
        2   -1    0    0  501    0  0.00000000000E+00  0.00000000000E+00 -0.19648072932E+04  0.19648072932E+04  0.25500000920E-02 0. -1.
    10030    2    1    2    0    0  0.00000000000E+00  0.00000000000E+00 -0.74186987304E+03  0.31877447134E+04  0.31002170003E+04 0.  0.
        2    1    3    3  502    0 -0.15017718462E+03  0.15236212966E+04 -0.62039810791E+03  0.16519288286E+04  0.25500000920E-02 0. -1.
       -2    1    3    3    0  502  0.15017718462E+03 -0.15236212966E+04 -0.12147176514E+03  0.15358158848E+04  0.25500000920E-02 0.  1.
</event>
<event>
 5   0  0.4470354E-08  0.3101161E+04  0.7818609E-02  0.8215419E-01
        1   -1    0    0  501    0  0.00000000000E+00  0.00000000000E+00  0.13532092627E+04  0.13532092627E+04  0.50400001928E-02 0.  1.
       -1   -1    0    0    0  501  0.00000000000E+00  0.00000000000E+00 -0.17767392774E+04  0.17767392774E+04  0.50400001928E-02 0. -1.
    10030    2    1    2    0    0  0.00000000000E+00  0.00000000000E+00 -0.42353001465E+03  0.31299485401E+04  0.31011611036E+04 0.  0.
        1    1    3    3  502    0  0.21382125171E+03  0.11571035004E+04  0.80740674265E+03  0.14270647100E+04  0.50400001928E-02 0.  1.
       -1    1    3    3    0  502 -0.21382125171E+03 -0.11571035004E+04 -0.12309367573E+04  0.17028838301E+04  0.50400001928E-02 0. -1.
</event>
<event>
 5   0  0.4517409E-08  0.3098404E+04  0.7818609E-02  0.8216176E-01
        1   -1    0    0  501    0  0.00000000000E+00  0.00000000000E+00  0.14418294914E+04  0.14418294914E+04  0.50400001928E-02 0.  1.
       -1   -1    0    0    0  501  0.00000000000E+00  0.00000000000E+00 -0.16645707169E+04  0.16645707169E+04  0.50400001928E-02 0. -1.
    10030    2    1    2    0    0  0.00000000000E+00  0.00000000000E+00 -0.22274122547E+03  0.31064002083E+04  0.30984042023E+04 0.  0.
        2    1    3    3  502    0 -0.72453349055E+02  0.45552885257E+03 -0.15941298685E+04  0.16595198285E+04  0.25500000920E-02 0. -1.
       -2    1    3    3    0  502  0.72453349055E+02 -0.45552885257E+03  0.13713886431E+04  0.14468803799E+04  0.25500000920E-02 0.  1.
</event>
<event>
 5   0  0.1329777E-07  0.3098866E+04  0.7818609E-02  0.8216049E-01
       -2   -1    0    0    0  501  0.00000000000E+00  0.00000000000E+00  0.18874848533E+04  0.18874848533E+04  0.25500000920E-02 0.  1.
        2   -1    0    0  501    0  0.00000000000E+00  0.00000000000E+00 -0.12719269529E+04  0.12719269529E+04  0.25500000920E-02 0. -1.
    10030    2    1    2    0    0  0.00000000000E+00  0.00000000000E+00  0.61555790037E+03  0.31594118061E+04  0.30988661527E+04 0.  0.
        1    1    3    3  502    0  0.11266595021E+04 -0.96784345141E+03  0.75760239573E+03  0.16673463858E+04  0.50400001928E-02 0.  1.
       -1    1    3    3    0  502 -0.11266595021E+04  0.96784345141E+03 -0.14204449536E+03  0.14920654204E+04  0.50400001928E-02 0. -1.
</event>
<event>
 5   0  0.4517409E-08  0.3099260E+04  0.7818609E-02  0.8215941E-01
       -1   -1    0    0    0  501  0.00000000000E+00  0.00000000000E+00  0.14693581661E+04  0.14693581661E+04  0.50400001928E-02 0.  1.
        1   -1    0    0  501    0  0.00000000000E+00  0.00000000000E+00 -0.16342867039E+04  0.16342867040E+04  0.50400001928E-02 0. -1.
    10030    2    1    2    0    0  0.00000000000E+00  0.00000000000E+00 -0.16492853786E+03  0.31036448701E+04  0.30992595982E+04 0.  0.
        2    1    3    3  502    0 -0.19665853499E+03  0.12848159045E+04 -0.92741522576E+03  0.15967233601E+04  0.25500000920E-02 0. -1.
       -2    1    3    3    0  502  0.19665853499E+03 -0.12848159045E+04  0.76248668791E+03  0.15069215099E+04  0.25500000920E-02 0.  1.
</event>
<event>
 5   0  0.4436241E-08  0.3102036E+04  0.7818609E-02  0.8215179E-01
       -1   -1    0    0    0  501  0.00000000000E+00  0.00000000000E+00  0.86629571870E+03  0.86629571872E+03  0.50400001928E-02 0.  1.
        1   -1    0    0  501    0  0.00000000000E+00  0.00000000000E+00 -0.27769467308E+04  0.27769467308E+04  0.50400001928E-02 0. -1.
    10030    2    1    2    0    0  0.00000000000E+00  0.00000000000E+00 -0.19106510121E+04  0.36432424495E+04  0.31020361468E+04 0.  0.
        3    1    3    3  502    0 -0.10150945385E+04  0.55651684071E+03  0.25701295862E+03  0.11858261201E+04  0.10100000352E+00 0.  1.
       -3    1    3    3    0  502  0.10150945385E+04 -0.55651684071E+03 -0.21676639707E+04  0.24574163294E+04  0.10100000352E+00 0. -1.
</event>
<event>
 5   0  0.1329777E-07  0.3098131E+04  0.7818609E-02  0.8216251E-01
        2   -1    0    0  501    0  0.00000000000E+00  0.00000000000E+00  0.17201627541E+04  0.17201627541E+04  0.25500000920E-02 0. -1.
       -2   -1    0    0    0  501  0.00000000000E+00  0.00000000000E+00 -0.13949865044E+04  0.13949865045E+04  0.25500000920E-02 0.  1.
    10030    2    1    2    0    0  0.00000000000E+00  0.00000000000E+00  0.32517624966E+03  0.31151492586E+04  0.30981309381E+04 0.  0.
        1    1    3    3  502    0  0.10852426334E+04  0.17552541610E+03 -0.93475596029E+03  0.14430278758E+04  0.50400001928E-02 0.  1.
       -1    1    3    3    0  502 -0.10852426334E+04 -0.17552541610E+03  0.12599322099E+04  0.16721213828E+04  0.50400001928E-02 0. -1.
</event>
<event>
 5   0  0.1325713E-07  0.3098589E+04  0.7818609E-02  0.8216125E-01
        2   -1    0    0  501    0  0.00000000000E+00  0.00000000000E+00  0.14850208071E+04  0.14850208071E+04  0.25500000920E-02 0.  1.
       -2   -1    0    0    0  501  0.00000000000E+00  0.00000000000E+00 -0.16163497045E+04  0.16163497045E+04  0.25500000920E-02 0. -1.
    10030    2    1    2    0    0  0.00000000000E+00  0.00000000000E+00 -0.13132889739E+03  0.31013705116E+04  0.30985886740E+04 0.  0.
        4    1    3    3  502    0  0.17226147048E+03 -0.42890041879E+03 -0.15457353281E+04  0.16133595077E+04  0.12699999809E+01 0. -1.
       -4    1    3    3    0  502 -0.17226147048E+03  0.42890041879E+03  0.14144064308E+04  0.14880110039E+04  0.12699999809E+01 0.  1.
</event>
<event>
 5   0  0.1325713E-07  0.3100697E+04  0.7818609E-02  0.8215547E-01
        2   -1    0    0  501    0  0.00000000000E+00  0.00000000000E+00  0.15616689081E+04  0.15616689081E+04  0.25500000920E-02 0.  1.
       -2   -1    0    0    0  501  0.00000000000E+00  0.00000000000E+00 -0.15391104774E+04  0.15391104774E+04  0.25500000920E-02 0. -1.
    10030    2    1    2    0    0  0.00000000000E+00  0.00000000000E+00  0.22558430730E+02  0.31007793856E+04  0.31006973272E+04 0.  0.
        4    1    3    3  502    0  0.93691571535E+02  0.12276671162E+04 -0.93088939441E+03  0.15435353369E+04  0.12699999809E+01 0. -1.
       -4    1    3    3    0  502 -0.93691571535E+02 -0.12276671162E+04  0.95344782514E+03  0.15572440486E+04  0.12699999809E+01 0.  1.
</event>
<event>
 5   0  0.1398931E-07  0.3099488E+04  0.7818609E-02  0.8215878E-01
       -2   -1    0    0    0  501  0.00000000000E+00  0.00000000000E+00  0.19341365692E+04  0.19341365692E+04  0.25500000920E-02 0. -1.
        2   -1    0    0  501    0  0.00000000000E+00  0.00000000000E+00 -0.12417461361E+04  0.12417461361E+04  0.25500000920E-02 0.  1.
    10030    2    1    2    0    0  0.00000000000E+00  0.00000000000E+00  0.69239043314E+03  0.31758827053E+04  0.30994880941E+04 0.  0.
        3    1    3    3  502    0  0.78191770405E+03 -0.10608236836E+04  0.11817476054E+04  0.17701044028E+04  0.10100000352E+00 0.  1.
       -3    1    3    3    0  502 -0.78191770405E+03  0.10608236836E+04 -0.48935717226E+03  0.14057783025E+04  0.10100000352E+00 0. -1.
</event>
<event>
 5   0  0.4470354E-08  0.3100636E+04  0.7818609E-02  0.8215563E-01
        1   -1    0    0  501    0  0.00000000000E+00  0.00000000000E+00  0.14983254662E+04  0.14983254662E+04  0.50400001928E-02 0.  1.
       -1   -1    0    0    0  501  0.00000000000E+00  0.00000000000E+00 -0.16041143524E+04  0.16041143524E+04  0.50400001928E-02 0. -1.
    10030    2    1    2    0    0  0.00000000000E+00  0.00000000000E+00 -0.10578888620E+03  0.31024398186E+04  0.31006356670E+04 0.  0.
        1    1    3    3  502    0  0.13713782208E+04 -0.66363232265E+03 -0.34011425323E+03  0.15610137057E+04  0.50400001928E-02 0. -1.
       -1    1    3    3    0  502 -0.13713782208E+04  0.66363232265E+03  0.23432536703E+03  0.15414261129E+04  0.50400001928E-02 0.  1.
</event>
<event>
 5   0  0.1377237E-07  0.3099996E+04  0.7818609E-02  0.8215739E-01
       -2   -1    0    0    0  501  0.00000000000E+00  0.00000000000E+00  0.16815073404E+04  0.16815073404E+04  0.25500000920E-02 0. -1.
        2   -1    0    0  501    0  0.00000000000E+00  0.00000000000E+00 -0.14287735302E+04  0.14287735302E+04  0.25500000920E-02 0.  1.
    10030    2    1    2    0    0  0.00000000000E+00  0.00000000000E+00  0.25273381023E+03  0.31102808706E+04  0.30999955992E+04 0.  0.
        2    1    3    3  502    0 -0.37369740590E+03  0.14057425349E+04 -0.41088272367E+03  0.15114848455E+04  0.25500000920E-02 0.  1.
       -2    1    3    3    0  502  0.37369740590E+03 -0.14057425349E+04  0.66361653391E+03  0.15987960251E+04  0.25500000920E-02 0. -1.
</event>
<event>
 5   0  0.1329777E-07  0.3093487E+04  0.7818609E-02  0.8217528E-01
        2   -1    0    0  501    0  0.00000000000E+00  0.00000000000E+00  0.11112837111E+04  0.11112837111E+04  0.25500000920E-02 0. -1.
       -2   -1    0    0    0  501  0.00000000000E+00  0.00000000000E+00 -0.21528393418E+04  0.21528393418E+04  0.25500000920E-02 0.  1.
    10030    2    1    2    0    0  0.00000000000E+00  0.00000000000E+00 -0.10415556307E+04  0.32641230529E+04  0.30934868955E+04 0.  0.
        1    1    3    3  502    0  0.35282127659E+03 -0.36632050474E+03 -0.20620848738E+04  0.21238803149E+04  0.50400001928E-02 0.  1.
       -1    1    3    3    0  502 -0.35282127659E+03  0.36632050474E+03  0.10205292431E+04  0.11402427379E+04  0.50400001928E-02 0. -1.
</event>
<event>
 5   0  0.4517409E-08  0.3100047E+04  0.7818609E-02  0.8215725E-01
       -1   -1    0    0    0  501  0.00000000000E+00  0.00000000000E+00  0.13434817105E+04  0.13434817105E+04  0.50400001928E-02 0. -1.
        1   -1    0    0  501    0  0.00000000000E+00  0.00000000000E+00 -0.17883184048E+04  0.17883184048E+04  0.50400001928E-02 0.  1.
    10030    2    1    2    0    0  0.00000000000E+00  0.00000000000E+00 -0.44483669428E+03  0.31318001153E+04  0.31000471412E+04 0.  0.
        2    1    3    3  502    0 -0.91086025912E+03 -0.12203633757E+04  0.69714594002E+02  0.15244058859E+04  0.25500000920E-02 0.  1.
       -2    1    3    3    0  502  0.91086025912E+03  0.12203633757E+04 -0.51455128829E+03  0.16073942294E+04  0.25500000920E-02 0. -1.
</event>
<event>
 5   0  0.4517409E-08  0.3102432E+04  0.7818609E-02  0.8215071E-01
       -1   -1    0    0    0  501  0.00000000000E+00  0.00000000000E+00  0.70983660829E+03  0.70983660831E+03  0.50400001928E-02 0. -1.
        1   -1    0    0  501    0  0.00000000000E+00  0.00000000000E+00 -0.33898945252E+04  0.33898945252E+04  0.50400001928E-02 0.  1.
    10030    2    1    2    0    0  0.00000000000E+00  0.00000000000E+00 -0.26800579169E+04  0.40997311335E+04  0.31024320991E+04 0.  0.
        2    1    3    3  502    0  0.45988126241E+03 -0.14122747197E+04 -0.74867049352E+03  0.16632853536E+04  0.25500000920E-02 0. -1.
       -2    1    3    3    0  502 -0.45988126241E+03  0.14122747197E+04 -0.19313874234E+04  0.24364457800E+04  0.25500000920E-02 0.  1.
</event>
<event>
 5   0  0.1329777E-07  0.3100252E+04  0.7818609E-02  0.8215669E-01
       -2   -1    0    0    0  501  0.00000000000E+00  0.00000000000E+00  0.94534417798E+03  0.94534417799E+03  0.25500000920E-02 0. -1.
        2   -1    0    0  501    0  0.00000000000E+00  0.00000000000E+00 -0.25418152921E+04  0.25418152921E+04  0.25500000920E-02 0.  1.
    10030    2    1    2    0    0  0.00000000000E+00  0.00000000000E+00 -0.15964711141E+04  0.34871594701E+04  0.31002517884E+04 0.  0.
        1    1    3    3  502    0  0.38628597308E+02 -0.98117209444E+03  0.55091332877E+03  0.11259202207E+04  0.50400001928E-02 0. -1.
       -1    1    3    3    0  502 -0.38628597308E+02  0.98117209444E+03 -0.21473844429E+04  0.23612392494E+04  0.50400001928E-02 0.  1.
</event>
<event>
 5   0  0.1325713E-07  0.3100291E+04  0.7818609E-02  0.8215658E-01
        2   -1    0    0  501    0  0.00000000000E+00  0.00000000000E+00  0.97265006853E+03  0.97265006854E+03  0.25500000920E-02 0.  1.
       -2   -1    0    0    0  501  0.00000000000E+00  0.00000000000E+00 -0.24705201119E+04  0.24705201119E+04  0.25500000920E-02 0. -1.
    10030    2    1    2    0    0  0.00000000000E+00  0.00000000000E+00 -0.14978700434E+04  0.34431701804E+04  0.31002913129E+04 0.  0.
        4    1    3    3  502    0 -0.12429510118E+04  0.16738096344E+03  0.26286967165E+03  0.12814233031E+04  0.12699999809E+01 0.  1.
       -4    1    3    3    0  502  0.12429510118E+04 -0.16738096344E+03 -0.17607397150E+04  0.21617468773E+04  0.12699999809E+01 0. -1.
</event>
<event>
 5   0  0.1325713E-07  0.3100141E+04  0.7818609E-02  0.8215699E-01
        2   -1    0    0  501    0  0.00000000000E+00  0.00000000000E+00  0.16678056458E+04  0.16678056458E+04  0.25500000920E-02 0.  1.
       -2   -1    0    0    0  501  0.00000000000E+00  0.00000000000E+00 -0.14406467082E+04  0.14406467082E+04  0.25500000920E-02 0. -1.
    10030    2    1    2    0    0  0.00000000000E+00  0.00000000000E+00  0.22715893761E+03  0.31084523540E+04  0.31001411023E+04 0.  0.
        4    1    3    3  502    0  0.77977059165E+02  0.79291005475E+02 -0.14366409997E+04  0.14409394367E+04  0.12699999809E+01 0. -1.
       -4    1    3    3    0  502 -0.77977059165E+02 -0.79291005475E+02  0.16637999373E+04  0.16675129173E+04  0.12699999809E+01 0.  1.
</event>
<event>
 5   0  0.4436241E-08  0.3099127E+04  0.7818609E-02  0.8215977E-01
       -1   -1    0    0    0  501  0.00000000000E+00  0.00000000000E+00  0.10166539558E+04  0.10166539558E+04  0.50400001928E-02 0. -1.
        1   -1    0    0  501    0  0.00000000000E+00  0.00000000000E+00 -0.23618137795E+04  0.23618137795E+04  0.50400001928E-02 0.  1.
    10030    2    1    2    0    0  0.00000000000E+00  0.00000000000E+00 -0.13451598237E+04  0.33784677353E+04  0.30991271815E+04 0.  0.
        3    1    3    3  502    0 -0.82550313257E+02 -0.64470124585E+03 -0.22060298135E+04  0.22997873377E+04  0.10100000352E+00 0.  1.
       -3    1    3    3    0  502  0.82550313257E+02  0.64470124585E+03  0.86086998978E+03  0.10786803976E+04  0.10100000352E+00 0. -1.
</event>
<event>
 5   0  0.4838602E-08  0.3098468E+04  0.7818609E-02  0.8216159E-01
       -1   -1    0    0    0  501  0.00000000000E+00  0.00000000000E+00  0.88943190348E+03  0.88943190350E+03  0.50400001928E-02 0.  1.
        1   -1    0    0  501    0  0.00000000000E+00  0.00000000000E+00 -0.26984924053E+04  0.26984924053E+04  0.50400001928E-02 0. -1.
    10030    2    1    2    0    0  0.00000000000E+00  0.00000000000E+00 -0.18090605018E+04  0.35879243088E+04  0.30984675158E+04 0.  0.
        5    1    3    3  502    0  0.14166590282E+04  0.24749241371E+03 -0.23738842182E+03  0.14575838397E+04  0.46999998093E+01 0.  1.
       -5    1    3    3    0  502 -0.14166590282E+04 -0.24749241371E+03 -0.15716720800E+04  0.21303404690E+04  0.46999998093E+01 0. -1.
</event>
<event>
 5   0  0.1377237E-07  0.3099593E+04  0.7818609E-02  0.8215850E-01
        2   -1    0    0  501    0  0.00000000000E+00  0.00000000000E+00  0.99050667025E+03  0.99050667026E+03  0.25500000920E-02 0. -1.
       -2   -1    0    0    0  501  0.00000000000E+00  0.00000000000E+00 -0.24248896461E+04  0.24248896461E+04  0.25500000920E-02 0.  1.
    10030    2    1    2    0    0  0.00000000000E+00  0.00000000000E+00 -0.14343829759E+04  0.34153963164E+04  0.30995931147E+04 0.  0.
        2    1    3    3  502    0  0.83818982080E+03 -0.18044031586E+03 -0.21397543047E+04  0.23051397718E+04  0.25500000920E-02 0.  1.
       -2    1    3    3    0  502 -0.83818982080E+03  0.18044031586E+03  0.70537132879E+03  0.11102565446E+04  0.25500000920E-02 0. -1.
</event>
<event>
 5   0  0.4517409E-08  0.3102490E+04  0.7818609E-02  0.8215055E-01
       -1   -1    0    0    0  501  0.00000000000E+00  0.00000000000E+00  0.14082028434E+04  0.14082028434E+04  0.50400001928E-02 0. -1.
        1   -1    0    0  501    0  0.00000000000E+00  0.00000000000E+00 -0.17088170481E+04  0.17088170481E+04  0.50400001928E-02 0.  1.
    10030    2    1    2    0    0  0.00000000000E+00  0.00000000000E+00 -0.30061420472E+03  0.31170198915E+04  0.31024899845E+04 0.  0.
        2    1    3    3  502    0 -0.15450324464E+04 -0.72986892575E+02 -0.31819713711E+02  0.15470826872E+04  0.25500000920E-02 0. -1.
       -2    1    3    3    0  502  0.15450324464E+04  0.72986892575E+02 -0.26879449101E+03  0.15699372042E+04  0.25500000920E-02 0.  1.
</event>
<event>
 5   0  0.4517409E-08  0.3099878E+04  0.7818609E-02  0.8215771E-01
       -1   -1    0    0    0  501  0.00000000000E+00  0.00000000000E+00  0.15933296529E+04  0.15933296529E+04  0.50400001928E-02 0. -1.
        1   -1    0    0  501    0  0.00000000000E+00  0.00000000000E+00 -0.15077302068E+04  0.15077302068E+04  0.50400001928E-02 0.  1.
    10030    2    1    2    0    0  0.00000000000E+00  0.00000000000E+00  0.85599446122E+02  0.31010598597E+04  0.30998782215E+04 0.  0.
        2    1    3    3  502    0  0.16868648236E+03 -0.23224361584E+03  0.15665083602E+04  0.15925892971E+04  0.25500000920E-02 0. -1.
       -2    1    3    3    0  502 -0.16868648236E+03  0.23224361584E+03 -0.14809089141E+04  0.15084705626E+04  0.25500000920E-02 0.  1.
</event>
<event>
 5   0  0.4470354E-08  0.3092381E+04  0.7818609E-02  0.8217832E-01
       -1   -1    0    0    0  501  0.00000000000E+00  0.00000000000E+00  0.16462594860E+04  0.16462594860E+04  0.50400001928E-02 0.  1.
        1   -1    0    0  501    0  0.00000000000E+00  0.00000000000E+00 -0.14522043301E+04  0.14522043301E+04  0.50400001928E-02 0. -1.
    10030    2    1    2    0    0  0.00000000000E+00  0.00000000000E+00  0.19405515589E+03  0.30984638162E+04  0.30923810594E+04 0.  0.
        1    1    3    3  502    0  0.91277936552E+03  0.10613463506E+04  0.75488810133E+03  0.15904333660E+04  0.50400001928E-02 0.  1.
       -1    1    3    3    0  502 -0.91277936552E+03 -0.10613463506E+04 -0.56083294544E+03  0.15080304502E+04  0.50400001928E-02 0. -1.
</event>
<event>
 5   0  0.1377237E-07  0.3098419E+04  0.7818609E-02  0.8216172E-01
       -2   -1    0    0    0  501  0.00000000000E+00  0.00000000000E+00  0.18534966708E+04  0.18534966708E+04  0.25500000920E-02 0. -1.
        2   -1    0    0  501    0  0.00000000000E+00  0.00000000000E+00 -0.12948766326E+04  0.12948766326E+04  0.25500000920E-02 0.  1.
    10030    2    1    2    0    0  0.00000000000E+00  0.00000000000E+00  0.55862003821E+03  0.31483733033E+04  0.30984186467E+04 0.  0.
        2    1    3    3  502    0 -0.12625457693E+04  0.53625724898E+03 -0.45233769806E+03  0.14443694298E+04  0.25500000920E-02 0.  1.
       -2    1    3    3    0  502  0.12625457693E+04 -0.53625724898E+03  0.10109577363E+04  0.17040038736E+04  0.25500000920E-02 0. -1.
</event>
<event>
 5   0  0.1325713E-07  0.3101413E+04  0.7818609E-02  0.8215350E-01
       -2   -1    0    0    0  501  0.00000000000E+00  0.00000000000E+00  0.11839009285E+04  0.11839009285E+04  0.25500000920E-02 0. -1.
        2   -1    0    0  501    0  0.00000000000E+00  0.00000000000E+00 -0.20311590611E+04  0.20311590611E+04  0.25500000920E-02 0.  1.
    10030    2    1    2    0    0  0.00000000000E+00  0.00000000000E+00 -0.84725813265E+03  0.32150599896E+04  0.31014132897E+04 0.  0.
        4    1    3    3  502    0  0.72353246899E+03 -0.27920912791E+03  0.96842243209E+03  0.12406855325E+04  0.12699999809E+01 0. -1.
       -4    1    3    3    0  502 -0.72353246899E+03  0.27920912791E+03 -0.18156805647E+04  0.19743744571E+04  0.12699999809E+01 0.  1.
</event>
<event>
 5   0  0.4470354E-08  0.3097964E+04  0.7818609E-02  0.8216297E-01
       -1   -1    0    0    0  501  0.00000000000E+00  0.00000000000E+00  0.97926353078E+03  0.97926353080E+03  0.50400001928E-02 0.  1.
        1   -1    0    0  501    0  0.00000000000E+00  0.00000000000E+00 -0.24501526943E+04  0.24501526943E+04  0.50400001928E-02 0. -1.
    10030    2    1    2    0    0  0.00000000000E+00  0.00000000000E+00 -0.14708891635E+04  0.34294162251E+04  0.30979639626E+04 0.  0.
        1    1    3    3  502    0  0.30720770096E+02 -0.51803667637E+03  0.88016959971E+03  0.10217652803E+04  0.50400001928E-02 0.  1.
       -1    1    3    3    0  502 -0.30720770096E+02  0.51803667637E+03 -0.23510587632E+04  0.24076509448E+04  0.50400001928E-02 0. -1.
</event>
<event>
 5   0  0.1329777E-07  0.3099439E+04  0.7818609E-02  0.8215892E-01
        2   -1    0    0  501    0  0.00000000000E+00  0.00000000000E+00  0.23484000895E+04  0.23484000895E+04  0.25500000920E-02 0.  1.
       -2   -1    0    0    0  501  0.00000000000E+00  0.00000000000E+00 -0.10226669086E+04  0.10226669086E+04  0.25500000920E-02 0. -1.
    10030    2    1    2    0    0  0.00000000000E+00  0.00000000000E+00  0.13257331808E+04  0.33710669981E+04  0.30994393427E+04 0.  0.
        1    1    3    3  502    0 -0.12080016561E+03  0.10864171012E+04  0.18576534133E+04  0.21554050667E+04  0.50400001928E-02 0.  1.
       -1    1    3    3    0  502  0.12080016561E+03 -0.10864171012E+04 -0.53192023245E+03  0.12156619314E+04  0.50400001928E-02 0. -1.
</event>
<event>
 5   0  0.4517409E-08  0.3099618E+04  0.7818609E-02  0.8215843E-01
       -1   -1    0    0    0  501  0.00000000000E+00  0.00000000000E+00  0.18770242717E+04  0.18770242717E+04  0.50400001928E-02 0. -1.
        1   -1    0    0  501    0  0.00000000000E+00  0.00000000000E+00 -0.12796356453E+04  0.12796356453E+04  0.50400001928E-02 0.  1.
    10030    2    1    2    0    0  0.00000000000E+00  0.00000000000E+00  0.59738862632E+03  0.31566599170E+04  0.30996175023E+04 0.  0.
        2    1    3    3  502    0 -0.97246994158E+03  0.51965328445E+03  0.14078515831E+04  0.17882347171E+04  0.25500000920E-02 0. -1.
       -2    1    3    3    0  502  0.97246994158E+03 -0.51965328445E+03 -0.81046295683E+03  0.13684251999E+04  0.25500000920E-02 0.  1.
</event>
<event>
 5   0  0.4470354E-08  0.3099035E+04  0.7818609E-02  0.8216003E-01
       -1   -1    0    0    0  501  0.00000000000E+00  0.00000000000E+00  0.16708206303E+04  0.16708206303E+04  0.50400001928E-02 0.  1.
        1   -1    0    0  501    0  0.00000000000E+00  0.00000000000E+00 -0.14370214128E+04  0.14370214128E+04  0.50400001928E-02 0. -1.
    10030    2    1    2    0    0  0.00000000000E+00  0.00000000000E+00  0.23379921749E+03  0.31078420431E+04  0.30990353484E+04 0.  0.
        1    1    3    3  502    0 -0.31807825018E+03  0.99398902723E+03 -0.10317010087E+04  0.14675131791E+04  0.50400001928E-02 0. -1.
       -1    1    3    3    0  502  0.31807825018E+03 -0.99398902723E+03  0.12655002262E+04  0.16403288640E+04  0.50400001928E-02 0.  1.
</event>
<event>
 5   0  0.4436241E-08  0.3100163E+04  0.7818609E-02  0.8215693E-01
       -1   -1    0    0    0  501  0.00000000000E+00  0.00000000000E+00  0.15526719478E+04  0.15526719478E+04  0.50400001928E-02 0. -1.
        1   -1    0    0  501    0  0.00000000000E+00  0.00000000000E+00 -0.15474949714E+04  0.15474949714E+04  0.50400001928E-02 0.  1.
    10030    2    1    2    0    0  0.00000000000E+00  0.00000000000E+00  0.51769764570E+01  0.31001669192E+04  0.31001625967E+04 0.  0.
        3    1    3    3  502    0  0.51217709379E+03 -0.31389312177E+03 -0.14263633822E+04  0.15476972493E+04  0.10100000352E+00 0.  1.
       -3    1    3    3    0  502 -0.51217709379E+03  0.31389312177E+03  0.14315403586E+04  0.15524696699E+04  0.10100000352E+00 0. -1.
</event>
<event>
 5   0  0.4470354E-08  0.3098008E+04  0.7818609E-02  0.8216285E-01
        1   -1    0    0  501    0  0.00000000000E+00  0.00000000000E+00  0.20082418347E+04  0.20082418347E+04  0.50400001928E-02 0. -1.
       -1   -1    0    0    0  501  0.00000000000E+00  0.00000000000E+00 -0.11947834445E+04  0.11947834445E+04  0.50400001928E-02 0.  1.
    10030    2    1    2    0    0  0.00000000000E+00  0.00000000000E+00  0.81345839013E+03  0.32030252792E+04  0.30980084549E+04 0.  0.
        1    1    3    3  502    0 -0.15239421585E+04  0.21233516993E+02  0.12064837126E+03  0.15288579378E+04  0.50400001928E-02 0.  1.
       -1    1    3    3    0  502  0.15239421585E+04 -0.21233516993E+02  0.69281001887E+03  0.16741673414E+04  0.50400001928E-02 0. -1.
</event>
<event>
 5   0  0.4470354E-08  0.3097202E+04  0.7818609E-02  0.8216506E-01
       -1   -1    0    0    0  501  0.00000000000E+00  0.00000000000E+00  0.12195539195E+04  0.12195539195E+04  0.50400001928E-02 0. -1.
        1   -1    0    0  501    0  0.00000000000E+00  0.00000000000E+00 -0.19664283313E+04  0.19664283313E+04  0.50400001928E-02 0.  1.
    10030    2    1    2    0    0  0.00000000000E+00  0.00000000000E+00 -0.74687441177E+03  0.31859822508E+04  0.30972022077E+04 0.  0.
        1    1    3    3  502    0  0.12804769861E+04 -0.87045231433E+03 -0.34332639108E+03  0.15859323927E+04  0.50400001928E-02 0. -1.
       -1    1    3    3    0  502 -0.12804769861E+04  0.87045231433E+03 -0.40354802069E+03  0.16000498581E+04  0.50400001928E-02 0.  1.
</event>
<event>
 5   0  0.4517409E-08  0.3100000E+04  0.7818609E-02  0.8215738E-01
        1   -1    0    0  501    0  0.00000000000E+00  0.00000000000E+00  0.14616149363E+04  0.14616149363E+04  0.50400001928E-02 0. -1.
       -1   -1    0    0    0  501  0.00000000000E+00  0.00000000000E+00 -0.16437300592E+04  0.16437300592E+04  0.50400001928E-02 0.  1.
    10030    2    1    2    0    0  0.00000000000E+00  0.00000000000E+00 -0.18211512292E+03  0.31053449956E+04  0.31000002618E+04 0.  0.
        2    1    3    3  502    0  0.27888577745E+03 -0.10849112926E+04 -0.11642078360E+04  0.16156081440E+04  0.25500000920E-02 0.  1.
       -2    1    3    3    0  502 -0.27888577745E+03  0.10849112926E+04  0.98209271308E+03  0.14897368515E+04  0.25500000920E-02 0. -1.
</event>
<event>
 5   0  0.4470354E-08  0.3105276E+04  0.7818609E-02  0.8214292E-01
       -1   -1    0    0    0  501  0.00000000000E+00  0.00000000000E+00  0.14136512349E+04  0.14136512349E+04  0.50400001928E-02 0. -1.
        1   -1    0    0  501    0  0.00000000000E+00  0.00000000000E+00 -0.17052893372E+04  0.17052893372E+04  0.50400001928E-02 0.  1.
    10030    2    1    2    0    0  0.00000000000E+00  0.00000000000E+00 -0.29163810231E+03  0.31189405721E+04  0.31052757542E+04 0.  0.
        1    1    3    3  502    0 -0.62058616062E+03  0.13754703185E+04  0.22135576154E+03  0.15251374211E+04  0.50400001928E-02 0. -1.
       -1    1    3    3    0  502  0.62058616062E+03 -0.13754703185E+04 -0.51299386385E+03  0.15938031511E+04  0.50400001928E-02 0.  1.
</event>
<event>
 5   0  0.1377237E-07  0.3100678E+04  0.7818609E-02  0.8215552E-01
       -2   -1    0    0    0  501  0.00000000000E+00  0.00000000000E+00  0.11935411460E+04  0.11935411460E+04  0.25500000920E-02 0. -1.
        2   -1    0    0  501    0  0.00000000000E+00  0.00000000000E+00 -0.20137978410E+04  0.20137978410E+04  0.25500000920E-02 0.  1.
    10030    2    1    2    0    0  0.00000000000E+00  0.00000000000E+00 -0.82025669504E+03  0.32073389870E+04  0.31006777214E+04 0.  0.
        2    1    3    3  502    0 -0.12336827221E+04  0.89963060313E+03 -0.68815345853E+03  0.16747726602E+04  0.25500000920E-02 0.  1.
       -2    1    3    3    0  502  0.12336827221E+04 -0.89963060313E+03 -0.13210323650E+03  0.15325663268E+04  0.25500000920E-02 0. -1.
</event>
<event>
 5   0  0.4517409E-08  0.3101546E+04  0.7818609E-02  0.8215314E-01
        1   -1    0    0  501    0  0.00000000000E+00  0.00000000000E+00  0.14015319054E+04  0.14015319054E+04  0.50400001928E-02 0. -1.
       -1   -1    0    0    0  501  0.00000000000E+00  0.00000000000E+00 -0.17159060055E+04  0.17159060056E+04  0.50400001928E-02 0.  1.
    10030    2    1    2    0    0  0.00000000000E+00  0.00000000000E+00 -0.31437410015E+03  0.31174379110E+04  0.31015460748E+04 0.  0.
        2    1    3    3  502    0  0.91639542814E+03  0.60416206399E+03  0.94391895605E+03  0.14476793070E+04  0.25500000920E-02 0. -1.
       -2    1    3    3    0  502 -0.91639542814E+03 -0.60416206399E+03 -0.12582930562E+04  0.16697586040E+04  0.25500000920E-02 0.  1.
</event>
<event>
 5   0  0.4838602E-08  0.3100940E+04  0.7818609E-02  0.8215480E-01
        1   -1    0    0  501    0  0.00000000000E+00  0.00000000000E+00  0.23897779497E+04  0.23897779497E+04  0.50400001928E-02 0.  1.
       -1   -1    0    0    0  501  0.00000000000E+00  0.00000000000E+00 -0.10059331042E+04  0.10059331042E+04  0.50400001928E-02 0. -1.
    10030    2    1    2    0    0  0.00000000000E+00  0.00000000000E+00  0.13838448455E+04  0.33957110539E+04  0.31009396971E+04 0.  0.
        5    1    3    3  502    0 -0.58642320501E+03  0.32981107605E+03 -0.83774061650E+03  0.10744761290E+04  0.46999998093E+01 0. -1.
       -5    1    3    3    0  502  0.58642320501E+03 -0.32981107605E+03  0.22215854620E+04  0.23212349249E+04  0.46999998093E+01 0.  1.
</event>
<event>
 5   0  0.1329777E-07  0.3099942E+04  0.7818609E-02  0.8215754E-01
       -2   -1    0    0    0  501  0.00000000000E+00  0.00000000000E+00  0.10712894963E+04  0.10712894963E+04  0.25500000920E-02 0. -1.
        2   -1    0    0  501    0  0.00000000000E+00  0.00000000000E+00 -0.22425405155E+04  0.22425405155E+04  0.25500000920E-02 0.  1.
    10030    2    1    2    0    0  0.00000000000E+00  0.00000000000E+00 -0.11712510192E+04  0.33138300119E+04  0.30999419991E+04 0.  0.
        1    1    3    3  502    0 -0.13001870451E+04 -0.81114563252E+03 -0.83396101988E+03  0.17446875285E+04  0.50400001928E-02 0. -1.
       -1    1    3    3    0  502  0.13001870451E+04  0.81114563252E+03 -0.33728999932E+03  0.15691424834E+04  0.50400001928E-02 0.  1.
</event>
<event>
 5   0  0.1329777E-07  0.3099295E+04  0.7818609E-02  0.8215931E-01
       -2   -1    0    0    0  501  0.00000000000E+00  0.00000000000E+00  0.12932684630E+04  0.12932684630E+04  0.25500000920E-02 0. -1.
        2   -1    0    0  501    0  0.00000000000E+00  0.00000000000E+00 -0.18568515395E+04  0.18568515395E+04  0.25500000920E-02 0.  1.
    10030    2    1    2    0    0  0.00000000000E+00  0.00000000000E+00 -0.56358307647E+03  0.31501200025E+04  0.30992951047E+04 0.  0.
        1    1    3    3  502    0 -0.67917998939E+03 -0.79785661620E+02 -0.16951913914E+04  0.18279291735E+04  0.50400001928E-02 0.  1.
       -1    1    3    3    0  502  0.67917998939E+03  0.79785661620E+02  0.11316083149E+04  0.13221908290E+04  0.50400001928E-02 0. -1.
</event>
<event>
 5   0  0.1377237E-07  0.3099612E+04  0.7818609E-02  0.8215844E-01
       -2   -1    0    0    0  501  0.00000000000E+00  0.00000000000E+00  0.10605474505E+04  0.10605474505E+04  0.25500000920E-02 0.  1.
        2   -1    0    0  501    0  0.00000000000E+00  0.00000000000E+00 -0.22647724445E+04  0.22647724445E+04  0.25500000920E-02 0. -1.
    10030    2    1    2    0    0  0.00000000000E+00  0.00000000000E+00 -0.12042249939E+04  0.33253198950E+04  0.30996120028E+04 0.  0.
        2    1    3    3  502    0  0.41550205051E+03  0.31566511651E+03 -0.21676964529E+04  0.22296175303E+04  0.25500000920E-02 0. -1.
       -2    1    3    3    0  502 -0.41550205051E+03 -0.31566511651E+03  0.96347145893E+03  0.10957023647E+04  0.25500000920E-02 0.  1.
</event>
<event>
 5   0  0.1318916E-07  0.3099707E+04  0.7818609E-02  0.8215818E-01
        2   -1    0    0  501    0  0.00000000000E+00  0.00000000000E+00  0.21462102870E+04  0.21462102870E+04  0.25500000920E-02 0. -1.
       -2   -1    0    0    0  501  0.00000000000E+00  0.00000000000E+00 -0.11192031968E+04  0.11192031968E+04  0.25500000920E-02 0.  1.
    10030    2    1    2    0    0  0.00000000000E+00  0.00000000000E+00  0.10270070902E+04  0.32654134838E+04  0.30997067050E+04 0.  0.
        5    1    3    3  502    0  0.10386258015E+04  0.10350030991E+04  0.10423864280E+04  0.17990460044E+04  0.46999998093E+01 0. -1.
       -5    1    3    3    0  502 -0.10386258015E+04 -0.10350030991E+04 -0.15379337772E+02  0.14663674794E+04  0.46999998093E+01 0.  1.
</event>
<event>
 5   0  0.4450600E-08  0.3100569E+04  0.7818609E-02  0.8215582E-01
       -1   -1    0    0    0  501  0.00000000000E+00  0.00000000000E+00  0.19913034862E+04  0.19913034862E+04  0.50400001928E-02 0.  1.
        1   -1    0    0  501    0  0.00000000000E+00  0.00000000000E+00 -0.12069389180E+04  0.12069389180E+04  0.50400001928E-02 0. -1.
    10030    2    1    2    0    0  0.00000000000E+00  0.00000000000E+00  0.78436456816E+03  0.31982424042E+04  0.31005687705E+04 0.  0.
        4    1    3    3  502    0  0.11511581426E+04 -0.31625202748E+03  0.14123786210E+04  0.18493229561E+04  0.12699999809E+01 0.  1.
       -4    1    3    3    0  502 -0.11511581426E+04  0.31625202748E+03 -0.62801405284E+03  0.13489194481E+04  0.12699999809E+01 0. -1.
</event>
<event>
 5   0  0.1329777E-07  0.3104627E+04  0.7818609E-02  0.8214469E-01
       -2   -1    0    0    0  501  0.00000000000E+00  0.00000000000E+00  0.98288594950E+03  0.98288594951E+03  0.25500000920E-02 0.  1.
        2   -1    0    0  501    0  0.00000000000E+00  0.00000000000E+00 -0.24516347389E+04  0.24516347389E+04  0.25500000920E-02 0. -1.
    10030    2    1    2    0    0  0.00000000000E+00  0.00000000000E+00 -0.14687487894E+04  0.34345206884E+04  0.31046270875E+04 0.  0.
        1    1    3    3  502    0  0.34864660846E+03  0.86077707109E+03  0.64165565411E+03  0.11288107025E+04  0.50400001928E-02 0.  1.
       -1    1    3    3    0  502 -0.34864660846E+03 -0.86077707109E+03 -0.21104044435E+04  0.23057099858E+04  0.50400001928E-02 0. -1.
</event>
<event>
 5   0  0.4470354E-08  0.3097593E+04  0.7818609E-02  0.8216399E-01
        1   -1    0    0  501    0  0.00000000000E+00  0.00000000000E+00  0.18915606625E+04  0.18915606625E+04  0.50400001928E-02 0.  1.
       -1   -1    0    0    0  501  0.00000000000E+00  0.00000000000E+00 -0.12681434561E+04  0.12681434561E+04  0.50400001928E-02 0. -1.
    10030    2    1    2    0    0  0.00000000000E+00  0.00000000000E+00  0.62341720645E+03  0.31597041186E+04  0.30975927918E+04 0.  0.
        1    1    3    3  502    0  0.52900031671E+03 -0.14550221940E+04  0.26796092839E+03  0.15712205381E+04  0.50400001928E-02 0.  1.
       -1    1    3    3    0  502 -0.52900031671E+03  0.14550221940E+04  0.35545627806E+03  0.15884835805E+04  0.50400001928E-02 0. -1.
</event>
<event>
 5   0  0.4517409E-08  0.3093775E+04  0.7818609E-02  0.8217448E-01
       -1   -1    0    0    0  501  0.00000000000E+00  0.00000000000E+00  0.14044040244E+04  0.14044040244E+04  0.50400001928E-02 0. -1.
        1   -1    0    0  501    0  0.00000000000E+00  0.00000000000E+00 -0.17038268789E+04  0.17038268789E+04  0.50400001928E-02 0.  1.
    10030    2    1    2    0    0  0.00000000000E+00  0.00000000000E+00 -0.29942285446E+03  0.31082309033E+04  0.30937752508E+04 0.  0.
        2    1    3    3  502    0 -0.62883153114E+03 -0.18299932113E+03  0.12582443224E+04  0.14184839163E+04  0.25500000920E-02 0. -1.
       -2    1    3    3    0  502  0.62883153114E+03  0.18299932113E+03 -0.15576671769E+04  0.16897469870E+04  0.25500000920E-02 0.  1.
</event>
<event>
 5   0  0.4470354E-08  0.3099478E+04  0.7818609E-02  0.8215881E-01
        1   -1    0    0  501    0  0.00000000000E+00  0.00000000000E+00  0.19999327077E+04  0.19999327077E+04  0.50400001928E-02 0.  1.
       -1   -1    0    0    0  501  0.00000000000E+00  0.00000000000E+00 -0.12008860859E+04  0.12008860859E+04  0.50400001928E-02 0. -1.
    10030    2    1    2    0    0  0.00000000000E+00  0.00000000000E+00  0.79904662185E+03  0.32008187936E+04  0.30994782537E+04 0.  0.
        1    1    3    3  502    0 -0.14619672766E+04  0.26070580553E+03  0.85715509060E+03  0.17146517676E+04  0.50400001928E-02 0.  1.
       -1    1    3    3    0  502  0.14619672766E+04 -0.26070580553E+03 -0.58108468750E+02  0.14861670260E+04  0.50400001928E-02 0. -1.
</event>
<event>
 5   0  0.4838602E-08  0.3100008E+04  0.7818609E-02  0.8215736E-01
       -1   -1    0    0    0  501  0.00000000000E+00  0.00000000000E+00  0.17861571789E+04  0.17861571789E+04  0.50400001928E-02 0. -1.
        1   -1    0    0  501    0  0.00000000000E+00  0.00000000000E+00 -0.13450735041E+04  0.13450735041E+04  0.50400001928E-02 0.  1.
    10030    2    1    2    0    0  0.00000000000E+00  0.00000000000E+00  0.44108367478E+03  0.31312306830E+04  0.31000081906E+04 0.  0.
        5    1    3    3  502    0 -0.62203736529E+03  0.18087106211E+03  0.16428597889E+04  0.17659714609E+04  0.46999998093E+01 0. -1.
       -5    1    3    3    0  502  0.62203736529E+03 -0.18087106211E+03 -0.12017761141E+04  0.13652592220E+04  0.46999998093E+01 0.  1.
</event>
<event>
 5   0  0.4517409E-08  0.3100449E+04  0.7818609E-02  0.8215615E-01
       -1   -1    0    0    0  501  0.00000000000E+00  0.00000000000E+00  0.11924541400E+04  0.11924541400E+04  0.50400001928E-02 0. -1.
        1   -1    0    0  501    0  0.00000000000E+00  0.00000000000E+00 -0.20153356808E+04  0.20153356808E+04  0.50400001928E-02 0.  1.
    10030    2    1    2    0    0  0.00000000000E+00  0.00000000000E+00 -0.82288154079E+03  0.32077898209E+04  0.31004485973E+04 0.  0.
        2    1    3    3  502    0 -0.58728556539E+03 -0.11388188587E+04  0.49134115792E+03  0.13723078596E+04  0.25500000920E-02 0. -1.
       -2    1    3    3    0  502  0.58728556539E+03  0.11388188587E+04 -0.13142226987E+04  0.18354819612E+04  0.25500000920E-02 0.  1.
</event>
<event>
 5   0  0.1329777E-07  0.3099771E+04  0.7818609E-02  0.8215801E-01
        2   -1    0    0  501    0  0.00000000000E+00  0.00000000000E+00  0.13500451762E+04  0.13500451762E+04  0.25500000920E-02 0. -1.
       -2   -1    0    0    0  501  0.00000000000E+00  0.00000000000E+00 -0.17793075993E+04  0.17793075993E+04  0.25500000920E-02 0.  1.
    10030    2    1    2    0    0  0.00000000000E+00  0.00000000000E+00 -0.42926242315E+03  0.31293527755E+04  0.30997713731E+04 0.  0.
        1    1    3    3  502    0 -0.88659993394E+03 -0.30690913338E+03 -0.14600543166E+04  0.17355146979E+04  0.50400001928E-02 0.  1.
       -1    1    3    3    0  502  0.88659993394E+03  0.30690913338E+03  0.10307918935E+04  0.13938380776E+04  0.50400001928E-02 0. -1.
</event>
<event>
 5   0  0.1398931E-07  0.3100393E+04  0.7818609E-02  0.8215630E-01
        2   -1    0    0  501    0  0.00000000000E+00  0.00000000000E+00  0.12306512045E+04  0.12306512045E+04  0.25500000920E-02 0.  1.
       -2   -1    0    0    0  501  0.00000000000E+00  0.00000000000E+00 -0.19527140168E+04  0.19527140168E+04  0.25500000920E-02 0. -1.
    10030    2    1    2    0    0  0.00000000000E+00  0.00000000000E+00 -0.72206281229E+03  0.31833652213E+04  0.31003934311E+04 0.  0.
        3    1    3    3  502    0 -0.74641114775E+02  0.14442647843E+04 -0.93421626881E+03  0.17216945462E+04  0.10100000352E+00 0. -1.
       -3    1    3    3    0  502  0.74641114775E+02 -0.14442647843E+04  0.21215345652E+03  0.14616706751E+04  0.10100000352E+00 0.  1.
</event>
<event>
 5   0  0.4470354E-08  0.3100924E+04  0.7818609E-02  0.8215484E-01
        1   -1    0    0  501    0  0.00000000000E+00  0.00000000000E+00  0.22579565513E+04  0.22579565513E+04  0.50400001928E-02 0. -1.
       -1   -1    0    0    0  501  0.00000000000E+00  0.00000000000E+00 -0.10646492675E+04  0.10646492675E+04  0.50400001928E-02 0.  1.
    10030    2    1    2    0    0  0.00000000000E+00  0.00000000000E+00  0.11933072838E+04  0.33226058188E+04  0.31009235969E+04 0.  0.
        1    1    3    3  502    0  0.14223178864E+04 -0.57102834448E+03  0.34566375785E+03  0.15711603908E+04  0.50400001928E-02 0. -1.
       -1    1    3    3    0  502 -0.14223178864E+04  0.57102834448E+03  0.84764352595E+03  0.17514454280E+04  0.50400001928E-02 0.  1.
</event>
<event>
 5   0  0.4517409E-08  0.3097246E+04  0.7818609E-02  0.8216494E-01
       -1   -1    0    0    0  501  0.00000000000E+00  0.00000000000E+00  0.10034013887E+04  0.10034013887E+04  0.50400001928E-02 0.  1.
        1   -1    0    0  501    0  0.00000000000E+00  0.00000000000E+00 -0.23901031175E+04  0.23901031175E+04  0.50400001928E-02 0. -1.
    10030    2    1    2    0    0  0.00000000000E+00  0.00000000000E+00 -0.13867017288E+04  0.33935045062E+04  0.30972457359E+04 0.  0.
        2    1    3    3  502    0  0.79407283072E+03  0.36480259792E+03 -0.20941586253E+04  0.22691701003E+04  0.25500000920E-02 0. -1.
       -2    1    3    3    0  502 -0.79407283072E+03 -0.36480259792E+03  0.70745689650E+03  0.11243344059E+04  0.25500000920E-02 0.  1.
</event>
<event>
 5   0  0.4470354E-08  0.3101392E+04  0.7818609E-02  0.8215356E-01
        1   -1    0    0  501    0  0.00000000000E+00  0.00000000000E+00  0.18558763056E+04  0.18558763056E+04  0.50400001928E-02 0. -1.
       -1   -1    0    0    0  501  0.00000000000E+00  0.00000000000E+00 -0.12956996829E+04  0.12956996829E+04  0.50400001928E-02 0.  1.
    10030    2    1    2    0    0  0.00000000000E+00  0.00000000000E+00  0.56017662271E+03  0.31515759884E+04  0.31013921652E+04 0.  0.
        1    1    3    3  502    0 -0.74073329117E+03  0.12721773671E+04  0.77535256792E+03  0.16638187000E+04  0.50400001928E-02 0. -1.
       -1    1    3    3    0  502  0.74073329117E+03 -0.12721773671E+04 -0.21517594521E+03  0.14877572884E+04  0.50400001928E-02 0.  1.
</event>
<event>
 5   0  0.4450600E-08  0.3100246E+04  0.7818609E-02  0.8215670E-01
        1   -1    0    0  501    0  0.00000000000E+00  0.00000000000E+00  0.14770281843E+04  0.14770281843E+04  0.50400001928E-02 0.  1.
       -1   -1    0    0    0  501  0.00000000000E+00  0.00000000000E+00 -0.16268355183E+04  0.16268355183E+04  0.50400001928E-02 0. -1.
    10030    2    1    2    0    0  0.00000000000E+00  0.00000000000E+00 -0.14980733406E+03  0.31038637026E+04  0.31002463849E+04 0.  0.
        4    1    3    3  502    0 -0.32825327586E+03  0.13576169265E+04 -0.74800229978E+03  0.15844188164E+04  0.12699999809E+01 0.  1.
       -4    1    3    3    0  502  0.32825327586E+03 -0.13576169265E+04  0.59819496572E+03  0.15194448862E+04  0.12699999809E+01 0. -1.
</event>
<event>
 5   0  0.4436241E-08  0.3100025E+04  0.7818609E-02  0.8215731E-01
        1   -1    0    0  501    0  0.00000000000E+00  0.00000000000E+00  0.13105264851E+04  0.13105264851E+04  0.50400001928E-02 0.  1.
       -1   -1    0    0    0  501  0.00000000000E+00  0.00000000000E+00 -0.18332617310E+04  0.18332617310E+04  0.50400001928E-02 0. -1.
    10030    2    1    2    0    0  0.00000000000E+00  0.00000000000E+00 -0.52273524598E+03  0.31437882161E+04  0.31000245500E+04 0.  0.
        3    1    3    3  502    0  0.19575869410E+03  0.15371986302E+04 -0.29703439246E+03  0.15778246213E+04  0.10100000352E+00 0.  1.
       -3    1    3    3    0  502 -0.19575869410E+03 -0.15371986302E+04 -0.22570085352E+03  0.15659635949E+04  0.10100000352E+00 0. -1.
</event>
<event>
 5   0  0.1329777E-07  0.3100229E+04  0.7818609E-02  0.8215675E-01
        2   -1    0    0  501    0  0.00000000000E+00  0.00000000000E+00  0.22277165208E+04  0.22277165208E+04  0.25500000920E-02 0. -1.
       -2   -1    0    0    0  501  0.00000000000E+00  0.00000000000E+00 -0.10786180266E+04  0.10786180266E+04  0.25500000920E-02 0.  1.
    10030    2    1    2    0    0  0.00000000000E+00  0.00000000000E+00  0.11490984942E+04  0.33063345473E+04  0.31002291512E+04 0.  0.
        1    1    3    3  502    0 -0.49856953277E+03 -0.52850273476E+01 -0.99076530771E+03  0.11091507587E+04  0.50400001928E-02 0.  1.
       -1    1    3    3    0  502  0.49856953277E+03  0.52850273476E+01  0.21398638019E+04  0.21971837887E+04  0.50400001928E-02 0. -1.
</event>
<event>
 5   0  0.4838602E-08  0.3093230E+04  0.7818609E-02  0.8217598E-01
       -1   -1    0    0    0  501  0.00000000000E+00  0.00000000000E+00  0.13221524045E+04  0.13221524045E+04  0.50400001928E-02 0.  1.
        1   -1    0    0  501    0  0.00000000000E+00  0.00000000000E+00 -0.18091843508E+04  0.18091843508E+04  0.50400001928E-02 0. -1.
    10030    2    1    2    0    0  0.00000000000E+00  0.00000000000E+00 -0.48703194634E+03  0.31313367553E+04  0.30932296647E+04 0.  0.
        5    1    3    3  502    0 -0.92206016466E+03  0.38675232238E+02 -0.14998956988E+04  0.17610791913E+04  0.46999998093E+01 0. -1.
       -5    1    3    3    0  502  0.92206016466E+03 -0.38675232238E+02  0.10128637524E+04  0.13702575640E+04  0.46999998093E+01 0.  1.
</event>
<event>
 5   0  0.1377237E-07  0.3099720E+04  0.7818609E-02  0.8215815E-01
        2   -1    0    0  501    0  0.00000000000E+00  0.00000000000E+00  0.19160468065E+04  0.19160468065E+04  0.25500000920E-02 0.  1.
       -2   -1    0    0    0  501  0.00000000000E+00  0.00000000000E+00 -0.12536573999E+04  0.12536573999E+04  0.25500000920E-02 0. -1.
    10030    2    1    2    0    0  0.00000000000E+00  0.00000000000E+00  0.66238940665E+03  0.31697042064E+04  0.30997201535E+04 0.  0.
        2    1    3    3  502    0 -0.32706779936E+03 -0.74847898535E+03  0.16780780500E+04  0.18663172503E+04  0.25500000920E-02 0.  1.
       -2    1    3    3    0  502  0.32706779936E+03  0.74847898535E+03 -0.10156886434E+04  0.13033869561E+04  0.25500000920E-02 0. -1.
</event>
<event>
 5   0  0.4450600E-08  0.3099772E+04  0.7818609E-02  0.8215800E-01
       -1   -1    0    0    0  501  0.00000000000E+00  0.00000000000E+00  0.15196238812E+04  0.15196238812E+04  0.50400001928E-02 0.  1.
        1   -1    0    0  501    0  0.00000000000E+00  0.00000000000E+00 -0.15807510063E+04  0.15807510063E+04  0.50400001928E-02 0. -1.
    10030    2    1    2    0    0  0.00000000000E+00  0.00000000000E+00 -0.61127125076E+02  0.31003748875E+04  0.30997722364E+04 0.  0.
        4    1    3    3  502    0 -0.14305346732E+02  0.12490316215E+04 -0.94827163667E+03  0.15682810157E+04  0.12699999809E+01 0. -1.
       -4    1    3    3    0  502  0.14305346732E+02 -0.12490316215E+04  0.88714451159E+03  0.15320938718E+04  0.12699999809E+01 0.  1.
</event>
<event>
 5   0  0.1398931E-07  0.3100193E+04  0.7818609E-02  0.8215685E-01
       -2   -1    0    0    0  501  0.00000000000E+00  0.00000000000E+00  0.13393621496E+04  0.13393621497E+04  0.25500000920E-02 0. -1.
        2   -1    0    0  501    0  0.00000000000E+00  0.00000000000E+00 -0.17939872470E+04  0.17939872470E+04  0.25500000920E-02 0.  1.
    10030    2    1    2    0    0  0.00000000000E+00  0.00000000000E+00 -0.45462509733E+03  0.31333493966E+04  0.31001926492E+04 0.  0.
        3    1    3    3  502    0  0.11732653902E+04  0.58609155837E+03  0.60780760927E+03  0.14455051334E+04  0.10100000352E+00 0. -1.
       -3    1    3    3    0  502 -0.11732653902E+04 -0.58609155837E+03 -0.10624327066E+04  0.16878442632E+04  0.10100000352E+00 0.  1.
</event>
<event>
 5   0  0.4470354E-08  0.3099441E+04  0.7818609E-02  0.8215891E-01
        1   -1    0    0  501    0  0.00000000000E+00  0.00000000000E+00  0.12758385430E+04  0.12758385430E+04  0.50400001928E-02 0.  1.
       -1   -1    0    0    0  501  0.00000000000E+00  0.00000000000E+00 -0.18823966162E+04  0.18823966162E+04  0.50400001928E-02 0. -1.
    10030    2    1    2    0    0  0.00000000000E+00  0.00000000000E+00 -0.60655807324E+03  0.31582351592E+04  0.30994413408E+04 0.  0.
        1    1    3    3  502    0 -0.12730171902E+04 -0.41288995735E+03  0.49294171782E+03  0.14261985909E+04  0.50400001928E-02 0.  1.
       -1    1    3    3    0  502  0.12730171902E+04  0.41288995735E+03 -0.10994997911E+04  0.17320365683E+04  0.50400001928E-02 0. -1.
</event>
<event>
 5   0  0.1398931E-07  0.3100524E+04  0.7818609E-02  0.8215594E-01
       -2   -1    0    0    0  501  0.00000000000E+00  0.00000000000E+00  0.16087656416E+04  0.16087656416E+04  0.25500000920E-02 0.  1.
        2   -1    0    0  501    0  0.00000000000E+00  0.00000000000E+00 -0.14938863124E+04  0.14938863124E+04  0.25500000920E-02 0. -1.
    10030    2    1    2    0    0  0.00000000000E+00  0.00000000000E+00  0.11487932919E+03  0.31026519540E+04  0.31005244536E+04 0.  0.
        3    1    3    3  502    0 -0.24362142796E+03  0.47678648837E+03  0.15133043443E+04  0.16052310750E+04  0.10100000352E+00 0.  1.
       -3    1    3    3    0  502  0.24362142796E+03 -0.47678648837E+03 -0.13984250151E+04  0.14974208789E+04  0.10100000352E+00 0. -1.
</event>
<event>
 5   0  0.4436241E-08  0.3100006E+04  0.7818609E-02  0.8215736E-01
        1   -1    0    0  501    0  0.00000000000E+00  0.00000000000E+00  0.16924776323E+04  0.16924776323E+04  0.50400001928E-02 0.  1.
       -1   -1    0    0    0  501  0.00000000000E+00  0.00000000000E+00 -0.14195218734E+04  0.14195218734E+04  0.50400001928E-02 0. -1.
    10030    2    1    2    0    0  0.00000000000E+00  0.00000000000E+00  0.27295575895E+03  0.31119995057E+04  0.31000058189E+04 0.  0.
        3    1    3    3  502    0  0.51509708734E+03  0.76686209780E+03 -0.11129685825E+04  0.14464098874E+04  0.10100000352E+00 0. -1.
       -3    1    3    3    0  502 -0.51509708734E+03 -0.76686209780E+03  0.13859243415E+04  0.16655896184E+04  0.10100000352E+00 0.  1.
</event>
<event>
 5   0  0.4838602E-08  0.3099667E+04  0.7818609E-02  0.8215829E-01
        1   -1    0    0  501    0  0.00000000000E+00  0.00000000000E+00  0.21933379239E+04  0.21933379239E+04  0.50400001928E-02 0.  1.
       -1   -1    0    0    0  501  0.00000000000E+00  0.00000000000E+00 -0.10951271421E+04  0.10951271422E+04  0.50400001928E-02 0. -1.
    10030    2    1    2    0    0  0.00000000000E+00  0.00000000000E+00  0.10982107818E+04  0.32884650661E+04  0.30996670095E+04 0.  0.
        5    1    3    3  502    0  0.47767609783E+03  0.11405154072E+04 -0.44215621874E+03  0.13131923166E+04  0.46999998093E+01 0. -1.
       -5    1    3    3    0  502 -0.47767609783E+03 -0.11405154072E+04  0.15403670005E+04  0.19752727495E+04  0.46999998093E+01 0.  1.
</event>
<event>
 5   0  0.4436241E-08  0.3100702E+04  0.7818609E-02  0.8215545E-01
       -1   -1    0    0    0  501  0.00000000000E+00  0.00000000000E+00  0.11897616144E+04  0.11897616144E+04  0.50400001928E-02 0.  1.
        1   -1    0    0  501    0  0.00000000000E+00  0.00000000000E+00 -0.20202271401E+04  0.20202271402E+04  0.50400001928E-02 0. -1.
    10030    2    1    2    0    0  0.00000000000E+00  0.00000000000E+00 -0.83046552578E+03  0.32099887545E+04  0.31007023099E+04 0.  0.
        3    1    3    3  502    0  0.11901579367E+04  0.62428117268E+03  0.38491626964E+03  0.13979854941E+04  0.10100000352E+00 0.  1.
       -3    1    3    3    0  502 -0.11901579367E+04 -0.62428117268E+03 -0.12153817954E+04  0.18120032604E+04  0.10100000352E+00 0. -1.
</event>
<event>
 5   0  0.1318916E-07  0.3100813E+04  0.7818609E-02  0.8215515E-01
       -2   -1    0    0    0  501  0.00000000000E+00  0.00000000000E+00  0.18690311724E+04  0.18690311724E+04  0.25500000920E-02 0. -1.
        2   -1    0    0  501    0  0.00000000000E+00  0.00000000000E+00 -0.12860994727E+04  0.12860994727E+04  0.25500000920E-02 0.  1.
    10030    2    1    2    0    0  0.00000000000E+00  0.00000000000E+00  0.58293169969E+03  0.31551306451E+04  0.31008128001E+04 0.  0.
        5    1    3    3  502    0  0.14335104619E+04  0.13322205203E+03  0.87690320769E+03  0.16857288290E+04  0.46999998093E+01 0. -1.
       -5    1    3    3    0  502 -0.14335104619E+04 -0.13322205203E+03 -0.29397150800E+03  0.14694018160E+04  0.46999998093E+01 0.  1.
</event>
<event>
 5   0  0.1329777E-07  0.3096944E+04  0.7818609E-02  0.8216577E-01
       -2   -1    0    0    0  501  0.00000000000E+00  0.00000000000E+00  0.14082701768E+04  0.14082701768E+04  0.25500000920E-02 0. -1.
        2   -1    0    0  501    0  0.00000000000E+00  0.00000000000E+00 -0.17026320079E+04  0.17026320079E+04  0.25500000920E-02 0.  1.
    10030    2    1    2    0    0  0.00000000000E+00  0.00000000000E+00 -0.29436183105E+03  0.31109021847E+04  0.30969442222E+04 0.  0.
        1    1    3    3  502    0  0.48003672080E+03 -0.14579960425E+04  0.57645343822E+02  0.15360698874E+04  0.50400001928E-02 0. -1.
       -1    1    3    3    0  502 -0.48003672080E+03  0.14579960425E+04 -0.35200717488E+03  0.15748322973E+04  0.50400001928E-02 0.  1.
</event>
<event>
 5   0  0.1329777E-07  0.3100580E+04  0.7818609E-02  0.8215579E-01
        2   -1    0    0  501    0  0.00000000000E+00  0.00000000000E+00  0.19963254032E+04  0.19963254032E+04  0.25500000920E-02 0. -1.
       -2   -1    0    0    0  501  0.00000000000E+00  0.00000000000E+00 -0.12039116801E+04  0.12039116801E+04  0.25500000920E-02 0.  1.
    10030    2    1    2    0    0  0.00000000000E+00  0.00000000000E+00  0.79241372312E+03  0.32002370832E+04  0.31005802490E+04 0.  0.
        1    1    3    3  502    0 -0.82615392788E+03 -0.13116760193E+04  0.41619893321E+03  0.16050687973E+04  0.50400001928E-02 0. -1.
       -1    1    3    3    0  502  0.82615392788E+03  0.13116760193E+04  0.37621478990E+03  0.15951682859E+04  0.50400001928E-02 0.  1.
</event>
<event>
 5   0  0.4517409E-08  0.3101137E+04  0.7818609E-02  0.8215426E-01
       -1   -1    0    0    0  501  0.00000000000E+00  0.00000000000E+00  0.14217414051E+04  0.14217414051E+04  0.50400001928E-02 0.  1.
        1   -1    0    0  501    0  0.00000000000E+00  0.00000000000E+00 -0.16910691368E+04  0.16910691368E+04  0.50400001928E-02 0. -1.
    10030    2    1    2    0    0  0.00000000000E+00  0.00000000000E+00 -0.26932773164E+03  0.31128105419E+04  0.31011372177E+04 0.  0.
        2    1    3    3  502    0 -0.80961956120E+03  0.22087505614E+03 -0.14434097273E+04  0.16696410588E+04  0.25500000920E-02 0. -1.
       -2    1    3    3    0  502  0.80961956120E+03 -0.22087505614E+03  0.11740819957E+04  0.14431694831E+04  0.25500000920E-02 0.  1.
</event>
<event>
 5   0  0.4517409E-08  0.3097235E+04  0.7818609E-02  0.8216497E-01
       -1   -1    0    0    0  501  0.00000000000E+00  0.00000000000E+00  0.19035230996E+04  0.19035230996E+04  0.50400001928E-02 0.  1.
        1   -1    0    0  501    0  0.00000000000E+00  0.00000000000E+00 -0.12598832048E+04  0.12598832048E+04  0.50400001928E-02 0. -1.
    10030    2    1    2    0    0  0.00000000000E+00  0.00000000000E+00  0.64363989483E+03  0.31634063045E+04  0.30972354016E+04 0.  0.
        2    1    3    3  502    0  0.13997056090E+04 -0.44074525073E+03 -0.18350742168E+03  0.14788871294E+04  0.25500000920E-02 0. -1.
       -2    1    3    3    0  502 -0.13997056090E+04  0.44074525073E+03  0.82714731651E+03  0.16845191750E+04  0.25500000920E-02 0.  1.
</event>
<event>
 5   0  0.1377237E-07  0.3096145E+04  0.7818609E-02  0.8216797E-01
       -2   -1    0    0    0  501  0.00000000000E+00  0.00000000000E+00  0.17560892306E+04  0.17560892306E+04  0.25500000920E-02 0.  1.
        2   -1    0    0  501    0  0.00000000000E+00  0.00000000000E+00 -0.13646961944E+04  0.13646961944E+04  0.25500000920E-02 0. -1.
    10030    2    1    2    0    0  0.00000000000E+00  0.00000000000E+00  0.39139303621E+03  0.31207854250E+04  0.30961448868E+04 0.  0.
        2    1    3    3  502    0  0.12307823416E+04 -0.79917567881E+03  0.69259177315E+03  0.16227107883E+04  0.25500000920E-02 0. -1.
       -2    1    3    3    0  502 -0.12307823416E+04  0.79917567881E+03 -0.30119873694E+03  0.14980746367E+04  0.25500000920E-02 0.  1.
</event>
<event>
 5   0  0.4838602E-08  0.3098596E+04  0.7818609E-02  0.8216123E-01
       -1   -1    0    0    0  501  0.00000000000E+00  0.00000000000E+00  0.14538961931E+04  0.14538961931E+04  0.50400001928E-02 0.  1.
        1   -1    0    0  501    0  0.00000000000E+00  0.00000000000E+00 -0.16509601892E+04  0.16509601892E+04  0.50400001928E-02 0. -1.
    10030    2    1    2    0    0  0.00000000000E+00  0.00000000000E+00 -0.19706399613E+03  0.31048563823E+04  0.30985962848E+04 0.  0.
        5    1    3    3  502    0  0.10069684406E+04 -0.10121052078E+04  0.50431480409E+03  0.15141657451E+04  0.46999998093E+01 0. -1.
       -5    1    3    3    0  502 -0.10069684406E+04  0.10121052078E+04 -0.70137880022E+03  0.15906906372E+04  0.46999998093E+01 0.  1.
</event>
<event>
 5   0  0.4450600E-08  0.3100866E+04  0.7818609E-02  0.8215500E-01
       -1   -1    0    0    0  501  0.00000000000E+00  0.00000000000E+00  0.11197063293E+04  0.11197063293E+04  0.50400001928E-02 0. -1.
        1   -1    0    0  501    0  0.00000000000E+00  0.00000000000E+00 -0.21468501643E+04  0.21468501643E+04  0.50400001928E-02 0.  1.
    10030    2    1    2    0    0  0.00000000000E+00  0.00000000000E+00 -0.10271438350E+04  0.32665564937E+04  0.31008655031E+04 0.  0.
        4    1    3    3  502    0  0.10774936648E+04 -0.40135365333E+03  0.58208164608E+03  0.12887583203E+04  0.12699999809E+01 0. -1.
       -4    1    3    3    0  502 -0.10774936648E+04  0.40135365333E+03 -0.16092254810E+04  0.19777981733E+04  0.12699999809E+01 0.  1.
</event>
<event>
 5   0  0.4436241E-08  0.3100339E+04  0.7818609E-02  0.8215645E-01
       -1   -1    0    0    0  501  0.00000000000E+00  0.00000000000E+00  0.15742560743E+04  0.15742560743E+04  0.50400001928E-02 0.  1.
        1   -1    0    0  501    0  0.00000000000E+00  0.00000000000E+00 -0.15264515955E+04  0.15264515955E+04  0.50400001928E-02 0. -1.
    10030    2    1    2    0    0  0.00000000000E+00  0.00000000000E+00  0.47804478775E+02  0.31007076698E+04  0.31003391404E+04 0.  0.
        3    1    3    3  502    0  0.13863387071E+04  0.58710669799E+03 -0.34546049372E+03  0.15446592662E+04  0.10100000352E+00 0.  1.
       -3    1    3    3    0  502 -0.13863387071E+04 -0.58710669799E+03  0.39326497249E+03  0.15560484036E+04  0.10100000352E+00 0. -1.
</event>
<event>
 5   0  0.4838602E-08  0.3098951E+04  0.7818609E-02  0.8216026E-01
       -1   -1    0    0    0  501  0.00000000000E+00  0.00000000000E+00  0.13144155385E+04  0.13144155385E+04  0.50400001928E-02 0. -1.
        1   -1    0    0  501    0  0.00000000000E+00  0.00000000000E+00 -0.18265720950E+04  0.18265720950E+04  0.50400001928E-02 0.  1.
    10030    2    1    2    0    0  0.00000000000E+00  0.00000000000E+00 -0.51215655657E+03  0.31409876335E+04  0.30989512703E+04 0.  0.
        5    1    3    3  502    0  0.15415163107E+04  0.10669009039E+03 -0.37251627351E+03  0.15894797185E+04  0.46999998093E+01 0. -1.
       -5    1    3    3    0  502 -0.15415163107E+04 -0.10669009039E+03 -0.13964028306E+03  0.15515079150E+04  0.46999998093E+01 0.  1.
</event>
<event>
 5   0  0.1377237E-07  0.3099793E+04  0.7818609E-02  0.8215795E-01
       -2   -1    0    0    0  501  0.00000000000E+00  0.00000000000E+00  0.10441795920E+04  0.10441795920E+04  0.25500000920E-02 0.  1.
        2   -1    0    0  501    0  0.00000000000E+00  0.00000000000E+00 -0.23005417619E+04  0.23005417619E+04  0.25500000920E-02 0. -1.
    10030    2    1    2    0    0  0.00000000000E+00  0.00000000000E+00 -0.12563621699E+04  0.33447213539E+04  0.30997927404E+04 0.  0.
        2    1    3    3  502    0  0.80164439035E+03  0.55160230179E+03 -0.19298500672E+04  0.21613005598E+04  0.25500000920E-02 0. -1.
       -2    1    3    3    0  502 -0.80164439035E+03 -0.55160230179E+03  0.67348789736E+03  0.11834207941E+04  0.25500000920E-02 0.  1.
</event>
<event>
 5   0  0.1377237E-07  0.3102338E+04  0.7818609E-02  0.8215096E-01
        2   -1    0    0  501    0  0.00000000000E+00  0.00000000000E+00  0.26486164639E+04  0.26486164639E+04  0.25500000920E-02 0. -1.
       -2   -1    0    0    0  501  0.00000000000E+00  0.00000000000E+00 -0.90844635656E+03  0.90844635656E+03  0.25500000920E-02 0.  1.
    10030    2    1    2    0    0  0.00000000000E+00  0.00000000000E+00  0.17401701073E+04  0.35570628204E+04  0.31023384577E+04 0.  0.
        2    1    3    3  502    0  0.40778312581E+03  0.67968438676E+03 -0.65872003386E+03  0.10306163332E+04  0.25500000920E-02 0. -1.
       -2    1    3    3    0  502 -0.40778312581E+03 -0.67968438676E+03  0.23988901412E+04  0.25264464872E+04  0.25500000920E-02 0.  1.
</event>
<event>
 5   0  0.4450600E-08  0.3099238E+04  0.7818609E-02  0.8215947E-01
        1   -1    0    0  501    0  0.00000000000E+00  0.00000000000E+00  0.18667959739E+04  0.18667959739E+04  0.50400001928E-02 0.  1.
       -1   -1    0    0    0  501  0.00000000000E+00  0.00000000000E+00 -0.12863316413E+04  0.12863316413E+04  0.50400001928E-02 0. -1.
    10030    2    1    2    0    0  0.00000000000E+00  0.00000000000E+00  0.58046433263E+03  0.31531276152E+04  0.30992377960E+04 0.  0.
        4    1    3    3  502    0 -0.35897922628E+03  0.41061952318E+03  0.17659158477E+04  0.18482247893E+04  0.12699999809E+01 0.  1.
       -4    1    3    3    0  502  0.35897922628E+03 -0.41061952318E+03 -0.11854515150E+04  0.13049028259E+04  0.12699999809E+01 0. -1.
</event>
<event>
 5   0  0.4470354E-08  0.3099194E+04  0.7818609E-02  0.8215959E-01
        1   -1    0    0  501    0  0.00000000000E+00  0.00000000000E+00  0.14500143736E+04  0.14500143736E+04  0.50400001928E-02 0.  1.
       -1   -1    0    0    0  501  0.00000000000E+00  0.00000000000E+00 -0.16560187767E+04  0.16560187767E+04  0.50400001928E-02 0. -1.
    10030    2    1    2    0    0  0.00000000000E+00  0.00000000000E+00 -0.20600440312E+03  0.31060331503E+04  0.30991941077E+04 0.  0.
        1    1    3    3  502    0 -0.28373356431E+01 -0.90672357229E+03 -0.13623958109E+04  0.16365445403E+04  0.50400001928E-02 0. -1.
       -1    1    3    3    0  502  0.28373356431E+01  0.90672357229E+03  0.11563914077E+04  0.14694886100E+04  0.50400001928E-02 0.  1.
</event>
<event>
 5   0  0.4470354E-08  0.3102152E+04  0.7818609E-02  0.8215148E-01
       -1   -1    0    0    0  501  0.00000000000E+00  0.00000000000E+00  0.96786027549E+03  0.96786027550E+03  0.50400001928E-02 0.  1.
        1   -1    0    0  501    0  0.00000000000E+00  0.00000000000E+00 -0.24857270731E+04  0.24857270731E+04  0.50400001928E-02 0. -1.
    10030    2    1    2    0    0  0.00000000000E+00  0.00000000000E+00 -0.15178667976E+04  0.34535873486E+04  0.31021518272E+04 0.  0.
        1    1    3    3  502    0 -0.52230144180E+03 -0.25736676634E+02  0.86676215753E+03  0.10122933421E+04  0.50400001928E-02 0.  1.
       -1    1    3    3    0  502  0.52230144180E+03  0.25736676634E+02 -0.23846289552E+04  0.24412940066E+04  0.50400001928E-02 0. -1.
</event>
<event>
 5   0  0.4838602E-08  0.3099568E+04  0.7818609E-02  0.8215857E-01
        1   -1    0    0  501    0  0.00000000000E+00  0.00000000000E+00  0.17765814665E+04  0.17765814665E+04  0.50400001928E-02 0.  1.
       -1   -1    0    0    0  501  0.00000000000E+00  0.00000000000E+00 -0.13519392632E+04  0.13519392632E+04  0.50400001928E-02 0. -1.
    10030    2    1    2    0    0  0.00000000000E+00  0.00000000000E+00  0.42464220330E+03  0.31285207296E+04  0.30995678658E+04 0.  0.
        5    1    3    3  502    0  0.14084246307E+04  0.16722122987E+03  0.84280401531E+03  0.16498374400E+04  0.46999998093E+01 0.  1.
       -5    1    3    3    0  502 -0.14084246307E+04 -0.16722122987E+03 -0.41816181201E+03  0.14786832897E+04  0.46999998093E+01 0. -1.
</event>
<event>
 5   0  0.1329777E-07  0.3099887E+04  0.7818609E-02  0.8215769E-01
        2   -1    0    0  501    0  0.00000000000E+00  0.00000000000E+00  0.19409039251E+04  0.19409039251E+04  0.25500000920E-02 0.  1.
       -2   -1    0    0    0  501  0.00000000000E+00  0.00000000000E+00 -0.12377352925E+04  0.12377352925E+04  0.25500000920E-02 0. -1.
    10030    2    1    2    0    0  0.00000000000E+00  0.00000000000E+00  0.70316863260E+03  0.31786392177E+04  0.30998872803E+04 0.  0.
        1    1    3    3  502    0 -0.13229480776E+04 -0.36118535450E+03  0.10922068714E+04  0.17531578156E+04  0.50400001928E-02 0.  1.
       -1    1    3    3    0  502  0.13229480776E+04  0.36118535450E+03 -0.38903823880E+03  0.14254814021E+04  0.50400001928E-02 0. -1.
</event>
<event>
 5   0  0.1398931E-07  0.3098522E+04  0.7818609E-02  0.8216144E-01
        2   -1    0    0  501    0  0.00000000000E+00  0.00000000000E+00  0.23218327221E+04  0.23218327221E+04  0.25500000920E-02 0.  1.
       -2   -1    0    0    0  501  0.00000000000E+00  0.00000000000E+00 -0.10337562687E+04  0.10337562687E+04  0.25500000920E-02 0. -1.
    10030    2    1    2    0    0  0.00000000000E+00  0.00000000000E+00  0.12880764534E+04  0.33555889909E+04  0.30985216678E+04 0.  0.
        3    1    3    3  502    0  0.40785809609E+03  0.11857201643E+04  0.16294339260E+04  0.20560485072E+04  0.10100000352E+00 0.  1.
       -3    1    3    3    0  502 -0.40785809609E+03 -0.11857201643E+04 -0.34135747258E+03  0.12995404837E+04  0.10100000352E+00 0. -1.
</event>
<event>
 5   0  0.1329777E-07  0.3100426E+04  0.7818609E-02  0.8215621E-01
        2   -1    0    0  501    0  0.00000000000E+00  0.00000000000E+00  0.20277943440E+04  0.20277943440E+04  0.25500000920E-02 0. -1.
       -2   -1    0    0    0  501  0.00000000000E+00  0.00000000000E+00 -0.11851102562E+04  0.11851102562E+04  0.25500000920E-02 0.  1.
    10030    2    1    2    0    0  0.00000000000E+00  0.00000000000E+00  0.84268408782E+03  0.32129046002E+04  0.31004256963E+04 0.  0.
        1    1    3    3  502    0  0.11862749162E+04 -0.24082942819E+03  0.14249353448E+04  0.18696758347E+04  0.50400001928E-02 0. -1.
       -1    1    3    3    0  502 -0.11862749162E+04  0.24082942819E+03 -0.58225125696E+03  0.13432287655E+04  0.50400001928E-02 0.  1.
</event>
<event>
 5   0  0.1398931E-07  0.3099182E+04  0.7818609E-02  0.8215962E-01
        2   -1    0    0  501    0  0.00000000000E+00  0.00000000000E+00  0.19633031541E+04  0.19633031541E+04  0.25500000920E-02 0.  1.
       -2   -1    0    0    0  501  0.00000000000E+00  0.00000000000E+00 -0.12230572080E+04  0.12230572080E+04  0.25500000920E-02 0. -1.
    10030    2    1    2    0    0  0.00000000000E+00  0.00000000000E+00  0.74024594609E+03  0.31863603621E+04  0.30991818753E+04 0.  0.
        3    1    3    3  502    0 -0.10889981262E+04 -0.88392375280E+03  0.10474363643E+04  0.17505316527E+04  0.10100000352E+00 0.  1.
       -3    1    3    3    0  502  0.10889981262E+04  0.88392375280E+03 -0.30719041821E+03  0.14358287094E+04  0.10100000352E+00 0. -1.
</event>
<event>
 5   0  0.1318916E-07  0.3099070E+04  0.7818609E-02  0.8215993E-01
       -2   -1    0    0    0  501  0.00000000000E+00  0.00000000000E+00  0.15471813804E+04  0.15471813804E+04  0.25500000920E-02 0.  1.
        2   -1    0    0  501    0  0.00000000000E+00  0.00000000000E+00 -0.15518925023E+04  0.15518925023E+04  0.25500000920E-02 0. -1.
    10030    2    1    2    0    0  0.00000000000E+00  0.00000000000E+00 -0.47111219000E+01  0.30990738828E+04  0.30990703019E+04 0.  0.
        5    1    3    3  502    0  0.93213635918E+03  0.81448893047E+02 -0.12374784314E+04  0.15514145392E+04  0.46999998093E+01 0. -1.
       -5    1    3    3    0  502 -0.93213635918E+03 -0.81448893047E+02  0.12327673095E+04  0.15476593436E+04  0.46999998093E+01 0.  1.
</event>
<event>
 5   0  0.4517409E-08  0.3100439E+04  0.7818609E-02  0.8215617E-01
        1   -1    0    0  501    0  0.00000000000E+00  0.00000000000E+00  0.20628728597E+04  0.20628728597E+04  0.50400001928E-02 0. -1.
       -1   -1    0    0    0  501  0.00000000000E+00  0.00000000000E+00 -0.11649681246E+04  0.11649681247E+04  0.50400001928E-02 0.  1.
    10030    2    1    2    0    0  0.00000000000E+00  0.00000000000E+00  0.89790473508E+03  0.32278409844E+04  0.31004394055E+04 0.  0.
        2    1    3    3  502    0 -0.13963541398E+04 -0.60671332849E+03  0.14493373157E+03  0.15293501016E+04  0.25500000920E-02 0.  1.
       -2    1    3    3    0  502  0.13963541398E+04  0.60671332849E+03  0.75297100351E+03  0.16984908828E+04  0.25500000920E-02 0. -1.
</event>
<event>
 5   0  0.4436241E-08  0.3100481E+04  0.7818609E-02  0.8215606E-01
       -1   -1    0    0    0  501  0.00000000000E+00  0.00000000000E+00  0.14521329209E+04  0.14521329209E+04  0.50400001928E-02 0. -1.
        1   -1    0    0  501    0  0.00000000000E+00  0.00000000000E+00 -0.16549760629E+04  0.16549760629E+04  0.50400001928E-02 0.  1.
    10030    2    1    2    0    0  0.00000000000E+00  0.00000000000E+00 -0.20284314202E+03  0.31071089839E+04  0.31004807526E+04 0.  0.
        3    1    3    3  502    0 -0.11334897468E+04 -0.67601604813E+03  0.71361194540E+03  0.15003462008E+04  0.10100000352E+00 0. -1.
       -3    1    3    3    0  502  0.11334897468E+04  0.67601604813E+03 -0.91645508742E+03  0.16067627830E+04  0.10100000352E+00 0.  1.
</event>
<event>
 5   0  0.1329777E-07  0.3101281E+04  0.7818609E-02  0.8215387E-01
       -2   -1    0    0    0  501  0.00000000000E+00  0.00000000000E+00  0.86479311443E+03  0.86479311443E+03  0.25500000920E-02 0.  1.
        2   -1    0    0  501    0  0.00000000000E+00  0.00000000000E+00 -0.27804168396E+04  0.27804168396E+04  0.25500000920E-02 0. -1.
    10030    2    1    2    0    0  0.00000000000E+00  0.00000000000E+00 -0.19156237252E+04  0.36452099540E+04  0.31012805988E+04 0.  0.
        1    1    3    3  502    0  0.52132811166E+03  0.14481153379E+04 -0.73583976999E+03  0.17059546298E+04  0.50400001928E-02 0.  1.
       -1    1    3    3    0  502 -0.52132811166E+03 -0.14481153379E+04 -0.11797839552E+04  0.19392553243E+04  0.50400001928E-02 0. -1.
</event>
<event>
 5   0  0.4436241E-08  0.3096945E+04  0.7818609E-02  0.8216577E-01
        1   -1    0    0  501    0  0.00000000000E+00  0.00000000000E+00  0.16662911650E+04  0.16662911650E+04  0.50400001928E-02 0. -1.
       -1   -1    0    0    0  501  0.00000000000E+00  0.00000000000E+00 -0.14389842935E+04  0.14389842935E+04  0.50400001928E-02 0.  1.
    10030    2    1    2    0    0  0.00000000000E+00  0.00000000000E+00  0.22730687150E+03  0.31052754584E+04  0.30969448266E+04 0.  0.
        3    1    3    3  502    0 -0.95714620808E+03  0.89100682074E+03 -0.71788114749E+03  0.14917692081E+04  0.10100000352E+00 0.  1.
       -3    1    3    3    0  502  0.95714620808E+03 -0.89100682074E+03  0.94518801900E+03  0.16135062503E+04  0.10100000352E+00 0. -1.
</event>
<event>
 5   0  0.4517409E-08  0.3099762E+04  0.7818609E-02  0.8215803E-01
        1   -1    0    0  501    0  0.00000000000E+00  0.00000000000E+00  0.23222831253E+04  0.23222831253E+04  0.50400001928E-02 0. -1.
       -1   -1    0    0    0  501  0.00000000000E+00  0.00000000000E+00 -0.10343833714E+04  0.10343833714E+04  0.50400001928E-02 0.  1.
    10030    2    1    2    0    0  0.00000000000E+00  0.00000000000E+00  0.12878997539E+04  0.33566664967E+04  0.30997619576E+04 0.  0.
        2    1    3    3  502    0 -0.40331244858E+03  0.10710235537E+04 -0.48784169221E+03  0.12440827546E+04  0.25500000920E-02 0.  1.
       -2    1    3    3    0  502  0.40331244858E+03 -0.10710235537E+04  0.17757414461E+04  0.21125837420E+04  0.25500000920E-02 0. -1.
</event>
<event>
 5   0  0.4450600E-08  0.3099667E+04  0.7818609E-02  0.8215829E-01
        1   -1    0    0  501    0  0.00000000000E+00  0.00000000000E+00  0.13734021754E+04  0.13734021754E+04  0.50400001928E-02 0. -1.
       -1   -1    0    0    0  501  0.00000000000E+00  0.00000000000E+00 -0.17489299740E+04  0.17489299740E+04  0.50400001928E-02 0.  1.
    10030    2    1    2    0    0  0.00000000000E+00  0.00000000000E+00 -0.37552779859E+03  0.31223321494E+04  0.30996672279E+04 0.  0.
        4    1    3    3  502    0  0.13949658454E+04  0.22055410314E+03 -0.83071690322E+03  0.16384950437E+04  0.12699999809E+01 0.  1.
       -4    1    3    3    0  502 -0.13949658454E+04 -0.22055410314E+03  0.45518910462E+03  0.14838371056E+04  0.12699999809E+01 0. -1.
</event>
<event>
 5   0  0.1325713E-07  0.3099788E+04  0.7818609E-02  0.8215796E-01
        2   -1    0    0  501    0  0.00000000000E+00  0.00000000000E+00  0.91265943534E+03  0.91265943535E+03  0.25500000920E-02 0. -1.
       -2   -1    0    0    0  501  0.00000000000E+00  0.00000000000E+00 -0.26320575345E+04  0.26320575345E+04  0.25500000920E-02 0.  1.
    10030    2    1    2    0    0  0.00000000000E+00  0.00000000000E+00 -0.17193980992E+04  0.35447169699E+04  0.30997884723E+04 0.  0.
        4    1    3    3  502    0 -0.62817796704E+03  0.14101906253E+04 -0.10170146246E+04  0.18486658750E+04  0.12699999809E+01 0.  1.
       -4    1    3    3    0  502  0.62817796704E+03 -0.14101906253E+04 -0.70238347455E+03  0.16960510948E+04  0.12699999809E+01 0. -1.
</event>
<event>
 5   0  0.4838602E-08  0.3101746E+04  0.7818609E-02  0.8215259E-01
        1   -1    0    0  501    0  0.00000000000E+00  0.00000000000E+00  0.27192835102E+04  0.27192835102E+04  0.50400001928E-02 0. -1.
       -1   -1    0    0    0  501  0.00000000000E+00  0.00000000000E+00 -0.88450037484E+03  0.88450037485E+03  0.50400001928E-02 0.  1.
    10030    2    1    2    0    0  0.00000000000E+00  0.00000000000E+00  0.18347831353E+04  0.36037838850E+04  0.31017461431E+04 0.  0.
        5    1    3    3  502    0 -0.66885930815E+03  0.13958587019E+04  0.10299832210E+04  0.18592153762E+04  0.46999998093E+01 0. -1.
       -5    1    3    3    0  502  0.66885930815E+03 -0.13958587019E+04  0.80479991435E+03  0.17445685088E+04  0.46999998093E+01 0.  1.
</event>
<event>
 5   0  0.4838602E-08  0.3100038E+04  0.7818609E-02  0.8215728E-01
        1   -1    0    0  501    0  0.00000000000E+00  0.00000000000E+00  0.11128564459E+04  0.11128564459E+04  0.50400001928E-02 0. -1.
       -1   -1    0    0    0  501  0.00000000000E+00  0.00000000000E+00 -0.21589113820E+04  0.21589113820E+04  0.50400001928E-02 0.  1.
    10030    2    1    2    0    0  0.00000000000E+00  0.00000000000E+00 -0.10460549361E+04  0.32717678279E+04  0.31000377079E+04 0.  0.
        5    1    3    3  502    0  0.93143380289E+03  0.62987284193E+03  0.60295094184E+03  0.12758842637E+04  0.46999998093E+01 0.  1.
       -5    1    3    3    0  502 -0.93143380289E+03 -0.62987284193E+03 -0.16490058779E+04  0.19958835641E+04  0.46999998093E+01 0. -1.
</event>
<event>
 5   0  0.4838602E-08  0.3098595E+04  0.7818609E-02  0.8216124E-01
       -1   -1    0    0    0  501  0.00000000000E+00  0.00000000000E+00  0.16106051460E+04  0.16106051460E+04  0.50400001928E-02 0.  1.
        1   -1    0    0  501    0  0.00000000000E+00  0.00000000000E+00 -0.14903233949E+04  0.14903233949E+04  0.50400001928E-02 0. -1.
    10030    2    1    2    0    0  0.00000000000E+00  0.00000000000E+00  0.12028175113E+03  0.31009285409E+04  0.30985948616E+04 0.  0.
        5    1    3    3  502    0 -0.14221121168E+04  0.32771309319E+00  0.67533750545E+03  0.15743270996E+04  0.46999998093E+01 0. -1.
       -5    1    3    3    0  502  0.14221121168E+04 -0.32771309319E+00 -0.55505575432E+03  0.15266014413E+04  0.46999998093E+01 0.  1.
</event>
<event>
 5   0  0.1318916E-07  0.3097070E+04  0.7818609E-02  0.8216542E-01
       -2   -1    0    0    0  501  0.00000000000E+00  0.00000000000E+00  0.26546075106E+04  0.26546075106E+04  0.25500000920E-02 0.  1.
        2   -1    0    0  501    0  0.00000000000E+00  0.00000000000E+00 -0.90332039198E+03  0.90332039198E+03  0.25500000920E-02 0. -1.
    10030    2    1    2    0    0  0.00000000000E+00  0.00000000000E+00  0.17512871186E+04  0.35579279026E+04  0.30970702911E+04 0.  0.
        5    1    3    3  502    0  0.14721665885E+03 -0.48764016524E+03  0.25555999200E+04  0.26058738873E+04  0.46999998093E+01 0.  1.
       -5    1    3    3    0  502 -0.14721665885E+03  0.48764016524E+03 -0.80431280143E+03  0.95205401524E+03  0.46999998093E+01 0. -1.
</event>
<event>
 5   0  0.1329777E-07  0.3099934E+04  0.7818609E-02  0.8215756E-01
       -2   -1    0    0    0  501  0.00000000000E+00  0.00000000000E+00  0.14007399089E+04  0.14007399089E+04  0.25500000920E-02 0.  1.
        2   -1    0    0  501    0  0.00000000000E+00  0.00000000000E+00 -0.17150918689E+04  0.17150918689E+04  0.25500000920E-02 0. -1.
    10030    2    1    2    0    0  0.00000000000E+00  0.00000000000E+00 -0.31435196002E+03  0.31158317778E+04  0.30999339530E+04 0.  0.
        1    1    3    3  502    0 -0.14605434086E+04 -0.51559096128E+03 -0.21558198944E+03  0.15638083905E+04  0.50400001928E-02 0.  1.
       -1    1    3    3    0  502  0.14605434086E+04  0.51559096128E+03 -0.98769970581E+02  0.15520233874E+04  0.50400001928E-02 0. -1.
</event>
<event>
 5   0  0.4517409E-08  0.3099633E+04  0.7818609E-02  0.8215839E-01
        1   -1    0    0  501    0  0.00000000000E+00  0.00000000000E+00  0.15731295110E+04  0.15731295110E+04  0.50400001928E-02 0.  1.
       -1   -1    0    0    0  501  0.00000000000E+00  0.00000000000E+00 -0.15268492396E+04  0.15268492396E+04  0.50400001928E-02 0. -1.
    10030    2    1    2    0    0  0.00000000000E+00  0.00000000000E+00  0.46280271455E+02  0.30999787506E+04  0.30996332671E+04 0.  0.
        2    1    3    3  502    0  0.58990087884E+03 -0.92124803567E+03 -0.10748212915E+04  0.15335976652E+04  0.25500000920E-02 0. -1.
       -2    1    3    3    0  502 -0.58990087884E+03  0.92124803567E+03  0.11211015630E+04  0.15663810854E+04  0.25500000920E-02 0.  1.
</event>
<event>
 5   0  0.4517409E-08  0.3101394E+04  0.7818609E-02  0.8215355E-01
       -1   -1    0    0    0  501  0.00000000000E+00  0.00000000000E+00  0.12987480937E+04  0.12987480937E+04  0.50400001928E-02 0. -1.
        1   -1    0    0  501    0  0.00000000000E+00  0.00000000000E+00 -0.18515227610E+04  0.18515227610E+04  0.50400001928E-02 0.  1.
    10030    2    1    2    0    0  0.00000000000E+00  0.00000000000E+00 -0.55277466734E+03  0.31502708547E+04  0.31013943034E+04 0.  0.
        2    1    3    3  502    0 -0.76887573672E+03  0.10641740444E+04 -0.11146353859E+04  0.17222219191E+04  0.25500000920E-02 0.  1.
       -2    1    3    3    0  502  0.76887573672E+03 -0.10641740444E+04  0.56186071854E+03  0.14280489355E+04  0.25500000920E-02 0. -1.
</event>
<event>
 5   0  0.1329777E-07  0.3100818E+04  0.7818609E-02  0.8215513E-01
       -2   -1    0    0    0  501  0.00000000000E+00  0.00000000000E+00  0.13708320959E+04  0.13708320960E+04  0.25500000920E-02 0.  1.
        2   -1    0    0  501    0  0.00000000000E+00  0.00000000000E+00 -0.17535100621E+04  0.17535100621E+04  0.25500000920E-02 0. -1.
    10030    2    1    2    0    0  0.00000000000E+00  0.00000000000E+00 -0.38267796619E+03  0.31243421581E+04  0.31008178752E+04 0.  0.
        1    1    3    3  502    0  0.53241929861E+03 -0.11605672732E+04 -0.10774316175E+04  0.16707021266E+04  0.50400001928E-02 0. -1.
       -1    1    3    3    0  502 -0.53241929861E+03  0.11605672732E+04  0.69475365130E+03  0.14536400315E+04  0.50400001928E-02 0.  1.
</event>
<event>
 5   0  0.1329777E-07  0.3098368E+04  0.7818609E-02  0.8216186E-01
       -2   -1    0    0    0  501  0.00000000000E+00  0.00000000000E+00  0.11977030514E+04  0.11977030514E+04  0.25500000920E-02 0.  1.
        2   -1    0    0  501    0  0.00000000000E+00  0.00000000000E+00 -0.20038116805E+04  0.20038116805E+04  0.25500000920E-02 0. -1.
    10030    2    1    2    0    0  0.00000000000E+00  0.00000000000E+00 -0.80610862910E+03  0.32015147318E+04  0.30983681925E+04 0.  0.
        1    1    3    3  502    0  0.10612711691E+04  0.54465978599E+03  0.61829508161E+03  0.13435920456E+04  0.50400001928E-02 0.  1.
       -1    1    3    3    0  502 -0.10612711691E+04 -0.54465978599E+03 -0.14244037107E+04  0.18579226862E+04  0.50400001928E-02 0. -1.
</event>
<event>
 5   0  0.1398931E-07  0.3100740E+04  0.7818609E-02  0.8215535E-01
       -2   -1    0    0    0  501  0.00000000000E+00  0.00000000000E+00  0.23596517209E+04  0.23596517209E+04  0.25500000920E-02 0. -1.
        2   -1    0    0  501    0  0.00000000000E+00  0.00000000000E+00 -0.10186451884E+04  0.10186451884E+04  0.25500000920E-02 0.  1.
    10030    2    1    2    0    0  0.00000000000E+00  0.00000000000E+00  0.13410065324E+04  0.33782969093E+04  0.31007404740E+04 0.  0.
        3    1    3    3  502    0  0.68141058837E+03  0.82788160381E+03 -0.54952724833E+03  0.12048603847E+04  0.10100000352E+00 0. -1.
       -3    1    3    3    0  502 -0.68141058837E+03 -0.82788160381E+03  0.18905337808E+04  0.21734365246E+04  0.10100000352E+00 0.  1.
</event>
<event>
 5   0  0.4450600E-08  0.3102644E+04  0.7818609E-02  0.8215013E-01
        1   -1    0    0  501    0  0.00000000000E+00  0.00000000000E+00  0.17674346832E+04  0.17674346832E+04  0.50400001928E-02 0. -1.
       -1   -1    0    0    0  501  0.00000000000E+00  0.00000000000E+00 -0.13616345370E+04  0.13616345370E+04  0.50400001928E-02 0.  1.
    10030    2    1    2    0    0  0.00000000000E+00  0.00000000000E+00  0.40580014626E+03  0.31290692202E+04  0.31026441024E+04 0.  0.
        4    1    3    3  502    0  0.89746933226E+03  0.12433121238E+04  0.44011015481E+03  0.15952977154E+04  0.12699999809E+01 0. -1.
       -4    1    3    3    0  502 -0.89746933226E+03 -0.12433121238E+04 -0.34310008547E+02  0.15337715048E+04  0.12699999809E+01 0.  1.
</event>
<event>
 5   0  0.4450600E-08  0.3098840E+04  0.7818609E-02  0.8216056E-01
       -1   -1    0    0    0  501  0.00000000000E+00  0.00000000000E+00  0.14718132708E+04  0.14718132708E+04  0.50400001928E-02 0.  1.
        1   -1    0    0  501    0  0.00000000000E+00  0.00000000000E+00 -0.16311191111E+04  0.16311191111E+04  0.50400001928E-02 0. -1.
    10030    2    1    2    0    0  0.00000000000E+00  0.00000000000E+00 -0.15930584029E+03  0.31029323818E+04  0.30988402694E+04 0.  0.
        4    1    3    3  502    0 -0.15788639156E+03  0.11268527434E+04  0.97338971957E+03  0.14974025434E+04  0.12699999809E+01 0.  1.
       -4    1    3    3    0  502  0.15788639156E+03 -0.11268527434E+04 -0.11326955599E+04  0.16055298384E+04  0.12699999809E+01 0. -1.
</event>
<event>
 5   0  0.4470354E-08  0.3099528E+04  0.7818609E-02  0.8215867E-01
        1   -1    0    0  501    0  0.00000000000E+00  0.00000000000E+00  0.22370934572E+04  0.22370934572E+04  0.50400001928E-02 0.  1.
       -1   -1    0    0    0  501  0.00000000000E+00  0.00000000000E+00 -0.10736114629E+04  0.10736114629E+04  0.50400001928E-02 0. -1.
    10030    2    1    2    0    0  0.00000000000E+00  0.00000000000E+00  0.11634819943E+04  0.33107049202E+04  0.30995284669E+04 0.  0.
        1    1    3    3  502    0 -0.19650957952E+02  0.78622001353E+03  0.20081033860E+04  0.21566194098E+04  0.50400001928E-02 0.  1.
       -1    1    3    3    0  502  0.19650957952E+02 -0.78622001353E+03 -0.84462139171E+03  0.11540855103E+04  0.50400001928E-02 0. -1.
</event>
<event>
 5   0  0.1318916E-07  0.3097992E+04  0.7818609E-02  0.8216289E-01
        2   -1    0    0  501    0  0.00000000000E+00  0.00000000000E+00  0.17331213875E+04  0.17331213875E+04  0.25500000920E-02 0. -1.
       -2   -1    0    0    0  501  0.00000000000E+00  0.00000000000E+00 -0.13844322671E+04  0.13844322671E+04  0.25500000920E-02 0.  1.
    10030    2    1    2    0    0  0.00000000000E+00  0.00000000000E+00  0.34868912046E+03  0.31175536546E+04  0.30979923639E+04 0.  0.
        5    1    3    3  502    0  0.29644965961E+03 -0.15018758068E+04  0.41217077865E+03  0.15853769838E+04  0.46999998093E+01 0.  1.
       -5    1    3    3    0  502 -0.29644965961E+03  0.15018758068E+04 -0.63481658190E+02  0.15321766709E+04  0.46999998093E+01 0. -1.
</event>
<event>
 5   0  0.4436241E-08  0.3099454E+04  0.7818609E-02  0.8215888E-01
        1   -1    0    0  501    0  0.00000000000E+00  0.00000000000E+00  0.20780015754E+04  0.20780015754E+04  0.50400001928E-02 0. -1.
       -1   -1    0    0    0  501  0.00000000000E+00  0.00000000000E+00 -0.11557518198E+04  0.11557518198E+04  0.50400001928E-02 0.  1.
    10030    2    1    2    0    0  0.00000000000E+00  0.00000000000E+00  0.92224975556E+03  0.32337533953E+04  0.30994542116E+04 0.  0.
        3    1    3    3  502    0 -0.12007809667E+04 -0.34101444746E+02  0.14826382755E+04  0.19082070392E+04  0.10100000352E+00 0. -1.
       -3    1    3    3    0  502  0.12007809667E+04  0.34101444746E+02 -0.56038851992E+03  0.13255463560E+04  0.10100000352E+00 0.  1.
</event>
<event>
 5   0  0.4305500E-08  0.3098349E+04  0.7818609E-02  0.8216191E-01
       -4   -1    0    0    0  501  0.00000000000E+00  0.00000000000E+00  0.16908202040E+04  0.16908206810E+04  0.12699999809E+01 0.  1.
        4   -1    0    0  501    0  0.00000000000E+00  0.00000000000E+00 -0.14193943206E+04  0.14193948888E+04  0.12699999809E+01 0. -1.
    10030    2    1    2    0    0  0.00000000000E+00  0.00000000000E+00  0.27142588337E+03  0.31102155698E+04  0.30983493800E+04 0.  0.
        4    1    3    3  502    0  0.56708375306E+03  0.99101422499E+03 -0.91531532590E+03  0.14633854365E+04  0.12699999809E+01 0. -1.
       -4    1    3    3    0  502 -0.56708375306E+03 -0.99101422499E+03  0.11867412093E+04  0.16468301333E+04  0.12699999809E+01 0.  1.
</event>
<event>
 5   0  0.1329777E-07  0.3099153E+04  0.7818609E-02  0.8215970E-01
       -2   -1    0    0    0  501  0.00000000000E+00  0.00000000000E+00  0.87851114534E+03  0.87851114534E+03  0.25500000920E-02 0. -1.
        2   -1    0    0  501    0  0.00000000000E+00  0.00000000000E+00 -0.27332463934E+04  0.27332463934E+04  0.25500000920E-02 0.  1.
    10030    2    1    2    0    0  0.00000000000E+00  0.00000000000E+00 -0.18547352481E+04  0.36117575387E+04  0.30991530582E+04 0.  0.
        1    1    3    3  502    0 -0.84067524837E+03 -0.12701800396E+04 -0.12592415806E+04  0.19763050282E+04  0.50400001928E-02 0. -1.
       -1    1    3    3    0  502  0.84067524837E+03  0.12701800396E+04 -0.59549366745E+03  0.16354525105E+04  0.50400001928E-02 0.  1.
</event>
<event>
 5   0  0.1325713E-07  0.3100456E+04  0.7818609E-02  0.8215613E-01
       -2   -1    0    0    0  501  0.00000000000E+00  0.00000000000E+00  0.13405038371E+04  0.13405038371E+04  0.25500000920E-02 0.  1.
        2   -1    0    0  501    0  0.00000000000E+00  0.00000000000E+00 -0.17927639010E+04  0.17927639010E+04  0.25500000920E-02 0. -1.
    10030    2    1    2    0    0  0.00000000000E+00  0.00000000000E+00 -0.45226006388E+03  0.31332677381E+04  0.31004560235E+04 0.  0.
        4    1    3    3  502    0  0.27587796662E+03 -0.36301198085E+03  0.12712110554E+04  0.13505056501E+04  0.12699999809E+01 0.  1.
       -4    1    3    3    0  502 -0.27587796662E+03  0.36301198085E+03 -0.17234711193E+04  0.17827620880E+04  0.12699999809E+01 0. -1.
</event>
<event>
 5   0  0.1318916E-07  0.3100651E+04  0.7818609E-02  0.8215559E-01
        2   -1    0    0  501    0  0.00000000000E+00  0.00000000000E+00  0.26908402793E+04  0.26908402793E+04  0.25500000920E-02 0. -1.
       -2   -1    0    0    0  501  0.00000000000E+00  0.00000000000E+00 -0.89321888852E+03  0.89321888852E+03  0.25500000920E-02 0.  1.
    10030    2    1    2    0    0  0.00000000000E+00  0.00000000000E+00  0.17976213908E+04  0.35840591678E+04  0.31006511338E+04 0.  0.
        5    1    3    3  502    0  0.54754945860E+03 -0.30397954884E+03 -0.74048692972E+03  0.96982315852E+03  0.46999998093E+01 0.  1.
       -5    1    3    3    0  502 -0.54754945860E+03  0.30397954884E+03  0.25381083205E+04  0.26142360093E+04  0.46999998093E+01 0. -1.
</event>
<event>
 5   0  0.4450600E-08  0.3092628E+04  0.7818609E-02  0.8217764E-01
        1   -1    0    0  501    0  0.00000000000E+00  0.00000000000E+00  0.79281842763E+03  0.79281842764E+03  0.50400001928E-02 0.  1.
       -1   -1    0    0    0  501  0.00000000000E+00  0.00000000000E+00 -0.30159324178E+04  0.30159324178E+04  0.50400001928E-02 0. -1.
    10030    2    1    2    0    0  0.00000000000E+00  0.00000000000E+00 -0.22231139901E+04  0.38087508454E+04  0.30926278776E+04 0.  0.
        4    1    3    3  502    0  0.48295620781E+03  0.10139680943E+04  0.19743757054E+03  0.11403338117E+04  0.12699999809E+01 0.  1.
       -4    1    3    3    0  502 -0.48295620781E+03 -0.10139680943E+04 -0.24205515607E+04  0.26684170337E+04  0.12699999809E+01 0. -1.
</event>
<event>
 5   0  0.1329777E-07  0.3099785E+04  0.7818609E-02  0.8215797E-01
       -2   -1    0    0    0  501  0.00000000000E+00  0.00000000000E+00  0.18417137651E+04  0.18417137651E+04  0.25500000920E-02 0.  1.
        2   -1    0    0  501    0  0.00000000000E+00  0.00000000000E+00 -0.13043103538E+04  0.13043103538E+04  0.25500000920E-02 0. -1.
    10030    2    1    2    0    0  0.00000000000E+00  0.00000000000E+00  0.53740341131E+03  0.31460241190E+04  0.30997847233E+04 0.  0.
        1    1    3    3  502    0  0.74989061761E+03  0.81662338639E+03 -0.83048506584E+03  0.13852491250E+04  0.50400001928E-02 0. -1.
       -1    1    3    3    0  502 -0.74989061761E+03 -0.81662338639E+03  0.13678884772E+04  0.17607749940E+04  0.50400001928E-02 0.  1.
</event>
<event>
 5   0  0.4470354E-08  0.3099652E+04  0.7818609E-02  0.8215833E-01
        1   -1    0    0  501    0  0.00000000000E+00  0.00000000000E+00  0.16817484874E+04  0.16817484874E+04  0.50400001928E-02 0. -1.
       -1   -1    0    0    0  501  0.00000000000E+00  0.00000000000E+00 -0.14282517340E+04  0.14282517340E+04  0.50400001928E-02 0.  1.
    10030    2    1    2    0    0  0.00000000000E+00  0.00000000000E+00  0.25349675340E+03  0.31100002214E+04  0.30996517181E+04 0.  0.
        1    1    3    3  502    0  0.22742384656E+03 -0.30904097594E+03 -0.13798413822E+04  0.14321976717E+04  0.50400001928E-02 0.  1.
       -1    1    3    3    0  502 -0.22742384656E+03  0.30904097594E+03  0.16333381356E+04  0.16778025497E+04  0.50400001928E-02 0. -1.
</event>
<event>
 5   0  0.4517409E-08  0.3099400E+04  0.7818609E-02  0.8215903E-01
       -1   -1    0    0    0  501  0.00000000000E+00  0.00000000000E+00  0.31796959168E+04  0.31796959168E+04  0.50400001928E-02 0.  1.
        1   -1    0    0  501    0  0.00000000000E+00  0.00000000000E+00 -0.75528284600E+03  0.75528284602E+03  0.50400001928E-02 0. -1.
    10030    2    1    2    0    0  0.00000000000E+00  0.00000000000E+00  0.24244130708E+04  0.39349787629E+04  0.30993998009E+04 0.  0.
        2    1    3    3  502    0 -0.14805448112E+04 -0.23617144557E+03  0.17100749417E+04  0.22742352991E+04  0.25500000920E-02 0. -1.
       -2    1    3    3    0  502  0.14805448112E+04  0.23617144557E+03  0.71433812912E+03  0.16607434637E+04  0.25500000920E-02 0.  1.
</event>
<event>
 5   0  0.4517409E-08  0.3102075E+04  0.7818609E-02  0.8215169E-01
        1   -1    0    0  501    0  0.00000000000E+00  0.00000000000E+00  0.21615091664E+04  0.21615091664E+04  0.50400001928E-02 0.  1.
       -1   -1    0    0    0  501  0.00000000000E+00  0.00000000000E+00 -0.11129807511E+04  0.11129807511E+04  0.50400001928E-02 0. -1.
    10030    2    1    2    0    0  0.00000000000E+00  0.00000000000E+00  0.10485284153E+04  0.32744899175E+04  0.31020754959E+04 0.  0.
        2    1    3    3  502    0  0.46217511979E+03  0.84584583649E+03 -0.75845358729E+03  0.12265043272E+04  0.25500000920E-02 0. -1.
       -2    1    3    3    0  502 -0.46217511979E+03 -0.84584583649E+03  0.18069820026E+04  0.20479855903E+04  0.25500000920E-02 0.  1.
</event>
<event>
 5   0  0.4470354E-08  0.3097294E+04  0.7818609E-02  0.8216481E-01
        1   -1    0    0  501    0  0.00000000000E+00  0.00000000000E+00  0.19307340126E+04  0.19307340126E+04  0.50400001928E-02 0.  1.
       -1   -1    0    0    0  501  0.00000000000E+00  0.00000000000E+00 -0.12421737976E+04  0.12421737976E+04  0.50400001928E-02 0. -1.
    10030    2    1    2    0    0  0.00000000000E+00  0.00000000000E+00  0.68856021500E+03  0.31729078103E+04  0.30972937870E+04 0.  0.
        1    1    3    3  502    0 -0.55081774876E+02 -0.13199768630E+04 -0.48349009227E+03  0.14068175398E+04  0.50400001928E-02 0. -1.
       -1    1    3    3    0  502  0.55081774876E+02  0.13199768630E+04  0.11720503073E+04  0.17660902705E+04  0.50400001928E-02 0.  1.
</event>
<event>
 5   0  0.4450600E-08  0.3100077E+04  0.7818609E-02  0.8215717E-01
       -1   -1    0    0    0  501  0.00000000000E+00  0.00000000000E+00  0.12930374808E+04  0.12930374808E+04  0.50400001928E-02 0.  1.
        1   -1    0    0  501    0  0.00000000000E+00  0.00000000000E+00 -0.18581203459E+04  0.18581203459E+04  0.50400001928E-02 0. -1.
    10030    2    1    2    0    0  0.00000000000E+00  0.00000000000E+00 -0.56508286512E+03  0.31511578268E+04  0.31000769353E+04 0.  0.
        4    1    3    3  502    0  0.48797850372E+03 -0.40501389807E+03  0.11551392638E+04  0.13177661437E+04  0.12699999809E+01 0.  1.
       -4    1    3    3    0  502 -0.48797850372E+03  0.40501389807E+03 -0.17202221289E+04  0.18333916831E+04  0.12699999809E+01 0. -1.
</event>
<event>
 5   0  0.1325713E-07  0.3085035E+04  0.7818609E-02  0.8219857E-01
        2   -1    0    0  501    0  0.00000000000E+00  0.00000000000E+00  0.23175161040E+04  0.23175161040E+04  0.25500000920E-02 0.  1.
       -2   -1    0    0    0  501  0.00000000000E+00  0.00000000000E+00 -0.10266857483E+04  0.10266857483E+04  0.25500000920E-02 0. -1.
    10030    2    1    2    0    0  0.00000000000E+00  0.00000000000E+00  0.12908303557E+04  0.33442018522E+04  0.30850353355E+04 0.  0.
        4    1    3    3  502    0  0.60180647256E+03 -0.14202720447E+04  0.64967343513E+03  0.16737445732E+04  0.12699999809E+01 0. -1.
       -4    1    3    3    0  502 -0.60180647256E+03  0.14202720447E+04  0.64115692055E+03  0.16704572790E+04  0.12699999809E+01 0.  1.
</event>
<event>
 5   0  0.1325713E-07  0.3099830E+04  0.7818609E-02  0.8215785E-01
       -2   -1    0    0    0  501  0.00000000000E+00  0.00000000000E+00  0.11782923986E+04  0.11782923986E+04  0.25500000920E-02 0. -1.
        2   -1    0    0  501    0  0.00000000000E+00  0.00000000000E+00 -0.20387436981E+04  0.20387436981E+04  0.25500000920E-02 0.  1.
    10030    2    1    2    0    0  0.00000000000E+00  0.00000000000E+00 -0.86045129952E+03  0.32170360966E+04  0.30998298031E+04 0.  0.
        4    1    3    3  502    0  0.10555423945E+04 -0.97180344265E+03  0.17816764216E+03  0.14457928619E+04  0.12699999809E+01 0. -1.
       -4    1    3    3    0  502 -0.10555423945E+04  0.97180344265E+03 -0.10386189417E+04  0.17712432348E+04  0.12699999809E+01 0.  1.
</event>
<event>
 5   0  0.4838602E-08  0.3099736E+04  0.7818609E-02  0.8215810E-01
       -1   -1    0    0    0  501  0.00000000000E+00  0.00000000000E+00  0.14546349026E+04  0.14546349026E+04  0.50400001928E-02 0. -1.
        1   -1    0    0  501    0  0.00000000000E+00  0.00000000000E+00 -0.16513354823E+04  0.16513354823E+04  0.50400001928E-02 0.  1.
    10030    2    1    2    0    0  0.00000000000E+00  0.00000000000E+00 -0.19670057967E+03  0.31059703850E+04  0.30997356200E+04 0.  0.
        5    1    3    3  502    0 -0.13719624359E+04  0.71960840186E+03 -0.14260881542E+03  0.15557880774E+04  0.46999998093E+01 0.  1.
       -5    1    3    3    0  502  0.13719624359E+04 -0.71960840186E+03 -0.54091764252E+02  0.15501823075E+04  0.46999998093E+01 0. -1.
</event>
<event>
 5   0  0.1377237E-07  0.3100061E+04  0.7818609E-02  0.8215721E-01
        2   -1    0    0  501    0  0.00000000000E+00  0.00000000000E+00  0.25657064063E+04  0.25657064063E+04  0.25500000920E-02 0.  1.
       -2   -1    0    0    0  501  0.00000000000E+00  0.00000000000E+00 -0.93642613336E+03  0.93642613336E+03  0.25500000920E-02 0. -1.
    10030    2    1    2    0    0  0.00000000000E+00  0.00000000000E+00  0.16292802729E+04  0.35021325396E+04  0.31000609861E+04 0.  0.
        2    1    3    3  502    0  0.10024164016E+04 -0.10463710639E+04  0.19293307906E+03  0.14618324865E+04  0.25500000920E-02 0. -1.
       -2    1    3    3    0  502 -0.10024164016E+04  0.10463710639E+04  0.14363471939E+04  0.20403000531E+04  0.25500000920E-02 0.  1.
</event>
<event>
 5   0  0.4838602E-08  0.3100548E+04  0.7818609E-02  0.8215588E-01
        1   -1    0    0  501    0  0.00000000000E+00  0.00000000000E+00  0.15203903765E+04  0.15203903765E+04  0.50400001928E-02 0.  1.
       -1   -1    0    0    0  501  0.00000000000E+00  0.00000000000E+00 -0.15807447199E+04  0.15807447199E+04  0.50400001928E-02 0. -1.
    10030    2    1    2    0    0  0.00000000000E+00  0.00000000000E+00 -0.60354343426E+02  0.31011350964E+04  0.31005477322E+04 0.  0.
        5    1    3    3  502    0 -0.13860965432E+04 -0.41475570007E+03 -0.58709595483E+03  0.15614063109E+04  0.46999998093E+01 0.  1.
       -5    1    3    3    0  502  0.13860965432E+04  0.41475570007E+03  0.52674161140E+03  0.15397287855E+04  0.46999998093E+01 0. -1.
</event>
<event>
 5   0  0.1329777E-07  0.3100341E+04  0.7818609E-02  0.8215644E-01
       -2   -1    0    0    0  501  0.00000000000E+00  0.00000000000E+00  0.77483769982E+03  0.77483769983E+03  0.25500000920E-02 0. -1.
        2   -1    0    0  501    0  0.00000000000E+00  0.00000000000E+00 -0.31013321570E+04  0.31013321570E+04  0.25500000920E-02 0.  1.
    10030    2    1    2    0    0  0.00000000000E+00  0.00000000000E+00 -0.23264944572E+04  0.38761698568E+04  0.31003413199E+04 0.  0.
        1    1    3    3  502    0  0.45899548904E+03  0.73834149773E+03 -0.27678479830E+04  0.29011734666E+04  0.50400001928E-02 0.  1.
       -1    1    3    3    0  502 -0.45899548904E+03 -0.73834149773E+03  0.44135352581E+03  0.97499639025E+03  0.50400001928E-02 0. -1.
</event>
<event>
 5   0  0.1325713E-07  0.3094626E+04  0.7818609E-02  0.8217214E-01
       -2   -1    0    0    0  501  0.00000000000E+00  0.00000000000E+00  0.14980939761E+04  0.14980939761E+04  0.25500000920E-02 0.  1.
        2   -1    0    0  501    0  0.00000000000E+00  0.00000000000E+00 -0.15981489791E+04  0.15981489791E+04  0.25500000920E-02 0. -1.
    10030    2    1    2    0    0  0.00000000000E+00  0.00000000000E+00 -0.10005500293E+03  0.30962429552E+04  0.30946258956E+04 0.  0.
        4    1    3    3  502    0 -0.86992857268E+03  0.94832329887E+03  0.80953895850E+03  0.15203446119E+04  0.12699999809E+01 0.  1.
       -4    1    3    3    0  502  0.86992857268E+03 -0.94832329887E+03 -0.90959396143E+03  0.15758983433E+04  0.12699999809E+01 0. -1.
</event>
<event>
 5   0  0.4838602E-08  0.3101166E+04  0.7818609E-02  0.8215418E-01
       -1   -1    0    0    0  501  0.00000000000E+00  0.00000000000E+00  0.16629487991E+04  0.16629487991E+04  0.50400001928E-02 0.  1.
        1   -1    0    0  501    0  0.00000000000E+00  0.00000000000E+00 -0.14458101146E+04  0.14458101146E+04  0.50400001928E-02 0. -1.
    10030    2    1    2    0    0  0.00000000000E+00  0.00000000000E+00  0.21713868453E+03  0.31087589137E+04  0.31011663572E+04 0.  0.
        5    1    3    3  502    0  0.22394451897E+03 -0.66632958237E+03  0.14940311600E+04  0.16511503435E+04  0.46999998093E+01 0.  1.
       -5    1    3    3    0  502 -0.22394451897E+03  0.66632958237E+03 -0.12768924755E+04  0.14576085702E+04  0.46999998093E+01 0. -1.
</event>
<event>
 5   0  0.1325713E-07  0.3100452E+04  0.7818609E-02  0.8215614E-01
        2   -1    0    0  501    0  0.00000000000E+00  0.00000000000E+00  0.24278672288E+04  0.24278672288E+04  0.25500000920E-02 0. -1.
       -2   -1    0    0    0  501  0.00000000000E+00  0.00000000000E+00 -0.98984001768E+03  0.98984001768E+03  0.25500000920E-02 0.  1.
    10030    2    1    2    0    0  0.00000000000E+00  0.00000000000E+00  0.14380272112E+04  0.34177072465E+04  0.31004516708E+04 0.  0.
        4    1    3    3  502    0  0.64849273478E+03  0.68222453547E+03  0.20768109134E+04  0.22801575223E+04  0.12699999809E+01 0. -1.
       -4    1    3    3    0  502 -0.64849273478E+03 -0.68222453547E+03 -0.63878370223E+03  0.11375497242E+04  0.12699999809E+01 0.  1.
</event>
<event>
 5   0  0.1318916E-07  0.3099808E+04  0.7818609E-02  0.8215791E-01
        2   -1    0    0  501    0  0.00000000000E+00  0.00000000000E+00  0.25341371288E+04  0.25341371288E+04  0.25500000920E-02 0.  1.
       -2   -1    0    0    0  501  0.00000000000E+00  0.00000000000E+00 -0.94793699321E+03  0.94793699322E+03  0.25500000920E-02 0. -1.
    10030    2    1    2    0    0  0.00000000000E+00  0.00000000000E+00  0.15862001356E+04  0.34820741220E+04  0.30998079491E+04 0.  0.
        5    1    3    3  502    0 -0.74352324446E+03 -0.93247679245E+03 -0.31883879050E+03  0.12345120687E+04  0.46999998093E+01 0.  1.
       -5    1    3    3    0  502  0.74352324446E+03  0.93247679245E+03  0.19050389261E+04  0.22475620533E+04  0.46999998093E+01 0. -1.
</event>
<event>
 5   0  0.1329777E-07  0.3101078E+04  0.7818609E-02  0.8215442E-01
       -2   -1    0    0    0  501  0.00000000000E+00  0.00000000000E+00  0.96764038916E+03  0.96764038916E+03  0.25500000920E-02 0. -1.
        2   -1    0    0  501    0  0.00000000000E+00  0.00000000000E+00 -0.24845705982E+04  0.24845705982E+04  0.25500000920E-02 0.  1.
    10030    2    1    2    0    0  0.00000000000E+00  0.00000000000E+00 -0.15169302091E+04  0.34522109874E+04  0.31010777872E+04 0.  0.
        1    1    3    3  502    0 -0.15029957194E+03  0.12907191544E+04  0.18326707603E+03  0.13123005441E+04  0.50400001928E-02 0.  1.
       -1    1    3    3    0  502  0.15029957194E+03 -0.12907191544E+04 -0.17001972851E+04  0.21399104433E+04  0.50400001928E-02 0. -1.
</event>
<event>
 5   0  0.4450600E-08  0.3102708E+04  0.7818609E-02  0.8214995E-01
        1   -1    0    0  501    0  0.00000000000E+00  0.00000000000E+00  0.18490713408E+04  0.18490713408E+04  0.50400001928E-02 0. -1.
       -1   -1    0    0    0  501  0.00000000000E+00  0.00000000000E+00 -0.13015720757E+04  0.13015720757E+04  0.50400001928E-02 0.  1.
    10030    2    1    2    0    0  0.00000000000E+00  0.00000000000E+00  0.54749926507E+03  0.31506434165E+04  0.31027082512E+04 0.  0.
        4    1    3    3  502    0  0.29320786993E+03 -0.10502263849E+04 -0.84681699485E+03  0.13805965922E+04  0.12699999809E+01 0.  1.
       -4    1    3    3    0  502 -0.29320786993E+03  0.10502263849E+04  0.13943162599E+04  0.17700468243E+04  0.12699999809E+01 0. -1.
</event>
<event>
 5   0  0.1329777E-07  0.3100173E+04  0.7818609E-02  0.8215690E-01
        2   -1    0    0  501    0  0.00000000000E+00  0.00000000000E+00  0.10940792610E+04  0.10940792610E+04  0.25500000920E-02 0. -1.
       -2   -1    0    0    0  501  0.00000000000E+00  0.00000000000E+00 -0.21961552753E+04  0.21961552753E+04  0.25500000920E-02 0.  1.
    10030    2    1    2    0    0  0.00000000000E+00  0.00000000000E+00 -0.11020760142E+04  0.32902345363E+04  0.31001728602E+04 0.  0.
        1    1    3    3  502    0  0.67300391992E+03 -0.11420143275E+04  0.30173831221E+03  0.13594767411E+04  0.50400001928E-02 0. -1.
       -1    1    3    3    0  502 -0.67300391992E+03  0.11420143275E+04 -0.14038143265E+04  0.19307577952E+04  0.50400001928E-02 0.  1.
</event>
<event>
 5   0  0.4450600E-08  0.3080084E+04  0.7818609E-02  0.8221225E-01
        1   -1    0    0  501    0  0.00000000000E+00  0.00000000000E+00  0.12925210920E+04  0.12925210920E+04  0.50400001928E-02 0.  1.
       -1   -1    0    0    0  501  0.00000000000E+00  0.00000000000E+00 -0.18349635141E+04  0.18349635141E+04  0.50400001928E-02 0. -1.
    10030    2    1    2    0    0  0.00000000000E+00  0.00000000000E+00 -0.54244242204E+03  0.31274846061E+04  0.30800837944E+04 0.  0.
        4    1    3    3  502    0 -0.78328229048E+03 -0.11549582906E+04  0.39016113651E+03  0.14490297185E+04  0.12699999809E+01 0. -1.
       -4    1    3    3    0  502  0.78328229048E+03  0.11549582906E+04 -0.93260355854E+03  0.16784548877E+04  0.12699999809E+01 0.  1.
</event>
<event>
 5   0  0.1398931E-07  0.3101990E+04  0.7818609E-02  0.8215192E-01
        2   -1    0    0  501    0  0.00000000000E+00  0.00000000000E+00  0.23440966232E+04  0.23440966232E+04  0.25500000920E-02 0. -1.
       -2   -1    0    0    0  501  0.00000000000E+00  0.00000000000E+00 -0.10262313131E+04  0.10262313131E+04  0.25500000920E-02 0.  1.
    10030    2    1    2    0    0  0.00000000000E+00  0.00000000000E+00  0.13178653101E+04  0.33703279362E+04  0.31019899133E+04 0.  0.
        3    1    3    3  502    0 -0.11671517889E+04  0.37203644749E+03 -0.37463639212E+03  0.12810178973E+04  0.10100000352E+00 0.  1.
       -3    1    3    3    0  502  0.11671517889E+04 -0.37203644749E+03  0.16925017022E+04  0.20893100390E+04  0.10100000352E+00 0. -1.
</event>
<event>
 5   0  0.4450600E-08  0.3100385E+04  0.7818609E-02  0.8215632E-01
        1   -1    0    0  501    0  0.00000000000E+00  0.00000000000E+00  0.17197095601E+04  0.17197095601E+04  0.50400001928E-02 0. -1.
       -1   -1    0    0    0  501  0.00000000000E+00  0.00000000000E+00 -0.13973848610E+04  0.13973848610E+04  0.50400001928E-02 0.  1.
    10030    2    1    2    0    0  0.00000000000E+00  0.00000000000E+00  0.32232469912E+03  0.31170944211E+04  0.31003845598E+04 0.  0.
        4    1    3    3  502    0 -0.55838161012E+03  0.14446410750E+04  0.95107152873E+02  0.15517167401E+04  0.12699999809E+01 0. -1.
       -4    1    3    3    0  502  0.55838161012E+03 -0.14446410750E+04  0.22721754625E+03  0.15653776810E+04  0.12699999809E+01 0.  1.
</event>
<event>
 5   0  0.4470354E-08  0.3100791E+04  0.7818609E-02  0.8215521E-01
        1   -1    0    0  501    0  0.00000000000E+00  0.00000000000E+00  0.27640325289E+04  0.27640325289E+04  0.50400001928E-02 0.  1.
       -1   -1    0    0    0  501  0.00000000000E+00  0.00000000000E+00 -0.86964465835E+03  0.86964465836E+03  0.50400001928E-02 0. -1.
    10030    2    1    2    0    0  0.00000000000E+00  0.00000000000E+00  0.18943878706E+04  0.36336771873E+04  0.31007909470E+04 0.  0.
        1    1    3    3  502    0  0.70656282276E+03 -0.19214520952E+03  0.25486422177E+04  0.26517405525E+04  0.50400001928E-02 0.  1.
       -1    1    3    3    0  502 -0.70656282276E+03  0.19214520952E+03 -0.65425434709E+03  0.98193663480E+03  0.50400001928E-02 0. -1.
</event>
<event>
 5   0  0.1398931E-07  0.3100058E+04  0.7818609E-02  0.8215722E-01
       -2   -1    0    0    0  501  0.00000000000E+00  0.00000000000E+00  0.10354533629E+04  0.10354533629E+04  0.25500000920E-02 0.  1.
        2   -1    0    0  501    0  0.00000000000E+00  0.00000000000E+00 -0.23203264843E+04  0.23203264843E+04  0.25500000920E-02 0. -1.
    10030    2    1    2    0    0  0.00000000000E+00  0.00000000000E+00 -0.12848731214E+04  0.33557798471E+04  0.31000579744E+04 0.  0.
        3    1    3    3  502    0 -0.14332910927E+04 -0.56469528435E+03 -0.82799977620E+03  0.17489390385E+04  0.10100000352E+00 0.  1.
       -3    1    3    3    0  502  0.14332910927E+04  0.56469528435E+03 -0.45687334517E+03  0.16068408087E+04  0.10100000352E+00 0. -1.
</event>
<event>
 5   0  0.1325713E-07  0.3100168E+04  0.7818609E-02  0.8215692E-01
        2   -1    0    0  501    0  0.00000000000E+00  0.00000000000E+00  0.31061596843E+04  0.31061596843E+04  0.25500000920E-02 0.  1.
       -2   -1    0    0    0  501  0.00000000000E+00  0.00000000000E+00 -0.77354711732E+03  0.77354711732E+03  0.25500000920E-02 0. -1.
    10030    2    1    2    0    0  0.00000000000E+00  0.00000000000E+00  0.23326125669E+04  0.38797068016E+04  0.31001682985E+04 0.  0.
        4    1    3    3  502    0 -0.60559569947E+01  0.18692273791E+03  0.30919881281E+04  0.30976392595E+04  0.12699999809E+01 0.  1.
       -4    1    3    3    0  502  0.60559569947E+01 -0.18692273791E+03 -0.75937556119E+03  0.78206754209E+03  0.12699999809E+01 0. -1.
</event>
<event>
 5   0  0.4838602E-08  0.3099891E+04  0.7818609E-02  0.8215768E-01
       -1   -1    0    0    0  501  0.00000000000E+00  0.00000000000E+00  0.23934717307E+04  0.23934717307E+04  0.50400001928E-02 0.  1.
        1   -1    0    0  501    0  0.00000000000E+00  0.00000000000E+00 -0.10037014755E+04  0.10037014756E+04  0.50400001928E-02 0. -1.
    10030    2    1    2    0    0  0.00000000000E+00  0.00000000000E+00  0.13897702552E+04  0.33971732063E+04  0.30998910354E+04 0.  0.
        5    1    3    3  502    0 -0.83431209756E+03 -0.42217483740E+03 -0.65978341332E+03  0.11443970080E+04  0.46999998093E+01 0. -1.
       -5    1    3    3    0  502  0.83431209756E+03  0.42217483740E+03  0.20495536685E+04  0.22527761983E+04  0.46999998093E+01 0.  1.
</event>
<event>
 5   0  0.1329777E-07  0.3100301E+04  0.7818609E-02  0.8215655E-01
        2   -1    0    0  501    0  0.00000000000E+00  0.00000000000E+00  0.24121505865E+04  0.24121505865E+04  0.25500000920E-02 0.  1.
       -2   -1    0    0    0  501  0.00000000000E+00  0.00000000000E+00 -0.99619238443E+03  0.99619238443E+03  0.25500000920E-02 0. -1.
    10030    2    1    2    0    0  0.00000000000E+00  0.00000000000E+00  0.14159582020E+04  0.34083429709E+04  0.31003006592E+04 0.  0.
        1    1    3    3  502    0  0.55287465227E+03  0.20698516678E+03 -0.86777179147E+03  0.10495432923E+04  0.50400001928E-02 0. -1.
       -1    1    3    3    0  502 -0.55287465227E+03 -0.20698516678E+03  0.22837299935E+04  0.23587996786E+04  0.50400001928E-02 0.  1.
</event>
<event>
 5   0  0.1398931E-07  0.3100321E+04  0.7818609E-02  0.8215650E-01
       -2   -1    0    0    0  501  0.00000000000E+00  0.00000000000E+00  0.93954256408E+03  0.93954256408E+03  0.25500000920E-02 0. -1.
        2   -1    0    0  501    0  0.00000000000E+00  0.00000000000E+00 -0.25576248268E+04  0.25576248268E+04  0.25500000920E-02 0.  1.
    10030    2    1    2    0    0  0.00000000000E+00  0.00000000000E+00 -0.16180822627E+04  0.34971673909E+04  0.31003208787E+04 0.  0.
        3    1    3    3  502    0  0.36509934633E+03  0.84572683155E+03  0.59732238340E+03  0.10978822552E+04  0.10100000352E+00 0.  1.
       -3    1    3    3    0  502 -0.36509934633E+03 -0.84572683155E+03 -0.22154046461E+04  0.23992851357E+04  0.10100000352E+00 0. -1.
</event>
<event>
 5   0  0.4470354E-08  0.3101119E+04  0.7818609E-02  0.8215431E-01
        1   -1    0    0  501    0  0.00000000000E+00  0.00000000000E+00  0.12362567018E+04  0.12362567018E+04  0.50400001928E-02 0. -1.
       -1   -1    0    0    0  501  0.00000000000E+00  0.00000000000E+00 -0.19447703327E+04  0.19447703327E+04  0.50400001928E-02 0.  1.
    10030    2    1    2    0    0  0.00000000000E+00  0.00000000000E+00 -0.70851363086E+03  0.31810270345E+04  0.31011193832E+04 0.  0.
        1    1    3    3  502    0  0.13421404429E+03  0.50768121547E+03 -0.18507813389E+04  0.19238360613E+04  0.50400001928E-02 0.  1.
       -1    1    3    3    0  502 -0.13421404429E+03 -0.50768121547E+03  0.11422677080E+04  0.12571909732E+04  0.50400001928E-02 0. -1.
</event>
<event>
 5   0  0.4470354E-08  0.3100139E+04  0.7818609E-02  0.8215700E-01
       -1   -1    0    0    0  501  0.00000000000E+00  0.00000000000E+00  0.19061603898E+04  0.19061603898E+04  0.50400001928E-02 0.  1.
        1   -1    0    0  501    0  0.00000000000E+00  0.00000000000E+00 -0.12604999685E+04  0.12604999686E+04  0.50400001928E-02 0. -1.
    10030    2    1    2    0    0  0.00000000000E+00  0.00000000000E+00  0.64566042130E+03  0.31666603584E+04  0.31001387785E+04 0.  0.
        1    1    3    3  502    0 -0.45671285124E+03 -0.11495808406E+04  0.12770008667E+04  0.17778790597E+04  0.50400001928E-02 0.  1.
       -1    1    3    3    0  502  0.45671285124E+03  0.11495808406E+04 -0.63134044537E+03  0.13887812987E+04  0.50400001928E-02 0. -1.
</event>
<event>
 5   0  0.4436241E-08  0.3101266E+04  0.7818609E-02  0.8215391E-01
       -1   -1    0    0    0  501  0.00000000000E+00  0.00000000000E+00  0.23560794503E+04  0.23560794503E+04  0.50400001928E-02 0. -1.
        1   -1    0    0  501    0  0.00000000000E+00  0.00000000000E+00 -0.10205355190E+04  0.10205355190E+04  0.50400001928E-02 0.  1.
    10030    2    1    2    0    0  0.00000000000E+00  0.00000000000E+00  0.13355439313E+04  0.33766149693E+04  0.31012660412E+04 0.  0.
        3    1    3    3  502    0  0.11658662544E+04  0.10099251409E+04  0.84085072512E+03  0.17567648862E+04  0.10100000352E+00 0. -1.
       -3    1    3    3    0  502 -0.11658662544E+04 -0.10099251409E+04  0.49469320615E+03  0.16198500831E+04  0.10100000352E+00 0.  1.
</event>
<event>
 5   0  0.4838602E-08  0.3104568E+04  0.7818609E-02  0.8214485E-01
        1   -1    0    0  501    0  0.00000000000E+00  0.00000000000E+00  0.19490105835E+04  0.19490105835E+04  0.50400001928E-02 0.  1.
       -1   -1    0    0    0  501  0.00000000000E+00  0.00000000000E+00 -0.12363124279E+04  0.12363124279E+04  0.50400001928E-02 0. -1.
    10030    2    1    2    0    0  0.00000000000E+00  0.00000000000E+00  0.71269815558E+03  0.31853230114E+04  0.31045682512E+04 0.  0.
        5    1    3    3  502    0 -0.15508990395E+04 -0.11761033001E+02  0.42234773843E+03  0.16074283358E+04  0.46999998093E+01 0.  1.
       -5    1    3    3    0  502  0.15508990395E+04  0.11761033001E+02  0.29035041715E+03  0.15778946756E+04  0.46999998093E+01 0. -1.
</event>
<event>
 5   0  0.4436241E-08  0.3099774E+04  0.7818609E-02  0.8215800E-01
       -1   -1    0    0    0  501  0.00000000000E+00  0.00000000000E+00  0.14018026986E+04  0.14018026986E+04  0.50400001928E-02 0.  1.
        1   -1    0    0  501    0  0.00000000000E+00  0.00000000000E+00 -0.17136150978E+04  0.17136150978E+04  0.50400001928E-02 0. -1.
    10030    2    1    2    0    0  0.00000000000E+00  0.00000000000E+00 -0.31181239922E+03  0.31154177964E+04  0.30997743585E+04 0.  0.
        3    1    3    3  502    0 -0.88619405436E+03 -0.88574162361E+03 -0.10727996945E+04  0.16494778933E+04  0.10100000352E+00 0.  1.
       -3    1    3    3    0  502  0.88619405436E+03  0.88574162361E+03  0.76098729527E+03  0.14659399031E+04  0.10100000352E+00 0. -1.
</event>
<event>
 5   0  0.1325713E-07  0.3099895E+04  0.7818609E-02  0.8215767E-01
        2   -1    0    0  501    0  0.00000000000E+00  0.00000000000E+00  0.14934076863E+04  0.14934076863E+04  0.25500000920E-02 0. -1.
       -2   -1    0    0    0  501  0.00000000000E+00  0.00000000000E+00 -0.16086273901E+04  0.16086273901E+04  0.25500000920E-02 0.  1.
    10030    2    1    2    0    0  0.00000000000E+00  0.00000000000E+00 -0.11521970380E+03  0.31020350764E+04  0.30998945200E+04 0.  0.
        4    1    3    3  502    0  0.13176706021E+04  0.16431881305E+03 -0.85758567181E+03  0.15807312502E+04  0.12699999809E+01 0.  1.
       -4    1    3    3    0  502 -0.13176706021E+04 -0.16431881305E+03  0.74236596800E+03  0.15213038261E+04  0.12699999809E+01 0. -1.
</event>
<event>
 5   0  0.1329777E-07  0.3098708E+04  0.7818609E-02  0.8216093E-01
       -2   -1    0    0    0  501  0.00000000000E+00  0.00000000000E+00  0.11315184641E+04  0.11315184641E+04  0.25500000920E-02 0.  1.
        2   -1    0    0  501    0  0.00000000000E+00  0.00000000000E+00 -0.21214838622E+04  0.21214838622E+04  0.25500000920E-02 0. -1.
    10030    2    1    2    0    0  0.00000000000E+00  0.00000000000E+00 -0.98996539809E+03  0.32530023263E+04  0.30987082221E+04 0.  0.
        1    1    3    3  502    0 -0.92230945993E+03  0.83413261640E+03 -0.14651563083E+04  0.19217478943E+04  0.50400001928E-02 0. -1.
       -1    1    3    3    0  502  0.92230945993E+03 -0.83413261640E+03  0.47519091017E+03  0.13312544320E+04  0.50400001928E-02 0.  1.
</event>
<event>
 5   0  0.4450600E-08  0.3100463E+04  0.7818609E-02  0.8215611E-01
        1   -1    0    0  501    0  0.00000000000E+00  0.00000000000E+00  0.22710291009E+04  0.22710291009E+04  0.50400001928E-02 0.  1.
       -1   -1    0    0    0  501  0.00000000000E+00  0.00000000000E+00 -0.10582067281E+04  0.10582067281E+04  0.50400001928E-02 0. -1.
    10030    2    1    2    0    0  0.00000000000E+00  0.00000000000E+00  0.12128223728E+04  0.33292358290E+04  0.31004633682E+04 0.  0.
        4    1    3    3  502    0  0.15203971436E+04  0.29790353324E+03  0.66386300106E+03  0.16855472958E+04  0.12699999809E+01 0.  1.
       -4    1    3    3    0  502 -0.15203971436E+04 -0.29790353324E+03  0.54895937176E+03  0.16436885332E+04  0.12699999809E+01 0. -1.
</event>
<event>
 5   0  0.1318916E-07  0.3088034E+04  0.7818609E-02  0.8219030E-01
        2   -1    0    0  501    0  0.00000000000E+00  0.00000000000E+00  0.15678593846E+04  0.15678593846E+04  0.25500000920E-02 0.  1.
       -2   -1    0    0    0  501  0.00000000000E+00  0.00000000000E+00 -0.15205368810E+04  0.15205368810E+04  0.25500000920E-02 0. -1.
    10030    2    1    2    0    0  0.00000000000E+00  0.00000000000E+00  0.47322503640E+02  0.30883962656E+04  0.30880336905E+04 0.  0.
        5    1    3    3  502    0 -0.10057758312E+04  0.74548333280E+03 -0.88012372523E+03  0.15303497260E+04  0.46999998093E+01 0. -1.
       -5    1    3    3    0  502  0.10057758312E+04 -0.74548333280E+03  0.92744622887E+03  0.15580465396E+04  0.46999998093E+01 0.  1.
</event>
<event>
 5   0  0.4517409E-08  0.3099392E+04  0.7818609E-02  0.8215905E-01
       -1   -1    0    0    0  501  0.00000000000E+00  0.00000000000E+00  0.12968129947E+04  0.12968129947E+04  0.50400001928E-02 0.  1.
        1   -1    0    0  501    0  0.00000000000E+00  0.00000000000E+00 -0.18518926379E+04  0.18518926379E+04  0.50400001928E-02 0. -1.
    10030    2    1    2    0    0  0.00000000000E+00  0.00000000000E+00 -0.55507964317E+03  0.31487056326E+04  0.30993924809E+04 0.  0.
        2    1    3    3  502    0  0.10082565615E+04  0.63392334864E+03 -0.12848387759E+04  0.17519277342E+04  0.25500000920E-02 0. -1.
       -2    1    3    3    0  502 -0.10082565615E+04 -0.63392334864E+03  0.72975913278E+03  0.13967778984E+04  0.25500000920E-02 0.  1.
</event>
<event>
 5   0  0.1377237E-07  0.3103019E+04  0.7818609E-02  0.8214910E-01
       -2   -1    0    0    0  501  0.00000000000E+00  0.00000000000E+00  0.26730432238E+04  0.26730432238E+04  0.25500000920E-02 0. -1.
        2   -1    0    0  501    0  0.00000000000E+00  0.00000000000E+00 -0.90054002479E+03  0.90054002480E+03  0.25500000920E-02 0.  1.
    10030    2    1    2    0    0  0.00000000000E+00  0.00000000000E+00  0.17725031990E+04  0.35735832486E+04  0.31030194399E+04 0.  0.
        2    1    3    3  502    0 -0.22449049525E+03  0.51774436080E+02  0.26532347139E+04  0.26632181702E+04  0.25500000920E-02 0. -1.
       -2    1    3    3    0  502  0.22449049525E+03 -0.51774436080E+02 -0.88073151491E+03  0.91036507845E+03  0.25500000920E-02 0.  1.
</event>
<event>
 5   0  0.1398931E-07  0.3102557E+04  0.7818609E-02  0.8215036E-01
        2   -1    0    0  501    0  0.00000000000E+00  0.00000000000E+00  0.12900333315E+04  0.12900333315E+04  0.25500000920E-02 0. -1.
       -2   -1    0    0    0  501  0.00000000000E+00  0.00000000000E+00 -0.18654289383E+04  0.18654289383E+04  0.25500000920E-02 0.  1.
    10030    2    1    2    0    0  0.00000000000E+00  0.00000000000E+00 -0.57539560675E+03  0.31554622698E+04  0.31025573374E+04 0.  0.
        3    1    3    3  502    0 -0.74850346559E+03 -0.13564218570E+04 -0.20679384994E+03  0.15629783743E+04  0.10100000352E+00 0. -1.
       -3    1    3    3    0  502  0.74850346559E+03  0.13564218570E+04 -0.36860175682E+03  0.15924838955E+04  0.10100000352E+00 0.  1.
</event>
<event>
 5   0  0.1329777E-07  0.3098633E+04  0.7818609E-02  0.8216113E-01
       -2   -1    0    0    0  501  0.00000000000E+00  0.00000000000E+00  0.11821493990E+04  0.11821493990E+04  0.25500000920E-02 0.  1.
        2   -1    0    0  501    0  0.00000000000E+00  0.00000000000E+00 -0.20305233312E+04  0.20305233312E+04  0.25500000920E-02 0. -1.
    10030    2    1    2    0    0  0.00000000000E+00  0.00000000000E+00 -0.84837393223E+03  0.32126727302E+04  0.30986332056E+04 0.  0.
        1    1    3    3  502    0  0.12164763542E+04  0.55900206866E+03  0.38430939526E+03  0.13928358642E+04  0.50400001928E-02 0.  1.
       -1    1    3    3    0  502 -0.12164763542E+04 -0.55900206866E+03 -0.12326833275E+04  0.18198368661E+04  0.50400001928E-02 0. -1.
</event>
<event>
 5   0  0.1325713E-07  0.3101430E+04  0.7818609E-02  0.8215345E-01
        2   -1    0    0  501    0  0.00000000000E+00  0.00000000000E+00  0.21189261988E+04  0.21189261988E+04  0.25500000920E-02 0. -1.
       -2   -1    0    0    0  501  0.00000000000E+00  0.00000000000E+00 -0.11348756340E+04  0.11348756340E+04  0.25500000920E-02 0.  1.
    10030    2    1    2    0    0  0.00000000000E+00  0.00000000000E+00  0.98405056480E+03  0.32538018327E+04  0.31014304527E+04 0.  0.
        4    1    3    3  502    0 -0.24928092606E+03  0.10231660011E+04 -0.70218928253E+03  0.12657334029E+04  0.12699999809E+01 0.  1.
       -4    1    3    3    0  502  0.24928092606E+03 -0.10231660011E+04  0.16862398473E+04  0.19880684298E+04  0.12699999809E+01 0. -1.
</event>
<event>
 5   0  0.4838602E-08  0.3090508E+04  0.7818609E-02  0.8218348E-01
       -1   -1    0    0    0  501  0.00000000000E+00  0.00000000000E+00  0.19812326534E+04  0.19812326534E+04  0.50400001928E-02 0. -1.
        1   -1    0    0  501    0  0.00000000000E+00  0.00000000000E+00 -0.12052144208E+04  0.12052144208E+04  0.50400001928E-02 0.  1.
    10030    2    1    2    0    0  0.00000000000E+00  0.00000000000E+00  0.77601823255E+03  0.31864470742E+04  0.30905081555E+04 0.  0.
        5    1    3    3  502    0 -0.50880907947E+03 -0.68896351163E+03 -0.93808653344E+03  0.12702699847E+04  0.46999998093E+01 0.  1.
       -5    1    3    3    0  502  0.50880907947E+03  0.68896351163E+03  0.17141047660E+04  0.19161770895E+04  0.46999998093E+01 0. -1.
</event>
<event>
 5   0  0.4450600E-08  0.3100994E+04  0.7818609E-02  0.8215465E-01
       -1   -1    0    0    0  501  0.00000000000E+00  0.00000000000E+00  0.11798092503E+04  0.11798092503E+04  0.50400001928E-02 0. -1.
        1   -1    0    0  501    0  0.00000000000E+00  0.00000000000E+00 -0.20376527245E+04  0.20376527245E+04  0.50400001928E-02 0.  1.
    10030    2    1    2    0    0  0.00000000000E+00  0.00000000000E+00 -0.85784347420E+03  0.32174619749E+04  0.31009943782E+04 0.  0.
        4    1    3    3  502    0 -0.11145345715E+04 -0.10707494153E+04 -0.55746300227E+03  0.16430028099E+04  0.12699999809E+01 0.  1.
       -4    1    3    3    0  502  0.11145345715E+04  0.10707494153E+04 -0.30038047193E+03  0.15744591650E+04  0.12699999809E+01 0. -1.
</event>
<event>
 5   0  0.4838602E-08  0.3099976E+04  0.7818609E-02  0.8215744E-01
        1   -1    0    0  501    0  0.00000000000E+00  0.00000000000E+00  0.20291258529E+04  0.20291258529E+04  0.50400001928E-02 0. -1.
       -1   -1    0    0    0  501  0.00000000000E+00  0.00000000000E+00 -0.11839893122E+04  0.11839893122E+04  0.50400001928E-02 0.  1.
    10030    2    1    2    0    0  0.00000000000E+00  0.00000000000E+00  0.84513654074E+03  0.32131151651E+04  0.30999763373E+04 0.  0.
        5    1    3    3  502    0 -0.85354069848E+03 -0.41548846814E+03  0.16925532809E+04  0.19405981269E+04  0.46999998093E+01 0. -1.
       -5    1    3    3    0  502  0.85354069848E+03  0.41548846814E+03 -0.84741674020E+03  0.12725170383E+04  0.46999998093E+01 0.  1.
</event>
<event>
 5   0  0.1398931E-07  0.3103636E+04  0.7818609E-02  0.8214741E-01
        2   -1    0    0  501    0  0.00000000000E+00  0.00000000000E+00  0.19153011089E+04  0.19153011089E+04  0.25500000920E-02 0. -1.
       -2   -1    0    0    0  501  0.00000000000E+00  0.00000000000E+00 -0.12573159681E+04  0.12573159681E+04  0.25500000920E-02 0.  1.
    10030    2    1    2    0    0  0.00000000000E+00  0.00000000000E+00  0.65798514080E+03  0.31726170771E+04  0.31036357184E+04 0.  0.
        3    1    3    3  502    0 -0.11784512289E+04  0.88370036458E+03  0.82817496677E+03  0.16898365066E+04  0.10100000352E+00 0. -1.
       -3    1    3    3    0  502  0.11784512289E+04 -0.88370036458E+03 -0.17018982597E+03  0.14827805705E+04  0.10100000352E+00 0.  1.
</event>
<event>
 5   0  0.1377237E-07  0.3103252E+04  0.7818609E-02  0.8214846E-01
        2   -1    0    0  501    0  0.00000000000E+00  0.00000000000E+00  0.15258093960E+04  0.15258093960E+04  0.25500000920E-02 0.  1.
       -2   -1    0    0    0  501  0.00000000000E+00  0.00000000000E+00 -0.15778791924E+04  0.15778791924E+04  0.25500000920E-02 0. -1.
    10030    2    1    2    0    0  0.00000000000E+00  0.00000000000E+00 -0.52069796351E+02  0.31036885884E+04  0.31032517767E+04 0.  0.
        2    1    3    3  502    0 -0.83625339030E+03  0.59566622001E+03 -0.11895579768E+04  0.15713644258E+04  0.25500000920E-02 0. -1.
       -2    1    3    3    0  502  0.83625339030E+03 -0.59566622001E+03  0.11374881805E+04  0.15323241626E+04  0.25500000920E-02 0.  1.
</event>
<event>
 5   0  0.1318916E-07  0.3099617E+04  0.7818609E-02  0.8215843E-01
        2   -1    0    0  501    0  0.00000000000E+00  0.00000000000E+00  0.22764301897E+04  0.22764301897E+04  0.25500000920E-02 0. -1.
       -2   -1    0    0    0  501  0.00000000000E+00  0.00000000000E+00 -0.10551194772E+04  0.10551194772E+04  0.25500000920E-02 0.  1.
    10030    2    1    2    0    0  0.00000000000E+00  0.00000000000E+00  0.12213107125E+04  0.33315496669E+04  0.30996166418E+04 0.  0.
        5    1    3    3  502    0  0.72748016040E+03  0.10477616285E+04 -0.33546778943E+03  0.13189361401E+04  0.46999998093E+01 0. -1.
       -5    1    3    3    0  502 -0.72748016040E+03 -0.10477616285E+04  0.15567785019E+04  0.20126135267E+04  0.46999998093E+01 0.  1.
</event>
<event>
 5   0  0.4450600E-08  0.3095938E+04  0.7818609E-02  0.8216854E-01
       -1   -1    0    0    0  501  0.00000000000E+00  0.00000000000E+00  0.14714563346E+04  0.14714563346E+04  0.50400001928E-02 0.  1.
        1   -1    0    0  501    0  0.00000000000E+00  0.00000000000E+00 -0.16284598801E+04  0.16284598801E+04  0.50400001928E-02 0. -1.
    10030    2    1    2    0    0  0.00000000000E+00  0.00000000000E+00 -0.15700354546E+03  0.30999162147E+04  0.30959377295E+04 0.  0.
        4    1    3    3  502    0 -0.11920159097E+04 -0.78543530185E+03 -0.67793247486E+03  0.15803178780E+04  0.12699999809E+01 0. -1.
       -4    1    3    3    0  502  0.11920159097E+04  0.78543530185E+03  0.52092892940E+03  0.15195983366E+04  0.12699999809E+01 0.  1.
</event>
<event>
 5   0  0.4470354E-08  0.3100092E+04  0.7818609E-02  0.8215713E-01
        1   -1    0    0  501    0  0.00000000000E+00  0.00000000000E+00  0.11317852272E+04  0.11317852272E+04  0.50400001928E-02 0. -1.
       -1   -1    0    0    0  501  0.00000000000E+00  0.00000000000E+00 -0.21228791721E+04  0.21228791721E+04  0.50400001928E-02 0.  1.
    10030    2    1    2    0    0  0.00000000000E+00  0.00000000000E+00 -0.99109394493E+03  0.32546643993E+04  0.31000924412E+04 0.  0.
        1    1    3    3  502    0 -0.59180318716E+03  0.14308963834E+04 -0.56939488754E+03  0.16498199933E+04  0.50400001928E-02 0. -1.
       -1    1    3    3    0  502  0.59180318716E+03 -0.14308963834E+04 -0.42169905739E+03  0.16048444060E+04  0.50400001928E-02 0.  1.
</event>
<event>
 5   0  0.1377237E-07  0.3101159E+04  0.7818609E-02  0.8215420E-01
       -2   -1    0    0    0  501  0.00000000000E+00  0.00000000000E+00  0.14984697983E+04  0.14984697983E+04  0.25500000920E-02 0. -1.
        2   -1    0    0  501    0  0.00000000000E+00  0.00000000000E+00 -0.16045008576E+04  0.16045008576E+04  0.25500000920E-02 0.  1.
    10030    2    1    2    0    0  0.00000000000E+00  0.00000000000E+00 -0.10603105930E+03  0.31029706559E+04  0.31011585425E+04 0.  0.
        2    1    3    3  502    0 -0.57912967330E+03 -0.14269958377E+04 -0.23364186360E+03  0.15576574783E+04  0.25500000920E-02 0. -1.
       -2    1    3    3    0  502  0.57912967330E+03  0.14269958377E+04  0.12761080430E+03  0.15453131775E+04  0.25500000920E-02 0.  1.
</event>
<event>
 5   0  0.4450600E-08  0.3091474E+04  0.7818609E-02  0.8218082E-01
       -1   -1    0    0    0  501  0.00000000000E+00  0.00000000000E+00  0.88726623368E+03  0.88726623369E+03  0.50400001928E-02 0.  1.
        1   -1    0    0  501    0  0.00000000000E+00  0.00000000000E+00 -0.26928808304E+04  0.26928808305E+04  0.50400001928E-02 0. -1.
    10030    2    1    2    0    0  0.00000000000E+00  0.00000000000E+00 -0.18056145968E+04  0.35801470641E+04  0.30914735853E+04 0.  0.
        4    1    3    3  502    0  0.11141865268E+04 -0.99326928900E+03 -0.13679212921E+04  0.20246495428E+04  0.12699999809E+01 0. -1.
       -4    1    3    3    0  502 -0.11141865268E+04  0.99326928900E+03 -0.43769330466E+03  0.15554975213E+04  0.12699999809E+01 0.  1.
</event>
<event>
 5   0  0.1325713E-07  0.3099839E+04  0.7818609E-02  0.8215782E-01
        2   -1    0    0  501    0  0.00000000000E+00  0.00000000000E+00  0.22373229998E+04  0.22373229998E+04  0.25500000920E-02 0. -1.
       -2   -1    0    0    0  501  0.00000000000E+00  0.00000000000E+00 -0.10737161995E+04  0.10737161995E+04  0.25500000920E-02 0.  1.
    10030    2    1    2    0    0  0.00000000000E+00  0.00000000000E+00  0.11636068002E+04  0.33110391993E+04  0.30998386722E+04 0.  0.
        4    1    3    3  502    0 -0.74082091979E+03  0.87754637308E+03 -0.52995043097E+03  0.12648131658E+04  0.12699999809E+01 0.  1.
       -4    1    3    3    0  502  0.74082091979E+03 -0.87754637308E+03  0.16935572312E+04  0.20462260335E+04  0.12699999809E+01 0. -1.
</event>
<event>
 5   0  0.4838602E-08  0.3109797E+04  0.7818609E-02  0.8213054E-01
        1   -1    0    0  501    0  0.00000000000E+00  0.00000000000E+00  0.18939395810E+04  0.18939395810E+04  0.50400001928E-02 0.  1.
       -1   -1    0    0    0  501  0.00000000000E+00  0.00000000000E+00 -0.12765501187E+04  0.12765501187E+04  0.50400001928E-02 0. -1.
    10030    2    1    2    0    0  0.00000000000E+00  0.00000000000E+00  0.61738946228E+03  0.31704896997E+04  0.31097966473E+04 0.  0.
        5    1    3    3  502    0 -0.44915519631E+03  0.10286251427E+04  0.14057424034E+04  0.17988729441E+04  0.46999998093E+01 0.  1.
       -5    1    3    3    0  502  0.44915519631E+03 -0.10286251427E+04 -0.78835294108E+03  0.13716167556E+04  0.46999998093E+01 0. -1.
</event>
<event>
 5   0  0.1318916E-07  0.3101463E+04  0.7818609E-02  0.8215337E-01
       -2   -1    0    0    0  501  0.00000000000E+00  0.00000000000E+00  0.17644232237E+04  0.17644232237E+04  0.25500000920E-02 0.  1.
        2   -1    0    0  501    0  0.00000000000E+00  0.00000000000E+00 -0.13629200089E+04  0.13629200089E+04  0.25500000920E-02 0. -1.
    10030    2    1    2    0    0  0.00000000000E+00  0.00000000000E+00  0.40150321486E+03  0.31273432326E+04  0.31014626973E+04 0.  0.
        5    1    3    3  502    0  0.10927882223E+04  0.19696221930E+03 -0.89076242559E+03  0.14235378476E+04  0.46999998093E+01 0. -1.
       -5    1    3    3    0  502 -0.10927882223E+04 -0.19696221930E+03  0.12922656405E+04  0.17038053850E+04  0.46999998093E+01 0.  1.
</event>
<event>
 5   0  0.1329777E-07  0.3101284E+04  0.7818609E-02  0.8215386E-01
       -2   -1    0    0    0  501  0.00000000000E+00  0.00000000000E+00  0.11447299733E+04  0.11447299733E+04  0.25500000920E-02 0. -1.
        2   -1    0    0  501    0  0.00000000000E+00  0.00000000000E+00 -0.21004870022E+04  0.21004870022E+04  0.25500000920E-02 0.  1.
    10030    2    1    2    0    0  0.00000000000E+00  0.00000000000E+00 -0.95575702887E+03  0.32452169755E+04  0.31012838825E+04 0.  0.
        1    1    3    3  502    0 -0.12909166448E+04  0.60288093077E+03  0.16253792016E+03  0.14339978299E+04  0.50400001928E-02 0. -1.
       -1    1    3    3    0  502  0.12909166448E+04 -0.60288093077E+03 -0.11182949490E+04  0.18112191457E+04  0.50400001928E-02 0.  1.
</event>
<event>
 5   0  0.4436241E-08  0.3100501E+04  0.7818609E-02  0.8215600E-01
       -1   -1    0    0    0  501  0.00000000000E+00  0.00000000000E+00  0.12351550711E+04  0.12351550711E+04  0.50400001928E-02 0.  1.
        1   -1    0    0  501    0  0.00000000000E+00  0.00000000000E+00 -0.19457287526E+04  0.19457287526E+04  0.50400001928E-02 0. -1.
    10030    2    1    2    0    0  0.00000000000E+00  0.00000000000E+00 -0.71057368154E+03  0.31808838237E+04  0.31005010794E+04 0.  0.
        3    1    3    3  502    0 -0.15568811076E+03  0.12142133838E+04  0.62054262414E+03  0.13724525813E+04  0.10100000352E+00 0.  1.
       -3    1    3    3    0  502  0.15568811076E+03 -0.12142133838E+04 -0.13311163057E+04  0.18084312425E+04  0.10100000352E+00 0. -1.
</event>
<event>
 5   0  0.4450600E-08  0.3101449E+04  0.7818609E-02  0.8215340E-01
       -1   -1    0    0    0  501  0.00000000000E+00  0.00000000000E+00  0.16686129453E+04  0.16686129453E+04  0.50400001928E-02 0. -1.
        1   -1    0    0  501    0  0.00000000000E+00  0.00000000000E+00 -0.14411653152E+04  0.14411653152E+04  0.50400001928E-02 0.  1.
    10030    2    1    2    0    0  0.00000000000E+00  0.00000000000E+00  0.22744763016E+03  0.31097782605E+04  0.31014494039E+04 0.  0.
        4    1    3    3  502    0 -0.12098578979E+04  0.31035327185E+03  0.10352513352E+04  0.16222891932E+04  0.12699999809E+01 0. -1.
       -4    1    3    3    0  502  0.12098578979E+04 -0.31035327185E+03 -0.80780370504E+03  0.14874890673E+04  0.12699999809E+01 0.  1.
</event>
<event>
 5   0  0.4450600E-08  0.3100969E+04  0.7818609E-02  0.8215472E-01
       -1   -1    0    0    0  501  0.00000000000E+00  0.00000000000E+00  0.95437351863E+03  0.95437351864E+03  0.50400001928E-02 0.  1.
        1   -1    0    0  501    0  0.00000000000E+00  0.00000000000E+00 -0.25189323777E+04  0.25189323777E+04  0.50400001928E-02 0. -1.
    10030    2    1    2    0    0  0.00000000000E+00  0.00000000000E+00 -0.15645588591E+04  0.34733058963E+04  0.31009691108E+04 0.  0.
        4    1    3    3  502    0 -0.24780942142E+03  0.14445118616E+04 -0.21558906954E+03  0.14813859347E+04  0.12699999809E+01 0.  1.
       -4    1    3    3    0  502  0.24780942142E+03 -0.14445118616E+04 -0.13489697895E+04  0.19919199617E+04  0.12699999809E+01 0. -1.
</event>
<event>
 5   0  0.4450600E-08  0.3101509E+04  0.7818609E-02  0.8215324E-01
        1   -1    0    0  501    0  0.00000000000E+00  0.00000000000E+00  0.12431056426E+04  0.12431056426E+04  0.50400001928E-02 0.  1.
       -1   -1    0    0    0  501  0.00000000000E+00  0.00000000000E+00 -0.19345412188E+04  0.19345412188E+04  0.50400001928E-02 0. -1.
    10030    2    1    2    0    0  0.00000000000E+00  0.00000000000E+00 -0.69143557619E+03  0.31776468613E+04  0.31015087327E+04 0.  0.
        4    1    3    3  502    0  0.48612031523E+03 -0.44667382517E+03  0.10919424318E+04  0.12759977877E+04  0.12699999809E+01 0.  1.
       -4    1    3    3    0  502 -0.48612031523E+03  0.44667382517E+03 -0.17833780080E+04  0.19016490736E+04  0.12699999809E+01 0. -1.
</event>
<event>
 5   0  0.4436241E-08  0.3100342E+04  0.7818609E-02  0.8215644E-01
       -1   -1    0    0    0  501  0.00000000000E+00  0.00000000000E+00  0.16083161722E+04  0.16083161722E+04  0.50400001928E-02 0. -1.
        1   -1    0    0  501    0  0.00000000000E+00  0.00000000000E+00 -0.14941281190E+04  0.14941281190E+04  0.50400001928E-02 0.  1.
    10030    2    1    2    0    0  0.00000000000E+00  0.00000000000E+00  0.11418805323E+03  0.31024442912E+04  0.31003421857E+04 0.  0.
        3    1    3    3  502    0 -0.54937355222E+03  0.10751883188E+04 -0.91577356049E+03  0.15154149415E+04  0.10100000352E+00 0.  1.
       -3    1    3    3    0  502  0.54937355222E+03 -0.10751883188E+04  0.10299616137E+04  0.15870293497E+04  0.10100000352E+00 0. -1.
</event>
<event>
 5   0  0.1318916E-07  0.3099955E+04  0.7818609E-02  0.8215750E-01
        2   -1    0    0  501    0  0.00000000000E+00  0.00000000000E+00  0.11347446818E+04  0.11347446818E+04  0.25500000920E-02 0.  1.
       -2   -1    0    0    0  501  0.00000000000E+00  0.00000000000E+00 -0.21171554426E+04  0.21171554426E+04  0.25500000920E-02 0. -1.
    10030    2    1    2    0    0  0.00000000000E+00  0.00000000000E+00 -0.98241076085E+03  0.32519001244E+04  0.30999554055E+04 0.  0.
        5    1    3    3  502    0  0.14023755468E+04 -0.35670927879E+03  0.91456289582E+02  0.14499258694E+04  0.46999998093E+01 0.  1.
       -5    1    3    3    0  502 -0.14023755468E+04  0.35670927879E+03 -0.10738670504E+04  0.18019742550E+04  0.46999998093E+01 0. -1.
</event>
<event>
 5   0  0.1377237E-07  0.3099964E+04  0.7818609E-02  0.8215748E-01
       -2   -1    0    0    0  501  0.00000000000E+00  0.00000000000E+00  0.26372788660E+04  0.26372788660E+04  0.25500000920E-02 0. -1.
        2   -1    0    0  501    0  0.00000000000E+00  0.00000000000E+00 -0.91095558870E+03  0.91095558870E+03  0.25500000920E-02 0.  1.
    10030    2    1    2    0    0  0.00000000000E+00  0.00000000000E+00  0.17263232773E+04  0.35482344547E+04  0.30999638204E+04 0.  0.
        2    1    3    3  502    0 -0.19344644269E+03 -0.14553121991E+04  0.29420101287E+03  0.14973006909E+04  0.25500000920E-02 0. -1.
       -2    1    3    3    0  502  0.19344644269E+03  0.14553121991E+04  0.14321222644E+04  0.20509337638E+04  0.25500000920E-02 0.  1.
</event>
<event>
 5   0  0.4517409E-08  0.3100650E+04  0.7818609E-02  0.8215560E-01
       -1   -1    0    0    0  501  0.00000000000E+00  0.00000000000E+00  0.10446639084E+04  0.10446639084E+04  0.50400001928E-02 0. -1.
        1   -1    0    0  501    0  0.00000000000E+00  0.00000000000E+00 -0.23007472780E+04  0.23007472780E+04  0.50400001928E-02 0.  1.
    10030    2    1    2    0    0  0.00000000000E+00  0.00000000000E+00 -0.12560833696E+04  0.33454111864E+04  0.31006500245E+04 0.  0.
        2    1    3    3  502    0 -0.58108807315E+03  0.76570106725E+03 -0.19404259549E+04  0.21654593877E+04  0.25500000920E-02 0.  1.
       -2    1    3    3    0  502  0.58108807315E+03 -0.76570106725E+03  0.68434258532E+03  0.11799517987E+04  0.25500000920E-02 0. -1.
</event>
<event>
 5   0  0.4470354E-08  0.3100408E+04  0.7818609E-02  0.8215626E-01
       -1   -1    0    0    0  501  0.00000000000E+00  0.00000000000E+00  0.13705832117E+04  0.13705832117E+04  0.50400001928E-02 0.  1.
        1   -1    0    0  501    0  0.00000000000E+00  0.00000000000E+00 -0.17533645842E+04  0.17533645842E+04  0.50400001928E-02 0. -1.
    10030    2    1    2    0    0  0.00000000000E+00  0.00000000000E+00 -0.38278137245E+03  0.31239477959E+04  0.31004077558E+04 0.  0.
        1    1    3    3  502    0 -0.15496615934E+04  0.71016632700E+01 -0.23207766120E+03  0.15669593257E+04  0.50400001928E-02 0.  1.
       -1    1    3    3    0  502  0.15496615934E+04 -0.71016632700E+01 -0.15070371125E+03  0.15569884702E+04  0.50400001928E-02 0. -1.
</event>
<event>
 5   0  0.4436241E-08  0.3102751E+04  0.7818609E-02  0.8214983E-01
       -1   -1    0    0    0  501  0.00000000000E+00  0.00000000000E+00  0.10413987619E+04  0.10413987619E+04  0.50400001928E-02 0. -1.
        1   -1    0    0  501    0  0.00000000000E+00  0.00000000000E+00 -0.23110899987E+04  0.23110899987E+04  0.50400001928E-02 0.  1.
    10030    2    1    2    0    0  0.00000000000E+00  0.00000000000E+00 -0.12696912368E+04  0.33524887607E+04  0.31027512072E+04 0.  0.
        3    1    3    3  502    0 -0.12534962652E+04  0.61608617478E+03 -0.13644367641E+04  0.19525631245E+04  0.10100000352E+00 0.  1.
       -3    1    3    3    0  502  0.12534962652E+04 -0.61608617478E+03  0.94745527226E+02  0.13999256362E+04  0.10100000352E+00 0. -1.
</event>
<event>
 5   0  0.4470354E-08  0.3103807E+04  0.7818609E-02  0.8214694E-01
        1   -1    0    0  501    0  0.00000000000E+00  0.00000000000E+00  0.13910138825E+04  0.13910138825E+04  0.50400001928E-02 0.  1.
       -1   -1    0    0    0  501  0.00000000000E+00  0.00000000000E+00 -0.17314019481E+04  0.17314019481E+04  0.50400001928E-02 0. -1.
    10030    2    1    2    0    0  0.00000000000E+00  0.00000000000E+00 -0.34038806563E+03  0.31224158306E+04  0.31038067890E+04 0.  0.
        1    1    3    3  502    0  0.14750317202E+04  0.19023438850E+03 -0.61613093568E+03  0.16098214274E+04  0.50400001928E-02 0.  1.
       -1    1    3    3    0  502 -0.14750317202E+04 -0.19023438850E+03  0.27574287005E+03  0.15125944032E+04  0.50400001928E-02 0. -1.
</event>
<event>
 5   0  0.4450600E-08  0.3099650E+04  0.7818609E-02  0.8215834E-01
       -1   -1    0    0    0  501  0.00000000000E+00  0.00000000000E+00  0.16622404018E+04  0.16622404018E+04  0.50400001928E-02 0.  1.
        1   -1    0    0  501    0  0.00000000000E+00  0.00000000000E+00 -0.14450123885E+04  0.14450123885E+04  0.50400001928E-02 0. -1.
    10030    2    1    2    0    0  0.00000000000E+00  0.00000000000E+00  0.21722801330E+03  0.31072527903E+04  0.30996502856E+04 0.  0.
        4    1    3    3  502    0 -0.34168612010E+03 -0.40184393558E+03  0.15694900828E+04  0.16557562279E+04  0.12699999809E+01 0.  1.
       -4    1    3    3    0  502  0.34168612010E+03  0.40184393558E+03 -0.13522620695E+04  0.14514965624E+04  0.12699999809E+01 0. -1.
</event>
<event>
 5   0  0.4450600E-08  0.3098707E+04  0.7818609E-02  0.8216093E-01
       -1   -1    0    0    0  501  0.00000000000E+00  0.00000000000E+00  0.12564582473E+04  0.12564582473E+04  0.50400001928E-02 0. -1.
        1   -1    0    0  501    0  0.00000000000E+00  0.00000000000E+00 -0.19105263084E+04  0.19105263084E+04  0.50400001928E-02 0.  1.
    10030    2    1    2    0    0  0.00000000000E+00  0.00000000000E+00 -0.65406806104E+03  0.31669845557E+04  0.30987071736E+04 0.  0.
        4    1    3    3  502    0 -0.12805583080E+03 -0.14272385070E+04  0.27508797825E+03  0.14591377798E+04  0.12699999809E+01 0. -1.
       -4    1    3    3    0  502  0.12805583080E+03  0.14272385070E+04 -0.92915603929E+03  0.17078467759E+04  0.12699999809E+01 0.  1.
</event>
<event>
 5   0  0.4436241E-08  0.3100489E+04  0.7818609E-02  0.8215604E-01
       -1   -1    0    0    0  501  0.00000000000E+00  0.00000000000E+00  0.17645246416E+04  0.17645246416E+04  0.50400001928E-02 0. -1.
        1   -1    0    0  501    0  0.00000000000E+00  0.00000000000E+00 -0.13619863362E+04  0.13619863362E+04  0.50400001928E-02 0.  1.
    10030    2    1    2    0    0  0.00000000000E+00  0.00000000000E+00  0.40253830544E+03  0.31265109778E+04  0.31004892851E+04 0.  0.
        3    1    3    3  502    0 -0.36946213179E+03  0.38013168703E+03 -0.12677539163E+04  0.13741187608E+04  0.10100000352E+00 0.  1.
       -3    1    3    3    0  502  0.36946213179E+03 -0.38013168703E+03  0.16702922217E+04  0.17523922171E+04  0.10100000352E+00 0. -1.
</event>
<event>
 5   0  0.1377237E-07  0.3099867E+04  0.7818609E-02  0.8215774E-01
        2   -1    0    0  501    0  0.00000000000E+00  0.00000000000E+00  0.11695784332E+04  0.11695784332E+04  0.25500000920E-02 0. -1.
       -2   -1    0    0    0  501  0.00000000000E+00  0.00000000000E+00 -0.20539828793E+04  0.20539828793E+04  0.25500000920E-02 0.  1.
    10030    2    1    2    0    0  0.00000000000E+00  0.00000000000E+00 -0.88440444612E+03  0.32235613125E+04  0.30998671441E+04 0.  0.
        2    1    3    3  502    0  0.77317845387E+03  0.12284362336E+04  0.12302462162E+03  0.14567070944E+04  0.25500000920E-02 0. -1.
       -2    1    3    3    0  502 -0.77317845387E+03 -0.12284362336E+04 -0.10074290677E+04  0.17668542181E+04  0.25500000920E-02 0.  1.
</event>
<event>
 5   0  0.4838602E-08  0.3103894E+04  0.7818609E-02  0.8214670E-01
        1   -1    0    0  501    0  0.00000000000E+00  0.00000000000E+00  0.87357475660E+03  0.87357475662E+03  0.50400001928E-02 0.  1.
       -1   -1    0    0    0  501  0.00000000000E+00  0.00000000000E+00 -0.27571078159E+04  0.27571078159E+04  0.50400001928E-02 0. -1.
    10030    2    1    2    0    0  0.00000000000E+00  0.00000000000E+00 -0.18835330593E+04  0.36306825725E+04  0.31038941923E+04 0.  0.
        5    1    3    3  502    0  0.13499984705E+04 -0.31309176835E+03 -0.17588928968E+04  0.22392518032E+04  0.46999998093E+01 0. -1.
       -5    1    3    3    0  502 -0.13499984705E+04  0.31309176835E+03 -0.12464016250E+03  0.13914307693E+04  0.46999998093E+01 0.  1.
</event>
<event>
 5   0  0.1329777E-07  0.3101611E+04  0.7818609E-02  0.8215296E-01
       -2   -1    0    0    0  501  0.00000000000E+00  0.00000000000E+00  0.17990202679E+04  0.17990202679E+04  0.25500000920E-02 0.  1.
        2   -1    0    0  501    0  0.00000000000E+00  0.00000000000E+00 -0.13368375931E+04  0.13368375931E+04  0.25500000920E-02 0. -1.
    10030    2    1    2    0    0  0.00000000000E+00  0.00000000000E+00  0.46218267478E+03  0.31358578610E+04  0.31016111458E+04 0.  0.
        1    1    3    3  502    0 -0.11433482939E+04  0.52228795086E+03  0.11493975991E+04  0.17032747475E+04  0.50400001928E-02 0.  1.
       -1    1    3    3    0  502  0.11433482939E+04 -0.52228795086E+03 -0.68721492436E+03  0.14325831135E+04  0.50400001928E-02 0. -1.
</event>
<event>
 5   0  0.4436241E-08  0.3108328E+04  0.7818609E-02  0.8213456E-01
        1   -1    0    0  501    0  0.00000000000E+00  0.00000000000E+00  0.14445617002E+04  0.14445617002E+04  0.50400001928E-02 0.  1.
       -1   -1    0    0    0  501  0.00000000000E+00  0.00000000000E+00 -0.16720816900E+04  0.16720816900E+04  0.50400001928E-02 0. -1.
    10030    2    1    2    0    0  0.00000000000E+00  0.00000000000E+00 -0.22751998979E+03  0.31166433902E+04  0.31083276333E+04 0.  0.
        3    1    3    3  502    0  0.10836938663E+04  0.69830902434E+03 -0.98406672953E+03  0.16218554892E+04  0.10100000352E+00 0. -1.
       -3    1    3    3    0  502 -0.10836938663E+04 -0.69830902434E+03  0.75654673975E+03  0.14947879010E+04  0.10100000352E+00 0.  1.
</event>
<event>
 5   0  0.1329777E-07  0.3101408E+04  0.7818609E-02  0.8215352E-01
        2   -1    0    0  501    0  0.00000000000E+00  0.00000000000E+00  0.10069220811E+04  0.10069220811E+04  0.25500000920E-02 0. -1.
       -2   -1    0    0    0  501  0.00000000000E+00  0.00000000000E+00 -0.23881518137E+04  0.23881518137E+04  0.25500000920E-02 0.  1.
    10030    2    1    2    0    0  0.00000000000E+00  0.00000000000E+00 -0.13812297325E+04  0.33950738948E+04  0.31014079346E+04 0.  0.
        1    1    3    3  502    0 -0.90903116953E+03  0.93300188590E+03  0.23038964159E+03  0.13228414770E+04  0.50400001928E-02 0. -1.
       -1    1    3    3    0  502  0.90903116953E+03 -0.93300188590E+03 -0.16116193741E+04  0.20722324178E+04  0.50400001928E-02 0.  1.
</event>
<event>
 5   0  0.4470354E-08  0.3099954E+04  0.7818609E-02  0.8215750E-01
        1   -1    0    0  501    0  0.00000000000E+00  0.00000000000E+00  0.20528298064E+04  0.20528298064E+04  0.50400001928E-02 0.  1.
       -1   -1    0    0    0  501  0.00000000000E+00  0.00000000000E+00 -0.11703010632E+04  0.11703010632E+04  0.50400001928E-02 0. -1.
    10030    2    1    2    0    0  0.00000000000E+00  0.00000000000E+00  0.88252874314E+03  0.32231308696E+04  0.30999541319E+04 0.  0.
        1    1    3    3  502    0  0.42352950746E+03  0.81210091956E+03 -0.85883842284E+03  0.12555829657E+04  0.50400001928E-02 0. -1.
       -1    1    3    3    0  502 -0.42352950746E+03 -0.81210091956E+03  0.17413671660E+04  0.19675479039E+04  0.50400001928E-02 0.  1.
</event>
<event>
 5   0  0.1318916E-07  0.3100965E+04  0.7818609E-02  0.8215473E-01
        2   -1    0    0  501    0  0.00000000000E+00  0.00000000000E+00  0.30670061898E+04  0.30670061898E+04  0.25500000920E-02 0. -1.
       -2   -1    0    0    0  501  0.00000000000E+00  0.00000000000E+00 -0.78382486705E+03  0.78382486705E+03  0.25500000920E-02 0.  1.
    10030    2    1    2    0    0  0.00000000000E+00  0.00000000000E+00  0.22831813228E+04  0.38508310569E+04  0.31009648298E+04 0.  0.
        5    1    3    3  502    0 -0.55753387517E+03 -0.10980027318E+04 -0.28303580600E+02  0.12317780659E+04  0.46999998093E+01 0.  1.
       -5    1    3    3    0  502  0.55753387517E+03  0.10980027318E+04  0.23114849034E+04  0.26190529910E+04  0.46999998093E+01 0. -1.
</event>
<event>
 5   0  0.4517409E-08  0.3098812E+04  0.7818609E-02  0.8216064E-01
       -1   -1    0    0    0  501  0.00000000000E+00  0.00000000000E+00  0.16774419916E+04  0.16774419917E+04  0.50400001928E-02 0.  1.
        1   -1    0    0  501    0  0.00000000000E+00  0.00000000000E+00 -0.14311427240E+04  0.14311427240E+04  0.50400001928E-02 0. -1.
    10030    2    1    2    0    0  0.00000000000E+00  0.00000000000E+00  0.24629926768E+03  0.31085847156E+04  0.30988119667E+04 0.  0.
        2    1    3    3  502    0 -0.77141587149E+03 -0.10066075869E+04  0.10160790701E+04  0.16250409094E+04  0.25500000920E-02 0.  1.
       -2    1    3    3    0  502  0.77141587149E+03  0.10066075869E+04 -0.76977980237E+03  0.14835438062E+04  0.25500000920E-02 0. -1.
</event>
<event>
 5   0  0.1398931E-07  0.3081728E+04  0.7818609E-02  0.8220771E-01
       -2   -1    0    0    0  501  0.00000000000E+00  0.00000000000E+00  0.11056326736E+04  0.11056326736E+04  0.25500000920E-02 0.  1.
        2   -1    0    0  501    0  0.00000000000E+00  0.00000000000E+00 -0.21474234554E+04  0.21474234554E+04  0.25500000920E-02 0. -1.
    10030    2    1    2    0    0  0.00000000000E+00  0.00000000000E+00 -0.10417907818E+04  0.32530561290E+04  0.30817277857E+04 0.  0.
        3    1    3    3  502    0  0.40745139739E+03 -0.98196223876E+03  0.65645737437E+03  0.12494810019E+04  0.10100000352E+00 0.  1.
       -3    1    3    3    0  502 -0.40745139739E+03  0.98196223876E+03 -0.16982481562E+04  0.20035751271E+04  0.10100000352E+00 0. -1.
</event>
<event>
 5   0  0.1377237E-07  0.3100030E+04  0.7818609E-02  0.8215730E-01
        2   -1    0    0  501    0  0.00000000000E+00  0.00000000000E+00  0.20616032676E+04  0.20616032676E+04  0.25500000920E-02 0.  1.
       -2   -1    0    0    0  501  0.00000000000E+00  0.00000000000E+00 -0.11653779914E+04  0.11653779914E+04  0.25500000920E-02 0. -1.
    10030    2    1    2    0    0  0.00000000000E+00  0.00000000000E+00  0.89622527615E+03  0.32269812590E+04  0.31000303709E+04 0.  0.
        2    1    3    3  502    0 -0.41566631711E+03  0.26846959163E+03  0.19771753137E+04  0.20381552026E+04  0.25500000920E-02 0.  1.
       -2    1    3    3    0  502  0.41566631711E+03 -0.26846959163E+03 -0.10809500375E+04  0.11888260564E+04  0.25500000920E-02 0. -1.
</event>
<event>
 5   0  0.4517409E-08  0.3100482E+04  0.7818609E-02  0.8215606E-01
        1   -1    0    0  501    0  0.00000000000E+00  0.00000000000E+00  0.16293044440E+04  0.16293044440E+04  0.50400001928E-02 0.  1.
       -1   -1    0    0    0  501  0.00000000000E+00  0.00000000000E+00 -0.14750138185E+04  0.14750138185E+04  0.50400001928E-02 0. -1.
    10030    2    1    2    0    0  0.00000000000E+00  0.00000000000E+00  0.15429062551E+03  0.31043182625E+04  0.31004816203E+04 0.  0.
        2    1    3    3  502    0 -0.10916608790E+04  0.10994121673E+04  0.13027679598E+03  0.15547998688E+04  0.25500000920E-02 0. -1.
       -2    1    3    3    0  502  0.10916608790E+04 -0.10994121673E+04  0.24013829535E+02  0.15495183937E+04  0.25500000920E-02 0.  1.
</event>
<event>
 5   0  0.4305500E-08  0.3096680E+04  0.7818609E-02  0.8216650E-01
       -4   -1    0    0    0  501  0.00000000000E+00  0.00000000000E+00  0.91325000046E+03  0.91325088352E+03  0.12699999809E+01 0. -1.
        4   -1    0    0  501    0  0.00000000000E+00  0.00000000000E+00 -0.26250809746E+04  0.26250812818E+04  0.12699999809E+01 0.  1.
    10030    2    1    2    0    0  0.00000000000E+00  0.00000000000E+00 -0.17118309741E+04  0.35383321653E+04  0.30966803561E+04 0.  0.
        3    1    3    3  502    0 -0.12901409224E+04  0.37275345487E+03 -0.17365113440E+04  0.21951948423E+04  0.10100000352E+00 0.  1.
       -3    1    3    3    0  502  0.12901409224E+04 -0.37275345487E+03  0.24680369848E+02  0.13431373230E+04  0.10100000352E+00 0. -1.
</event>
<event>
 5   0  0.1318916E-07  0.3100391E+04  0.7818609E-02  0.8215631E-01
        2   -1    0    0  501    0  0.00000000000E+00  0.00000000000E+00  0.24891132980E+04  0.24891132980E+04  0.25500000920E-02 0. -1.
       -2   -1    0    0    0  501  0.00000000000E+00  0.00000000000E+00 -0.96544671276E+03  0.96544671276E+03  0.25500000920E-02 0.  1.
    10030    2    1    2    0    0  0.00000000000E+00  0.00000000000E+00  0.15236665852E+04  0.34545600107E+04  0.31003911051E+04 0.  0.
        5    1    3    3  502    0  0.12134787922E+04 -0.62187884541E+03  0.15835154952E+04  0.20896907645E+04  0.46999998093E+01 0.  1.
       -5    1    3    3    0  502 -0.12134787922E+04  0.62187884541E+03 -0.59848910032E+02  0.13648692463E+04  0.46999998093E+01 0. -1.
</event>
<event>
 5   0  0.1398931E-07  0.3100118E+04  0.7818609E-02  0.8215705E-01
       -2   -1    0    0    0  501  0.00000000000E+00  0.00000000000E+00  0.96283773417E+03  0.96283773417E+03  0.25500000920E-02 0. -1.
        2   -1    0    0  501    0  0.00000000000E+00  0.00000000000E+00 -0.24954188242E+04  0.24954188242E+04  0.25500000920E-02 0.  1.
    10030    2    1    2    0    0  0.00000000000E+00  0.00000000000E+00 -0.15325810900E+04  0.34582565583E+04  0.31001183245E+04 0.  0.
        3    1    3    3  502    0 -0.10522653354E+04 -0.36776629508E+03  0.43525315250E+03  0.11966451859E+04  0.10100000352E+00 0. -1.
       -3    1    3    3    0  502  0.10522653354E+04  0.36776629508E+03 -0.19678342425E+04  0.22616113725E+04  0.10100000352E+00 0.  1.
</event>
<event>
 5   0  0.1329777E-07  0.3099071E+04  0.7818609E-02  0.8215993E-01
        2   -1    0    0  501    0  0.00000000000E+00  0.00000000000E+00  0.14830065434E+04  0.14830065434E+04  0.25500000920E-02 0.  1.
       -2   -1    0    0    0  501  0.00000000000E+00  0.00000000000E+00 -0.16190490188E+04  0.16190490188E+04  0.25500000920E-02 0. -1.
    10030    2    1    2    0    0  0.00000000000E+00  0.00000000000E+00 -0.13604247543E+03  0.31020555622E+04  0.30990710149E+04 0.  0.
        1    1    3    3  502    0 -0.99078208262E+03 -0.11876987508E+04  0.25785775048E+02  0.15469138192E+04  0.50400001928E-02 0. -1.
       -1    1    3    3    0  502  0.99078208262E+03  0.11876987508E+04 -0.16182825048E+03  0.15551417429E+04  0.50400001928E-02 0.  1.
</event>
<event>
 5   0  0.4838602E-08  0.3100163E+04  0.7818609E-02  0.8215693E-01
        1   -1    0    0  501    0  0.00000000000E+00  0.00000000000E+00  0.18510569327E+04  0.18510569327E+04  0.50400001928E-02 0.  1.
       -1   -1    0    0    0  501  0.00000000000E+00  0.00000000000E+00 -0.12980432836E+04  0.12980432836E+04  0.50400001928E-02 0. -1.
    10030    2    1    2    0    0  0.00000000000E+00  0.00000000000E+00  0.55301364911E+03  0.31491002164E+04  0.31001625887E+04 0.  0.
        5    1    3    3  502    0  0.74114939420E+03 -0.24649121624E+03  0.16365482469E+04  0.18133870515E+04  0.46999998093E+01 0.  1.
       -5    1    3    3    0  502 -0.74114939420E+03  0.24649121624E+03 -0.10835345978E+04  0.13357131649E+04  0.46999998093E+01 0. -1.
</event>
<event>
 5   0  0.4470354E-08  0.3102027E+04  0.7818609E-02  0.8215182E-01
       -1   -1    0    0    0  501  0.00000000000E+00  0.00000000000E+00  0.11868793287E+04  0.11868793287E+04  0.50400001928E-02 0. -1.
        1   -1    0    0  501    0  0.00000000000E+00  0.00000000000E+00 -0.20268635355E+04  0.20268635355E+04  0.50400001928E-02 0.  1.
    10030    2    1    2    0    0  0.00000000000E+00  0.00000000000E+00 -0.83998420683E+03  0.32137428642E+04  0.31020267132E+04 0.  0.
        1    1    3    3  502    0  0.43224047014E+03 -0.42181849549E+01  0.11232141246E+04  0.12035196662E+04  0.50400001928E-02 0. -1.
       -1    1    3    3    0  502 -0.43224047014E+03  0.42181849549E+01 -0.19631983315E+04  0.20102231980E+04  0.50400001928E-02 0.  1.
</event>
<event>
 5   0  0.1377237E-07  0.3099470E+04  0.7818609E-02  0.8215883E-01
        2   -1    0    0  501    0  0.00000000000E+00  0.00000000000E+00  0.12905332451E+04  0.12905332451E+04  0.25500000920E-02 0.  1.
       -2   -1    0    0    0  501  0.00000000000E+00  0.00000000000E+00 -0.18609966975E+04  0.18609966975E+04  0.25500000920E-02 0. -1.
    10030    2    1    2    0    0  0.00000000000E+00  0.00000000000E+00 -0.57046345234E+03  0.31515299426E+04  0.30994697012E+04 0.  0.
        2    1    3    3  502    0 -0.80484122146E+03 -0.12632676028E+04  0.11901832710E+03  0.15025910256E+04  0.25500000920E-02 0.  1.
       -2    1    3    3    0  502  0.80484122146E+03  0.12632676028E+04 -0.68948177945E+03  0.16489389170E+04  0.25500000920E-02 0. -1.
</event>
<event>
 5   0  0.4517409E-08  0.3096971E+04  0.7818609E-02  0.8216570E-01
        1   -1    0    0  501    0  0.00000000000E+00  0.00000000000E+00  0.12997252491E+04  0.12997252491E+04  0.50400001928E-02 0. -1.
       -1   -1    0    0    0  501  0.00000000000E+00  0.00000000000E+00 -0.18448570178E+04  0.18448570178E+04  0.50400001928E-02 0.  1.
    10030    2    1    2    0    0  0.00000000000E+00  0.00000000000E+00 -0.54513176869E+03  0.31445822669E+04  0.30969709375E+04 0.  0.
        2    1    3    3  502    0 -0.85169764866E+03 -0.11287980985E+04  0.36819290344E+03  0.14612118416E+04  0.25500000920E-02 0.  1.
       -2    1    3    3    0  502  0.85169764866E+03  0.11287980985E+04 -0.91332467213E+03  0.16833704253E+04  0.25500000920E-02 0. -1.
</event>
<event>
 5   0  0.1398931E-07  0.3100009E+04  0.7818609E-02  0.8215735E-01
        2   -1    0    0  501    0  0.00000000000E+00  0.00000000000E+00  0.15936844743E+04  0.15936844743E+04  0.25500000920E-02 0.  1.
       -2   -1    0    0    0  501  0.00000000000E+00  0.00000000000E+00 -0.15075219252E+04  0.15075219252E+04  0.25500000920E-02 0. -1.
    10030    2    1    2    0    0  0.00000000000E+00  0.00000000000E+00  0.86162549011E+02  0.31012063995E+04  0.31000092173E+04 0.  0.
        3    1    3    3  502    0 -0.12556818917E+04 -0.82449723571E+03 -0.33914162618E+03  0.15399836875E+04  0.10100000352E+00 0.  1.
       -3    1    3    3    0  502  0.12556818917E+04  0.82449723571E+03  0.42530417519E+03  0.15612227120E+04  0.10100000352E+00 0. -1.
</event>
<event>
 5   0  0.1318916E-07  0.3099551E+04  0.7818609E-02  0.8215861E-01
       -2   -1    0    0    0  501  0.00000000000E+00  0.00000000000E+00  0.13678611754E+04  0.13678611754E+04  0.25500000920E-02 0. -1.
        2   -1    0    0  501    0  0.00000000000E+00  0.00000000000E+00 -0.17558830035E+04  0.17558830035E+04  0.25500000920E-02 0.  1.
    10030    2    1    2    0    0  0.00000000000E+00  0.00000000000E+00 -0.38802182810E+03  0.31237441788E+04  0.30995510571E+04 0.  0.
        5    1    3    3  502    0  0.14557895431E+04  0.46902936890E+03  0.57880669185E+02  0.15305828970E+04  0.46999998093E+01 0. -1.
       -5    1    3    3    0  502 -0.14557895431E+04 -0.46902936890E+03 -0.44590249729E+03  0.15931612818E+04  0.46999998093E+01 0.  1.
</event>
<event>
 5   0  0.4436241E-08  0.3100587E+04  0.7818609E-02  0.8215577E-01
        1   -1    0    0  501    0  0.00000000000E+00  0.00000000000E+00  0.20567032620E+04  0.20567032620E+04  0.50400001928E-02 0.  1.
       -1   -1    0    0    0  501  0.00000000000E+00  0.00000000000E+00 -0.11685742374E+04  0.11685742375E+04  0.50400001928E-02 0. -1.
    10030    2    1    2    0    0  0.00000000000E+00  0.00000000000E+00  0.88812902459E+03  0.32252774995E+04  0.31005873289E+04 0.  0.
        3    1    3    3  502    0  0.94194690369E+03  0.11441347875E+04 -0.29321392574E+02  0.14822847687E+04  0.10100000352E+00 0. -1.
       -3    1    3    3    0  502 -0.94194690369E+03 -0.11441347875E+04  0.91745041716E+03  0.17429927308E+04  0.10100000352E+00 0.  1.
</event>
<event>
 5   0  0.4838602E-08  0.3099101E+04  0.7818609E-02  0.8215985E-01
        1   -1    0    0  501    0  0.00000000000E+00  0.00000000000E+00  0.19808745167E+04  0.19808745167E+04  0.50400001928E-02 0.  1.
       -1   -1    0    0    0  501  0.00000000000E+00  0.00000000000E+00 -0.12121447155E+04  0.12121447155E+04  0.50400001928E-02 0. -1.
    10030    2    1    2    0    0  0.00000000000E+00  0.00000000000E+00  0.76872980116E+03  0.31930192322E+04  0.30991008874E+04 0.  0.
        5    1    3    3  502    0 -0.31380928664E+03 -0.13650102273E+04  0.10672910687E+04  0.17609263199E+04  0.46999998093E+01 0.  1.
       -5    1    3    3    0  502  0.31380928664E+03  0.13650102273E+04 -0.29856126749E+03  0.14320929123E+04  0.46999998093E+01 0. -1.
</event>
<event>
 5   0  0.1329777E-07  0.3100107E+04  0.7818609E-02  0.8215709E-01
       -2   -1    0    0    0  501  0.00000000000E+00  0.00000000000E+00  0.96896527847E+03  0.96896527847E+03  0.25500000920E-02 0.  1.
        2   -1    0    0  501    0  0.00000000000E+00  0.00000000000E+00 -0.24796197039E+04  0.24796197039E+04  0.25500000920E-02 0. -1.
    10030    2    1    2    0    0  0.00000000000E+00  0.00000000000E+00 -0.15106544255E+04  0.34485849824E+04  0.31001067059E+04 0.  0.
        1    1    3    3  502    0  0.11733249604E+04 -0.47320172205E+03 -0.17515721149E+04  0.21606980831E+04  0.50400001928E-02 0. -1.
       -1    1    3    3    0  502 -0.11733249604E+04  0.47320172205E+03  0.24091768942E+03  0.12878868994E+04  0.50400001928E-02 0.  1.
</event>
<event>
 5   0  0.1325713E-07  0.3099464E+04  0.7818609E-02  0.8215885E-01
       -2   -1    0    0    0  501  0.00000000000E+00  0.00000000000E+00  0.84964059626E+03  0.84964059627E+03  0.25500000920E-02 0.  1.
        2   -1    0    0  501    0  0.00000000000E+00  0.00000000000E+00 -0.28266885226E+04  0.28266885226E+04  0.25500000920E-02 0. -1.
    10030    2    1    2    0    0  0.00000000000E+00  0.00000000000E+00 -0.19770479264E+04  0.36763291189E+04  0.30994640323E+04 0.  0.
        4    1    3    3  502    0 -0.96884622794E+03 -0.64504895682E+03  0.22509907915E+03  0.11855051153E+04  0.12699999809E+01 0.  1.
       -4    1    3    3    0  502  0.96884622794E+03  0.64504895682E+03 -0.22021470055E+04  0.24908240036E+04  0.12699999809E+01 0. -1.
</event>
<event>
 5   0  0.4517409E-08  0.3099959E+04  0.7818609E-02  0.8215749E-01
       -1   -1    0    0    0  501  0.00000000000E+00  0.00000000000E+00  0.98837933145E+03  0.98837933146E+03  0.50400001928E-02 0. -1.
        1   -1    0    0  501    0  0.00000000000E+00  0.00000000000E+00 -0.24306821905E+04  0.24306821906E+04  0.50400001928E-02 0.  1.
    10030    2    1    2    0    0  0.00000000000E+00  0.00000000000E+00 -0.14423028591E+04  0.34190615220E+04  0.30999587342E+04 0.  0.
        2    1    3    3  502    0 -0.85082558692E+03  0.11644101165E+04 -0.13476753535E+04  0.19738247028E+04  0.25500000920E-02 0.  1.
       -2    1    3    3    0  502  0.85082558692E+03 -0.11644101165E+04 -0.94627505603E+02  0.14452368192E+04  0.25500000920E-02 0. -1.
</event>
<event>
 5   0  0.4450600E-08  0.3100253E+04  0.7818609E-02  0.8215668E-01
        1   -1    0    0  501    0  0.00000000000E+00  0.00000000000E+00  0.22433801527E+04  0.22433801527E+04  0.50400001928E-02 0.  1.
       -1   -1    0    0    0  501  0.00000000000E+00  0.00000000000E+00 -0.10711034925E+04  0.10711034925E+04  0.50400001928E-02 0. -1.
    10030    2    1    2    0    0  0.00000000000E+00  0.00000000000E+00  0.11722766602E+04  0.33144836452E+04  0.31002530971E+04 0.  0.
        4    1    3    3  502    0 -0.14429068248E+04 -0.29552279738E+03  0.69444052235E+02  0.14744958183E+04  0.12699999809E+01 0.  1.
       -4    1    3    3    0  502  0.14429068248E+04  0.29552279738E+03  0.11028326080E+04  0.18399878269E+04  0.12699999809E+01 0. -1.
</event>
<event>
 5   0  0.1318916E-07  0.3100023E+04  0.7818609E-02  0.8215732E-01
        2   -1    0    0  501    0  0.00000000000E+00  0.00000000000E+00  0.14900837010E+04  0.14900837011E+04  0.25500000920E-02 0. -1.
       -2   -1    0    0    0  501  0.00000000000E+00  0.00000000000E+00 -0.16123492162E+04  0.16123492162E+04  0.25500000920E-02 0.  1.
    10030    2    1    2    0    0  0.00000000000E+00  0.00000000000E+00 -0.12226551520E+03  0.31024329173E+04  0.31000227661E+04 0.  0.
        5    1    3    3  502    0 -0.10073088294E+04 -0.86433631603E+03  0.73996747402E+03  0.15196454513E+04  0.46999998093E+01 0. -1.
       -5    1    3    3    0  502  0.10073088294E+04  0.86433631603E+03 -0.86223298922E+03  0.15827874660E+04  0.46999998093E+01 0.  1.
</event>
<event>
 5   0  0.4470354E-08  0.3100969E+04  0.7818609E-02  0.8215472E-01
        1   -1    0    0  501    0  0.00000000000E+00  0.00000000000E+00  0.18714320807E+04  0.18714320807E+04  0.50400001928E-02 0.  1.
       -1   -1    0    0    0  501  0.00000000000E+00  0.00000000000E+00 -0.12845785923E+04  0.12845785923E+04  0.50400001928E-02 0. -1.
    10030    2    1    2    0    0  0.00000000000E+00  0.00000000000E+00  0.58685348838E+03  0.31560106730E+04  0.31009686150E+04 0.  0.
        1    1    3    3  502    0  0.11398906322E+04 -0.89716848452E+03 -0.26377592290E+03  0.14743946828E+04  0.50400001928E-02 0. -1.
       -1    1    3    3    0  502 -0.11398906322E+04  0.89716848452E+03  0.85062941128E+03  0.16816159902E+04  0.50400001928E-02 0.  1.
</event>
<event>
 5   0  0.1318916E-07  0.3092098E+04  0.7818609E-02  0.8217910E-01
       -2   -1    0    0    0  501  0.00000000000E+00  0.00000000000E+00  0.12571808332E+04  0.12571808332E+04  0.25500000920E-02 0. -1.
        2   -1    0    0  501    0  0.00000000000E+00  0.00000000000E+00 -0.19012911809E+04  0.19012911809E+04  0.25500000920E-02 0.  1.
    10030    2    1    2    0    0  0.00000000000E+00  0.00000000000E+00 -0.64411034765E+03  0.31584720141E+04  0.30920975605E+04 0.  0.
        5    1    3    3  502    0  0.99527479069E+02 -0.62335677473E+03 -0.17636490600E+04  0.18732216859E+04  0.46999998093E+01 0.  1.
       -5    1    3    3    0  502 -0.99527479069E+02  0.62335677473E+03  0.11195387123E+04  0.12852503282E+04  0.46999998093E+01 0. -1.
</event>
<event>
 5   0  0.4517409E-08  0.3099965E+04  0.7818609E-02  0.8215748E-01
       -1   -1    0    0    0  501  0.00000000000E+00  0.00000000000E+00  0.12469494164E+04  0.12469494164E+04  0.50400001928E-02 0.  1.
        1   -1    0    0  501    0  0.00000000000E+00  0.00000000000E+00 -0.19266580370E+04  0.19266580370E+04  0.50400001928E-02 0. -1.
    10030    2    1    2    0    0  0.00000000000E+00  0.00000000000E+00 -0.67970862059E+03  0.31736074534E+04  0.30999645901E+04 0.  0.
        2    1    3    3  502    0 -0.10099136616E+04 -0.67613188948E+03  0.64495705284E+03  0.13758813669E+04  0.25500000920E-02 0.  1.
       -2    1    3    3    0  502  0.10099136616E+04  0.67613188948E+03 -0.13246656734E+04  0.17977260865E+04  0.25500000920E-02 0. -1.
</event>
<event>
 5   0  0.1329777E-07  0.3100552E+04  0.7818609E-02  0.8215586E-01
        2   -1    0    0  501    0  0.00000000000E+00  0.00000000000E+00  0.16734455229E+04  0.16734455229E+04  0.25500000920E-02 0.  1.
       -2   -1    0    0    0  501  0.00000000000E+00  0.00000000000E+00 -0.14361724537E+04  0.14361724537E+04  0.25500000920E-02 0. -1.
    10030    2    1    2    0    0  0.00000000000E+00  0.00000000000E+00  0.23727306916E+03  0.31096179766E+04  0.31005524429E+04 0.  0.
        1    1    3    3  502    0  0.31269489997E+03 -0.37271380419E+03 -0.13576260353E+04  0.14421657783E+04  0.50400001928E-02 0. -1.
       -1    1    3    3    0  502 -0.31269489997E+03  0.37271380419E+03  0.15948991044E+04  0.16674521983E+04  0.50400001928E-02 0.  1.
</event>
<event>
 5   0  0.1377237E-07  0.3100914E+04  0.7818609E-02  0.8215487E-01
        2   -1    0    0  501    0  0.00000000000E+00  0.00000000000E+00  0.19598064952E+04  0.19598064952E+04  0.25500000920E-02 0. -1.
       -2   -1    0    0    0  501  0.00000000000E+00  0.00000000000E+00 -0.12266095386E+04  0.12266095386E+04  0.25500000920E-02 0.  1.
    10030    2    1    2    0    0  0.00000000000E+00  0.00000000000E+00  0.73319695666E+03  0.31864160338E+04  0.31009142786E+04 0.  0.
        2    1    3    3  502    0 -0.37178264627E+03 -0.94212729914E+03  0.15728883764E+04  0.18707763171E+04  0.25500000920E-02 0. -1.
       -2    1    3    3    0  502  0.37178264627E+03  0.94212729914E+03 -0.83969141974E+03  0.13156397167E+04  0.25500000920E-02 0.  1.
</event>
<event>
 5   0  0.4305500E-08  0.3098178E+04  0.7818609E-02  0.8216238E-01
       -3   -1    0    0    0  501  0.00000000000E+00  0.00000000000E+00  0.20210183179E+04  0.20210183204E+04  0.10100000352E+00 0.  1.
        3   -1    0    0  501    0  0.00000000000E+00  0.00000000000E+00 -0.11873601886E+04  0.11873601929E+04  0.10100000352E+00 0. -1.
    10030    2    1    2    0    0  0.00000000000E+00  0.00000000000E+00  0.83365812934E+03  0.32083785133E+04  0.30981779820E+04 0.  0.
        3    1    3    3  502    0  0.12440524625E+04  0.92143130882E+03  0.36035011307E+03  0.15895138881E+04  0.10100000352E+00 0.  1.
       -3    1    3    3    0  502 -0.12440524625E+04 -0.92143130882E+03  0.47330801627E+03  0.16188646252E+04  0.10100000352E+00 0. -1.
</event>
<event>
 5   0  0.4450600E-08  0.3098574E+04  0.7818609E-02  0.8216129E-01
        1   -1    0    0  501    0  0.00000000000E+00  0.00000000000E+00  0.12648237897E+04  0.12648237898E+04  0.50400001928E-02 0.  1.
       -1   -1    0    0    0  501  0.00000000000E+00  0.00000000000E+00 -0.18977265892E+04  0.18977265892E+04  0.50400001928E-02 0. -1.
    10030    2    1    2    0    0  0.00000000000E+00  0.00000000000E+00 -0.63290279949E+03  0.31625503790E+04  0.30985736954E+04 0.  0.
        4    1    3    3  502    0  0.10209696035E+04 -0.39474010229E+03 -0.14354872870E+04  0.18052213282E+04  0.12699999809E+01 0. -1.
       -4    1    3    3    0  502 -0.10209696035E+04  0.39474010229E+03  0.80258448755E+03  0.13573290508E+04  0.12699999809E+01 0.  1.
</event>
<event>
 5   0  0.1325713E-07  0.3103554E+04  0.7818609E-02  0.8214763E-01
       -2   -1    0    0    0  501  0.00000000000E+00  0.00000000000E+00  0.12006946974E+04  0.12006946974E+04  0.25500000920E-02 0.  1.
        2   -1    0    0  501    0  0.00000000000E+00  0.00000000000E+00 -0.20055153923E+04  0.20055153923E+04  0.25500000920E-02 0. -1.
    10030    2    1    2    0    0  0.00000000000E+00  0.00000000000E+00 -0.80482069488E+03  0.32062100898E+04  0.31035538966E+04 0.  0.
        4    1    3    3  502    0  0.17270287317E+03 -0.99003318930E+03 -0.16238979954E+04  0.19097220507E+04  0.12699999809E+01 0. -1.
       -4    1    3    3    0  502 -0.17270287317E+03  0.99003318930E+03  0.81907730056E+03  0.12964880391E+04  0.12699999809E+01 0.  1.
</event>
<event>
 5   0  0.1318916E-07  0.3099811E+04  0.7818609E-02  0.8215790E-01
        2   -1    0    0  501    0  0.00000000000E+00  0.00000000000E+00  0.13336890137E+04  0.13336890137E+04  0.25500000920E-02 0.  1.
       -2   -1    0    0    0  501  0.00000000000E+00  0.00000000000E+00 -0.18011751080E+04  0.18011751080E+04  0.25500000920E-02 0. -1.
    10030    2    1    2    0    0  0.00000000000E+00  0.00000000000E+00 -0.46748609425E+03  0.31348641217E+04  0.30998112544E+04 0.  0.
        5    1    3    3  502    0  0.24843169220E+03 -0.35391378412E+03  0.12714462699E+04  0.13429709526E+04  0.46999998093E+01 0.  1.
       -5    1    3    3    0  502 -0.24843169220E+03  0.35391378412E+03 -0.17389323641E+04  0.17918931691E+04  0.46999998093E+01 0. -1.
</event>
<event>
 5   0  0.4470354E-08  0.3100169E+04  0.7818609E-02  0.8215692E-01
       -1   -1    0    0    0  501  0.00000000000E+00  0.00000000000E+00  0.13214092125E+04  0.13214092125E+04  0.50400001928E-02 0.  1.
        1   -1    0    0  501    0  0.00000000000E+00  0.00000000000E+00 -0.18183328276E+04  0.18183328276E+04  0.50400001928E-02 0. -1.
    10030    2    1    2    0    0  0.00000000000E+00  0.00000000000E+00 -0.49692361514E+03  0.31397420401E+04  0.31001688662E+04 0.  0.
        1    1    3    3  502    0  0.10864605718E+04  0.74054279970E+03  0.58296911696E+03  0.14382813367E+04  0.50400001928E-02 0.  1.
       -1    1    3    3    0  502 -0.10864605718E+04 -0.74054279970E+03 -0.10798927321E+04  0.17014607034E+04  0.50400001928E-02 0. -1.
</event>
<event>
 5   0  0.1325713E-07  0.3099578E+04  0.7818609E-02  0.8215854E-01
        2   -1    0    0  501    0  0.00000000000E+00  0.00000000000E+00  0.20516719561E+04  0.20516719561E+04  0.25500000920E-02 0.  1.
       -2   -1    0    0    0  501  0.00000000000E+00  0.00000000000E+00 -0.11706772428E+04  0.11706772428E+04  0.25500000920E-02 0. -1.
    10030    2    1    2    0    0  0.00000000000E+00  0.00000000000E+00  0.88099471330E+03  0.32223491990E+04  0.30995778221E+04 0.  0.
        4    1    3    3  502    0 -0.14249512387E+04  0.11742529069E+03 -0.18115872154E+03  0.14412129707E+04  0.12699999809E+01 0. -1.
       -4    1    3    3    0  502  0.14249512387E+04 -0.11742529069E+03  0.10621534348E+04  0.17811362283E+04  0.12699999809E+01 0.  1.
</event>
<event>
 5   0  0.4436241E-08  0.3099137E+04  0.7818609E-02  0.8215975E-01
        1   -1    0    0  501    0  0.00000000000E+00  0.00000000000E+00  0.16737117314E+04  0.16737117314E+04  0.50400001928E-02 0. -1.
       -1   -1    0    0    0  501  0.00000000000E+00  0.00000000000E+00 -0.14346334027E+04  0.14346334027E+04  0.50400001928E-02 0.  1.
    10030    2    1    2    0    0  0.00000000000E+00  0.00000000000E+00  0.23907832867E+03  0.31083451342E+04  0.30991371421E+04 0.  0.
        3    1    3    3  502    0 -0.10503915177E+04 -0.63394234180E+03  0.10689018270E+04  0.16271927849E+04  0.10100000352E+00 0. -1.
       -3    1    3    3    0  502  0.10503915177E+04  0.63394234180E+03 -0.82982349829E+03  0.14811523493E+04  0.10100000352E+00 0.  1.
</event>
<event>
 5   0  0.4517409E-08  0.3100081E+04  0.7818609E-02  0.8215716E-01
        1   -1    0    0  501    0  0.00000000000E+00  0.00000000000E+00  0.23717745735E+04  0.23717745735E+04  0.50400001928E-02 0.  1.
       -1   -1    0    0    0  501  0.00000000000E+00  0.00000000000E+00 -0.10130078088E+04  0.10130078089E+04  0.50400001928E-02 0. -1.
    10030    2    1    2    0    0  0.00000000000E+00  0.00000000000E+00  0.13587667646E+04  0.33847823823E+04  0.31000813949E+04 0.  0.
        2    1    3    3  502    0 -0.22795191489E+03 -0.19438756715E+03  0.23398646348E+04  0.23589648388E+04  0.25500000920E-02 0.  1.
       -2    1    3    3    0  502  0.22795191489E+03  0.19438756715E+03 -0.98109787014E+03  0.10258175435E+04  0.25500000920E-02 0. -1.
</event>
<event>
 5   0  0.4517409E-08  0.3101837E+04  0.7818609E-02  0.8215234E-01
        1   -1    0    0  501    0  0.00000000000E+00  0.00000000000E+00  0.16550018001E+04  0.16550018001E+04  0.50400001928E-02 0. -1.
       -1   -1    0    0    0  501  0.00000000000E+00  0.00000000000E+00 -0.14533807405E+04  0.14533807405E+04  0.50400001928E-02 0.  1.
    10030    2    1    2    0    0  0.00000000000E+00  0.00000000000E+00  0.20162105957E+03  0.31083825407E+04  0.31018367087E+04 0.  0.
        2    1    3    3  502    0 -0.12069815124E+04  0.92646462249E+03 -0.20016754832E+03  0.15346687315E+04  0.25500000920E-02 0.  1.
       -2    1    3    3    0  502  0.12069815124E+04 -0.92646462249E+03  0.40178860789E+03  0.15737138092E+04  0.25500000920E-02 0. -1.
</event>
<event>
 5   0  0.4470354E-08  0.3099139E+04  0.7818609E-02  0.8215974E-01
        1   -1    0    0  501    0  0.00000000000E+00  0.00000000000E+00  0.15358245613E+04  0.15358245613E+04  0.50400001928E-02 0. -1.
       -1   -1    0    0    0  501  0.00000000000E+00  0.00000000000E+00 -0.15634379350E+04  0.15634379350E+04  0.50400001928E-02 0.  1.
    10030    2    1    2    0    0  0.00000000000E+00  0.00000000000E+00 -0.27613373641E+02  0.30992624963E+04  0.30991394810E+04 0.  0.
        1    1    3    3  502    0 -0.24582059747E+02  0.11445211450E+04  0.10305687414E+04  0.15403262187E+04  0.50400001928E-02 0. -1.
       -1    1    3    3    0  502  0.24582059747E+02 -0.11445211450E+04 -0.10581821151E+04  0.15589362776E+04  0.50400001928E-02 0.  1.
</event>
<event>
 5   0  0.4838602E-08  0.3100431E+04  0.7818609E-02  0.8215620E-01
        1   -1    0    0  501    0  0.00000000000E+00  0.00000000000E+00  0.14790895392E+04  0.14790895392E+04  0.50400001928E-02 0. -1.
       -1   -1    0    0    0  501  0.00000000000E+00  0.00000000000E+00 -0.16247621879E+04  0.16247621879E+04  0.50400001928E-02 0.  1.
    10030    2    1    2    0    0  0.00000000000E+00  0.00000000000E+00 -0.14567264873E+03  0.31038517271E+04  0.31004314253E+04 0.  0.
        5    1    3    3  502    0 -0.83560055470E+02  0.54270766084E+03 -0.15241365174E+04  0.16200395371E+04  0.46999998093E+01 0.  1.
       -5    1    3    3    0  502  0.83560055470E+02 -0.54270766084E+03  0.13784638687E+04  0.14838121900E+04  0.46999998093E+01 0. -1.
</event>
<event>
 5   0  0.4517409E-08  0.3100433E+04  0.7818609E-02  0.8215619E-01
        1   -1    0    0  501    0  0.00000000000E+00  0.00000000000E+00  0.20764814630E+04  0.20764814630E+04  0.50400001928E-02 0. -1.
       -1   -1    0    0    0  501  0.00000000000E+00  0.00000000000E+00 -0.11573282650E+04  0.11573282650E+04  0.50400001928E-02 0.  1.
    10030    2    1    2    0    0  0.00000000000E+00  0.00000000000E+00  0.91915319803E+03  0.32338097279E+04  0.31004326722E+04 0.  0.
        2    1    3    3  502    0 -0.98021000335E+02 -0.12096536008E+03 -0.11491527526E+04  0.11596520097E+04  0.25500000920E-02 0.  1.
       -2    1    3    3    0  502  0.98021000335E+02  0.12096536008E+03  0.20683059506E+04  0.20741577182E+04  0.25500000920E-02 0. -1.
</event>
<event>
 5   0  0.1325713E-07  0.3100469E+04  0.7818609E-02  0.8215609E-01
        2   -1    0    0  501    0  0.00000000000E+00  0.00000000000E+00  0.13633207224E+04  0.13633207224E+04  0.25500000920E-02 0. -1.
       -2   -1    0    0    0  501  0.00000000000E+00  0.00000000000E+00 -0.17627746551E+04  0.17627746551E+04  0.25500000920E-02 0.  1.
    10030    2    1    2    0    0  0.00000000000E+00  0.00000000000E+00 -0.39945393266E+03  0.31260953775E+04  0.31004691363E+04 0.  0.
        4    1    3    3  502    0  0.10852254734E+04  0.63487509751E+03 -0.11141101153E+04  0.16798879962E+04  0.12699999809E+01 0. -1.
       -4    1    3    3    0  502 -0.10852254734E+04 -0.63487509751E+03  0.71465618267E+03  0.14462073814E+04  0.12699999809E+01 0.  1.
</event>
<event>
 5   0  0.1325713E-07  0.3099975E+04  0.7818609E-02  0.8215745E-01
        2   -1    0    0  501    0  0.00000000000E+00  0.00000000000E+00  0.20806196925E+04  0.20806196925E+04  0.25500000920E-02 0.  1.
       -2   -1    0    0    0  501  0.00000000000E+00  0.00000000000E+00 -0.11546857754E+04  0.11546857754E+04  0.25500000920E-02 0. -1.
    10030    2    1    2    0    0  0.00000000000E+00  0.00000000000E+00  0.92593391706E+03  0.32353054679E+04  0.30999754599E+04 0.  0.
        4    1    3    3  502    0  0.41185845058E+03 -0.22340912708E+03  0.20049375041E+04  0.20589596960E+04  0.12699999809E+01 0.  1.
       -4    1    3    3    0  502 -0.41185845058E+03  0.22340912708E+03 -0.10790035871E+04  0.11763457719E+04  0.12699999809E+01 0. -1.
</event>
<event>
 5   0  0.1329777E-07  0.3100335E+04  0.7818609E-02  0.8215646E-01
       -2   -1    0    0    0  501  0.00000000000E+00  0.00000000000E+00  0.11222730965E+04  0.11222730965E+04  0.25500000920E-02 0.  1.
        2   -1    0    0  501    0  0.00000000000E+00  0.00000000000E+00 -0.21412078556E+04  0.21412078556E+04  0.25500000920E-02 0. -1.
    10030    2    1    2    0    0  0.00000000000E+00  0.00000000000E+00 -0.10189347590E+04  0.32634809521E+04  0.31003354466E+04 0.  0.
        1    1    3    3  502    0  0.10939414480E+04  0.63085616105E+03 -0.14558514878E+04  0.19272236357E+04  0.50400001928E-02 0. -1.
       -1    1    3    3    0  502 -0.10939414480E+04 -0.63085616105E+03  0.43691672874E+03  0.13362573164E+04  0.50400001928E-02 0.  1.
</event>
<event>
 5   0  0.4450600E-08  0.3100634E+04  0.7818609E-02  0.8215564E-01
        1   -1    0    0  501    0  0.00000000000E+00  0.00000000000E+00  0.10970451050E+04  0.10970451050E+04  0.50400001928E-02 0.  1.
       -1   -1    0    0    0  501  0.00000000000E+00  0.00000000000E+00 -0.21908701528E+04  0.21908701529E+04  0.50400001928E-02 0. -1.
    10030    2    1    2    0    0  0.00000000000E+00  0.00000000000E+00 -0.10938250478E+04  0.32879152579E+04  0.31006343718E+04 0.  0.
        4    1    3    3  502    0  0.12332989431E+04 -0.41332969573E+03  0.34761212795E+03  0.13463667869E+04  0.12699999809E+01 0.  1.
       -4    1    3    3    0  502 -0.12332989431E+04  0.41332969573E+03 -0.14414371758E+04  0.19415484710E+04  0.12699999809E+01 0. -1.
</event>
<event>
 5   0  0.4450600E-08  0.3095730E+04  0.7818609E-02  0.8216911E-01
        1   -1    0    0  501    0  0.00000000000E+00  0.00000000000E+00  0.18376700503E+04  0.18376700503E+04  0.50400001928E-02 0. -1.
       -1   -1    0    0    0  501  0.00000000000E+00  0.00000000000E+00 -0.13037630597E+04  0.13037630597E+04  0.50400001928E-02 0.  1.
    10030    2    1    2    0    0  0.00000000000E+00  0.00000000000E+00  0.53390699063E+03  0.31414331099E+04  0.30957301739E+04 0.  0.
        4    1    3    3  502    0 -0.38451224188E+03  0.57195852794E+03 -0.11394726278E+04  0.13316852872E+04  0.12699999809E+01 0.  1.
       -4    1    3    3    0  502  0.38451224188E+03 -0.57195852794E+03  0.16733796184E+04  0.18097478228E+04  0.12699999809E+01 0. -1.
</event>
<event>
 5   0  0.1318916E-07  0.3100523E+04  0.7818609E-02  0.8215594E-01
        2   -1    0    0  501    0  0.00000000000E+00  0.00000000000E+00  0.20128151394E+04  0.20128151394E+04  0.25500000920E-02 0. -1.
       -2   -1    0    0    0  501  0.00000000000E+00  0.00000000000E+00 -0.11940045343E+04  0.11940045344E+04  0.25500000920E-02 0.  1.
    10030    2    1    2    0    0  0.00000000000E+00  0.00000000000E+00  0.81881060503E+03  0.32068196737E+04  0.31005227967E+04 0.  0.
        5    1    3    3  502    0  0.13440535264E+04  0.39784292155E+03  0.10943239465E+04  0.17782929629E+04  0.46999998093E+01 0. -1.
       -5    1    3    3    0  502 -0.13440535264E+04 -0.39784292155E+03 -0.27551334146E+03  0.14285267108E+04  0.46999998093E+01 0.  1.
</event>
<event>
 5   0  0.4838602E-08  0.3101750E+04  0.7818609E-02  0.8215258E-01
       -1   -1    0    0    0  501  0.00000000000E+00  0.00000000000E+00  0.13806128332E+04  0.13806128332E+04  0.50400001928E-02 0. -1.
        1   -1    0    0  501    0  0.00000000000E+00  0.00000000000E+00 -0.17421348875E+04  0.17421348875E+04  0.50400001928E-02 0.  1.
    10030    2    1    2    0    0  0.00000000000E+00  0.00000000000E+00 -0.36152205428E+03  0.31227477207E+04  0.31017503335E+04 0.  0.
        5    1    3    3  502    0 -0.10099927446E+04 -0.47729804364E+03  0.90229696565E+03  0.14359876987E+04  0.46999998093E+01 0. -1.
       -5    1    3    3    0  502  0.10099927446E+04  0.47729804364E+03 -0.12638190199E+04  0.16867600220E+04  0.46999998093E+01 0.  1.
</event>
<event>
 5   0  0.4838602E-08  0.3100888E+04  0.7818609E-02  0.8215494E-01
       -1   -1    0    0    0  501  0.00000000000E+00  0.00000000000E+00  0.10792656781E+04  0.10792656781E+04  0.50400001928E-02 0.  1.
        1   -1    0    0  501    0  0.00000000000E+00  0.00000000000E+00 -0.22273257110E+04  0.22273257110E+04  0.50400001928E-02 0. -1.
    10030    2    1    2    0    0  0.00000000000E+00  0.00000000000E+00 -0.11480600330E+04  0.33065913891E+04  0.31008877398E+04 0.  0.
        5    1    3    3  502    0 -0.58853258578E+03  0.25441287161E+03 -0.20793253748E+04  0.21759394795E+04  0.46999998093E+01 0. -1.
       -5    1    3    3    0  502  0.58853258578E+03 -0.25441287161E+03  0.93126534188E+03  0.11306519096E+04  0.46999998093E+01 0.  1.
</event>
<event>
 5   0  0.1377237E-07  0.3099735E+04  0.7818609E-02  0.8215811E-01
       -2   -1    0    0    0  501  0.00000000000E+00  0.00000000000E+00  0.21573743647E+04  0.21573743647E+04  0.25500000920E-02 0. -1.
        2   -1    0    0  501    0  0.00000000000E+00  0.00000000000E+00 -0.11134316351E+04  0.11134316351E+04  0.25500000920E-02 0.  1.
    10030    2    1    2    0    0  0.00000000000E+00  0.00000000000E+00  0.10439427296E+04  0.32708059998E+04  0.30997347412E+04 0.  0.
        2    1    3    3  502    0  0.39986456314E+02 -0.85840425215E+03 -0.83903106121E+03  0.12010120309E+04  0.25500000920E-02 0.  1.
       -2    1    3    3    0  502 -0.39986456314E+02  0.85840425215E+03  0.18829737908E+04  0.20697939689E+04  0.25500000920E-02 0. -1.
</event>
<event>
 5   0  0.4436241E-08  0.3098204E+04  0.7818609E-02  0.8216231E-01
        1   -1    0    0  501    0  0.00000000000E+00  0.00000000000E+00  0.16453779842E+04  0.16453779842E+04  0.50400001928E-02 0. -1.
       -1   -1    0    0    0  501  0.00000000000E+00  0.00000000000E+00 -0.14584591711E+04  0.14584591711E+04  0.50400001928E-02 0.  1.
    10030    2    1    2    0    0  0.00000000000E+00  0.00000000000E+00  0.18691881306E+03  0.31038371553E+04  0.30982037448E+04 0.  0.
        3    1    3    3  502    0  0.14151995616E+04 -0.21064870617E+03 -0.50138273671E+03  0.15160960838E+04  0.10100000352E+00 0.  1.
       -3    1    3    3    0  502 -0.14151995616E+04  0.21064870617E+03  0.68830154978E+03  0.15877410715E+04  0.10100000352E+00 0. -1.
</event>
<event>
 5   0  0.1398931E-07  0.3099530E+04  0.7818609E-02  0.8215867E-01
        2   -1    0    0  501    0  0.00000000000E+00  0.00000000000E+00  0.80343458752E+03  0.80343458752E+03  0.25500000920E-02 0.  1.
       -2   -1    0    0    0  501  0.00000000000E+00  0.00000000000E+00 -0.29893794023E+04  0.29893794023E+04  0.25500000920E-02 0. -1.
    10030    2    1    2    0    0  0.00000000000E+00  0.00000000000E+00 -0.21859448148E+04  0.37928139898E+04  0.30995295172E+04 0.  0.
        3    1    3    3  502    0 -0.68393201678E+03  0.11827582365E+04 -0.19785606071E+03  0.13805169613E+04  0.10100000352E+00 0.  1.
       -3    1    3    3    0  502  0.68393201678E+03 -0.11827582365E+04 -0.19880887541E+04  0.24122970285E+04  0.10100000352E+00 0. -1.
</event>
<event>
 5   0  0.1325713E-07  0.3099299E+04  0.7818609E-02  0.8215930E-01
        2   -1    0    0  501    0  0.00000000000E+00  0.00000000000E+00  0.24393442315E+04  0.24393442315E+04  0.25500000920E-02 0.  1.
       -2   -1    0    0    0  501  0.00000000000E+00  0.00000000000E+00 -0.98445025650E+03  0.98445025650E+03  0.25500000920E-02 0. -1.
    10030    2    1    2    0    0  0.00000000000E+00  0.00000000000E+00  0.14548939750E+04  0.34237944880E+04  0.30992986655E+04 0.  0.
        4    1    3    3  502    0 -0.13790577120E+04 -0.66384202408E+03  0.45928687114E+03  0.15979463223E+04  0.12699999809E+01 0.  1.
       -4    1    3    3    0  502  0.13790577120E+04  0.66384202408E+03  0.99560710389E+03  0.18258481657E+04  0.12699999809E+01 0. -1.
</event>
<event>
 5   0  0.1325713E-07  0.3121177E+04  0.7818609E-02  0.8209950E-01
       -2   -1    0    0    0  501  0.00000000000E+00  0.00000000000E+00  0.12978808130E+04  0.12978808130E+04  0.25500000920E-02 0. -1.
        2   -1    0    0  501    0  0.00000000000E+00  0.00000000000E+00 -0.18764710801E+04  0.18764710801E+04  0.25500000920E-02 0.  1.
    10030    2    1    2    0    0  0.00000000000E+00  0.00000000000E+00 -0.57859026709E+03  0.31743518931E+04  0.31211765801E+04 0.  0.
        4    1    3    3  502    0 -0.45321027547E+02 -0.29242041480E+03  0.12690864214E+04  0.13031291772E+04  0.12699999809E+01 0. -1.
       -4    1    3    3    0  502  0.45321027547E+02  0.29242041480E+03 -0.18476766885E+04  0.18712227159E+04  0.12699999809E+01 0.  1.
</event>
<event>
 5   0  0.4450600E-08  0.3102997E+04  0.7818609E-02  0.8214916E-01
        1   -1    0    0  501    0  0.00000000000E+00  0.00000000000E+00  0.16389032315E+04  0.16389032315E+04  0.50400001928E-02 0. -1.
       -1   -1    0    0    0  501  0.00000000000E+00  0.00000000000E+00 -0.14687550884E+04  0.14687550884E+04  0.50400001928E-02 0.  1.
    10030    2    1    2    0    0  0.00000000000E+00  0.00000000000E+00  0.17014814311E+03  0.31076583198E+04  0.31029969130E+04 0.  0.
        4    1    3    3  502    0  0.23620867615E+03 -0.75749380999E+03 -0.12501783503E+04  0.14807224356E+04  0.12699999809E+01 0.  1.
       -4    1    3    3    0  502 -0.23620867615E+03  0.75749380999E+03  0.14203264934E+04  0.16269358843E+04  0.12699999809E+01 0. -1.
</event>
<event>
 5   0  0.1329777E-07  0.3101700E+04  0.7818609E-02  0.8215271E-01
       -2   -1    0    0    0  501  0.00000000000E+00  0.00000000000E+00  0.12317134361E+04  0.12317134361E+04  0.25500000920E-02 0.  1.
        2   -1    0    0  501    0  0.00000000000E+00  0.00000000000E+00 -0.19526751977E+04  0.19526751977E+04  0.25500000920E-02 0. -1.
    10030    2    1    2    0    0  0.00000000000E+00  0.00000000000E+00 -0.72096176159E+03  0.31843886337E+04  0.31017003577E+04 0.  0.
        1    1    3    3  502    0  0.14708165438E+04 -0.33161468780E+03  0.12334434998E+02  0.15077870357E+04  0.50400001928E-02 0.  1.
       -1    1    3    3    0  502 -0.14708165438E+04  0.33161468780E+03 -0.73329619659E+03  0.16766015981E+04  0.50400001928E-02 0. -1.
</event>
<event>
 5   0  0.4470354E-08  0.3101331E+04  0.7818609E-02  0.8215373E-01
       -1   -1    0    0    0  501  0.00000000000E+00  0.00000000000E+00  0.13438375049E+04  0.13438375049E+04  0.50400001928E-02 0.  1.
        1   -1    0    0  501    0  0.00000000000E+00  0.00000000000E+00 -0.17893265084E+04  0.17893265084E+04  0.50400001928E-02 0. -1.
    10030    2    1    2    0    0  0.00000000000E+00  0.00000000000E+00 -0.44548900355E+03  0.31331640133E+04  0.31013313725E+04 0.  0.
        1    1    3    3  502    0  0.15493780488E+03 -0.15429032281E+04 -0.22559765716E+03  0.15669876826E+04  0.50400001928E-02 0.  1.
       -1    1    3    3    0  502 -0.15493780488E+03  0.15429032281E+04 -0.21989134639E+03  0.15661763307E+04  0.50400001928E-02 0. -1.
</event>
<event>
 5   0  0.4838602E-08  0.3099691E+04  0.7818609E-02  0.8215823E-01
        1   -1    0    0  501    0  0.00000000000E+00  0.00000000000E+00  0.15946798484E+04  0.15946798484E+04  0.50400001928E-02 0.  1.
       -1   -1    0    0    0  501  0.00000000000E+00  0.00000000000E+00 -0.15062713684E+04  0.15062713684E+04  0.50400001928E-02 0. -1.
    10030    2    1    2    0    0  0.00000000000E+00  0.00000000000E+00  0.88408479988E+02  0.31009512168E+04  0.30996906926E+04 0.  0.
        5    1    3    3  502    0  0.86829903242E+03  0.99691061339E+03 -0.76496615639E+03  0.15274060663E+04  0.46999998093E+01 0.  1.
       -5    1    3    3    0  502 -0.86829903242E+03 -0.99691061339E+03  0.85337463638E+03  0.15735451505E+04  0.46999998093E+01 0. -1.
</event>
<event>
 5   0  0.1329777E-07  0.3103974E+04  0.7818609E-02  0.8214648E-01
        2   -1    0    0  501    0  0.00000000000E+00  0.00000000000E+00  0.10829997302E+04  0.10829997302E+04  0.25500000920E-02 0.  1.
       -2   -1    0    0    0  501  0.00000000000E+00  0.00000000000E+00 -0.22240672429E+04  0.22240672429E+04  0.25500000920E-02 0. -1.
    10030    2    1    2    0    0  0.00000000000E+00  0.00000000000E+00 -0.11410675127E+04  0.33070669731E+04  0.31039743710E+04 0.  0.
        1    1    3    3  502    0  0.82079893733E+03  0.49534311423E+03  0.72980953922E+03  0.12048641666E+04  0.50400001928E-02 0.  1.
       -1    1    3    3    0  502 -0.82079893733E+03 -0.49534311423E+03 -0.18708770519E+04  0.21022028065E+04  0.50400001928E-02 0. -1.
</event>
<event>
 5   0  0.4838602E-08  0.3101701E+04  0.7818609E-02  0.8215271E-01
       -1   -1    0    0    0  501  0.00000000000E+00  0.00000000000E+00  0.10737744354E+04  0.10737744354E+04  0.50400001928E-02 0.  1.
        1   -1    0    0  501    0  0.00000000000E+00  0.00000000000E+00 -0.22398907450E+04  0.22398907451E+04  0.50400001928E-02 0. -1.
    10030    2    1    2    0    0  0.00000000000E+00  0.00000000000E+00 -0.11661163096E+04  0.33136651805E+04  0.31017010947E+04 0.  0.
        5    1    3    3  502    0 -0.83932530211E+03 -0.12400779284E+04 -0.15192704562E+03  0.15051126697E+04  0.46999998093E+01 0.  1.
       -5    1    3    3    0  502  0.83932530211E+03  0.12400779284E+04 -0.10141892640E+04  0.18085525108E+04  0.46999998093E+01 0. -1.
</event>
<event>
 5   0  0.4436241E-08  0.3099654E+04  0.7818609E-02  0.8215833E-01
       -1   -1    0    0    0  501  0.00000000000E+00  0.00000000000E+00  0.10560416704E+04  0.10560416704E+04  0.50400001928E-02 0.  1.
        1   -1    0    0  501    0  0.00000000000E+00  0.00000000000E+00 -0.22744964436E+04  0.22744964436E+04  0.50400001928E-02 0. -1.
    10030    2    1    2    0    0  0.00000000000E+00  0.00000000000E+00 -0.12184547732E+04  0.33305381140E+04  0.30996535443E+04 0.  0.
        3    1    3    3  502    0  0.15731608870E+03 -0.13798620832E+03  0.10407926579E+04  0.10616204182E+04  0.10100000352E+00 0.  1.
       -3    1    3    3    0  502 -0.15731608870E+03  0.13798620832E+03 -0.22592474311E+04  0.22689176958E+04  0.10100000352E+00 0. -1.
</event>
<event>
 5   0  0.4450600E-08  0.3101341E+04  0.7818609E-02  0.8215370E-01
       -1   -1    0    0    0  501  0.00000000000E+00  0.00000000000E+00  0.16771541656E+04  0.16771541656E+04  0.50400001928E-02 0.  1.
        1   -1    0    0  501    0  0.00000000000E+00  0.00000000000E+00 -0.14337256602E+04  0.14337256602E+04  0.50400001928E-02 0. -1.
    10030    2    1    2    0    0  0.00000000000E+00  0.00000000000E+00  0.24342850536E+03  0.31108798258E+04  0.31013409766E+04 0.  0.
        4    1    3    3  502    0 -0.70542867842E+03 -0.39514738307E+03 -0.12055358405E+04  0.14515816720E+04  0.12699999809E+01 0. -1.
       -4    1    3    3    0  502  0.70542867842E+03  0.39514738307E+03  0.14489643459E+04  0.16592981538E+04  0.12699999809E+01 0.  1.
</event>
<event>
 5   0  0.1318916E-07  0.3092962E+04  0.7818609E-02  0.8217672E-01
       -2   -1    0    0    0  501  0.00000000000E+00  0.00000000000E+00  0.16161805568E+04  0.16161805568E+04  0.25500000920E-02 0. -1.
        2   -1    0    0  501    0  0.00000000000E+00  0.00000000000E+00 -0.14797874852E+04  0.14797874852E+04  0.25500000920E-02 0.  1.
    10030    2    1    2    0    0  0.00000000000E+00  0.00000000000E+00  0.13639307161E+03  0.30959680420E+04  0.30929621800E+04 0.  0.
        5    1    3    3  502    0  0.95032289253E+03  0.12072542306E+04  0.24445086303E+03  0.15557489167E+04  0.46999998093E+01 0. -1.
       -5    1    3    3    0  502 -0.95032289253E+03 -0.12072542306E+04 -0.10805779142E+03  0.15402191252E+04  0.46999998093E+01 0.  1.
</event>
<event>
 5   0  0.1329777E-07  0.3099891E+04  0.7818609E-02  0.8215768E-01
        2   -1    0    0  501    0  0.00000000000E+00  0.00000000000E+00  0.22855109027E+04  0.22855109027E+04  0.25500000920E-02 0.  1.
       -2   -1    0    0    0  501  0.00000000000E+00  0.00000000000E+00 -0.10511131928E+04  0.10511131928E+04  0.25500000920E-02 0. -1.
    10030    2    1    2    0    0  0.00000000000E+00  0.00000000000E+00  0.12343977100E+04  0.33366240955E+04  0.30998907478E+04 0.  0.
        1    1    3    3  502    0  0.26098022752E+03 -0.40864789936E+03  0.22017748881E+04  0.22545324221E+04  0.50400001928E-02 0.  1.
       -1    1    3    3    0  502 -0.26098022752E+03  0.40864789936E+03 -0.96737717809E+03  0.10820916733E+04  0.50400001928E-02 0. -1.
</event>
<event>
 5   0  0.4517409E-08  0.3099547E+04  0.7818609E-02  0.8215862E-01
       -1   -1    0    0    0  501  0.00000000000E+00  0.00000000000E+00  0.10909438942E+04  0.10909438942E+04  0.50400001928E-02 0. -1.
        1   -1    0    0  501    0  0.00000000000E+00  0.00000000000E+00 -0.22015783124E+04  0.22015783124E+04  0.50400001928E-02 0.  1.
    10030    2    1    2    0    0  0.00000000000E+00  0.00000000000E+00 -0.11106344182E+04  0.32925222067E+04  0.30995473332E+04 0.  0.
        2    1    3    3  502    0 -0.30576146778E+03 -0.10030519610E+04 -0.17675009915E+04  0.20551552414E+04  0.25500000920E-02 0.  1.
       -2    1    3    3    0  502  0.30576146778E+03  0.10030519610E+04  0.65686657325E+03  0.12373669652E+04  0.25500000920E-02 0. -1.
</event>
<event>
 5   0  0.4838602E-08  0.3099538E+04  0.7818609E-02  0.8215865E-01
        1   -1    0    0  501    0  0.00000000000E+00  0.00000000000E+00  0.14122393127E+04  0.14122393127E+04  0.50400001928E-02 0. -1.
       -1   -1    0    0    0  501  0.00000000000E+00  0.00000000000E+00 -0.17006917031E+04  0.17006917031E+04  0.50400001928E-02 0.  1.
    10030    2    1    2    0    0  0.00000000000E+00  0.00000000000E+00 -0.28845239044E+03  0.31129310158E+04  0.30995378248E+04 0.  0.
        5    1    3    3  502    0  0.13500263334E+04 -0.59803973773E+03 -0.61693927087E+03  0.16002683471E+04  0.46999998093E+01 0.  1.
       -5    1    3    3    0  502 -0.13500263334E+04  0.59803973773E+03  0.32848688043E+03  0.15126626687E+04  0.46999998093E+01 0. -1.
</event>
<event>
 5   0  0.1398931E-07  0.3099832E+04  0.7818609E-02  0.8215784E-01
       -2   -1    0    0    0  501  0.00000000000E+00  0.00000000000E+00  0.10893714804E+04  0.10893714804E+04  0.25500000920E-02 0.  1.
        2   -1    0    0  501    0  0.00000000000E+00  0.00000000000E+00 -0.22051605417E+04  0.22051605417E+04  0.25500000920E-02 0. -1.
    10030    2    1    2    0    0  0.00000000000E+00  0.00000000000E+00 -0.11157890613E+04  0.32945320221E+04  0.30998316108E+04 0.  0.
        3    1    3    3  502    0 -0.77945797485E+03 -0.53436995157E+03 -0.18635223357E+04  0.20894548297E+04  0.10100000352E+00 0. -1.
       -3    1    3    3    0  502  0.77945797485E+03  0.53436995157E+03  0.74773327438E+03  0.12050771923E+04  0.10100000352E+00 0.  1.
</event>
<event>
 5   0  0.1329777E-07  0.3099868E+04  0.7818609E-02  0.8215774E-01
       -2   -1    0    0    0  501  0.00000000000E+00  0.00000000000E+00  0.12787049503E+04  0.12787049503E+04  0.25500000920E-02 0. -1.
        2   -1    0    0  501    0  0.00000000000E+00  0.00000000000E+00 -0.18786944438E+04  0.18786944438E+04  0.25500000920E-02 0.  1.
    10030    2    1    2    0    0  0.00000000000E+00  0.00000000000E+00 -0.59998949351E+03  0.31573993942E+04  0.30998683104E+04 0.  0.
        1    1    3    3  502    0  0.80508894549E+03 -0.25178577711E+02  0.10487767628E+04  0.13223973945E+04  0.50400001928E-02 0. -1.
       -1    1    3    3    0  502 -0.80508894549E+03  0.25178577711E+02 -0.16487662563E+04  0.18350019997E+04  0.50400001928E-02 0.  1.
</event>
<event>
 5   0  0.4305500E-08  0.3099383E+04  0.7818609E-02  0.8215907E-01
        3   -1    0    0  501    0  0.00000000000E+00  0.00000000000E+00  0.14046136371E+04  0.14046136407E+04  0.10100000352E+00 0. -1.
       -3   -1    0    0    0  501  0.00000000000E+00  0.00000000000E+00 -0.17097537119E+04  0.17097537149E+04  0.10100000352E+00 0.  1.
    10030    2    1    2    0    0  0.00000000000E+00  0.00000000000E+00 -0.30514007483E+03  0.31143673556E+04  0.30993827709E+04 0.  0.
        4    1    3    3  502    0 -0.45279965879E+03  0.82321679136E+03 -0.13909359042E+04  0.16785165233E+04  0.12699999809E+01 0.  1.
       -4    1    3    3    0  502  0.45279965879E+03 -0.82321679136E+03  0.10857958294E+04  0.14358508323E+04  0.12699999809E+01 0. -1.
</event>
<event>
 5   0  0.4517409E-08  0.3100283E+04  0.7818609E-02  0.8215660E-01
        1   -1    0    0  501    0  0.00000000000E+00  0.00000000000E+00  0.23369329538E+04  0.23369329538E+04  0.50400001928E-02 0.  1.
       -1   -1    0    0    0  501  0.00000000000E+00  0.00000000000E+00 -0.10282448527E+04  0.10282448527E+04  0.50400001928E-02 0. -1.
    10030    2    1    2    0    0  0.00000000000E+00  0.00000000000E+00  0.13086881011E+04  0.33651778065E+04  0.31002833940E+04 0.  0.
        2    1    3    3  502    0 -0.11322395328E+04 -0.98443065438E+03  0.23134296113E+03  0.15180874937E+04  0.25500000920E-02 0. -1.
       -2    1    3    3    0  502  0.11322395328E+04  0.98443065438E+03  0.10773451400E+04  0.18470903128E+04  0.25500000920E-02 0.  1.
</event>
<event>
 5   0  0.4838602E-08  0.3100558E+04  0.7818609E-02  0.8215585E-01
        1   -1    0    0  501    0  0.00000000000E+00  0.00000000000E+00  0.26382682218E+04  0.26382682219E+04  0.50400001928E-02 0. -1.
       -1   -1    0    0    0  501  0.00000000000E+00  0.00000000000E+00 -0.91096319412E+03  0.91096319413E+03  0.50400001928E-02 0.  1.
    10030    2    1    2    0    0  0.00000000000E+00  0.00000000000E+00  0.17273050277E+04  0.35492314160E+04  0.31005581732E+04 0.  0.
        5    1    3    3  502    0 -0.11687139514E+04  0.56062319991E+03 -0.10978790320E+03  0.13008713026E+04  0.46999998093E+01 0.  1.
       -5    1    3    3    0  502  0.11687139514E+04 -0.56062319991E+03  0.18370929309E+04  0.22483601133E+04  0.46999998093E+01 0. -1.
</event>
<event>
 5   0  0.4517409E-08  0.3100636E+04  0.7818609E-02  0.8215563E-01
       -1   -1    0    0    0  501  0.00000000000E+00  0.00000000000E+00  0.11994403400E+04  0.11994403400E+04  0.50400001928E-02 0. -1.
        1   -1    0    0  501    0  0.00000000000E+00  0.00000000000E+00 -0.20038399393E+04  0.20038399393E+04  0.50400001928E-02 0.  1.
    10030    2    1    2    0    0  0.00000000000E+00  0.00000000000E+00 -0.80439959932E+03  0.32032802794E+04  0.31006363593E+04 0.  0.
        2    1    3    3  502    0 -0.11120727241E+04 -0.10040094860E+04  0.94188501977E+01  0.14982755109E+04  0.25500000920E-02 0. -1.
       -2    1    3    3    0  502  0.11120727241E+04  0.10040094860E+04 -0.81381844952E+03  0.17050047685E+04  0.25500000920E-02 0.  1.
</event>
<event>
 5   0  0.4838602E-08  0.3095327E+04  0.7818609E-02  0.8217022E-01
       -1   -1    0    0    0  501  0.00000000000E+00  0.00000000000E+00  0.14134252129E+04  0.14134252129E+04  0.50400001928E-02 0. -1.
        1   -1    0    0  501    0  0.00000000000E+00  0.00000000000E+00 -0.16946508517E+04  0.16946508517E+04  0.50400001928E-02 0.  1.
    10030    2    1    2    0    0  0.00000000000E+00  0.00000000000E+00 -0.28122563876E+03  0.31080760646E+04  0.30953269559E+04 0.  0.
        5    1    3    3  502    0  0.99995763024E+03 -0.11812360075E+04 -0.14314974957E+03  0.15542675794E+04  0.46999998093E+01 0.  1.
       -5    1    3    3    0  502 -0.99995763024E+03  0.11812360075E+04 -0.13807588919E+03  0.15538084852E+04  0.46999998093E+01 0. -1.
</event>
<event>
 5   0  0.4517409E-08  0.3097972E+04  0.7818609E-02  0.8216295E-01
       -1   -1    0    0    0  501  0.00000000000E+00  0.00000000000E+00  0.13841133457E+04  0.13841133457E+04  0.50400001928E-02 0. -1.
        1   -1    0    0  501    0  0.00000000000E+00  0.00000000000E+00 -0.17334976833E+04  0.17334976833E+04  0.50400001928E-02 0.  1.
    10030    2    1    2    0    0  0.00000000000E+00  0.00000000000E+00 -0.34938433760E+03  0.31176110290E+04  0.30979717740E+04 0.  0.
        2    1    3    3  502    0  0.33910121690E+03  0.78645477167E+03 -0.14735549463E+04  0.17043664286E+04  0.25500000920E-02 0.  1.
       -2    1    3    3    0  502 -0.33910121690E+03 -0.78645477167E+03  0.11241706087E+04  0.14132446004E+04  0.25500000920E-02 0. -1.
</event>
<event>
 5   0  0.1398931E-07  0.3101428E+04  0.7818609E-02  0.8215346E-01
        2   -1    0    0  501    0  0.00000000000E+00  0.00000000000E+00  0.18053870298E+04  0.18053870298E+04  0.25500000920E-02 0. -1.
       -2   -1    0    0    0  501  0.00000000000E+00  0.00000000000E+00 -0.13319661493E+04  0.13319661493E+04  0.25500000920E-02 0.  1.
    10030    2    1    2    0    0  0.00000000000E+00  0.00000000000E+00  0.47342088046E+03  0.31373531791E+04  0.31014283226E+04 0.  0.
        3    1    3    3  502    0  0.74873211686E+03 -0.12562305902E+04  0.75843577524E+03  0.16474039923E+04  0.10100000352E+00 0.  1.
       -3    1    3    3    0  502 -0.74873211686E+03  0.12562305902E+04 -0.28501489478E+03  0.14899491867E+04  0.10100000352E+00 0. -1.
</event>
<event>
 5   0  0.1377237E-07  0.3100209E+04  0.7818609E-02  0.8215681E-01
       -2   -1    0    0    0  501  0.00000000000E+00  0.00000000000E+00  0.14946128355E+04  0.14946128355E+04  0.25500000920E-02 0. -1.
        2   -1    0    0  501    0  0.00000000000E+00  0.00000000000E+00 -0.16076565958E+04  0.16076565958E+04  0.25500000920E-02 0.  1.
    10030    2    1    2    0    0  0.00000000000E+00  0.00000000000E+00 -0.11304376033E+03  0.31022694313E+04  0.31002091434E+04 0.  0.
        2    1    3    3  502    0 -0.27659418134E+03  0.29400988684E+03 -0.15541386880E+04  0.16057064540E+04  0.25500000920E-02 0.  1.
       -2    1    3    3    0  502  0.27659418134E+03 -0.29400988684E+03  0.14410949277E+04  0.14965629774E+04  0.25500000920E-02 0. -1.
</event>
<event>
 5   0  0.1329777E-07  0.3100441E+04  0.7818609E-02  0.8215617E-01
        2   -1    0    0  501    0  0.00000000000E+00  0.00000000000E+00  0.14048509454E+04  0.14048509454E+04  0.25500000920E-02 0. -1.
       -2   -1    0    0    0  501  0.00000000000E+00  0.00000000000E+00 -0.17106319910E+04  0.17106319910E+04  0.25500000920E-02 0.  1.
    10030    2    1    2    0    0  0.00000000000E+00  0.00000000000E+00 -0.30578104561E+03  0.31154829363E+04  0.31004405943E+04 0.  0.
        1    1    3    3  502    0  0.14769306594E+04 -0.41887364960E+03 -0.36935074130E+03  0.15789867882E+04  0.50400001928E-02 0.  1.
       -1    1    3    3    0  502 -0.14769306594E+04  0.41887364960E+03  0.63569695690E+02  0.15364961482E+04  0.50400001928E-02 0. -1.
</event>
<event>
 5   0  0.4517409E-08  0.3100765E+04  0.7818609E-02  0.8215528E-01
       -1   -1    0    0    0  501  0.00000000000E+00  0.00000000000E+00  0.12263010877E+04  0.12263010877E+04  0.50400001928E-02 0. -1.
        1   -1    0    0  501    0  0.00000000000E+00  0.00000000000E+00 -0.19601111890E+04  0.19601111890E+04  0.50400001928E-02 0.  1.
    10030    2    1    2    0    0  0.00000000000E+00  0.00000000000E+00 -0.73381010132E+03  0.31864122767E+04  0.31007653785E+04 0.  0.
        2    1    3    3  502    0  0.50047945360E+03 -0.48269237110E+03 -0.17908984465E+04  0.19211425908E+04  0.25500000920E-02 0.  1.
       -2    1    3    3    0  502 -0.50047945360E+03  0.48269237110E+03  0.10570883451E+04  0.12652696859E+04  0.25500000920E-02 0. -1.
</event>
<event>
 5   0  0.1325713E-07  0.3101092E+04  0.7818609E-02  0.8215438E-01
        2   -1    0    0  501    0  0.00000000000E+00  0.00000000000E+00  0.17202205878E+04  0.17202205878E+04  0.25500000920E-02 0.  1.
       -2   -1    0    0    0  501  0.00000000000E+00  0.00000000000E+00 -0.13976073225E+04  0.13976073225E+04  0.25500000920E-02 0. -1.
    10030    2    1    2    0    0  0.00000000000E+00  0.00000000000E+00  0.32261326522E+03  0.31178279103E+04  0.31010919947E+04 0.  0.
        4    1    3    3  502    0  0.94708571240E+03  0.13621174290E+03 -0.10653871606E+04  0.14319833799E+04  0.12699999809E+01 0. -1.
       -4    1    3    3    0  502 -0.94708571240E+03 -0.13621174290E+03  0.13880004258E+04  0.16858445304E+04  0.12699999809E+01 0.  1.
</event>
<event>
 5   0  0.4470354E-08  0.3100079E+04  0.7818609E-02  0.8215716E-01
       -1   -1    0    0    0  501  0.00000000000E+00  0.00000000000E+00  0.17640485748E+04  0.17640485748E+04  0.50400001928E-02 0. -1.
        1   -1    0    0  501    0  0.00000000000E+00  0.00000000000E+00 -0.13619933787E+04  0.13619933787E+04  0.50400001928E-02 0.  1.
    10030    2    1    2    0    0  0.00000000000E+00  0.00000000000E+00  0.40205519606E+03  0.31260419535E+04  0.31000790175E+04 0.  0.
        1    1    3    3  502    0  0.10811132705E+03 -0.77491049688E+03  0.15503101733E+04  0.17365586575E+04  0.50400001928E-02 0. -1.
       -1    1    3    3    0  502 -0.10811132705E+03  0.77491049688E+03 -0.11482549773E+04  0.13894832961E+04  0.50400001928E-02 0.  1.
</event>
<event>
 5   0  0.4450600E-08  0.3099628E+04  0.7818609E-02  0.8215840E-01
       -1   -1    0    0    0  501  0.00000000000E+00  0.00000000000E+00  0.12012358249E+04  0.12012358249E+04  0.50400001928E-02 0.  1.
        1   -1    0    0  501    0  0.00000000000E+00  0.00000000000E+00 -0.19995431576E+04  0.19995431576E+04  0.50400001928E-02 0. -1.
    10030    2    1    2    0    0  0.00000000000E+00  0.00000000000E+00 -0.79830733269E+03  0.32007789824E+04  0.30996276384E+04 0.  0.
        4    1    3    3  502    0 -0.10760906707E+04  0.11140535127E+04 -0.45413497614E+03  0.16141023977E+04  0.12699999809E+01 0. -1.
       -4    1    3    3    0  502  0.10760906707E+04 -0.11140535127E+04 -0.34417235655E+03  0.15866765848E+04  0.12699999809E+01 0.  1.
</event>
<event>
 5   0  0.1398931E-07  0.3111384E+04  0.7818609E-02  0.8212621E-01
       -2   -1    0    0    0  501  0.00000000000E+00  0.00000000000E+00  0.10000557638E+04  0.10000557639E+04  0.25500000920E-02 0.  1.
        2   -1    0    0  501    0  0.00000000000E+00  0.00000000000E+00 -0.24200426061E+04  0.24200426061E+04  0.25500000920E-02 0. -1.
    10030    2    1    2    0    0  0.00000000000E+00  0.00000000000E+00 -0.14199868423E+04  0.34200983700E+04  0.31113839731E+04 0.  0.
        3    1    3    3  502    0  0.24773749032E+03  0.14349227813E+04 -0.10812575188E+03  0.14601604161E+04  0.10100000352E+00 0.  1.
       -3    1    3    3    0  502 -0.24773749032E+03 -0.14349227813E+04 -0.13118610904E+04  0.19599379539E+04  0.10100000352E+00 0. -1.
</event>
<event>
 5   0  0.4838602E-08  0.3101874E+04  0.7818609E-02  0.8215224E-01
       -1   -1    0    0    0  501  0.00000000000E+00  0.00000000000E+00  0.15503740833E+04  0.15503740833E+04  0.50400001928E-02 0.  1.
        1   -1    0    0  501    0  0.00000000000E+00  0.00000000000E+00 -0.15515001570E+04  0.15515001570E+04  0.50400001928E-02 0. -1.
    10030    2    1    2    0    0  0.00000000000E+00  0.00000000000E+00 -0.11260737295E+01  0.31018742404E+04  0.31018740360E+04 0.  0.
        5    1    3    3  502    0  0.52226293415E+03 -0.11894737710E+04 -0.84778037273E+03  0.15512446856E+04  0.46999998093E+01 0. -1.
       -5    1    3    3    0  502 -0.52226293415E+03  0.11894737710E+04  0.84665429900E+03  0.15506295548E+04  0.46999998093E+01 0.  1.
</event>
<event>
 5   0  0.1398931E-07  0.3099893E+04  0.7818609E-02  0.8215767E-01
       -2   -1    0    0    0  501  0.00000000000E+00  0.00000000000E+00  0.10991507210E+04  0.10991507210E+04  0.25500000920E-02 0.  1.
        2   -1    0    0  501    0  0.00000000000E+00  0.00000000000E+00 -0.21856275111E+04  0.21856275111E+04  0.25500000920E-02 0. -1.
    10030    2    1    2    0    0  0.00000000000E+00  0.00000000000E+00 -0.10864767900E+04  0.32847782321E+04  0.30998929367E+04 0.  0.
        3    1    3    3  502    0 -0.11814192545E+04  0.83961106810E+03 -0.11252087112E+04  0.18348822454E+04  0.10100000352E+00 0. -1.
       -3    1    3    3    0  502  0.11814192545E+04 -0.83961106810E+03  0.38731921165E+02  0.14498959867E+04  0.10100000352E+00 0.  1.
</event>
<event>
 5   0  0.4450600E-08  0.3099293E+04  0.7818609E-02  0.8215932E-01
       -1   -1    0    0    0  501  0.00000000000E+00  0.00000000000E+00  0.15190694780E+04  0.15190694780E+04  0.50400001928E-02 0.  1.
        1   -1    0    0  501    0  0.00000000000E+00  0.00000000000E+00 -0.15808387068E+04  0.15808387068E+04  0.50400001928E-02 0. -1.
    10030    2    1    2    0    0  0.00000000000E+00  0.00000000000E+00 -0.61769228803E+02  0.30999081849E+04  0.30992927124E+04 0.  0.
        4    1    3    3  502    0  0.12132553528E+04  0.23878759435E+03 -0.96509051934E+03  0.15685692174E+04  0.12699999809E+01 0. -1.
       -4    1    3    3    0  502 -0.12132553528E+04 -0.23878759435E+03  0.90332129054E+03  0.15313389675E+04  0.12699999809E+01 0.  1.
</event>
<event>
 5   0  0.4838602E-08  0.3099741E+04  0.7818609E-02  0.8215809E-01
       -1   -1    0    0    0  501  0.00000000000E+00  0.00000000000E+00  0.13483670360E+04  0.13483670360E+04  0.50400001928E-02 0. -1.
        1   -1    0    0  501    0  0.00000000000E+00  0.00000000000E+00 -0.17814877349E+04  0.17814877349E+04  0.50400001928E-02 0.  1.
    10030    2    1    2    0    0  0.00000000000E+00  0.00000000000E+00 -0.43312069884E+03  0.31298547709E+04  0.30997414968E+04 0.  0.
        5    1    3    3  502    0 -0.61742647928E+03  0.43513232813E+03 -0.15830449343E+04  0.17540264976E+04  0.46999998093E+01 0.  1.
       -5    1    3    3    0  502  0.61742647928E+03 -0.43513232813E+03  0.11499242355E+04  0.13758282733E+04  0.46999998093E+01 0. -1.
</event>
<event>
 5   0  0.1318916E-07  0.3100205E+04  0.7818609E-02  0.8215682E-01
       -2   -1    0    0    0  501  0.00000000000E+00  0.00000000000E+00  0.16831076672E+04  0.16831076672E+04  0.25500000920E-02 0. -1.
        2   -1    0    0  501    0  0.00000000000E+00  0.00000000000E+00 -0.14276080422E+04  0.14276080422E+04  0.25500000920E-02 0.  1.
    10030    2    1    2    0    0  0.00000000000E+00  0.00000000000E+00  0.25549962502E+03  0.31107157094E+04  0.31002051813E+04 0.  0.
        5    1    3    3  502    0  0.84036816896E+03  0.39652295996E+03  0.13726603016E+04  0.16576089740E+04  0.46999998093E+01 0. -1.
       -5    1    3    3    0  502 -0.84036816896E+03 -0.39652295996E+03 -0.11171606766E+04  0.14531067354E+04  0.46999998093E+01 0.  1.
</event>
<event>
 5   0  0.4470354E-08  0.3098441E+04  0.7818609E-02  0.8216166E-01
       -1   -1    0    0    0  501  0.00000000000E+00  0.00000000000E+00  0.98984911429E+03  0.98984911431E+03  0.50400001928E-02 0. -1.
        1   -1    0    0  501    0  0.00000000000E+00  0.00000000000E+00 -0.24246970663E+04  0.24246970663E+04  0.50400001928E-02 0.  1.
    10030    2    1    2    0    0  0.00000000000E+00  0.00000000000E+00 -0.14348479520E+04  0.34145461806E+04  0.30984410555E+04 0.  0.
        1    1    3    3  502    0  0.14182673490E+03 -0.46758029683E+02 -0.24167467230E+04  0.24213562025E+04  0.50400001928E-02 0.  1.
       -1    1    3    3    0  502 -0.14182673490E+03  0.46758029683E+02  0.98189877102E+03  0.99318997812E+03  0.50400001928E-02 0. -1.
</event>
<event>
 5   0  0.1318916E-07  0.3098364E+04  0.7818609E-02  0.8216187E-01
       -2   -1    0    0    0  501  0.00000000000E+00  0.00000000000E+00  0.10347803072E+04  0.10347803072E+04  0.25500000920E-02 0. -1.
        2   -1    0    0  501    0  0.00000000000E+00  0.00000000000E+00 -0.23192990318E+04  0.23192990318E+04  0.25500000920E-02 0.  1.
    10030    2    1    2    0    0  0.00000000000E+00  0.00000000000E+00 -0.12845187246E+04  0.33540793390E+04  0.30983640616E+04 0.  0.
        5    1    3    3  502    0 -0.38677855611E+03  0.53987222965E+03 -0.21573728192E+04  0.22572858141E+04  0.46999998093E+01 0.  1.
       -5    1    3    3    0  502  0.38677855611E+03 -0.53987222965E+03  0.87285409455E+03  0.10967935249E+04  0.46999998093E+01 0. -1.
</event>
<event>
 5   0  0.4517409E-08  0.3104967E+04  0.7818609E-02  0.8214376E-01
        1   -1    0    0  501    0  0.00000000000E+00  0.00000000000E+00  0.16415976073E+04  0.16415976074E+04  0.50400001928E-02 0. -1.
       -1   -1    0    0    0  501  0.00000000000E+00  0.00000000000E+00 -0.14682072369E+04  0.14682072370E+04  0.50400001928E-02 0.  1.
    10030    2    1    2    0    0  0.00000000000E+00  0.00000000000E+00  0.17339037040E+03  0.31098048443E+04  0.31049673024E+04 0.  0.
        2    1    3    3  502    0 -0.15212264288E+04  0.13022415633E+01  0.39713607101E+03  0.15722113733E+04  0.25500000920E-02 0. -1.
       -2    1    3    3    0  502  0.15212264288E+04 -0.13022415633E+01 -0.22374570061E+03  0.15375934710E+04  0.25500000920E-02 0.  1.
</event>
<event>
 5   0  0.4436241E-08  0.3099349E+04  0.7818609E-02  0.8215917E-01
       -1   -1    0    0    0  501  0.00000000000E+00  0.00000000000E+00  0.10862433245E+04  0.10862433245E+04  0.50400001928E-02 0. -1.
        1   -1    0    0  501    0  0.00000000000E+00  0.00000000000E+00 -0.22108220365E+04  0.22108220365E+04  0.50400001928E-02 0.  1.
    10030    2    1    2    0    0  0.00000000000E+00  0.00000000000E+00 -0.11245787120E+04  0.32970653610E+04  0.30993487566E+04 0.  0.
        3    1    3    3  502    0 -0.11923890196E+04  0.29616086534E+02  0.49017880207E+03  0.12895518427E+04  0.10100000352E+00 0. -1.
       -3    1    3    3    0  502  0.11923890196E+04 -0.29616086534E+02 -0.16147575141E+04  0.20075135183E+04  0.10100000352E+00 0.  1.
</event>
<event>
 5   0  0.4838602E-08  0.3100155E+04  0.7818609E-02  0.8215695E-01
       -1   -1    0    0    0  501  0.00000000000E+00  0.00000000000E+00  0.15827037532E+04  0.15827037532E+04  0.50400001928E-02 0. -1.
        1   -1    0    0  501    0  0.00000000000E+00  0.00000000000E+00 -0.15181241772E+04  0.15181241772E+04  0.50400001928E-02 0.  1.
    10030    2    1    2    0    0  0.00000000000E+00  0.00000000000E+00  0.64579576011E+02  0.31008279304E+04  0.31001553723E+04 0.  0.
        5    1    3    3  502    0  0.14486933683E+04 -0.43691799565E+03  0.36867946454E+03  0.15574198047E+04  0.46999998093E+01 0. -1.
       -5    1    3    3    0  502 -0.14486933683E+04  0.43691799565E+03 -0.30409988853E+03  0.15434081257E+04  0.46999998093E+01 0.  1.
</event>
<event>
 5   0  0.1377237E-07  0.3099290E+04  0.7818609E-02  0.8215933E-01
        2   -1    0    0  501    0  0.00000000000E+00  0.00000000000E+00  0.30205132688E+04  0.30205132688E+04  0.25500000920E-02 0.  1.
       -2   -1    0    0    0  501  0.00000000000E+00  0.00000000000E+00 -0.79503011365E+03  0.79503011365E+03  0.25500000920E-02 0. -1.
    10030    2    1    2    0    0  0.00000000000E+00  0.00000000000E+00  0.22254831552E+04  0.38155433825E+04  0.30992896008E+04 0.  0.
        2    1    3    3  502    0 -0.12859685617E+04  0.54331928548E+03  0.19408701695E+04  0.23907923378E+04  0.25500000920E-02 0.  1.
       -2    1    3    3    0  502  0.12859685617E+04 -0.54331928548E+03  0.28461298566E+03  0.14247510447E+04  0.25500000920E-02 0. -1.
</event>
<event>
 5   0  0.1329777E-07  0.3101947E+04  0.7818609E-02  0.8215204E-01
        2   -1    0    0  501    0  0.00000000000E+00  0.00000000000E+00  0.18680254067E+04  0.18680254067E+04  0.25500000920E-02 0.  1.
       -2   -1    0    0    0  501  0.00000000000E+00  0.00000000000E+00 -0.12877334196E+04  0.12877334196E+04  0.25500000920E-02 0. -1.
    10030    2    1    2    0    0  0.00000000000E+00  0.00000000000E+00  0.58029198709E+03  0.31557588263E+04  0.31019469659E+04 0.  0.
        1    1    3    3  502    0  0.10226686553E+04 -0.11583185919E+04  0.15378493278E+03  0.15528048636E+04  0.50400001928E-02 0. -1.
       -1    1    3    3    0  502 -0.10226686553E+04  0.11583185919E+04  0.42650705432E+03  0.16029539626E+04  0.50400001928E-02 0.  1.
</event>
<event>
 5   0  0.4470354E-08  0.3100151E+04  0.7818609E-02  0.8215696E-01
        1   -1    0    0  501    0  0.00000000000E+00  0.00000000000E+00  0.11289991752E+04  0.11289991752E+04  0.50400001928E-02 0.  1.
       -1   -1    0    0    0  501  0.00000000000E+00  0.00000000000E+00 -0.21281986230E+04  0.21281986230E+04  0.50400001928E-02 0. -1.
    10030    2    1    2    0    0  0.00000000000E+00  0.00000000000E+00 -0.99919944785E+03  0.32571977982E+04  0.31001512802E+04 0.  0.
        1    1    3    3  502    0  0.21851209961E+03  0.27296238777E+03 -0.20862245136E+04  0.21153223688E+04  0.50400001928E-02 0. -1.
       -1    1    3    3    0  502 -0.21851209961E+03 -0.27296238777E+03  0.10870250657E+04  0.11418754294E+04  0.50400001928E-02 0.  1.
</event>
<event>
 5   0  0.4436241E-08  0.3100388E+04  0.7818609E-02  0.8215631E-01
       -1   -1    0    0    0  501  0.00000000000E+00  0.00000000000E+00  0.12802826241E+04  0.12802826241E+04  0.50400001928E-02 0.  1.
        1   -1    0    0  501    0  0.00000000000E+00  0.00000000000E+00 -0.18770090772E+04  0.18770090772E+04  0.50400001928E-02 0. -1.
    10030    2    1    2    0    0  0.00000000000E+00  0.00000000000E+00 -0.59672645304E+03  0.31572917013E+04  0.31003884317E+04 0.  0.
        3    1    3    3  502    0 -0.71873604136E+03 -0.12667733363E+04  0.24223379905E+03  0.14764733002E+04  0.10100000352E+00 0. -1.
       -3    1    3    3    0  502  0.71873604136E+03  0.12667733363E+04 -0.83896025209E+03  0.16808184011E+04  0.10100000352E+00 0.  1.
</event>
<event>
 5   0  0.4436241E-08  0.3099887E+04  0.7818609E-02  0.8215769E-01
        1   -1    0    0  501    0  0.00000000000E+00  0.00000000000E+00  0.19106364374E+04  0.19106364374E+04  0.50400001928E-02 0. -1.
       -1   -1    0    0    0  501  0.00000000000E+00  0.00000000000E+00 -0.12573430766E+04  0.12573430766E+04  0.50400001928E-02 0.  1.
    10030    2    1    2    0    0  0.00000000000E+00  0.00000000000E+00  0.65329336079E+03  0.31679795141E+04  0.30998874151E+04 0.  0.
        3    1    3    3  502    0 -0.17256336041E+03 -0.31410776276E+03 -0.12144169339E+04  0.12661952059E+04  0.10100000352E+00 0.  1.
       -3    1    3    3    0  502  0.17256336041E+03  0.31410776276E+03  0.18677102946E+04  0.19017843082E+04  0.10100000352E+00 0. -1.
</event>
<event>
 5   0  0.4450600E-08  0.3110358E+04  0.7818609E-02  0.8212901E-01
       -1   -1    0    0    0  501  0.00000000000E+00  0.00000000000E+00  0.15120042611E+04  0.15120042611E+04  0.50400001928E-02 0. -1.
        1   -1    0    0  501    0  0.00000000000E+00  0.00000000000E+00 -0.15995861949E+04  0.15995861949E+04  0.50400001928E-02 0.  1.
    10030    2    1    2    0    0  0.00000000000E+00  0.00000000000E+00 -0.87581933777E+02  0.31115904561E+04  0.31103576275E+04 0.  0.
        4    1    3    3  502    0 -0.71691940767E+03 -0.48034183996E+03 -0.13380880722E+04  0.15922258075E+04  0.12699999809E+01 0.  1.
       -4    1    3    3    0  502  0.71691940767E+03  0.48034183996E+03  0.12505061384E+04  0.15193646486E+04  0.12699999809E+01 0. -1.
</event>
<event>
 5   0  0.1329777E-07  0.3099889E+04  0.7818609E-02  0.8215768E-01
       -2   -1    0    0    0  501  0.00000000000E+00  0.00000000000E+00  0.11877268535E+04  0.11877268535E+04  0.25500000920E-02 0.  1.
        2   -1    0    0  501    0  0.00000000000E+00  0.00000000000E+00 -0.20226271720E+04  0.20226271720E+04  0.25500000920E-02 0. -1.
    10030    2    1    2    0    0  0.00000000000E+00  0.00000000000E+00 -0.83490031849E+03  0.32103540254E+04  0.30998894217E+04 0.  0.
        1    1    3    3  502    0 -0.10932827010E+04 -0.97236834517E+03 -0.94710568198E+03  0.17429218101E+04  0.50400001928E-02 0.  1.
       -1    1    3    3    0  502  0.10932827010E+04  0.97236834517E+03  0.11220536349E+03  0.14674322154E+04  0.50400001928E-02 0. -1.
</event>
<event>
 5   0  0.1398931E-07  0.3102666E+04  0.7818609E-02  0.8215007E-01
        2   -1    0    0  501    0  0.00000000000E+00  0.00000000000E+00  0.19270202071E+04  0.19270202071E+04  0.25500000920E-02 0. -1.
       -2   -1    0    0    0  501  0.00000000000E+00  0.00000000000E+00 -0.12488889712E+04  0.12488889712E+04  0.25500000920E-02 0.  1.
    10030    2    1    2    0    0  0.00000000000E+00  0.00000000000E+00  0.67813123584E+03  0.31759091783E+04  0.31026661334E+04 0.  0.
        3    1    3    3  502    0 -0.78127522072E+03 -0.90731928494E+01 -0.10327813190E+04  0.12950330330E+04  0.10100000352E+00 0.  1.
       -3    1    3    3    0  502  0.78127522072E+03  0.90731928494E+01  0.17109125549E+04  0.18808761453E+04  0.10100000352E+00 0. -1.
</event>
<event>
 5   0  0.4436241E-08  0.3086057E+04  0.7818609E-02  0.8219575E-01
       -1   -1    0    0    0  501  0.00000000000E+00  0.00000000000E+00  0.11230989912E+04  0.11230989912E+04  0.50400001928E-02 0. -1.
        1   -1    0    0  501    0  0.00000000000E+00  0.00000000000E+00 -0.21199702335E+04  0.21199702335E+04  0.50400001928E-02 0.  1.
    10030    2    1    2    0    0  0.00000000000E+00  0.00000000000E+00 -0.99687124232E+03  0.32430692248E+04  0.30860566623E+04 0.  0.
        3    1    3    3  502    0 -0.75446553506E+03  0.91887335689E+03 -0.15320370585E+04  0.19392483204E+04  0.10100000352E+00 0.  1.
       -3    1    3    3    0  502  0.75446553506E+03 -0.91887335689E+03  0.53516581613E+03  0.13038209043E+04  0.10100000352E+00 0. -1.
</event>
<event>
 5   0  0.1325713E-07  0.3100324E+04  0.7818609E-02  0.8215649E-01
        2   -1    0    0  501    0  0.00000000000E+00  0.00000000000E+00  0.21728037034E+04  0.21728037034E+04  0.25500000920E-02 0.  1.
       -2   -1    0    0    0  501  0.00000000000E+00  0.00000000000E+00 -0.11059452935E+04  0.11059452935E+04  0.25500000920E-02 0. -1.
    10030    2    1    2    0    0  0.00000000000E+00  0.00000000000E+00  0.10668584099E+04  0.32787489969E+04  0.31003238730E+04 0.  0.
        4    1    3    3  502    0 -0.11412397310E+04  0.90694111076E+03 -0.24201944488E+02  0.14579292332E+04  0.12699999809E+01 0. -1.
       -4    1    3    3    0  502  0.11412397310E+04 -0.90694111076E+03  0.10910603544E+04  0.18208197637E+04  0.12699999809E+01 0.  1.
</event>
<event>
 5   0  0.4436241E-08  0.3101222E+04  0.7818609E-02  0.8215403E-01
        1   -1    0    0  501    0  0.00000000000E+00  0.00000000000E+00  0.17056466900E+04  0.17056466900E+04  0.50400001928E-02 0. -1.
       -1   -1    0    0    0  501  0.00000000000E+00  0.00000000000E+00 -0.14096675279E+04  0.14096675279E+04  0.50400001928E-02 0.  1.
    10030    2    1    2    0    0  0.00000000000E+00  0.00000000000E+00  0.29597916212E+03  0.31153142180E+04  0.31012221804E+04 0.  0.
        3    1    3    3  502    0 -0.10169678532E+03 -0.33239315680E+03  0.16660039521E+04  0.17018803206E+04  0.10100000352E+00 0. -1.
       -3    1    3    3    0  502  0.10169678532E+03  0.33239315680E+03 -0.13700247900E+04  0.14134338974E+04  0.10100000352E+00 0.  1.
</event>
<event>
 5   0  0.4436241E-08  0.3101898E+04  0.7818609E-02  0.8215217E-01
       -1   -1    0    0    0  501  0.00000000000E+00  0.00000000000E+00  0.18145044626E+04  0.18145044626E+04  0.50400001928E-02 0.  1.
        1   -1    0    0  501    0  0.00000000000E+00  0.00000000000E+00 -0.13256748776E+04  0.13256748776E+04  0.50400001928E-02 0. -1.
    10030    2    1    2    0    0  0.00000000000E+00  0.00000000000E+00  0.48882958504E+03  0.31401793402E+04  0.31018981165E+04 0.  0.
        3    1    3    3  502    0  0.96118441986E+02  0.76138647657E+03 -0.11199924256E+04  0.13576933252E+04  0.10100000352E+00 0. -1.
       -3    1    3    3    0  502 -0.96118441986E+02 -0.76138647657E+03  0.16088220106E+04  0.17824860150E+04  0.10100000352E+00 0.  1.
</event>
<event>
 5   0  0.1318916E-07  0.3099913E+04  0.7818609E-02  0.8215762E-01
       -2   -1    0    0    0  501  0.00000000000E+00  0.00000000000E+00  0.17159376036E+04  0.17159376036E+04  0.25500000920E-02 0.  1.
        2   -1    0    0  501    0  0.00000000000E+00  0.00000000000E+00 -0.14000306079E+04  0.14000306079E+04  0.25500000920E-02 0. -1.
    10030    2    1    2    0    0  0.00000000000E+00  0.00000000000E+00  0.31590699571E+03  0.31159682115E+04  0.30999130093E+04 0.  0.
        5    1    3    3  502    0  0.27305984778E+03  0.50399725114E+03  0.16054703000E+04  0.17047380690E+04  0.46999998093E+01 0.  1.
       -5    1    3    3    0  502 -0.27305984778E+03 -0.50399725114E+03 -0.12895633043E+04  0.14112301426E+04  0.46999998093E+01 0. -1.
</event>
<event>
 5   0  0.4450600E-08  0.3097557E+04  0.7818609E-02  0.8216409E-01
        1   -1    0    0  501    0  0.00000000000E+00  0.00000000000E+00  0.13859832559E+04  0.13859832559E+04  0.50400001928E-02 0. -1.
       -1   -1    0    0    0  501  0.00000000000E+00  0.00000000000E+00 -0.17306954931E+04  0.17306954931E+04  0.50400001928E-02 0.  1.
    10030    2    1    2    0    0  0.00000000000E+00  0.00000000000E+00 -0.34471223715E+03  0.31166787490E+04  0.30975570855E+04 0.  0.
        4    1    3    3  502    0  0.93784273241E+03 -0.22030294218E+03  0.10478257770E+04  0.14233842942E+04  0.12699999809E+01 0. -1.
       -4    1    3    3    0  502 -0.93784273241E+03  0.22030294218E+03 -0.13925380141E+04  0.16932944548E+04  0.12699999809E+01 0.  1.
</event>
<event>
 5   0  0.4436241E-08  0.3099410E+04  0.7818609E-02  0.8215900E-01
        1   -1    0    0  501    0  0.00000000000E+00  0.00000000000E+00  0.18460983510E+04  0.18460983510E+04  0.50400001928E-02 0. -1.
       -1   -1    0    0    0  501  0.00000000000E+00  0.00000000000E+00 -0.13008980046E+04  0.13008980046E+04  0.50400001928E-02 0.  1.
    10030    2    1    2    0    0  0.00000000000E+00  0.00000000000E+00  0.54520034640E+03  0.31469963557E+04  0.30994100479E+04 0.  0.
        3    1    3    3  502    0 -0.28205263112E+03  0.14096100239E+04 -0.31510573049E+03  0.14716812623E+04  0.10100000352E+00 0. -1.
       -3    1    3    3    0  502  0.28205263112E+03 -0.14096100239E+04  0.86030607689E+03  0.16753150934E+04  0.10100000352E+00 0.  1.
</event>
<event>
 5   0  0.1377237E-07  0.3095537E+04  0.7818609E-02  0.8216964E-01
        2   -1    0    0  501    0  0.00000000000E+00  0.00000000000E+00  0.24784827671E+04  0.24784827671E+04  0.25500000920E-02 0.  1.
       -2   -1    0    0    0  501  0.00000000000E+00  0.00000000000E+00 -0.96655391327E+03  0.96655391328E+03  0.25500000920E-02 0. -1.
    10030    2    1    2    0    0  0.00000000000E+00  0.00000000000E+00  0.15119288539E+04  0.34450366804E+04  0.30955369276E+04 0.  0.
        2    1    3    3  502    0  0.14109974903E+04  0.19219893688E+03  0.14308405854E+04  0.20187023380E+04  0.25500000920E-02 0.  1.
       -2    1    3    3    0  502 -0.14109974903E+04 -0.19219893688E+03  0.81088268492E+02  0.14263343424E+04  0.25500000920E-02 0. -1.
</event>
<event>
 5   0  0.4470354E-08  0.3100105E+04  0.7818609E-02  0.8215709E-01
       -1   -1    0    0    0  501  0.00000000000E+00  0.00000000000E+00  0.12685988294E+04  0.12685988294E+04  0.50400001928E-02 0. -1.
        1   -1    0    0  501    0  0.00000000000E+00  0.00000000000E+00 -0.18939505215E+04  0.18939505216E+04  0.50400001928E-02 0.  1.
    10030    2    1    2    0    0  0.00000000000E+00  0.00000000000E+00 -0.62535169213E+03  0.31625493510E+04  0.31001054270E+04 0.  0.
        1    1    3    3  502    0  0.46438333419E+03  0.51703675594E+02  0.11950444971E+04  0.12831432115E+04  0.50400001928E-02 0. -1.
       -1    1    3    3    0  502 -0.46438333419E+03 -0.51703675594E+02 -0.18203961893E+04  0.18794061395E+04  0.50400001928E-02 0.  1.
</event>
<event>
 5   0  0.1329777E-07  0.3099149E+04  0.7818609E-02  0.8215971E-01
       -2   -1    0    0    0  501  0.00000000000E+00  0.00000000000E+00  0.16472924563E+04  0.16472924563E+04  0.25500000920E-02 0.  1.
        2   -1    0    0  501    0  0.00000000000E+00  0.00000000000E+00 -0.14576534147E+04  0.14576534147E+04  0.25500000920E-02 0. -1.
    10030    2    1    2    0    0  0.00000000000E+00  0.00000000000E+00  0.18963904160E+03  0.31049458710E+04  0.30991492213E+04 0.  0.
        1    1    3    3  502    0 -0.29573082155E+03 -0.12984446518E+04 -0.69897943734E+03  0.15039905207E+04  0.50400001928E-02 0. -1.
       -1    1    3    3    0  502  0.29573082155E+03  0.12984446518E+04  0.88861847893E+03  0.16009553503E+04  0.50400001928E-02 0.  1.
</event>
<event>
 5   0  0.4517409E-08  0.3098816E+04  0.7818609E-02  0.8216063E-01
        1   -1    0    0  501    0  0.00000000000E+00  0.00000000000E+00  0.20424976484E+04  0.20424976484E+04  0.50400001928E-02 0.  1.
       -1   -1    0    0    0  501  0.00000000000E+00  0.00000000000E+00 -0.11753578720E+04  0.11753578720E+04  0.50400001928E-02 0. -1.
    10030    2    1    2    0    0  0.00000000000E+00  0.00000000000E+00  0.86713977645E+03  0.32178555204E+04  0.30988163480E+04 0.  0.
        2    1    3    3  502    0 -0.88075482385E+03 -0.12550353775E+04  0.20178511423E+03  0.15464669705E+04  0.25500000920E-02 0. -1.
       -2    1    3    3    0  502  0.88075482385E+03  0.12550353775E+04  0.66535466222E+03  0.16713885500E+04  0.25500000920E-02 0.  1.
</event>
<event>
 5   0  0.4450600E-08  0.3100912E+04  0.7818609E-02  0.8215488E-01
       -1   -1    0    0    0  501  0.00000000000E+00  0.00000000000E+00  0.13401323248E+04  0.13401323248E+04  0.50400001928E-02 0. -1.
        1   -1    0    0  501    0  0.00000000000E+00  0.00000000000E+00 -0.17937879269E+04  0.17937879269E+04  0.50400001928E-02 0.  1.
    10030    2    1    2    0    0  0.00000000000E+00  0.00000000000E+00 -0.45365560207E+03  0.31339202517E+04  0.31009115980E+04 0.  0.
        4    1    3    3  502    0 -0.33938330258E+02 -0.11476487086E+04  0.82621473609E+03  0.14145252814E+04  0.12699999809E+01 0. -1.
       -4    1    3    3    0  502  0.33938330258E+02  0.11476487086E+04 -0.12798703382E+04  0.17193949703E+04  0.12699999809E+01 0.  1.
</event>
<event>
 5   0  0.1398931E-07  0.3099934E+04  0.7818609E-02  0.8215756E-01
        2   -1    0    0  501    0  0.00000000000E+00  0.00000000000E+00  0.11843882447E+04  0.11843882447E+04  0.25500000920E-02 0. -1.
       -2   -1    0    0    0  501  0.00000000000E+00  0.00000000000E+00 -0.20283866654E+04  0.20283866654E+04  0.25500000920E-02 0.  1.
    10030    2    1    2    0    0  0.00000000000E+00  0.00000000000E+00 -0.84399842071E+03  0.32127749101E+04  0.30999337556E+04 0.  0.
        3    1    3    3  502    0  0.65535918735E+03  0.21128026459E+03 -0.18611653789E+04  0.19844575058E+04  0.10100000352E+00 0.  1.
       -3    1    3    3    0  502 -0.65535918735E+03 -0.21128026459E+03  0.10171669582E+04  0.12283174043E+04  0.10100000352E+00 0. -1.
</event>
<event>
 5   0  0.4436241E-08  0.3096645E+04  0.7818609E-02  0.8216659E-01
        1   -1    0    0  501    0  0.00000000000E+00  0.00000000000E+00  0.15864580656E+04  0.15864580656E+04  0.50400001928E-02 0.  1.
       -1   -1    0    0    0  501  0.00000000000E+00  0.00000000000E+00 -0.15111037240E+04  0.15111037240E+04  0.50400001928E-02 0. -1.
    10030    2    1    2    0    0  0.00000000000E+00  0.00000000000E+00  0.75354341628E+02  0.30975617896E+04  0.30966450819E+04 0.  0.
        3    1    3    3  502    0 -0.93403751276E+03  0.11578046549E+04 -0.39182737933E+03  0.15383323437E+04  0.10100000352E+00 0. -1.
       -3    1    3    3    0  502  0.93403751276E+03 -0.11578046549E+04  0.46718172096E+03  0.15592294459E+04  0.10100000352E+00 0.  1.
</event>
<event>
 5   0  0.1377237E-07  0.3104285E+04  0.7818609E-02  0.8214563E-01
       -2   -1    0    0    0  501  0.00000000000E+00  0.00000000000E+00  0.11234883358E+04  0.11234883358E+04  0.25500000920E-02 0. -1.
        2   -1    0    0  501    0  0.00000000000E+00  0.00000000000E+00 -0.21443450168E+04  0.21443450168E+04  0.25500000920E-02 0.  1.
    10030    2    1    2    0    0  0.00000000000E+00  0.00000000000E+00 -0.10208566810E+04  0.32678333526E+04  0.31042851765E+04 0.  0.
        2    1    3    3  502    0 -0.36972712479E+03  0.11209772887E+04 -0.15714270970E+04  0.19653679935E+04  0.25500000920E-02 0.  1.
       -2    1    3    3    0  502  0.36972712479E+03 -0.11209772887E+04  0.55057041602E+03  0.13024653591E+04  0.25500000920E-02 0. -1.
</event>
<event>
 5   0  0.1398931E-07  0.3104364E+04  0.7818609E-02  0.8214541E-01
       -2   -1    0    0    0  501  0.00000000000E+00  0.00000000000E+00  0.11583583351E+04  0.11583583351E+04  0.25500000920E-02 0.  1.
        2   -1    0    0  501    0  0.00000000000E+00  0.00000000000E+00 -0.20798991018E+04  0.20798991018E+04  0.25500000920E-02 0. -1.
    10030    2    1    2    0    0  0.00000000000E+00  0.00000000000E+00 -0.92154076674E+03  0.32382574369E+04  0.31043636776E+04 0.  0.
        3    1    3    3  502    0  0.55537677971E+03  0.14922635197E+03  0.10431321937E+04  0.11911493002E+04  0.10100000352E+00 0.  1.
       -3    1    3    3    0  502 -0.55537677971E+03 -0.14922635197E+03 -0.19646729605E+04  0.20471081367E+04  0.10100000352E+00 0. -1.
</event>
<event>
 5   0  0.1377237E-07  0.3100383E+04  0.7818609E-02  0.8215633E-01
        2   -1    0    0  501    0  0.00000000000E+00  0.00000000000E+00  0.20444789763E+04  0.20444789763E+04  0.25500000920E-02 0. -1.
       -2   -1    0    0    0  501  0.00000000000E+00  0.00000000000E+00 -0.11754064078E+04  0.11754064078E+04  0.25500000920E-02 0.  1.
    10030    2    1    2    0    0  0.00000000000E+00  0.00000000000E+00  0.86907256842E+03  0.32198853841E+04  0.31003830017E+04 0.  0.
        2    1    3    3  502    0  0.14316066124E+04  0.53109658274E+03  0.71230102804E+03  0.16849135965E+04  0.25500000920E-02 0.  1.
       -2    1    3    3    0  502 -0.14316066124E+04 -0.53109658274E+03  0.15677154038E+03  0.15349717876E+04  0.25500000920E-02 0. -1.
</event>
<event>
 5   0  0.1325713E-07  0.3099482E+04  0.7818609E-02  0.8215880E-01
       -2   -1    0    0    0  501  0.00000000000E+00  0.00000000000E+00  0.10202042275E+04  0.10202042275E+04  0.25500000920E-02 0.  1.
        2   -1    0    0  501    0  0.00000000000E+00  0.00000000000E+00 -0.23541337475E+04  0.23541337475E+04  0.25500000920E-02 0. -1.
    10030    2    1    2    0    0  0.00000000000E+00  0.00000000000E+00 -0.13339295200E+04  0.33743379751E+04  0.30994820221E+04 0.  0.
        4    1    3    3  502    0  0.19029245134E+03 -0.94370981059E+03 -0.19891130908E+04  0.22098352709E+04  0.12699999809E+01 0. -1.
       -4    1    3    3    0  502 -0.19029245134E+03  0.94370981059E+03  0.65518357080E+03  0.11645027042E+04  0.12699999809E+01 0.  1.
</event>
<event>
 5   0  0.4838602E-08  0.3099504E+04  0.7818609E-02  0.8215874E-01
        1   -1    0    0  501    0  0.00000000000E+00  0.00000000000E+00  0.80155977476E+03  0.80155977478E+03  0.50400001928E-02 0.  1.
       -1   -1    0    0    0  501  0.00000000000E+00  0.00000000000E+00 -0.29963229072E+04  0.29963229072E+04  0.50400001928E-02 0. -1.
    10030    2    1    2    0    0  0.00000000000E+00  0.00000000000E+00 -0.21947631324E+04  0.37978826819E+04  0.30995044214E+04 0.  0.
        5    1    3    3  502    0 -0.39416714837E+03 -0.12624590313E+04 -0.20871933367E+04  0.24709448924E+04  0.46999998093E+01 0. -1.
       -5    1    3    3    0  502  0.39416714837E+03  0.12624590313E+04 -0.10756979574E+03  0.13269377896E+04  0.46999998093E+01 0.  1.
</event>
<event>
 5   0  0.4470354E-08  0.3099623E+04  0.7818609E-02  0.8215841E-01
       -1   -1    0    0    0  501  0.00000000000E+00  0.00000000000E+00  0.17396116238E+04  0.17396116238E+04  0.50400001928E-02 0. -1.
        1   -1    0    0  501    0  0.00000000000E+00  0.00000000000E+00 -0.13807194938E+04  0.13807194939E+04  0.50400001928E-02 0.  1.
    10030    2    1    2    0    0  0.00000000000E+00  0.00000000000E+00  0.35889212997E+03  0.31203311177E+04  0.30996229969E+04 0.  0.
        1    1    3    3  502    0 -0.15362853630E+04 -0.85080804450E+02  0.36644017231E+03  0.15816731204E+04  0.50400001928E-02 0. -1.
       -1    1    3    3    0  502  0.15362853630E+04  0.85080804450E+02 -0.75480423351E+01  0.15386579973E+04  0.50400001928E-02 0.  1.
</event>
<event>
 5   0  0.1377237E-07  0.3103925E+04  0.7818609E-02  0.8214662E-01
       -2   -1    0    0    0  501  0.00000000000E+00  0.00000000000E+00  0.11963936884E+04  0.11963936884E+04  0.25500000920E-02 0. -1.
        2   -1    0    0  501    0  0.00000000000E+00  0.00000000000E+00 -0.20132059908E+04  0.20132059908E+04  0.25500000920E-02 0.  1.
    10030    2    1    2    0    0  0.00000000000E+00  0.00000000000E+00 -0.81681230247E+03  0.32095996792E+04  0.31039245744E+04 0.  0.
        2    1    3    3  502    0 -0.41897619115E+03  0.79713267258E+03  0.89859865962E+03  0.12721796640E+04  0.25500000920E-02 0. -1.
       -2    1    3    3    0  502  0.41897619115E+03 -0.79713267258E+03 -0.17154109621E+04  0.19374200152E+04  0.25500000920E-02 0.  1.
</event>
<event>
 5   0  0.1377237E-07  0.3100485E+04  0.7818609E-02  0.8215605E-01
       -2   -1    0    0    0  501  0.00000000000E+00  0.00000000000E+00  0.10535021477E+04  0.10535021477E+04  0.25500000920E-02 0.  1.
        2   -1    0    0  501    0  0.00000000000E+00  0.00000000000E+00 -0.22812022337E+04  0.22812022337E+04  0.25500000920E-02 0. -1.
    10030    2    1    2    0    0  0.00000000000E+00  0.00000000000E+00 -0.12277000861E+04  0.33347043814E+04  0.31004847702E+04 0.  0.
        2    1    3    3  502    0 -0.12142058376E+04 -0.95347203028E+03 -0.76537080693E+03  0.17231358625E+04  0.25500000920E-02 0. -1.
       -2    1    3    3    0  502  0.12142058376E+04  0.95347203028E+03 -0.46232927913E+03  0.16115685189E+04  0.25500000920E-02 0.  1.
</event>
<event>
 5   0  0.1398931E-07  0.3100020E+04  0.7818609E-02  0.8215733E-01
       -2   -1    0    0    0  501  0.00000000000E+00  0.00000000000E+00  0.13031431558E+04  0.13031431558E+04  0.25500000920E-02 0. -1.
        2   -1    0    0  501    0  0.00000000000E+00  0.00000000000E+00 -0.18436427599E+04  0.18436427599E+04  0.25500000920E-02 0.  1.
    10030    2    1    2    0    0  0.00000000000E+00  0.00000000000E+00 -0.54049960412E+03  0.31467859157E+04  0.31000196414E+04 0.  0.
        3    1    3    3  502    0  0.33352644633E+03  0.13636270288E+04  0.39678737586E+03  0.14588210294E+04  0.10100000352E+00 0. -1.
       -3    1    3    3    0  502 -0.33352644633E+03 -0.13636270288E+04 -0.93728697998E+03  0.16879648862E+04  0.10100000352E+00 0.  1.
</event>
<event>
 5   0  0.4517409E-08  0.3099850E+04  0.7818609E-02  0.8215779E-01
       -1   -1    0    0    0  501  0.00000000000E+00  0.00000000000E+00  0.26319806299E+04  0.26319806299E+04  0.50400001928E-02 0.  1.
        1   -1    0    0  501    0  0.00000000000E+00  0.00000000000E+00 -0.91272257471E+03  0.91272257472E+03  0.50400001928E-02 0. -1.
    10030    2    1    2    0    0  0.00000000000E+00  0.00000000000E+00  0.17192580551E+04  0.35447032046E+04  0.30998504074E+04 0.  0.
        2    1    3    3  502    0 -0.11807674779E+04  0.72039195091E+03  0.16593423015E+04  0.21602299122E+04  0.25500000920E-02 0.  1.
       -2    1    3    3    0  502  0.11807674779E+04 -0.72039195091E+03  0.59915753625E+02  0.13844732924E+04  0.25500000920E-02 0. -1.
</event>
<event>
 5   0  0.4470354E-08  0.3099557E+04  0.7818609E-02  0.8215860E-01
       -1   -1    0    0    0  501  0.00000000000E+00  0.00000000000E+00  0.16373467524E+04  0.16373467524E+04  0.50400001928E-02 0. -1.
        1   -1    0    0  501    0  0.00000000000E+00  0.00000000000E+00 -0.14668931975E+04  0.14668931975E+04  0.50400001928E-02 0.  1.
    10030    2    1    2    0    0  0.00000000000E+00  0.00000000000E+00  0.17045355493E+03  0.31042399499E+04  0.30995566219E+04 0.  0.
        1    1    3    3  502    0  0.55904656126E+03 -0.11117892617E+04  0.10103130807E+04  0.16029163862E+04  0.50400001928E-02 0. -1.
       -1    1    3    3    0  502 -0.55904656126E+03  0.11117892617E+04 -0.83985952576E+03  0.15013235637E+04  0.50400001928E-02 0.  1.
</event>
<event>
 5   0  0.1377237E-07  0.3101352E+04  0.7818609E-02  0.8215367E-01
        2   -1    0    0  501    0  0.00000000000E+00  0.00000000000E+00  0.26325285231E+04  0.26325285231E+04  0.25500000920E-02 0.  1.
       -2   -1    0    0    0  501  0.00000000000E+00  0.00000000000E+00 -0.91341719271E+03  0.91341719271E+03  0.25500000920E-02 0. -1.
    10030    2    1    2    0    0  0.00000000000E+00  0.00000000000E+00  0.17191113304E+04  0.35459457158E+04  0.31013524877E+04 0.  0.
        2    1    3    3  502    0 -0.75608679925E+03 -0.13387731811E+04  0.10899804449E+04  0.18846851855E+04  0.25500000920E-02 0.  1.
       -2    1    3    3    0  502  0.75608679925E+03  0.13387731811E+04  0.62913088553E+03  0.16612605303E+04  0.25500000920E-02 0. -1.
</event>
<event>
 5   0  0.1318916E-07  0.3100141E+04  0.7818609E-02  0.8215699E-01
        2   -1    0    0  501    0  0.00000000000E+00  0.00000000000E+00  0.16670622996E+04  0.16670622996E+04  0.25500000920E-02 0. -1.
       -2   -1    0    0    0  501  0.00000000000E+00  0.00000000000E+00 -0.14412890177E+04  0.14412890177E+04  0.25500000920E-02 0.  1.
    10030    2    1    2    0    0  0.00000000000E+00  0.00000000000E+00  0.22577328183E+03  0.31083513173E+04  0.31001410189E+04 0.  0.
        5    1    3    3  502    0  0.19875057913E+03 -0.69393495227E+03 -0.12624783142E+04  0.14542768287E+04  0.46999998093E+01 0.  1.
       -5    1    3    3    0  502 -0.19875057913E+03  0.69393495227E+03  0.14882515960E+04  0.16540744886E+04  0.46999998093E+01 0. -1.
</event>
<event>
 5   0  0.4517409E-08  0.3100397E+04  0.7818609E-02  0.8215629E-01
        1   -1    0    0  501    0  0.00000000000E+00  0.00000000000E+00  0.73673603365E+03  0.73673603366E+03  0.50400001928E-02 0.  1.
       -1   -1    0    0    0  501  0.00000000000E+00  0.00000000000E+00 -0.32618405104E+04  0.32618405104E+04  0.50400001928E-02 0. -1.
    10030    2    1    2    0    0  0.00000000000E+00  0.00000000000E+00 -0.25251044768E+04  0.39985765441E+04  0.31003970327E+04 0.  0.
        2    1    3    3  502    0  0.11571696466E+04  0.61826932272E+02 -0.25905352036E+04  0.28379106402E+04  0.25500000920E-02 0. -1.
       -2    1    3    3    0  502 -0.11571696466E+04 -0.61826932272E+02  0.65430726822E+02  0.11606659039E+04  0.25500000920E-02 0.  1.
</event>
<event>
 5   0  0.4838602E-08  0.3098963E+04  0.7818609E-02  0.8216023E-01
        1   -1    0    0  501    0  0.00000000000E+00  0.00000000000E+00  0.12225858680E+04  0.12225858680E+04  0.50400001928E-02 0.  1.
       -1   -1    0    0    0  501  0.00000000000E+00  0.00000000000E+00 -0.19637824413E+04  0.19637824413E+04  0.50400001928E-02 0. -1.
    10030    2    1    2    0    0  0.00000000000E+00  0.00000000000E+00 -0.74119657335E+03  0.31863683093E+04  0.30989628333E+04 0.  0.
        5    1    3    3  502    0 -0.92234272226E+03  0.42858497363E+03  0.83133278033E+03  0.13135971447E+04  0.46999998093E+01 0.  1.
       -5    1    3    3    0  502  0.92234272226E+03 -0.42858497363E+03 -0.15725293537E+04  0.18727711646E+04  0.46999998093E+01 0. -1.
</event>
<event>
 5   0  0.1325713E-07  0.3100997E+04  0.7818609E-02  0.8215464E-01
        2   -1    0    0  501    0  0.00000000000E+00  0.00000000000E+00  0.17447898031E+04  0.17447898031E+04  0.25500000920E-02 0. -1.
       -2   -1    0    0    0  501  0.00000000000E+00  0.00000000000E+00 -0.13778423091E+04  0.13778423091E+04  0.25500000920E-02 0.  1.
    10030    2    1    2    0    0  0.00000000000E+00  0.00000000000E+00  0.36694749398E+03  0.31226321121E+04  0.31009967501E+04 0.  0.
        4    1    3    3  502    0 -0.54292530680E+03 -0.24612473165E+02 -0.12787836047E+04  0.13894829193E+04  0.12699999809E+01 0.  1.
       -4    1    3    3    0  502  0.54292530680E+03  0.24612473165E+02  0.16457310987E+04  0.17331491928E+04  0.12699999809E+01 0. -1.
</event>
<event>
 5   0  0.4436241E-08  0.3100838E+04  0.7818609E-02  0.8215508E-01
        1   -1    0    0  501    0  0.00000000000E+00  0.00000000000E+00  0.15240497217E+04  0.15240497217E+04  0.50400001928E-02 0.  1.
       -1   -1    0    0    0  501  0.00000000000E+00  0.00000000000E+00 -0.15772441504E+04  0.15772441504E+04  0.50400001928E-02 0. -1.
    10030    2    1    2    0    0  0.00000000000E+00  0.00000000000E+00 -0.53194428667E+02  0.31012938721E+04  0.31008376342E+04 0.  0.
        3    1    3    3  502    0 -0.13915567208E+03 -0.13486201072E+04 -0.77881026306E+03  0.15635491456E+04  0.10100000352E+00 0. -1.
       -3    1    3    3    0  502  0.13915567208E+03  0.13486201072E+04  0.72561583440E+03  0.15377447265E+04  0.10100000352E+00 0.  1.
</event>
<event>
 5   0  0.4517409E-08  0.3100417E+04  0.7818609E-02  0.8215624E-01
       -1   -1    0    0    0  501  0.00000000000E+00  0.00000000000E+00  0.27020409977E+04  0.27020409977E+04  0.50400001928E-02 0.  1.
        1   -1    0    0  501    0  0.00000000000E+00  0.00000000000E+00 -0.88938182311E+03  0.88938182313E+03  0.50400001928E-02 0. -1.
    10030    2    1    2    0    0  0.00000000000E+00  0.00000000000E+00  0.18126591746E+04  0.35914228209E+04  0.31004168421E+04 0.  0.
        2    1    3    3  502    0 -0.10299664028E+04 -0.91524206779E+03  0.83442146336E+02  0.13803845208E+04  0.25500000920E-02 0. -1.
       -2    1    3    3    0  502  0.10299664028E+04  0.91524206779E+03  0.17292170283E+04  0.22110383001E+04  0.25500000920E-02 0.  1.
</event>
<event>
 5   0  0.1377237E-07  0.3095906E+04  0.7818609E-02  0.8216862E-01
       -2   -1    0    0    0  501  0.00000000000E+00  0.00000000000E+00  0.82103602148E+03  0.82103602148E+03  0.25500000920E-02 0. -1.
        2   -1    0    0  501    0  0.00000000000E+00  0.00000000000E+00 -0.29184563252E+04  0.29184563252E+04  0.25500000920E-02 0.  1.
    10030    2    1    2    0    0  0.00000000000E+00  0.00000000000E+00 -0.20974203037E+04  0.37394923467E+04  0.30959055348E+04 0.  0.
        2    1    3    3  502    0  0.11193631680E+04 -0.35877240862E+03 -0.22652987580E+04  0.25521108922E+04  0.25500000920E-02 0.  1.
       -2    1    3    3    0  502 -0.11193631680E+04  0.35877240862E+03  0.16787845432E+03  0.11873814545E+04  0.25500000920E-02 0. -1.
</event>
<event>
 5   0  0.1318916E-07  0.3093805E+04  0.7818609E-02  0.8217440E-01
        2   -1    0    0  501    0  0.00000000000E+00  0.00000000000E+00  0.10145392627E+04  0.10145392627E+04  0.25500000920E-02 0.  1.
       -2   -1    0    0    0  501  0.00000000000E+00  0.00000000000E+00 -0.23586152447E+04  0.23586152447E+04  0.25500000920E-02 0. -1.
    10030    2    1    2    0    0  0.00000000000E+00  0.00000000000E+00 -0.13440759820E+04  0.33731545074E+04  0.30938052759E+04 0.  0.
        5    1    3    3  502    0  0.12078356991E+03  0.14891920172E+04 -0.23509816071E+03  0.15124730642E+04  0.46999998093E+01 0.  1.
       -5    1    3    3    0  502 -0.12078356991E+03 -0.14891920172E+04 -0.11089778213E+04  0.18606814432E+04  0.46999998093E+01 0. -1.
</event>
<event>
 5   0  0.4450600E-08  0.3099361E+04  0.7818609E-02  0.8215913E-01
       -1   -1    0    0    0  501  0.00000000000E+00  0.00000000000E+00  0.29045343420E+04  0.29045343420E+04  0.50400001928E-02 0. -1.
        1   -1    0    0  501    0  0.00000000000E+00  0.00000000000E+00 -0.82681415678E+03  0.82681415680E+03  0.50400001928E-02 0.  1.
    10030    2    1    2    0    0  0.00000000000E+00  0.00000000000E+00  0.20777201852E+04  0.37313484988E+04  0.30993612973E+04 0.  0.
        4    1    3    3  502    0  0.15231405562E+04 -0.26531323540E+03  0.91167674751E+03  0.17948549723E+04  0.12699999809E+01 0. -1.
       -4    1    3    3    0  502 -0.15231405562E+04  0.26531323540E+03  0.11660434377E+04  0.19364935265E+04  0.12699999809E+01 0.  1.
</event>
<event>
 5   0  0.1318916E-07  0.3100108E+04  0.7818609E-02  0.8215708E-01
        2   -1    0    0  501    0  0.00000000000E+00  0.00000000000E+00  0.11477518213E+04  0.11477518213E+04  0.25500000920E-02 0.  1.
       -2   -1    0    0    0  501  0.00000000000E+00  0.00000000000E+00 -0.20933688960E+04  0.20933688960E+04  0.25500000920E-02 0. -1.
    10030    2    1    2    0    0  0.00000000000E+00  0.00000000000E+00 -0.94561707471E+03  0.32411207173E+04  0.31001083613E+04 0.  0.
        5    1    3    3  502    0  0.12972652109E+04 -0.71131573434E+03 -0.95620183121E+03  0.17615933507E+04  0.46999998093E+01 0. -1.
       -5    1    3    3    0  502 -0.12972652109E+04  0.71131573434E+03  0.10584756494E+02  0.14795273666E+04  0.46999998093E+01 0.  1.
</event>
<event>
 5   0  0.4436241E-08  0.3099891E+04  0.7818609E-02  0.8215768E-01
        1   -1    0    0  501    0  0.00000000000E+00  0.00000000000E+00  0.16510404698E+04  0.16510404698E+04  0.50400001928E-02 0. -1.
       -1   -1    0    0    0  501  0.00000000000E+00  0.00000000000E+00 -0.14550402174E+04  0.14550402174E+04  0.50400001928E-02 0.  1.
    10030    2    1    2    0    0  0.00000000000E+00  0.00000000000E+00  0.19600025237E+03  0.31060806872E+04  0.30998905039E+04 0.  0.
        3    1    3    3  502    0 -0.10924731428E+04  0.10919669987E+04  0.22647777765E+03  0.15611475548E+04  0.10100000352E+00 0.  1.
       -3    1    3    3    0  502  0.10924731428E+04 -0.10919669987E+04 -0.30477525276E+02  0.15449331324E+04  0.10100000352E+00 0. -1.
</event>
<event>
 5   0  0.1377237E-07  0.3099782E+04  0.7818609E-02  0.8215798E-01
       -2   -1    0    0    0  501  0.00000000000E+00  0.00000000000E+00  0.13048101573E+04  0.13048101573E+04  0.25500000920E-02 0.  1.
        2   -1    0    0  501    0  0.00000000000E+00  0.00000000000E+00 -0.18410044853E+04  0.18410044853E+04  0.25500000920E-02 0. -1.
    10030    2    1    2    0    0  0.00000000000E+00  0.00000000000E+00 -0.53619432799E+03  0.31458146425E+04  0.30997815097E+04 0.  0.
        2    1    3    3  502    0 -0.59663881584E+03 -0.65754650128E+03  0.10211288634E+04  0.13531627521E+04  0.25500000920E-02 0.  1.
       -2    1    3    3    0  502  0.59663881584E+03  0.65754650128E+03 -0.15573231914E+04  0.17926518905E+04  0.25500000920E-02 0. -1.
</event>
<event>
 5   0  0.1398931E-07  0.3098829E+04  0.7818609E-02  0.8216059E-01
        2   -1    0    0  501    0  0.00000000000E+00  0.00000000000E+00  0.16754218203E+04  0.16754218203E+04  0.25500000920E-02 0. -1.
       -2   -1    0    0    0  501  0.00000000000E+00  0.00000000000E+00 -0.14328837997E+04  0.14328837997E+04  0.25500000920E-02 0.  1.
    10030    2    1    2    0    0  0.00000000000E+00  0.00000000000E+00  0.24253802057E+03  0.31083056200E+04  0.30988286716E+04 0.  0.
        3    1    3    3  502    0 -0.16471471818E+02 -0.12579522573E+04 -0.78591361774E+03  0.14833662446E+04  0.10100000352E+00 0.  1.
       -3    1    3    3    0  502  0.16471471818E+02  0.12579522573E+04  0.10284516383E+04  0.16249393753E+04  0.10100000352E+00 0. -1.
</event>
<event>
 5   0  0.1329777E-07  0.3098496E+04  0.7818609E-02  0.8216151E-01
        2   -1    0    0  501    0  0.00000000000E+00  0.00000000000E+00  0.16326463768E+04  0.16326463768E+04  0.25500000920E-02 0. -1.
       -2   -1    0    0    0  501  0.00000000000E+00  0.00000000000E+00 -0.14701095657E+04  0.14701095657E+04  0.25500000920E-02 0.  1.
    10030    2    1    2    0    0  0.00000000000E+00  0.00000000000E+00  0.16253681113E+03  0.31027559425E+04  0.30984958002E+04 0.  0.
        1    1    3    3  502    0  0.49664524265E+03  0.79799315045E+03  0.13145133338E+04  0.16159810859E+04  0.50400001928E-02 0. -1.
       -1    1    3    3    0  502 -0.49664524265E+03 -0.79799315045E+03 -0.11519765227E+04  0.14867748566E+04  0.50400001928E-02 0.  1.
</event>
<event>
 5   0  0.4470354E-08  0.3099400E+04  0.7818609E-02  0.8215903E-01
       -1   -1    0    0    0  501  0.00000000000E+00  0.00000000000E+00  0.12406430641E+04  0.12406430641E+04  0.50400001928E-02 0.  1.
        1   -1    0    0  501    0  0.00000000000E+00  0.00000000000E+00 -0.19357457855E+04  0.19357457855E+04  0.50400001928E-02 0. -1.
    10030    2    1    2    0    0  0.00000000000E+00  0.00000000000E+00 -0.69510272142E+03  0.31763888496E+04  0.30993996726E+04 0.  0.
        1    1    3    3  502    0  0.22081715578E+03 -0.70253251638E+03  0.10498650618E+04  0.12823918281E+04  0.50400001928E-02 0.  1.
       -1    1    3    3    0  502 -0.22081715578E+03  0.70253251638E+03 -0.17449677832E+04  0.18939970215E+04  0.50400001928E-02 0. -1.
</event>
<event>
 5   0  0.1398931E-07  0.3100275E+04  0.7818609E-02  0.8215662E-01
       -2   -1    0    0    0  501  0.00000000000E+00  0.00000000000E+00  0.15017911095E+04  0.15017911095E+04  0.25500000920E-02 0. -1.
        2   -1    0    0  501    0  0.00000000000E+00  0.00000000000E+00 -0.16000400810E+04  0.16000400810E+04  0.25500000920E-02 0.  1.
    10030    2    1    2    0    0  0.00000000000E+00  0.00000000000E+00 -0.98248971507E+02  0.31018311904E+04  0.31002748061E+04 0.  0.
        3    1    3    3  502    0  0.62898351476E+03  0.69529769865E+03 -0.12841941998E+04  0.15900358186E+04  0.10100000352E+00 0.  1.
       -3    1    3    3    0  502 -0.62898351476E+03 -0.69529769865E+03  0.11859452283E+04  0.15117953718E+04  0.10100000352E+00 0. -1.
</event>
<event>
 5   0  0.4450600E-08  0.3099832E+04  0.7818609E-02  0.8215784E-01
        1   -1    0    0  501    0  0.00000000000E+00  0.00000000000E+00  0.13164528673E+04  0.13164528673E+04  0.50400001928E-02 0. -1.
       -1   -1    0    0    0  501  0.00000000000E+00  0.00000000000E+00 -0.18247825242E+04  0.18247825242E+04  0.50400001928E-02 0.  1.
    10030    2    1    2    0    0  0.00000000000E+00  0.00000000000E+00 -0.50832965689E+03  0.31412353916E+04  0.30998323737E+04 0.  0.
        4    1    3    3  502    0 -0.76492295131E+03 -0.54741092691E+03 -0.15024756051E+04  0.17726252851E+04  0.12699999809E+01 0.  1.
       -4    1    3    3    0  502  0.76492295131E+03  0.54741092691E+03  0.99414594822E+03  0.13686101065E+04  0.12699999809E+01 0. -1.
</event>
<event>
 5   0  0.1318916E-07  0.3099307E+04  0.7818609E-02  0.8215928E-01
        2   -1    0    0  501    0  0.00000000000E+00  0.00000000000E+00  0.15938136853E+04  0.15938136853E+04  0.25500000920E-02 0. -1.
       -2   -1    0    0    0  501  0.00000000000E+00  0.00000000000E+00 -0.15067164650E+04  0.15067164650E+04  0.25500000920E-02 0.  1.
    10030    2    1    2    0    0  0.00000000000E+00  0.00000000000E+00  0.87097220291E+02  0.31005301504E+04  0.30993065817E+04 0.  0.
        5    1    3    3  502    0 -0.16363855250E+03  0.11525797260E+04  0.10667845736E+04  0.15790088718E+04  0.46999998093E+01 0. -1.
       -5    1    3    3    0  502  0.16363855250E+03 -0.11525797260E+04 -0.97968735335E+03  0.15215212785E+04  0.46999998093E+01 0.  1.
</event>
<event>
 5   0  0.4450600E-08  0.3105023E+04  0.7818609E-02  0.8214361E-01
       -1   -1    0    0    0  501  0.00000000000E+00  0.00000000000E+00  0.11810799787E+04  0.11810799787E+04  0.50400001928E-02 0. -1.
        1   -1    0    0  501    0  0.00000000000E+00  0.00000000000E+00 -0.20407521668E+04  0.20407521668E+04  0.50400001928E-02 0.  1.
    10030    2    1    2    0    0  0.00000000000E+00  0.00000000000E+00 -0.85967218817E+03  0.32218321455E+04  0.31050227218E+04 0.  0.
        4    1    3    3  502    0  0.36766374201E+02 -0.86026353065E+03 -0.17702882203E+04  0.19685850513E+04  0.12699999809E+01 0.  1.
       -4    1    3    3    0  502 -0.36766374201E+02  0.86026353065E+03  0.91061603209E+03  0.12532470942E+04  0.12699999809E+01 0. -1.
</event>
<event>
 5   0  0.4436241E-08  0.3099790E+04  0.7818609E-02  0.8215796E-01
       -1   -1    0    0    0  501  0.00000000000E+00  0.00000000000E+00  0.18961173505E+04  0.18961173505E+04  0.50400001928E-02 0.  1.
        1   -1    0    0  501    0  0.00000000000E+00  0.00000000000E+00 -0.12668909021E+04  0.12668909021E+04  0.50400001928E-02 0. -1.
    10030    2    1    2    0    0  0.00000000000E+00  0.00000000000E+00  0.62922644845E+03  0.31630082526E+04  0.30997895545E+04 0.  0.
        3    1    3    3  502    0  0.76676412814E+03 -0.62758878514E+03 -0.90148938553E+03  0.13395812905E+04  0.10100000352E+00 0. -1.
       -3    1    3    3    0  502 -0.76676412814E+03  0.62758878514E+03  0.15307158340E+04  0.18234269621E+04  0.10100000352E+00 0.  1.
</event>
<event>
 5   0  0.1329777E-07  0.3099156E+04  0.7818609E-02  0.8215970E-01
        2   -1    0    0  501    0  0.00000000000E+00  0.00000000000E+00  0.16354592395E+04  0.16354592395E+04  0.25500000920E-02 0. -1.
       -2   -1    0    0    0  501  0.00000000000E+00  0.00000000000E+00 -0.14682064064E+04  0.14682064064E+04  0.25500000920E-02 0.  1.
    10030    2    1    2    0    0  0.00000000000E+00  0.00000000000E+00  0.16725283306E+03  0.31036656459E+04  0.30991558418E+04 0.  0.
        1    1    3    3  502    0  0.14055115533E+04  0.18580232996E+02  0.73679002174E+03  0.15870310292E+04  0.50400001928E-02 0.  1.
       -1    1    3    3    0  502 -0.14055115533E+04 -0.18580232996E+02 -0.56953718868E+03  0.15166346167E+04  0.50400001928E-02 0. -1.
</event>
<event>
 5   0  0.1325713E-07  0.3102136E+04  0.7818609E-02  0.8215152E-01
       -2   -1    0    0    0  501  0.00000000000E+00  0.00000000000E+00  0.14306149778E+04  0.14306149778E+04  0.25500000920E-02 0.  1.
        2   -1    0    0  501    0  0.00000000000E+00  0.00000000000E+00 -0.16816626114E+04  0.16816626114E+04  0.25500000920E-02 0. -1.
    10030    2    1    2    0    0  0.00000000000E+00  0.00000000000E+00 -0.25104763362E+03  0.31122775892E+04  0.31021358574E+04 0.  0.
        4    1    3    3  502    0 -0.11637696940E+04 -0.98111049818E+03  0.17356553846E+03  0.15320131590E+04  0.12699999809E+01 0. -1.
       -4    1    3    3    0  502  0.11637696940E+04  0.98111049818E+03 -0.42461317208E+03  0.15802644302E+04  0.12699999809E+01 0.  1.
</event>
<event>
 5   0  0.1398931E-07  0.3095739E+04  0.7818609E-02  0.8216908E-01
       -2   -1    0    0    0  501  0.00000000000E+00  0.00000000000E+00  0.12774088302E+04  0.12774088302E+04  0.25500000920E-02 0.  1.
        2   -1    0    0  501    0  0.00000000000E+00  0.00000000000E+00 -0.18755932120E+04  0.18755932120E+04  0.25500000920E-02 0. -1.
    10030    2    1    2    0    0  0.00000000000E+00  0.00000000000E+00 -0.59818438181E+03  0.31530020421E+04  0.30957385747E+04 0.  0.
        3    1    3    3  502    0 -0.24342123296E+03  0.39066264517E+03  0.12060900524E+04  0.12909393571E+04  0.10100000352E+00 0.  1.
       -3    1    3    3    0  502  0.24342123296E+03 -0.39066264517E+03 -0.18042744342E+04  0.18620626851E+04  0.10100000352E+00 0. -1.
</event>
<event>
 5   0  0.4450600E-08  0.3099677E+04  0.7818609E-02  0.8215827E-01
       -1   -1    0    0    0  501  0.00000000000E+00  0.00000000000E+00  0.97037127651E+03  0.97037127653E+03  0.50400001928E-02 0. -1.
        1   -1    0    0  501    0  0.00000000000E+00  0.00000000000E+00 -0.24753400851E+04  0.24753400851E+04  0.50400001928E-02 0.  1.
    10030    2    1    2    0    0  0.00000000000E+00  0.00000000000E+00 -0.15049688085E+04  0.34457113616E+04  0.30996767045E+04 0.  0.
        4    1    3    3  502    0 -0.63369529817E+03 -0.13914247700E+04 -0.47046024378E+03  0.15996771785E+04  0.12699999809E+01 0.  1.
       -4    1    3    3    0  502  0.63369529817E+03  0.13914247700E+04 -0.10345085648E+04  0.18460341831E+04  0.12699999809E+01 0. -1.
</event>
<event>
 5   0  0.4517409E-08  0.3090598E+04  0.7818609E-02  0.8218323E-01
        1   -1    0    0  501    0  0.00000000000E+00  0.00000000000E+00  0.20006821511E+04  0.20006821511E+04  0.50400001928E-02 0. -1.
       -1   -1    0    0    0  501  0.00000000000E+00  0.00000000000E+00 -0.11935676096E+04  0.11935676096E+04  0.50400001928E-02 0.  1.
    10030    2    1    2    0    0  0.00000000000E+00  0.00000000000E+00  0.80711454149E+03  0.31942497607E+04  0.30905982674E+04 0.  0.
        2    1    3    3  502    0  0.41487572746E+03  0.89782413138E+03  0.16307018372E+04  0.19071965085E+04  0.25500000920E-02 0. -1.
       -2    1    3    3    0  502 -0.41487572746E+03 -0.89782413138E+03 -0.82358729576E+03  0.12870532521E+04  0.25500000920E-02 0.  1.
</event>
<event>
 5   0  0.1318916E-07  0.3100456E+04  0.7818609E-02  0.8215613E-01
        2   -1    0    0  501    0  0.00000000000E+00  0.00000000000E+00  0.15193293594E+04  0.15193293594E+04  0.25500000920E-02 0. -1.
       -2   -1    0    0    0  501  0.00000000000E+00  0.00000000000E+00 -0.15817551400E+04  0.15817551400E+04  0.25500000920E-02 0.  1.
    10030    2    1    2    0    0  0.00000000000E+00  0.00000000000E+00 -0.62425780581E+02  0.31010844993E+04  0.31004561106E+04 0.  0.
        5    1    3    3  502    0 -0.46565961178E+01  0.13713349889E+04  0.69184689836E+03  0.15359868347E+04  0.46999998093E+01 0. -1.
       -5    1    3    3    0  502  0.46565961178E+01 -0.13713349889E+04 -0.75427267894E+03  0.15650976646E+04  0.46999998093E+01 0.  1.
</event>
<event>
 5   0  0.4470354E-08  0.3101930E+04  0.7818609E-02  0.8215209E-01
       -1   -1    0    0    0  501  0.00000000000E+00  0.00000000000E+00  0.97825298556E+03  0.97825298558E+03  0.50400001928E-02 0. -1.
        1   -1    0    0  501    0  0.00000000000E+00  0.00000000000E+00 -0.24589670453E+04  0.24589670453E+04  0.50400001928E-02 0.  1.
    10030    2    1    2    0    0  0.00000000000E+00  0.00000000000E+00 -0.14807140598E+04  0.34372200309E+04  0.31019296275E+04 0.  0.
        1    1    3    3  502    0  0.64823134679E+03 -0.14021042881E+04 -0.89466257817E+03  0.17850830352E+04  0.50400001928E-02 0. -1.
       -1    1    3    3    0  502 -0.64823134679E+03  0.14021042881E+04 -0.58605148160E+03  0.16521369957E+04  0.50400001928E-02 0.  1.
</event>
<event>
 5   0  0.1398931E-07  0.3102577E+04  0.7818609E-02  0.8215031E-01
        2   -1    0    0  501    0  0.00000000000E+00  0.00000000000E+00  0.12989982988E+04  0.12989982988E+04  0.25500000920E-02 0.  1.
       -2   -1    0    0    0  501  0.00000000000E+00  0.00000000000E+00 -0.18525777895E+04  0.18525777896E+04  0.25500000920E-02 0. -1.
    10030    2    1    2    0    0  0.00000000000E+00  0.00000000000E+00 -0.55357949079E+03  0.31515760883E+04  0.31025766047E+04 0.  0.
        3    1    3    3  502    0 -0.31660493957E+01  0.48952807495E+03 -0.17720592280E+04  0.18384345726E+04  0.10100000352E+00 0. -1.
       -3    1    3    3    0  502  0.31660493957E+01 -0.48952807495E+03  0.12184797372E+04  0.13131415157E+04  0.10100000352E+00 0.  1.
</event>
<event>
 5   0  0.4517409E-08  0.3101196E+04  0.7818609E-02  0.8215410E-01
        1   -1    0    0  501    0  0.00000000000E+00  0.00000000000E+00  0.14628900658E+04  0.14628900658E+04  0.50400001928E-02 0. -1.
       -1   -1    0    0    0  501  0.00000000000E+00  0.00000000000E+00 -0.16435648349E+04  0.16435648349E+04  0.50400001928E-02 0.  1.
    10030    2    1    2    0    0  0.00000000000E+00  0.00000000000E+00 -0.18067476915E+03  0.31064549007E+04  0.31011963302E+04 0.  0.
        2    1    3    3  502    0  0.14605539321E+04  0.66195284718E+02 -0.60769652799E+03  0.15833176164E+04  0.25500000920E-02 0.  1.
       -2    1    3    3    0  502 -0.14605539321E+04 -0.66195284718E+02  0.42702175884E+03  0.15231372843E+04  0.25500000920E-02 0. -1.
</event>
<event>
 5   0  0.4450600E-08  0.3100311E+04  0.7818609E-02  0.8215653E-01
        1   -1    0    0  501    0  0.00000000000E+00  0.00000000000E+00  0.29088212543E+04  0.29088212543E+04  0.50400001928E-02 0.  1.
       -1   -1    0    0    0  501  0.00000000000E+00  0.00000000000E+00 -0.82610173400E+03  0.82610173402E+03  0.50400001928E-02 0. -1.
    10030    2    1    2    0    0  0.00000000000E+00  0.00000000000E+00  0.20827195203E+04  0.37349229883E+04  0.31003111341E+04 0.  0.
        4    1    3    3  502    0  0.43144102008E+03 -0.41030094727E+03  0.27655832406E+04  0.28289468879E+04  0.12699999809E+01 0.  1.
       -4    1    3    3    0  502 -0.43144102008E+03  0.41030094727E+03 -0.68286372028E+03  0.90597610041E+03  0.12699999809E+01 0. -1.
</event>
<event>
 5   0  0.4305500E-08  0.3100323E+04  0.7818609E-02  0.8215649E-01
        3   -1    0    0  501    0  0.00000000000E+00  0.00000000000E+00  0.17594399655E+04  0.17594399684E+04  0.10100000352E+00 0. -1.
       -3   -1    0    0    0  501  0.00000000000E+00  0.00000000000E+00 -0.13657759346E+04  0.13657759383E+04  0.10100000352E+00 0.  1.
    10030    2    1    2    0    0  0.00000000000E+00  0.00000000000E+00  0.39366403094E+03  0.31252159067E+04  0.31003230629E+04 0.  0.
        4    1    3    3  502    0  0.33008293043E+03  0.13133645280E+04  0.95728829390E+03  0.16583979061E+04  0.12699999809E+01 0. -1.
       -4    1    3    3    0  502 -0.33008293043E+03 -0.13133645280E+04 -0.56362426296E+03  0.14668180006E+04  0.12699999809E+01 0.  1.
</event>
<event>
 5   0  0.1325713E-07  0.3098598E+04  0.7818609E-02  0.8216123E-01
        2   -1    0    0  501    0  0.00000000000E+00  0.00000000000E+00  0.21832928735E+04  0.21832928735E+04  0.25500000920E-02 0. -1.
       -2   -1    0    0    0  501  0.00000000000E+00  0.00000000000E+00 -0.10994069748E+04  0.10994069748E+04  0.25500000920E-02 0.  1.
    10030    2    1    2    0    0  0.00000000000E+00  0.00000000000E+00  0.10838858987E+04  0.32826998483E+04  0.30985980140E+04 0.  0.
        4    1    3    3  502    0 -0.34722987931E+03  0.15098224414E+04  0.52720959401E+03  0.16364852466E+04  0.12699999809E+01 0.  1.
       -4    1    3    3    0  502  0.34722987931E+03 -0.15098224414E+04  0.55667630468E+03  0.16462146016E+04  0.12699999809E+01 0. -1.
</event>
<event>
 5   0  0.4838602E-08  0.3103375E+04  0.7818609E-02  0.8214812E-01
       -1   -1    0    0    0  501  0.00000000000E+00  0.00000000000E+00  0.98688825124E+03  0.98688825125E+03  0.50400001928E-02 0. -1.
        1   -1    0    0  501    0  0.00000000000E+00  0.00000000000E+00 -0.24397233393E+04  0.24397233393E+04  0.50400001928E-02 0.  1.
    10030    2    1    2    0    0  0.00000000000E+00  0.00000000000E+00 -0.14528350880E+04  0.34266115905E+04  0.31033751303E+04 0.  0.
        5    1    3    3  502    0 -0.93803264350E+03 -0.67513679649E+03 -0.18696313087E+04  0.21980123418E+04  0.46999998093E+01 0.  1.
       -5    1    3    3    0  502  0.93803264350E+03  0.67513679649E+03  0.41679622072E+03  0.12285992487E+04  0.46999998093E+01 0. -1.
</event>
<event>
 5   0  0.1377237E-07  0.3094329E+04  0.7818609E-02  0.8217296E-01
        2   -1    0    0  501    0  0.00000000000E+00  0.00000000000E+00  0.28408281271E+04  0.28408281271E+04  0.25500000920E-02 0.  1.
       -2   -1    0    0    0  501  0.00000000000E+00  0.00000000000E+00 -0.84261292020E+03  0.84261292021E+03  0.25500000920E-02 0. -1.
    10030    2    1    2    0    0  0.00000000000E+00  0.00000000000E+00  0.19982152069E+04  0.36834410473E+04  0.30943293193E+04 0.  0.
        2    1    3    3  502    0  0.85373230874E+03 -0.97711803279E+03  0.20022138642E+04  0.23858916285E+04  0.25500000920E-02 0.  1.
       -2    1    3    3    0  502 -0.85373230874E+03  0.97711803279E+03 -0.39986572881E+01  0.12975494188E+04  0.25500000920E-02 0. -1.
</event>
<event>
 5   0  0.4450600E-08  0.3100428E+04  0.7818609E-02  0.8215621E-01
        1   -1    0    0  501    0  0.00000000000E+00  0.00000000000E+00  0.22018290675E+04  0.22018290675E+04  0.50400001928E-02 0. -1.
       -1   -1    0    0    0  501  0.00000000000E+00  0.00000000000E+00 -0.10914393226E+04  0.10914393226E+04  0.50400001928E-02 0.  1.
    10030    2    1    2    0    0  0.00000000000E+00  0.00000000000E+00  0.11103897449E+04  0.32932683900E+04  0.31004276001E+04 0.  0.
        4    1    3    3  502    0  0.73976675112E+03  0.56252581574E+03  0.18731216979E+04  0.20909989592E+04  0.12699999809E+01 0. -1.
       -4    1    3    3    0  502 -0.73976675112E+03 -0.56252581574E+03 -0.76273195295E+03  0.12022694309E+04  0.12699999809E+01 0.  1.
</event>
<event>
 5   0  0.4470354E-08  0.3101924E+04  0.7818609E-02  0.8215210E-01
       -1   -1    0    0    0  501  0.00000000000E+00  0.00000000000E+00  0.21846881820E+04  0.21846881820E+04  0.50400001928E-02 0. -1.
        1   -1    0    0  501    0  0.00000000000E+00  0.00000000000E+00 -0.11010647357E+04  0.11010647357E+04  0.50400001928E-02 0.  1.
    10030    2    1    2    0    0  0.00000000000E+00  0.00000000000E+00  0.10836234462E+04  0.32857529177E+04  0.31019239938E+04 0.  0.
        1    1    3    3  502    0 -0.75979600736E+02 -0.58003730688E+03 -0.97972156991E+03  0.11410830520E+04  0.50400001928E-02 0.  1.
       -1    1    3    3    0  502  0.75979600736E+02  0.58003730688E+03  0.20633450161E+04  0.21446698657E+04  0.50400001928E-02 0. -1.
</event>
<event>
 5   0  0.1377237E-07  0.3099438E+04  0.7818609E-02  0.8215892E-01
       -2   -1    0    0    0  501  0.00000000000E+00  0.00000000000E+00  0.11728278693E+04  0.11728278693E+04  0.25500000920E-02 0.  1.
        2   -1    0    0  501    0  0.00000000000E+00  0.00000000000E+00 -0.20477244759E+04  0.20477244759E+04  0.25500000920E-02 0. -1.
    10030    2    1    2    0    0  0.00000000000E+00  0.00000000000E+00 -0.87489660662E+03  0.32205523453E+04  0.30994375839E+04 0.  0.
        2    1    3    3  502    0  0.32620225143E+03 -0.10423802294E+03  0.11330202774E+04  0.11836420165E+04  0.25500000920E-02 0.  1.
       -2    1    3    3    0  502 -0.32620225143E+03  0.10423802294E+03 -0.20079168840E+04  0.20369103287E+04  0.25500000920E-02 0. -1.
</event>
<event>
 5   0  0.1329777E-07  0.3098767E+04  0.7818609E-02  0.8216076E-01
       -2   -1    0    0    0  501  0.00000000000E+00  0.00000000000E+00  0.85265180866E+03  0.85265180867E+03  0.25500000920E-02 0. -1.
        2   -1    0    0  501    0  0.00000000000E+00  0.00000000000E+00 -0.28154399682E+04  0.28154399682E+04  0.25500000920E-02 0.  1.
    10030    2    1    2    0    0  0.00000000000E+00  0.00000000000E+00 -0.19627881596E+04  0.36680917769E+04  0.30987674847E+04 0.  0.
        1    1    3    3  502    0 -0.69192765409E+03 -0.59054209426E+02 -0.26209032400E+04  0.27113437760E+04  0.50400001928E-02 0.  1.
       -1    1    3    3    0  502  0.69192765409E+03  0.59054209426E+02  0.65811508043E+03  0.95674800091E+03  0.50400001928E-02 0. -1.
</event>
<event>
 5   0  0.4517409E-08  0.3099253E+04  0.7818609E-02  0.8215943E-01
        1   -1    0    0  501    0  0.00000000000E+00  0.00000000000E+00  0.94245954787E+03  0.94245954788E+03  0.50400001928E-02 0.  1.
       -1   -1    0    0    0  501  0.00000000000E+00  0.00000000000E+00 -0.25479520071E+04  0.25479520071E+04  0.50400001928E-02 0. -1.
    10030    2    1    2    0    0  0.00000000000E+00  0.00000000000E+00 -0.16054924592E+04  0.34904115550E+04  0.30992526174E+04 0.  0.
        2    1    3    3  502    0  0.97832135075E+03 -0.11832182130E+04 -0.56591053479E+03  0.16362679299E+04  0.25500000920E-02 0. -1.
       -2    1    3    3    0  502 -0.97832135075E+03  0.11832182130E+04 -0.10395819244E+04  0.18541436251E+04  0.25500000920E-02 0.  1.
</event>
<event>
 5   0  0.4470354E-08  0.3085393E+04  0.7818609E-02  0.8219758E-01
        1   -1    0    0  501    0  0.00000000000E+00  0.00000000000E+00  0.26799802878E+04  0.26799802879E+04  0.50400001928E-02 0.  1.
       -1   -1    0    0    0  501  0.00000000000E+00  0.00000000000E+00 -0.88803341722E+03  0.88803341724E+03  0.50400001928E-02 0. -1.
    10030    2    1    2    0    0  0.00000000000E+00  0.00000000000E+00  0.17919468706E+04  0.35680137051E+04  0.30853927161E+04 0.  0.
        1    1    3    3  502    0  0.13958304657E+03 -0.15094720842E+04  0.12269658707E+04  0.19502396386E+04  0.50400001928E-02 0.  1.
       -1    1    3    3    0  502 -0.13958304657E+03  0.15094720842E+04  0.56498099992E+03  0.16177740665E+04  0.50400001928E-02 0. -1.
</event>
<event>
 5   0  0.4470354E-08  0.3118860E+04  0.7818609E-02  0.8210581E-01
       -1   -1    0    0    0  501  0.00000000000E+00  0.00000000000E+00  0.12374014259E+04  0.12374014259E+04  0.50400001928E-02 0.  1.
        1   -1    0    0  501    0  0.00000000000E+00  0.00000000000E+00 -0.19652657986E+04  0.19652657986E+04  0.50400001928E-02 0. -1.
    10030    2    1    2    0    0  0.00000000000E+00  0.00000000000E+00 -0.72786437275E+03  0.32026672245E+04  0.31188604980E+04 0.  0.
        1    1    3    3  502    0 -0.87816661239E+03  0.24617526429E+03  0.93498602781E+03  0.13061308250E+04  0.50400001928E-02 0.  1.
       -1    1    3    3    0  502  0.87816661239E+03 -0.24617526429E+03 -0.16628504006E+04  0.18965363995E+04  0.50400001928E-02 0. -1.
</event>
<event>
 5   0  0.1325713E-07  0.3095284E+04  0.7818609E-02  0.8217033E-01
       -2   -1    0    0    0  501  0.00000000000E+00  0.00000000000E+00  0.12618982491E+04  0.12618982491E+04  0.25500000920E-02 0. -1.
        2   -1    0    0  501    0  0.00000000000E+00  0.00000000000E+00 -0.18980888898E+04  0.18980888898E+04  0.25500000920E-02 0.  1.
    10030    2    1    2    0    0  0.00000000000E+00  0.00000000000E+00 -0.63619064066E+03  0.31599871389E+04  0.30952835390E+04 0.  0.
        4    1    3    3  502    0  0.12552743446E+03  0.15310159427E+04 -0.51024907669E+03  0.16186793033E+04  0.12699999809E+01 0. -1.
       -4    1    3    3    0  502 -0.12552743446E+03 -0.15310159427E+04 -0.12594156396E+03  0.15413078356E+04  0.12699999809E+01 0.  1.
</event>
<event>
 5   0  0.4436241E-08  0.3099411E+04  0.7818609E-02  0.8215900E-01
        1   -1    0    0  501    0  0.00000000000E+00  0.00000000000E+00  0.18811596958E+04  0.18811596958E+04  0.50400001928E-02 0.  1.
       -1   -1    0    0    0  501  0.00000000000E+00  0.00000000000E+00 -0.12766522338E+04  0.12766522338E+04  0.50400001928E-02 0. -1.
    10030    2    1    2    0    0  0.00000000000E+00  0.00000000000E+00  0.60450746202E+03  0.31578119296E+04  0.30994107361E+04 0.  0.
        3    1    3    3  502    0 -0.10993321819E+04  0.58292235793E+02  0.14135199154E+04  0.17916382984E+04  0.10100000352E+00 0.  1.
       -3    1    3    3    0  502  0.10993321819E+04 -0.58292235793E+02 -0.80901245336E+03  0.13661736312E+04  0.10100000352E+00 0. -1.
</event>
<event>
 5   0  0.4470354E-08  0.3100371E+04  0.7818609E-02  0.8215636E-01
       -1   -1    0    0    0  501  0.00000000000E+00  0.00000000000E+00  0.89940410443E+03  0.89940410444E+03  0.50400001928E-02 0. -1.
        1   -1    0    0  501    0  0.00000000000E+00  0.00000000000E+00 -0.26718516788E+04  0.26718516788E+04  0.50400001928E-02 0.  1.
    10030    2    1    2    0    0  0.00000000000E+00  0.00000000000E+00 -0.17724475744E+04  0.35712557833E+04  0.31003705368E+04 0.  0.
        1    1    3    3  502    0  0.14577938584E+04  0.37225855725E+03 -0.45625446984E+03  0.15722301067E+04  0.50400001928E-02 0. -1.
       -1    1    3    3    0  502 -0.14577938584E+04 -0.37225855725E+03 -0.13161931046E+04  0.19990256766E+04  0.50400001928E-02 0.  1.
</event>
<event>
 5   0  0.4470354E-08  0.3098232E+04  0.7818609E-02  0.8216223E-01
        1   -1    0    0  501    0  0.00000000000E+00  0.00000000000E+00  0.21066874047E+04  0.21066874047E+04  0.50400001928E-02 0.  1.
       -1   -1    0    0    0  501  0.00000000000E+00  0.00000000000E+00 -0.11391157839E+04  0.11391157839E+04  0.50400001928E-02 0. -1.
    10030    2    1    2    0    0  0.00000000000E+00  0.00000000000E+00  0.96757162081E+03  0.32458031886E+04  0.30982323182E+04 0.  0.
        1    1    3    3  502    0  0.21502549897E+03 -0.54110903446E+03 -0.10201119750E+04  0.11745907346E+04  0.50400001928E-02 0. -1.
       -1    1    3    3    0  502 -0.21502549897E+03  0.54110903446E+03  0.19876835958E+04  0.20712124539E+04  0.50400001928E-02 0.  1.
</event>
<event>
 5   0  0.1325713E-07  0.3099205E+04  0.7818609E-02  0.8215956E-01
       -2   -1    0    0    0  501  0.00000000000E+00  0.00000000000E+00  0.13527160843E+04  0.13527160843E+04  0.25500000920E-02 0. -1.
        2   -1    0    0  501    0  0.00000000000E+00  0.00000000000E+00 -0.17751458837E+04  0.17751458838E+04  0.25500000920E-02 0.  1.
    10030    2    1    2    0    0  0.00000000000E+00  0.00000000000E+00 -0.42242979948E+03  0.31278619680E+04  0.30992053103E+04 0.  0.
        4    1    3    3  502    0  0.10822469223E+04  0.87611875797E+00  0.90809702539E+03  0.14127635997E+04  0.12699999809E+01 0. -1.
       -4    1    3    3    0  502 -0.10822469223E+04 -0.87611875797E+00 -0.13305268249E+04  0.17150983683E+04  0.12699999809E+01 0.  1.
</event>
<event>
 5   0  0.1398931E-07  0.3101992E+04  0.7818609E-02  0.8215191E-01
        2   -1    0    0  501    0  0.00000000000E+00  0.00000000000E+00  0.16629114173E+04  0.16629114173E+04  0.25500000920E-02 0. -1.
       -2   -1    0    0    0  501  0.00000000000E+00  0.00000000000E+00 -0.14466126455E+04  0.14466126455E+04  0.25500000920E-02 0.  1.
    10030    2    1    2    0    0  0.00000000000E+00  0.00000000000E+00  0.21629877185E+03  0.31095240628E+04  0.31019920597E+04 0.  0.
        3    1    3    3  502    0 -0.45159609136E+03 -0.85087640072E+03  0.13266909603E+04  0.16395238923E+04  0.10100000352E+00 0. -1.
       -3    1    3    3    0  502  0.45159609136E+03  0.85087640072E+03 -0.11103921884E+04  0.14700001705E+04  0.10100000352E+00 0.  1.
</event>
<event>
 5   0  0.1318916E-07  0.3113853E+04  0.7818609E-02  0.8211946E-01
        2   -1    0    0  501    0  0.00000000000E+00  0.00000000000E+00  0.14029242837E+04  0.14029242837E+04  0.25500000920E-02 0.  1.
       -2   -1    0    0    0  501  0.00000000000E+00  0.00000000000E+00 -0.17278339393E+04  0.17278339393E+04  0.25500000920E-02 0. -1.
    10030    2    1    2    0    0  0.00000000000E+00  0.00000000000E+00 -0.32490965564E+03  0.31307582230E+04  0.31138530419E+04 0.  0.
        5    1    3    3  502    0 -0.13778283119E+04 -0.72478341665E+03 -0.14574401947E+03  0.15636448661E+04  0.46999998093E+01 0.  1.
       -5    1    3    3    0  502  0.13778283119E+04  0.72478341665E+03 -0.17916563617E+03  0.15671133569E+04  0.46999998093E+01 0. -1.
</event>
<event>
 5   0  0.1398931E-07  0.3099227E+04  0.7818609E-02  0.8215950E-01
       -2   -1    0    0    0  501  0.00000000000E+00  0.00000000000E+00  0.13645351807E+04  0.13645351808E+04  0.25500000920E-02 0. -1.
        2   -1    0    0  501    0  0.00000000000E+00  0.00000000000E+00 -0.17597948996E+04  0.17597948996E+04  0.25500000920E-02 0.  1.
    10030    2    1    2    0    0  0.00000000000E+00  0.00000000000E+00 -0.39525971889E+03  0.31243300804E+04  0.30992270336E+04 0.  0.
        3    1    3    3  502    0  0.30794002089E+03 -0.14738575332E+04  0.17169662117E+03  0.15154414620E+04  0.10100000352E+00 0.  1.
       -3    1    3    3    0  502 -0.30794002089E+03  0.14738575332E+04 -0.56695634006E+03  0.16088886184E+04  0.10100000352E+00 0. -1.
</event>
<event>
 5   0  0.4838602E-08  0.3102014E+04  0.7818609E-02  0.8215185E-01
        1   -1    0    0  501    0  0.00000000000E+00  0.00000000000E+00  0.22799939873E+04  0.22799939873E+04  0.50400001928E-02 0.  1.
       -1   -1    0    0    0  501  0.00000000000E+00  0.00000000000E+00 -0.10551002972E+04  0.10551002972E+04  0.50400001928E-02 0. -1.
    10030    2    1    2    0    0  0.00000000000E+00  0.00000000000E+00  0.12248936901E+04  0.33350942845E+04  0.31020137547E+04 0.  0.
        5    1    3    3  502    0  0.13228347020E+04  0.55998729399E+03  0.12413089452E+04  0.18985118925E+04  0.46999998093E+01 0.  1.
       -5    1    3    3    0  502 -0.13228347020E+04 -0.55998729399E+03 -0.16415255173E+02  0.14365823920E+04  0.46999998093E+01 0. -1.
</event>
<event>
 5   0  0.1318916E-07  0.3098854E+04  0.7818609E-02  0.8216053E-01
       -2   -1    0    0    0  501  0.00000000000E+00  0.00000000000E+00  0.91812617911E+03  0.91812617911E+03  0.25500000920E-02 0.  1.
        2   -1    0    0  501    0  0.00000000000E+00  0.00000000000E+00 -0.26148082250E+04  0.26148082250E+04  0.25500000920E-02 0. -1.
    10030    2    1    2    0    0  0.00000000000E+00  0.00000000000E+00 -0.16966820459E+04  0.35329344041E+04  0.30988539073E+04 0.  0.
        5    1    3    3  502    0 -0.40125814074E+03 -0.14032113831E+04 -0.25518111120E+03  0.14816037833E+04  0.46999998093E+01 0.  1.
       -5    1    3    3    0  502  0.40125814074E+03  0.14032113831E+04 -0.14415009347E+04  0.20513306208E+04  0.46999998093E+01 0. -1.
</event>
<event>
 5   0  0.1377237E-07  0.3100605E+04  0.7818609E-02  0.8215572E-01
       -2   -1    0    0    0  501  0.00000000000E+00  0.00000000000E+00  0.14078258284E+04  0.14078258284E+04  0.25500000920E-02 0. -1.
        2   -1    0    0  501    0  0.00000000000E+00  0.00000000000E+00 -0.17071986593E+04  0.17071986593E+04  0.25500000920E-02 0.  1.
    10030    2    1    2    0    0  0.00000000000E+00  0.00000000000E+00 -0.29937283085E+03  0.31150244877E+04  0.31006053388E+04 0.  0.
        2    1    3    3  502    0  0.35585581456E+02  0.12595103281E+04  0.75773361142E+03  0.14703036510E+04  0.25500000920E-02 0. -1.
       -2    1    3    3    0  502 -0.35585581456E+02 -0.12595103281E+04 -0.10571064423E+04  0.16447208367E+04  0.25500000920E-02 0.  1.
</event>
<event>
 5   0  0.1318916E-07  0.3099225E+04  0.7818609E-02  0.8215951E-01
        2   -1    0    0  501    0  0.00000000000E+00  0.00000000000E+00  0.15985830463E+04  0.15985830463E+04  0.25500000920E-02 0. -1.
       -2   -1    0    0    0  501  0.00000000000E+00  0.00000000000E+00 -0.15021418257E+04  0.15021418257E+04  0.25500000920E-02 0.  1.
    10030    2    1    2    0    0  0.00000000000E+00  0.00000000000E+00  0.96441220547E+02  0.31007248720E+04  0.30992247132E+04 0.  0.
        5    1    3    3  502    0  0.12689451968E+04 -0.82550203042E+03 -0.28299982970E+03  0.15400605534E+04  0.46999998093E+01 0.  1.
       -5    1    3    3    0  502 -0.12689451968E+04  0.82550203042E+03  0.37944105025E+03  0.15606643185E+04  0.46999998093E+01 0. -1.
</event>
<event>
 5   0  0.4470354E-08  0.3092641E+04  0.7818609E-02  0.8217760E-01
        1   -1    0    0  501    0  0.00000000000E+00  0.00000000000E+00  0.12235489829E+04  0.12235489829E+04  0.50400001928E-02 0.  1.
       -1   -1    0    0    0  501  0.00000000000E+00  0.00000000000E+00 -0.19542390128E+04  0.19542390128E+04  0.50400001928E-02 0. -1.
    10030    2    1    2    0    0  0.00000000000E+00  0.00000000000E+00 -0.73069002991E+03  0.31777879956E+04  0.30926410437E+04 0.  0.
        1    1    3    3  502    0 -0.70532943093E+03  0.13695153072E+04 -0.22731347200E+03  0.15571554827E+04  0.50400001928E-02 0. -1.
       -1    1    3    3    0  502  0.70532943093E+03 -0.13695153072E+04 -0.50337655791E+03  0.16206325129E+04  0.50400001928E-02 0.  1.
</event>
<event>
 5   0  0.1377237E-07  0.3107382E+04  0.7818609E-02  0.8213715E-01
       -2   -1    0    0    0  501  0.00000000000E+00  0.00000000000E+00  0.94437022693E+03  0.94437022694E+03  0.25500000920E-02 0. -1.
        2   -1    0    0  501    0  0.00000000000E+00  0.00000000000E+00 -0.25561534050E+04  0.25561534050E+04  0.25500000920E-02 0.  1.
    10030    2    1    2    0    0  0.00000000000E+00  0.00000000000E+00 -0.16117831781E+04  0.35005236319E+04  0.31073816445E+04 0.  0.
        2    1    3    3  502    0  0.43619323025E+03  0.24737292755E+03 -0.24624860390E+04  0.25130251474E+04  0.25500000920E-02 0.  1.
       -2    1    3    3    0  502 -0.43619323025E+03 -0.24737292755E+03  0.85070286090E+03  0.98749848453E+03  0.25500000920E-02 0. -1.
</event>
<event>
 5   0  0.4838602E-08  0.3099822E+04  0.7818609E-02  0.8215787E-01
        1   -1    0    0  501    0  0.00000000000E+00  0.00000000000E+00  0.99693486630E+03  0.99693486631E+03  0.50400001928E-02 0.  1.
       -1   -1    0    0    0  501  0.00000000000E+00  0.00000000000E+00 -0.24096093275E+04  0.24096093275E+04  0.50400001928E-02 0. -1.
    10030    2    1    2    0    0  0.00000000000E+00  0.00000000000E+00 -0.14126744612E+04  0.34065441938E+04  0.30998216418E+04 0.  0.
        5    1    3    3  502    0 -0.47590495469E+03 -0.47290317295E+03  0.82907842132E+03  0.10665439773E+04  0.46999998093E+01 0.  1.
       -5    1    3    3    0  502  0.47590495469E+03  0.47290317295E+03 -0.22417528825E+04  0.23400002165E+04  0.46999998093E+01 0. -1.
</event>
<event>
 5   0  0.4436241E-08  0.3100140E+04  0.7818609E-02  0.8215699E-01
       -1   -1    0    0    0  501  0.00000000000E+00  0.00000000000E+00  0.14165571518E+04  0.14165571518E+04  0.50400001928E-02 0.  1.
        1   -1    0    0  501    0  0.00000000000E+00  0.00000000000E+00 -0.16961666163E+04  0.16961666164E+04  0.50400001928E-02 0. -1.
    10030    2    1    2    0    0  0.00000000000E+00  0.00000000000E+00 -0.27960946458E+03  0.31127237681E+04  0.31001399652E+04 0.  0.
        3    1    3    3  502    0  0.14044100498E+04  0.23780597375E+03  0.47406691603E+03  0.15012190781E+04  0.10100000352E+00 0.  1.
       -3    1    3    3    0  502 -0.14044100498E+04 -0.23780597375E+03 -0.75367638061E+03  0.16115046901E+04  0.10100000352E+00 0. -1.
</event>
<event>
 5   0  0.1325713E-07  0.3098987E+04  0.7818609E-02  0.8216016E-01
       -2   -1    0    0    0  501  0.00000000000E+00  0.00000000000E+00  0.12018354804E+04  0.12018354805E+04  0.25500000920E-02 0. -1.
        2   -1    0    0  501    0  0.00000000000E+00  0.00000000000E+00 -0.19977197741E+04  0.19977197741E+04  0.25500000920E-02 0.  1.
    10030    2    1    2    0    0  0.00000000000E+00  0.00000000000E+00 -0.79588429364E+03  0.31995552545E+04  0.30989872568E+04 0.  0.
        4    1    3    3  502    0  0.21335825046E+03 -0.15347328441E+04 -0.39639487461E+03  0.15993927458E+04  0.12699999809E+01 0.  1.
       -4    1    3    3    0  502 -0.21335825046E+03  0.15347328441E+04 -0.39948941903E+03  0.16001625088E+04  0.12699999809E+01 0. -1.
</event>
<event>
 5   0  0.4838602E-08  0.3098083E+04  0.7818609E-02  0.8216264E-01
       -1   -1    0    0    0  501  0.00000000000E+00  0.00000000000E+00  0.95802029355E+03  0.95802029356E+03  0.50400001928E-02 0.  1.
        1   -1    0    0  501    0  0.00000000000E+00  0.00000000000E+00 -0.25046746409E+04  0.25046746410E+04  0.50400001928E-02 0. -1.
    10030    2    1    2    0    0  0.00000000000E+00  0.00000000000E+00 -0.15466543474E+04  0.34626949345E+04  0.30980827199E+04 0.  0.
        5    1    3    3  502    0 -0.74062336368E+03 -0.17763617359E+03  0.73428221861E+03  0.10579555962E+04  0.46999998093E+01 0.  1.
       -5    1    3    3    0  502  0.74062336368E+03  0.17763617359E+03 -0.22809365660E+04  0.24047393383E+04  0.46999998093E+01 0. -1.
</event>
<event>
 5   0  0.4470354E-08  0.3104037E+04  0.7818609E-02  0.8214631E-01
       -1   -1    0    0    0  501  0.00000000000E+00  0.00000000000E+00  0.21616001707E+04  0.21616001707E+04  0.50400001928E-02 0.  1.
        1   -1    0    0  501    0  0.00000000000E+00  0.00000000000E+00 -0.11143419636E+04  0.11143419637E+04  0.50400001928E-02 0. -1.
    10030    2    1    2    0    0  0.00000000000E+00  0.00000000000E+00  0.10472582070E+04  0.32759421343E+04  0.31040372284E+04 0.  0.
        1    1    3    3  502    0 -0.36408204920E+03  0.11015510288E+04  0.16116401641E+04  0.19857881121E+04  0.50400001928E-02 0.  1.
       -1    1    3    3    0  502  0.36408204920E+03 -0.11015510288E+04 -0.56438195702E+03  0.12901540223E+04  0.50400001928E-02 0. -1.
</event>
<event>
 5   0  0.4436241E-08  0.3107554E+04  0.7818609E-02  0.8213668E-01
       -1   -1    0    0    0  501  0.00000000000E+00  0.00000000000E+00  0.14132723610E+04  0.14132723610E+04  0.50400001928E-02 0.  1.
        1   -1    0    0  501    0  0.00000000000E+00  0.00000000000E+00 -0.17082502665E+04  0.17082502665E+04  0.50400001928E-02 0. -1.
    10030    2    1    2    0    0  0.00000000000E+00  0.00000000000E+00 -0.29497790554E+03  0.31215226275E+04  0.31075539495E+04 0.  0.
        3    1    3    3  502    0 -0.54276574090E+02 -0.90593432560E+03  0.11193541427E+04  0.14410470693E+04  0.10100000352E+00 0.  1.
       -3    1    3    3    0  502  0.54276574090E+02  0.90593432560E+03 -0.14143320483E+04  0.16804755582E+04  0.10100000352E+00 0. -1.
</event>
<event>
 5   0  0.1318916E-07  0.3102410E+04  0.7818609E-02  0.8215077E-01
       -2   -1    0    0    0  501  0.00000000000E+00  0.00000000000E+00  0.22375308595E+04  0.22375308595E+04  0.25500000920E-02 0. -1.
        2   -1    0    0  501    0  0.00000000000E+00  0.00000000000E+00 -0.10753982305E+04  0.10753982305E+04  0.25500000920E-02 0.  1.
    10030    2    1    2    0    0  0.00000000000E+00  0.00000000000E+00  0.11621326290E+04  0.33129290900E+04  0.31024098549E+04 0.  0.
        5    1    3    3  502    0  0.13574269510E+04  0.13407804939E+03  0.13698574193E+04  0.19331622513E+04  0.46999998093E+01 0.  1.
       -5    1    3    3    0  502 -0.13574269510E+04 -0.13407804939E+03 -0.20772479037E+03  0.13797668387E+04  0.46999998093E+01 0. -1.
</event>
<event>
 5   0  0.4470354E-08  0.3100464E+04  0.7818609E-02  0.8215611E-01
        1   -1    0    0  501    0  0.00000000000E+00  0.00000000000E+00  0.24240716480E+04  0.24240716480E+04  0.50400001928E-02 0.  1.
       -1   -1    0    0    0  501  0.00000000000E+00  0.00000000000E+00 -0.99139779729E+03  0.99139779730E+03  0.50400001928E-02 0. -1.
    10030    2    1    2    0    0  0.00000000000E+00  0.00000000000E+00  0.14326738507E+04  0.34154694453E+04  0.31004640248E+04 0.  0.
        1    1    3    3  502    0  0.13796075951E+04 -0.57257126849E+03  0.11732873835E+04  0.18994099763E+04  0.50400001928E-02 0.  1.
       -1    1    3    3    0  502 -0.13796075951E+04  0.57257126849E+03  0.25938646725E+03  0.15160594690E+04  0.50400001928E-02 0. -1.
</event>
<event>
 5   0  0.4305500E-08  0.3097772E+04  0.7818609E-02  0.8216350E-01
       -3   -1    0    0    0  501  0.00000000000E+00  0.00000000000E+00  0.11368051370E+04  0.11368051415E+04  0.10100000352E+00 0.  1.
        3   -1    0    0  501    0  0.00000000000E+00  0.00000000000E+00 -0.21103421576E+04  0.21103421600E+04  0.10100000352E+00 0. -1.
    10030    2    1    2    0    0  0.00000000000E+00  0.00000000000E+00 -0.97353702060E+03  0.32471473015E+04  0.30977719844E+04 0.  0.
        2    1    3    3  502    0  0.27584382748E+03  0.69400898542E+03 -0.19091495108E+04  0.20500219861E+04  0.25500000920E-02 0. -1.
       -2    1    3    3    0  502 -0.27584382748E+03 -0.69400898542E+03  0.93561249019E+03  0.11971253154E+04  0.25500000920E-02 0.  1.
</event>
<event>
 5   0  0.1318916E-07  0.3100154E+04  0.7818609E-02  0.8215696E-01
       -2   -1    0    0    0  501  0.00000000000E+00  0.00000000000E+00  0.11578818282E+04  0.11578818282E+04  0.25500000920E-02 0.  1.
        2   -1    0    0  501    0  0.00000000000E+00  0.00000000000E+00 -0.20751150612E+04  0.20751150612E+04  0.25500000920E-02 0. -1.
    10030    2    1    2    0    0  0.00000000000E+00  0.00000000000E+00 -0.91723323293E+03  0.32329968894E+04  0.31001535580E+04 0.  0.
        5    1    3    3  502    0  0.45967858325E+03 -0.12866213328E+04 -0.12221207521E+04  0.18331121287E+04  0.46999998093E+01 0. -1.
       -5    1    3    3    0  502 -0.45967858325E+03  0.12866213328E+04  0.30488751913E+03  0.13998847607E+04  0.46999998093E+01 0.  1.
</event>
<event>
 5   0  0.4838602E-08  0.3099680E+04  0.7818609E-02  0.8215826E-01
        1   -1    0    0  501    0  0.00000000000E+00  0.00000000000E+00  0.14497889030E+04  0.14497889030E+04  0.50400001928E-02 0.  1.
       -1   -1    0    0    0  501  0.00000000000E+00  0.00000000000E+00 -0.16567958945E+04  0.16567958945E+04  0.50400001928E-02 0. -1.
    10030    2    1    2    0    0  0.00000000000E+00  0.00000000000E+00 -0.20700699151E+03  0.31065847975E+04  0.30996801786E+04 0.  0.
        5    1    3    3  502    0 -0.15718960571E+03  0.14293478427E+04  0.47591784740E+03  0.15146827110E+04  0.46999998093E+01 0.  1.
       -5    1    3    3    0  502  0.15718960571E+03 -0.14293478427E+04 -0.68292483890E+03  0.15919020865E+04  0.46999998093E+01 0. -1.
</event>
<event>
 5   0  0.1325713E-07  0.3099125E+04  0.7818609E-02  0.8215978E-01
       -2   -1    0    0    0  501  0.00000000000E+00  0.00000000000E+00  0.14186532183E+04  0.14186532183E+04  0.25500000920E-02 0.  1.
        2   -1    0    0  501    0  0.00000000000E+00  0.00000000000E+00 -0.16925519478E+04  0.16925519478E+04  0.25500000920E-02 0. -1.
    10030    2    1    2    0    0  0.00000000000E+00  0.00000000000E+00 -0.27389872946E+03  0.31112051661E+04  0.30991252107E+04 0.  0.
        4    1    3    3  502    0  0.11011216473E+04  0.10896976431E+04 -0.10170097825E+03  0.15524994485E+04  0.12699999809E+01 0. -1.
       -4    1    3    3    0  502 -0.11011216473E+04 -0.10896976431E+04 -0.17219775121E+03  0.15587057176E+04  0.12699999809E+01 0.  1.
</event>
<event>
 5   0  0.4450600E-08  0.3098900E+04  0.7818609E-02  0.8216040E-01
       -1   -1    0    0    0  501  0.00000000000E+00  0.00000000000E+00  0.11306449762E+04  0.11306449762E+04  0.50400001928E-02 0. -1.
        1   -1    0    0  501    0  0.00000000000E+00  0.00000000000E+00 -0.21233858052E+04  0.21233858052E+04  0.50400001928E-02 0.  1.
    10030    2    1    2    0    0  0.00000000000E+00  0.00000000000E+00 -0.99274082903E+03  0.32540307814E+04  0.30989001230E+04 0.  0.
        4    1    3    3  502    0 -0.23527046854E+03 -0.22097618370E+03  0.10949506735E+04  0.11415346063E+04  0.12699999809E+01 0. -1.
       -4    1    3    3    0  502  0.23527046854E+03  0.22097618370E+03 -0.20876915025E+04  0.21124961751E+04  0.12699999809E+01 0.  1.
</event>
<event>
 5   0  0.4517409E-08  0.3099857E+04  0.7818609E-02  0.8215777E-01
       -1   -1    0    0    0  501  0.00000000000E+00  0.00000000000E+00  0.13779069394E+04  0.13779069394E+04  0.50400001928E-02 0. -1.
        1   -1    0    0  501    0  0.00000000000E+00  0.00000000000E+00 -0.17434252090E+04  0.17434252090E+04  0.50400001928E-02 0.  1.
    10030    2    1    2    0    0  0.00000000000E+00  0.00000000000E+00 -0.36551826961E+03  0.31213321484E+04  0.30998565733E+04 0.  0.
        2    1    3    3  502    0  0.79214178757E+03  0.36860591500E+03 -0.14718309083E+04  0.17116206223E+04  0.25500000920E-02 0.  1.
       -2    1    3    3    0  502 -0.79214178757E+03 -0.36860591500E+03  0.11063126387E+04  0.14097115261E+04  0.25500000920E-02 0. -1.
</event>
<event>
 5   0  0.4436241E-08  0.3097565E+04  0.7818609E-02  0.8216406E-01
       -1   -1    0    0    0  501  0.00000000000E+00  0.00000000000E+00  0.12793299973E+04  0.12793299973E+04  0.50400001928E-02 0. -1.
        1   -1    0    0  501    0  0.00000000000E+00  0.00000000000E+00 -0.18749876211E+04  0.18749876211E+04  0.50400001928E-02 0.  1.
    10030    2    1    2    0    0  0.00000000000E+00  0.00000000000E+00 -0.59565762386E+03  0.31543176184E+04  0.30975654364E+04 0.  0.
        3    1    3    3  502    0 -0.32023688281E+03 -0.27377775923E+03  0.12198536404E+04  0.12905614424E+04  0.10100000352E+00 0. -1.
       -3    1    3    3    0  502  0.32023688281E+03  0.27377775923E+03 -0.18155112642E+04  0.18637561759E+04  0.10100000352E+00 0.  1.
</event>
<event>
 5   0  0.1398931E-07  0.3100147E+04  0.7818609E-02  0.8215698E-01
        2   -1    0    0  501    0  0.00000000000E+00  0.00000000000E+00  0.21912911730E+04  0.21912911730E+04  0.25500000920E-02 0. -1.
       -2   -1    0    0    0  501  0.00000000000E+00  0.00000000000E+00 -0.10964894427E+04  0.10964894427E+04  0.25500000920E-02 0.  1.
    10030    2    1    2    0    0  0.00000000000E+00  0.00000000000E+00  0.10948017303E+04  0.32877806157E+04  0.31001468592E+04 0.  0.
        3    1    3    3  502    0  0.34007221257E+03  0.35027150639E+03 -0.10128274697E+04  0.11243481363E+04  0.10100000352E+00 0.  1.
       -3    1    3    3    0  502 -0.34007221257E+03 -0.35027150639E+03  0.21076292000E+04  0.21634324794E+04  0.10100000352E+00 0. -1.
</event>
<event>
 5   0  0.4517409E-08  0.3103629E+04  0.7818609E-02  0.8214743E-01
       -1   -1    0    0    0  501  0.00000000000E+00  0.00000000000E+00  0.21150864556E+04  0.21150864556E+04  0.50400001928E-02 0. -1.
        1   -1    0    0  501    0  0.00000000000E+00  0.00000000000E+00 -0.11385486293E+04  0.11385486293E+04  0.50400001928E-02 0.  1.
    10030    2    1    2    0    0  0.00000000000E+00  0.00000000000E+00  0.97653782636E+03  0.32536350849E+04  0.31036293496E+04 0.  0.
        2    1    3    3  502    0 -0.68892551351E+03  0.82925887157E+03  0.16583882413E+04  0.19780142057E+04  0.25500000920E-02 0. -1.
       -2    1    3    3    0  502  0.68892551351E+03 -0.82925887157E+03 -0.68185041489E+03  0.12756208792E+04  0.25500000920E-02 0.  1.
</event>
<event>
 5   0  0.4450600E-08  0.3099813E+04  0.7818609E-02  0.8215789E-01
        1   -1    0    0  501    0  0.00000000000E+00  0.00000000000E+00  0.23979723991E+04  0.23979723991E+04  0.50400001928E-02 0. -1.
       -1   -1    0    0    0  501  0.00000000000E+00  0.00000000000E+00 -0.10017675397E+04  0.10017675397E+04  0.50400001928E-02 0.  1.
    10030    2    1    2    0    0  0.00000000000E+00  0.00000000000E+00  0.13962048593E+04  0.33997399388E+04  0.30998134851E+04 0.  0.
        4    1    3    3  502    0 -0.77347905041E+03  0.40953620328E+03 -0.70481116361E+03  0.11237215547E+04  0.12699999809E+01 0.  1.
       -4    1    3    3    0  502  0.77347905041E+03 -0.40953620328E+03  0.21010160230E+04  0.22760183841E+04  0.12699999809E+01 0. -1.
</event>
<event>
 5   0  0.1318916E-07  0.3099223E+04  0.7818609E-02  0.8215951E-01
       -2   -1    0    0    0  501  0.00000000000E+00  0.00000000000E+00  0.22565408706E+04  0.22565408706E+04  0.25500000920E-02 0.  1.
        2   -1    0    0  501    0  0.00000000000E+00  0.00000000000E+00 -0.10641488411E+04  0.10641488411E+04  0.25500000920E-02 0. -1.
    10030    2    1    2    0    0  0.00000000000E+00  0.00000000000E+00  0.11923920295E+04  0.33206897117E+04  0.30992227105E+04 0.  0.
        5    1    3    3  502    0  0.73487896745E+03 -0.12886670626E+04  0.11635063541E+03  0.14880421551E+04  0.46999998093E+01 0.  1.
       -5    1    3    3    0  502 -0.73487896745E+03  0.12886670626E+04  0.10760413941E+04  0.18326475566E+04  0.46999998093E+01 0. -1.
</event>
<event>
 5   0  0.1325713E-07  0.3099250E+04  0.7818609E-02  0.8215944E-01
       -2   -1    0    0    0  501  0.00000000000E+00  0.00000000000E+00  0.14636624331E+04  0.14636624331E+04  0.25500000920E-02 0. -1.
        2   -1    0    0  501    0  0.00000000000E+00  0.00000000000E+00 -0.16406365555E+04  0.16406365555E+04  0.25500000920E-02 0.  1.
    10030    2    1    2    0    0  0.00000000000E+00  0.00000000000E+00 -0.17697412241E+03  0.31042989885E+04  0.30992502916E+04 0.  0.
        4    1    3    3  502    0  0.37468091853E+03 -0.68403527222E+03 -0.14297152147E+04  0.16286120632E+04  0.12699999809E+01 0.  1.
       -4    1    3    3    0  502 -0.37468091853E+03  0.68403527222E+03  0.12527410923E+04  0.14756869253E+04  0.12699999809E+01 0. -1.
</event>
<event>
 5   0  0.4517409E-08  0.3097810E+04  0.7818609E-02  0.8216339E-01
        1   -1    0    0  501    0  0.00000000000E+00  0.00000000000E+00  0.13641970350E+04  0.13641970350E+04  0.50400001928E-02 0.  1.
       -1   -1    0    0    0  501  0.00000000000E+00  0.00000000000E+00 -0.17586224023E+04  0.17586224023E+04  0.50400001928E-02 0. -1.
    10030    2    1    2    0    0  0.00000000000E+00  0.00000000000E+00 -0.39442536728E+03  0.31228194373E+04  0.30978104957E+04 0.  0.
        2    1    3    3  502    0  0.80417916002E+03  0.17368479397E+03  0.11257222260E+04  0.13943174169E+04  0.25500000920E-02 0.  1.
       -2    1    3    3    0  502 -0.80417916002E+03 -0.17368479397E+03 -0.15201475932E+04  0.17285020203E+04  0.25500000920E-02 0. -1.
</event>
<event>
 5   0  0.4436241E-08  0.3100293E+04  0.7818609E-02  0.8215657E-01
       -1   -1    0    0    0  501  0.00000000000E+00  0.00000000000E+00  0.15950397267E+04  0.15950397267E+04  0.50400001928E-02 0. -1.
        1   -1    0    0  501    0  0.00000000000E+00  0.00000000000E+00 -0.15065171299E+04  0.15065171300E+04  0.50400001928E-02 0.  1.
    10030    2    1    2    0    0  0.00000000000E+00  0.00000000000E+00  0.88522596771E+02  0.31015568567E+04  0.31002933224E+04 0.  0.
        3    1    3    3  502    0  0.37622129039E+03  0.13330750712E+04  0.74047815501E+03  0.15706493922E+04  0.10100000352E+00 0. -1.
       -3    1    3    3    0  502 -0.37622129039E+03 -0.13330750712E+04 -0.65195555824E+03  0.15309074645E+04  0.10100000352E+00 0.  1.
</event>
<event>
 5   0  0.4436241E-08  0.3100458E+04  0.7818609E-02  0.8215612E-01
        1   -1    0    0  501    0  0.00000000000E+00  0.00000000000E+00  0.14426552492E+04  0.14426552493E+04  0.50400001928E-02 0.  1.
       -1   -1    0    0    0  501  0.00000000000E+00  0.00000000000E+00 -0.16658245712E+04  0.16658245712E+04  0.50400001928E-02 0. -1.
    10030    2    1    2    0    0  0.00000000000E+00  0.00000000000E+00 -0.22316932198E+03  0.31084798205E+04  0.31004583932E+04 0.  0.
        3    1    3    3  502    0  0.91300321858E+03  0.20014162996E+03  0.11283765548E+04  0.14652184850E+04  0.10100000352E+00 0.  1.
       -3    1    3    3    0  502 -0.91300321858E+03 -0.20014162996E+03 -0.13515458768E+04  0.16432613354E+04  0.10100000352E+00 0. -1.
</event>
<event>
 5   0  0.1377237E-07  0.3102652E+04  0.7818609E-02  0.8215010E-01
        2   -1    0    0  501    0  0.00000000000E+00  0.00000000000E+00  0.15592456176E+04  0.15592456176E+04  0.25500000920E-02 0.  1.
       -2   -1    0    0    0  501  0.00000000000E+00  0.00000000000E+00 -0.15434470626E+04  0.15434470626E+04  0.25500000920E-02 0. -1.
    10030    2    1    2    0    0  0.00000000000E+00  0.00000000000E+00  0.15798554945E+02  0.31026926802E+04  0.31026524578E+04 0.  0.
        2    1    3    3  502    0  0.80242859340E+03 -0.24327293169E+02  0.13353687845E+04  0.15581056625E+04  0.25500000920E-02 0.  1.
       -2    1    3    3    0  502 -0.80242859340E+03  0.24327293169E+02 -0.13195702296E+04  0.15445870178E+04  0.25500000920E-02 0. -1.
</event>
<event>
 5   0  0.4470354E-08  0.3100329E+04  0.7818609E-02  0.8215648E-01
       -1   -1    0    0    0  501  0.00000000000E+00  0.00000000000E+00  0.20707588728E+04  0.20707588728E+04  0.50400001928E-02 0.  1.
        1   -1    0    0  501    0  0.00000000000E+00  0.00000000000E+00 -0.11604487654E+04  0.11604487654E+04  0.50400001928E-02 0. -1.
    10030    2    1    2    0    0  0.00000000000E+00  0.00000000000E+00  0.91031010738E+03  0.32312076382E+04  0.31003287422E+04 0.  0.
        1    1    3    3  502    0  0.24951048734E+03 -0.23561613379E+03  0.20306715194E+04  0.20594652863E+04  0.50400001928E-02 0.  1.
       -1    1    3    3    0  502 -0.24951048734E+03  0.23561613379E+03 -0.11203614120E+04  0.11717423519E+04  0.50400001928E-02 0. -1.
</event>
<event>
 5   0  0.1318916E-07  0.3101793E+04  0.7818609E-02  0.8215246E-01
       -2   -1    0    0    0  501  0.00000000000E+00  0.00000000000E+00  0.10520239403E+04  0.10520239403E+04  0.25500000920E-02 0. -1.
        2   -1    0    0  501    0  0.00000000000E+00  0.00000000000E+00 -0.22863351726E+04  0.22863351726E+04  0.25500000920E-02 0.  1.
    10030    2    1    2    0    0  0.00000000000E+00  0.00000000000E+00 -0.12343112323E+04  0.33383591129E+04  0.31017926025E+04 0.  0.
        5    1    3    3  502    0 -0.99194132644E+03  0.11084265451E+04 -0.14469954791E+03  0.14944955839E+04  0.46999998093E+01 0. -1.
       -5    1    3    3    0  502  0.99194132644E+03 -0.11084265451E+04 -0.10896116844E+04  0.18438635291E+04  0.46999998093E+01 0.  1.
</event>
<event>
 5   0  0.4436241E-08  0.3100483E+04  0.7818609E-02  0.8215605E-01
       -1   -1    0    0    0  501  0.00000000000E+00  0.00000000000E+00  0.21996708635E+04  0.21996708635E+04  0.50400001928E-02 0.  1.
        1   -1    0    0  501    0  0.00000000000E+00  0.00000000000E+00 -0.10925494631E+04  0.10925494631E+04  0.50400001928E-02 0. -1.
    10030    2    1    2    0    0  0.00000000000E+00  0.00000000000E+00  0.11071214005E+04  0.32922203266E+04  0.31004833306E+04 0.  0.
        3    1    3    3  502    0 -0.75494748062E+03  0.10617638950E+04 -0.33861384601E+03  0.13460860352E+04  0.10100000352E+00 0.  1.
       -3    1    3    3    0  502  0.75494748062E+03 -0.10617638950E+04  0.14457352465E+04  0.19461342914E+04  0.10100000352E+00 0. -1.
</event>
<event>
 5   0  0.1377237E-07  0.3100492E+04  0.7818609E-02  0.8215603E-01
        2   -1    0    0  501    0  0.00000000000E+00  0.00000000000E+00  0.15359551477E+04  0.15359551477E+04  0.25500000920E-02 0.  1.
       -2   -1    0    0    0  501  0.00000000000E+00  0.00000000000E+00 -0.15646698731E+04  0.15646698731E+04  0.25500000920E-02 0. -1.
    10030    2    1    2    0    0  0.00000000000E+00  0.00000000000E+00 -0.28714725466E+02  0.31006250208E+04  0.31004920552E+04 0.  0.
        2    1    3    3  502    0 -0.44960938637E+03 -0.78036647697E+03  0.12474979655E+04  0.15386265345E+04  0.25500000920E-02 0.  1.
       -2    1    3    3    0  502  0.44960938637E+03  0.78036647697E+03 -0.12762126910E+04  0.15619984863E+04  0.25500000920E-02 0. -1.
</event>
<event>
 5   0  0.1318916E-07  0.3102875E+04  0.7818609E-02  0.8214949E-01
        2   -1    0    0  501    0  0.00000000000E+00  0.00000000000E+00  0.82043158703E+03  0.82043158703E+03  0.25500000920E-02 0. -1.
       -2   -1    0    0    0  501  0.00000000000E+00  0.00000000000E+00 -0.29337712797E+04  0.29337712797E+04  0.25500000920E-02 0.  1.
    10030    2    1    2    0    0  0.00000000000E+00  0.00000000000E+00 -0.21133396927E+04  0.37542028667E+04  0.31028752002E+04 0.  0.
        5    1    3    3  502    0 -0.45287958116E+03 -0.14680420286E+04 -0.13181036596E+04  0.20242694140E+04  0.46999998093E+01 0.  1.
       -5    1    3    3    0  502  0.45287958116E+03  0.14680420286E+04 -0.79523603305E+03  0.17299334528E+04  0.46999998093E+01 0. -1.
</event>
<event>
 5   0  0.4470354E-08  0.3092191E+04  0.7818609E-02  0.8217884E-01
       -1   -1    0    0    0  501  0.00000000000E+00  0.00000000000E+00  0.11197055184E+04  0.11197055184E+04  0.50400001928E-02 0. -1.
        1   -1    0    0  501    0  0.00000000000E+00  0.00000000000E+00 -0.21348577676E+04  0.21348577676E+04  0.50400001928E-02 0.  1.
    10030    2    1    2    0    0  0.00000000000E+00  0.00000000000E+00 -0.10151522493E+04  0.32545632860E+04  0.30921914710E+04 0.  0.
        1    1    3    3  502    0 -0.15271787440E+04  0.13265843057E+03 -0.29566095587E+03  0.15611817883E+04  0.50400001928E-02 0. -1.
       -1    1    3    3    0  502  0.15271787440E+04 -0.13265843057E+03 -0.71949129340E+03  0.16933814977E+04  0.50400001928E-02 0.  1.
</event>
<event>
 5   0  0.4450600E-08  0.3100345E+04  0.7818609E-02  0.8215643E-01
       -1   -1    0    0    0  501  0.00000000000E+00  0.00000000000E+00  0.12300436966E+04  0.12300436966E+04  0.50400001928E-02 0. -1.
        1   -1    0    0  501    0  0.00000000000E+00  0.00000000000E+00 -0.19536168010E+04  0.19536168010E+04  0.50400001928E-02 0.  1.
    10030    2    1    2    0    0  0.00000000000E+00  0.00000000000E+00 -0.72357310444E+03  0.31836604976E+04  0.31003445174E+04 0.  0.
        4    1    3    3  502    0 -0.15498579806E+04  0.20923690501E+02 -0.33803806154E+03  0.15864327609E+04  0.12699999809E+01 0. -1.
       -4    1    3    3    0  502  0.15498579806E+04 -0.20923690501E+02 -0.38553504290E+03  0.15972277367E+04  0.12699999809E+01 0.  1.
</event>
<event>
 5   0  0.1398931E-07  0.3112190E+04  0.7818609E-02  0.8212401E-01
       -2   -1    0    0    0  501  0.00000000000E+00  0.00000000000E+00  0.13581467949E+04  0.13581467949E+04  0.25500000920E-02 0.  1.
        2   -1    0    0  501    0  0.00000000000E+00  0.00000000000E+00 -0.17828933682E+04  0.17828933682E+04  0.25500000920E-02 0. -1.
    10030    2    1    2    0    0  0.00000000000E+00  0.00000000000E+00 -0.42474657326E+03  0.31410401632E+04  0.31121895275E+04 0.  0.
        3    1    3    3  502    0  0.53408065770E+03  0.14383455001E+04  0.49553191156E+02  0.15351011222E+04  0.10100000352E+00 0.  1.
       -3    1    3    3    0  502 -0.53408065770E+03 -0.14383455001E+04 -0.47429976442E+03  0.16059390409E+04  0.10100000352E+00 0. -1.
</event>
<event>
 5   0  0.4838602E-08  0.3100003E+04  0.7818609E-02  0.8215737E-01
        1   -1    0    0  501    0  0.00000000000E+00  0.00000000000E+00  0.11964696007E+04  0.11964696008E+04  0.50400001928E-02 0. -1.
       -1   -1    0    0    0  501  0.00000000000E+00  0.00000000000E+00 -0.20079947668E+04  0.20079947668E+04  0.50400001928E-02 0.  1.
    10030    2    1    2    0    0  0.00000000000E+00  0.00000000000E+00 -0.81152516602E+03  0.32044643675E+04  0.31000030303E+04 0.  0.
        5    1    3    3  502    0  0.12843410716E+03  0.13993783021E+04 -0.10818097443E+04  0.17734399807E+04  0.46999998093E+01 0.  1.
       -5    1    3    3    0  502 -0.12843410716E+03 -0.13993783021E+04  0.27028457828E+03  0.14310243868E+04  0.46999998093E+01 0. -1.
</event>
<event>
 5   0  0.1329777E-07  0.3100479E+04  0.7818609E-02  0.8215607E-01
        2   -1    0    0  501    0  0.00000000000E+00  0.00000000000E+00  0.18119454094E+04  0.18119454094E+04  0.25500000920E-02 0.  1.
       -2   -1    0    0    0  501  0.00000000000E+00  0.00000000000E+00 -0.13263326025E+04  0.13263326025E+04  0.25500000920E-02 0. -1.
    10030    2    1    2    0    0  0.00000000000E+00  0.00000000000E+00  0.48561280696E+03  0.31382780119E+04  0.31004788472E+04 0.  0.
        1    1    3    3  502    0  0.96578809502E+03 -0.63792097928E+02 -0.98291775536E+03  0.13794721418E+04  0.50400001928E-02 0. -1.
       -1    1    3    3    0  502 -0.96578809502E+03  0.63792097928E+02  0.14685305623E+04  0.17588058701E+04  0.50400001928E-02 0.  1.
</event>
<event>
 5   0  0.4470354E-08  0.3099873E+04  0.7818609E-02  0.8215773E-01
        1   -1    0    0  501    0  0.00000000000E+00  0.00000000000E+00  0.26213456148E+04  0.26213456148E+04  0.50400001928E-02 0. -1.
       -1   -1    0    0    0  501  0.00000000000E+00  0.00000000000E+00 -0.91643892183E+03  0.91643892184E+03  0.50400001928E-02 0.  1.
    10030    2    1    2    0    0  0.00000000000E+00  0.00000000000E+00  0.17049066930E+04  0.35377845367E+04  0.30998729968E+04 0.  0.
        1    1    3    3  502    0  0.72086621421E+03  0.12304546504E+04  0.15952777511E+03  0.14349619704E+04  0.50400001928E-02 0.  1.
       -1    1    3    3    0  502 -0.72086621421E+03 -0.12304546504E+04  0.15453789179E+04  0.21028225663E+04  0.50400001928E-02 0. -1.
</event>
<event>
 5   0  0.1377237E-07  0.3099864E+04  0.7818609E-02  0.8215775E-01
        2   -1    0    0  501    0  0.00000000000E+00  0.00000000000E+00  0.19482208600E+04  0.19482208600E+04  0.25500000920E-02 0.  1.
       -2   -1    0    0    0  501  0.00000000000E+00  0.00000000000E+00 -0.12330684992E+04  0.12330684992E+04  0.25500000920E-02 0. -1.
    10030    2    1    2    0    0  0.00000000000E+00  0.00000000000E+00  0.71515236087E+03  0.31812893592E+04  0.30998643660E+04 0.  0.
        2    1    3    3  502    0 -0.55666436285E+03  0.86551598038E+03 -0.83187451998E+03  0.13232567182E+04  0.25500000920E-02 0. -1.
       -2    1    3    3    0  502  0.55666436285E+03 -0.86551598038E+03  0.15470268808E+04  0.18580326411E+04  0.25500000920E-02 0.  1.
</event>
<event>
 5   0  0.4436241E-08  0.3097958E+04  0.7818609E-02  0.8216298E-01
       -1   -1    0    0    0  501  0.00000000000E+00  0.00000000000E+00  0.11567140053E+04  0.11567140053E+04  0.50400001928E-02 0.  1.
        1   -1    0    0  501    0  0.00000000000E+00  0.00000000000E+00 -0.20742692144E+04  0.20742692144E+04  0.50400001928E-02 0. -1.
    10030    2    1    2    0    0  0.00000000000E+00  0.00000000000E+00 -0.91755520908E+03  0.32309832198E+04  0.30979581993E+04 0.  0.
        3    1    3    3  502    0 -0.97362957318E+03 -0.11066068040E+04  0.37910340668E+02  0.14744390013E+04  0.10100000352E+00 0.  1.
       -3    1    3    3    0  502  0.97362957318E+03  0.11066068040E+04 -0.95546554975E+03  0.17565442185E+04  0.10100000352E+00 0. -1.
</event>
<event>
 5   0  0.1325713E-07  0.3098811E+04  0.7818609E-02  0.8216064E-01
        2   -1    0    0  501    0  0.00000000000E+00  0.00000000000E+00  0.18757218350E+04  0.18757218350E+04  0.25500000920E-02 0.  1.
       -2   -1    0    0    0  501  0.00000000000E+00  0.00000000000E+00 -0.12798577843E+04  0.12798577843E+04  0.25500000920E-02 0. -1.
    10030    2    1    2    0    0  0.00000000000E+00  0.00000000000E+00  0.59586405071E+03  0.31555796194E+04  0.30988108634E+04 0.  0.
        4    1    3    3  502    0 -0.12704539405E+04  0.24784374794E+03 -0.56924095229E+03  0.14140426490E+04  0.12699999809E+01 0. -1.
       -4    1    3    3    0  502  0.12704539405E+04 -0.24784374794E+03  0.11651050030E+04  0.17415369704E+04  0.12699999809E+01 0.  1.
</event>
<event>
 5   0  0.1329777E-07  0.3099562E+04  0.7818609E-02  0.8215858E-01
       -2   -1    0    0    0  501  0.00000000000E+00  0.00000000000E+00  0.11593256557E+04  0.11593256557E+04  0.25500000920E-02 0. -1.
        2   -1    0    0  501    0  0.00000000000E+00  0.00000000000E+00 -0.20717401488E+04  0.20717401488E+04  0.25500000920E-02 0.  1.
    10030    2    1    2    0    0  0.00000000000E+00  0.00000000000E+00 -0.91241449309E+03  0.32310658046E+04  0.30995622314E+04 0.  0.
        1    1    3    3  502    0  0.63526975150E+03  0.94888706109E+03  0.63603846139E+03  0.13070957258E+04  0.50400001928E-02 0.  1.
       -1    1    3    3    0  502 -0.63526975150E+03 -0.94888706109E+03 -0.15484529545E+04  0.19239700788E+04  0.50400001928E-02 0. -1.
</event>
<event>
 5   0  0.4436241E-08  0.3098936E+04  0.7818609E-02  0.8216030E-01
        1   -1    0    0  501    0  0.00000000000E+00  0.00000000000E+00  0.22732461986E+04  0.22732461986E+04  0.50400001928E-02 0. -1.
       -1   -1    0    0    0  501  0.00000000000E+00  0.00000000000E+00 -0.10561330336E+04  0.10561330336E+04  0.50400001928E-02 0.  1.
    10030    2    1    2    0    0  0.00000000000E+00  0.00000000000E+00  0.12171131650E+04  0.33293792321E+04  0.30989355616E+04 0.  0.
        3    1    3    3  502    0  0.46805702197E+03 -0.29883348064E+03 -0.94554893859E+03  0.10965589954E+04  0.10100000352E+00 0.  1.
       -3    1    3    3    0  502 -0.46805702197E+03  0.29883348064E+03  0.21626621036E+04  0.22328202367E+04  0.10100000352E+00 0. -1.
</event>
<event>
 5   0  0.4838602E-08  0.3102090E+04  0.7818609E-02  0.8215165E-01
       -1   -1    0    0    0  501  0.00000000000E+00  0.00000000000E+00  0.28322110692E+04  0.28322110692E+04  0.50400001928E-02 0. -1.
        1   -1    0    0  501    0  0.00000000000E+00  0.00000000000E+00 -0.84942141787E+03  0.84942141789E+03  0.50400001928E-02 0.  1.
    10030    2    1    2    0    0  0.00000000000E+00  0.00000000000E+00  0.19827896513E+04  0.36816324871E+04  0.31020900968E+04 0.  0.
        5    1    3    3  502    0 -0.55948841914E+03  0.14241083632E+04  0.68972983629E+03  0.16783507554E+04  0.46999998093E+01 0. -1.
       -5    1    3    3    0  502  0.55948841914E+03 -0.14241083632E+04  0.12930598150E+04  0.20032817317E+04  0.46999998093E+01 0.  1.
</event>
<event>
 5   0  0.4436241E-08  0.3098934E+04  0.7818609E-02  0.8216030E-01
       -1   -1    0    0    0  501  0.00000000000E+00  0.00000000000E+00  0.10476442195E+04  0.10476442195E+04  0.50400001928E-02 0.  1.
        1   -1    0    0  501    0  0.00000000000E+00  0.00000000000E+00 -0.22916637618E+04  0.22916637618E+04  0.50400001928E-02 0. -1.
    10030    2    1    2    0    0  0.00000000000E+00  0.00000000000E+00 -0.12440195423E+04  0.33393079813E+04  0.30989341994E+04 0.  0.
        3    1    3    3  502    0 -0.30677875444E+03 -0.31251465550E+03  0.97957093012E+03  0.10730041153E+04  0.10100000352E+00 0.  1.
       -3    1    3    3    0  502  0.30677875444E+03  0.31251465550E+03 -0.22235904724E+04  0.22663038660E+04  0.10100000352E+00 0. -1.
</event>
<event>
 5   0  0.4838602E-08  0.3101870E+04  0.7818609E-02  0.8215225E-01
        1   -1    0    0  501    0  0.00000000000E+00  0.00000000000E+00  0.24332793827E+04  0.24332793827E+04  0.50400001928E-02 0.  1.
       -1   -1    0    0    0  501  0.00000000000E+00  0.00000000000E+00 -0.98854242497E+03  0.98854242499E+03  0.50400001928E-02 0. -1.
    10030    2    1    2    0    0  0.00000000000E+00  0.00000000000E+00  0.14447369577E+04  0.34218218077E+04  0.31018703400E+04 0.  0.
        5    1    3    3  502    0 -0.10168101274E+04 -0.68371153854E+03 -0.32650042457E+03  0.12680650300E+04  0.46999998093E+01 0. -1.
       -5    1    3    3    0  502  0.10168101274E+04  0.68371153854E+03  0.17712373823E+04  0.21537567777E+04  0.46999998093E+01 0.  1.
</event>
<event>
 5   0  0.1377237E-07  0.3099072E+04  0.7818609E-02  0.8215993E-01
       -2   -1    0    0    0  501  0.00000000000E+00  0.00000000000E+00  0.17834543200E+04  0.17834543200E+04  0.25500000920E-02 0.  1.
        2   -1    0    0  501    0  0.00000000000E+00  0.00000000000E+00 -0.13462984718E+04  0.13462984718E+04  0.25500000920E-02 0. -1.
    10030    2    1    2    0    0  0.00000000000E+00  0.00000000000E+00  0.43715584821E+03  0.31297527918E+04  0.30990720066E+04 0.  0.
        2    1    3    3  502    0  0.65584912913E+03 -0.11744179041E+04 -0.55823563374E+03  0.14563730692E+04  0.25500000920E-02 0.  1.
       -2    1    3    3    0  502 -0.65584912913E+03  0.11744179041E+04  0.99539148196E+03  0.16733797226E+04  0.25500000920E-02 0. -1.
</event>
<event>
 5   0  0.4436241E-08  0.3094535E+04  0.7818609E-02  0.8217239E-01
        1   -1    0    0  501    0  0.00000000000E+00  0.00000000000E+00  0.25677910298E+04  0.25677910298E+04  0.50400001928E-02 0.  1.
       -1   -1    0    0    0  501  0.00000000000E+00  0.00000000000E+00 -0.93233287395E+03  0.93233287396E+03  0.50400001928E-02 0. -1.
    10030    2    1    2    0    0  0.00000000000E+00  0.00000000000E+00  0.16354581558E+04  0.35001239037E+04  0.30945345308E+04 0.  0.
        3    1    3    3  502    0 -0.13184526722E+04 -0.63752022122E+03  0.13824546637E+04  0.20139340577E+04  0.10100000352E+00 0.  1.
       -3    1    3    3    0  502  0.13184526722E+04  0.63752022122E+03  0.25300349212E+03  0.14861898461E+04  0.10100000352E+00 0. -1.
</event>
<event>
 5   0  0.1329777E-07  0.3098666E+04  0.7818609E-02  0.8216104E-01
        2   -1    0    0  501    0  0.00000000000E+00  0.00000000000E+00  0.80308957140E+03  0.80308957141E+03  0.25500000920E-02 0. -1.
       -2   -1    0    0    0  501  0.00000000000E+00  0.00000000000E+00 -0.29889970026E+04  0.29889970026E+04  0.25500000920E-02 0.  1.
    10030    2    1    2    0    0  0.00000000000E+00  0.00000000000E+00 -0.21859074312E+04  0.37920865740E+04  0.30986657269E+04 0.  0.
        1    1    3    3  502    0 -0.17983304668E+03 -0.14332617163E+04 -0.40735999675E+03  0.15008401777E+04  0.50400001928E-02 0. -1.
       -1    1    3    3    0  502  0.17983304668E+03  0.14332617163E+04 -0.17785474344E+04  0.22912463963E+04  0.50400001928E-02 0.  1.
</event>
<event>
 5   0  0.1325713E-07  0.3100417E+04  0.7818609E-02  0.8215624E-01
       -2   -1    0    0    0  501  0.00000000000E+00  0.00000000000E+00  0.87490134057E+03  0.87490134057E+03  0.25500000920E-02 0. -1.
        2   -1    0    0  501    0  0.00000000000E+00  0.00000000000E+00 -0.27467623077E+04  0.27467623077E+04  0.25500000920E-02 0.  1.
    10030    2    1    2    0    0  0.00000000000E+00  0.00000000000E+00 -0.18718609671E+04  0.36216636483E+04  0.31004167625E+04 0.  0.
        4    1    3    3  502    0  0.55076702573E+03  0.14154956799E+04 -0.57367703136E+03  0.16236007162E+04  0.12699999809E+01 0. -1.
       -4    1    3    3    0  502 -0.55076702573E+03 -0.14154956799E+04 -0.12981839358E+04  0.19980629321E+04  0.12699999809E+01 0.  1.
</event>
<event>
 5   0  0.4436241E-08  0.3099584E+04  0.7818609E-02  0.8215852E-01
        1   -1    0    0  501    0  0.00000000000E+00  0.00000000000E+00  0.18910272333E+04  0.18910272333E+04  0.50400001928E-02 0.  1.
       -1   -1    0    0    0  501  0.00000000000E+00  0.00000000000E+00 -0.12701327200E+04  0.12701327200E+04  0.50400001928E-02 0. -1.
    10030    2    1    2    0    0  0.00000000000E+00  0.00000000000E+00  0.62089451338E+03  0.31611599533E+04  0.30995842066E+04 0.  0.
        3    1    3    3  502    0  0.46699650193E+03 -0.12215638361E+04  0.11585634044E+04  0.17471614438E+04  0.10100000352E+00 0.  1.
       -3    1    3    3    0  502 -0.46699650193E+03  0.12215638361E+04 -0.53766889097E+03  0.14139985095E+04  0.10100000352E+00 0. -1.
</event>
<event>
 5   0  0.1398931E-07  0.3100019E+04  0.7818609E-02  0.8215733E-01
       -2   -1    0    0    0  501  0.00000000000E+00  0.00000000000E+00  0.10682950037E+04  0.10682950037E+04  0.25500000920E-02 0.  1.
        2   -1    0    0  501    0  0.00000000000E+00  0.00000000000E+00 -0.22489378060E+04  0.22489378060E+04  0.25500000920E-02 0. -1.
    10030    2    1    2    0    0  0.00000000000E+00  0.00000000000E+00 -0.11806428023E+04  0.33172328097E+04  0.31000187237E+04 0.  0.
        3    1    3    3  502    0 -0.28611884923E+03 -0.12751855924E+04  0.30148096572E+03  0.13412132843E+04  0.10100000352E+00 0. -1.
       -3    1    3    3    0  502  0.28611884923E+03  0.12751855924E+04 -0.14821237680E+04  0.19760195254E+04  0.10100000352E+00 0.  1.
</event>
<event>
 5   0  0.1398931E-07  0.3099268E+04  0.7818609E-02  0.8215939E-01
       -2   -1    0    0    0  501  0.00000000000E+00  0.00000000000E+00  0.16378459950E+04  0.16378459950E+04  0.25500000920E-02 0. -1.
        2   -1    0    0  501    0  0.00000000000E+00  0.00000000000E+00 -0.14661729747E+04  0.14661729747E+04  0.25500000920E-02 0.  1.
    10030    2    1    2    0    0  0.00000000000E+00  0.00000000000E+00  0.17167302037E+03  0.31040189697E+04  0.30992680004E+04 0.  0.
        3    1    3    3  502    0 -0.68044362318E+03 -0.93722086206E+03  0.11169675880E+04  0.16090379335E+04  0.10100000352E+00 0. -1.
       -3    1    3    3    0  502  0.68044362318E+03  0.93722086206E+03 -0.94529456766E+03  0.14949810362E+04  0.10100000352E+00 0.  1.
</event>
<event>
 5   0  0.4517409E-08  0.3099087E+04  0.7818609E-02  0.8215988E-01
       -1   -1    0    0    0  501  0.00000000000E+00  0.00000000000E+00  0.16425374210E+04  0.16425374210E+04  0.50400001928E-02 0.  1.
        1   -1    0    0  501    0  0.00000000000E+00  0.00000000000E+00 -0.14618149891E+04  0.14618149891E+04  0.50400001928E-02 0. -1.
    10030    2    1    2    0    0  0.00000000000E+00  0.00000000000E+00  0.18072243191E+03  0.31043524101E+04  0.30990874929E+04 0.  0.
        2    1    3    3  502    0 -0.23971553132E+03 -0.10928782237E+04  0.11642083122E+04  0.16146910980E+04  0.25500000920E-02 0.  1.
       -2    1    3    3    0  502  0.23971553132E+03  0.10928782237E+04 -0.98348588030E+03  0.14896613121E+04  0.25500000920E-02 0. -1.
</event>
<event>
 5   0  0.4838602E-08  0.3101273E+04  0.7818609E-02  0.8215389E-01
        1   -1    0    0  501    0  0.00000000000E+00  0.00000000000E+00  0.11854754333E+04  0.11854754333E+04  0.50400001928E-02 0. -1.
       -1   -1    0    0    0  501  0.00000000000E+00  0.00000000000E+00 -0.20282778205E+04  0.20282778205E+04  0.50400001928E-02 0.  1.
    10030    2    1    2    0    0  0.00000000000E+00  0.00000000000E+00 -0.84280238719E+03  0.32137532537E+04  0.31012729825E+04 0.  0.
        5    1    3    3  502    0  0.89660003615E+02 -0.15160577151E+04 -0.97028241102E+02  0.15218102645E+04  0.46999998093E+01 0. -1.
       -5    1    3    3    0  502 -0.89660003615E+02  0.15160577151E+04 -0.74577414608E+03  0.16919429892E+04  0.46999998093E+01 0.  1.
</event>
<event>
 5   0  0.4470354E-08  0.3100191E+04  0.7818609E-02  0.8215686E-01
        1   -1    0    0  501    0  0.00000000000E+00  0.00000000000E+00  0.16202233712E+04  0.16202233712E+04  0.50400001928E-02 0. -1.
       -1   -1    0    0    0  501  0.00000000000E+00  0.00000000000E+00 -0.14830025703E+04  0.14830025703E+04  0.50400001928E-02 0.  1.
    10030    2    1    2    0    0  0.00000000000E+00  0.00000000000E+00  0.13722080093E+03  0.31032259416E+04  0.31001905903E+04 0.  0.
        1    1    3    3  502    0  0.12634363598E+03 -0.15237029013E+04 -0.18690836456E+03  0.15403142480E+04  0.50400001928E-02 0.  1.
       -1    1    3    3    0  502 -0.12634363598E+03  0.15237029013E+04  0.32412916549E+03  0.15629116935E+04  0.50400001928E-02 0. -1.
</event>
<event>
 5   0  0.1318916E-07  0.3100641E+04  0.7818609E-02  0.8215562E-01
        2   -1    0    0  501    0  0.00000000000E+00  0.00000000000E+00  0.17365682302E+04  0.17365682302E+04  0.25500000920E-02 0.  1.
       -2   -1    0    0    0  501  0.00000000000E+00  0.00000000000E+00 -0.13840478166E+04  0.13840478166E+04  0.25500000920E-02 0. -1.
    10030    2    1    2    0    0  0.00000000000E+00  0.00000000000E+00  0.35252041357E+03  0.31206160468E+04  0.31006408804E+04 0.  0.
        5    1    3    3  502    0  0.69789111369E+03  0.10035269234E+04 -0.78348320798E+03  0.14518906018E+04  0.46999998093E+01 0. -1.
       -5    1    3    3    0  502 -0.69789111369E+03 -0.10035269234E+04  0.11360036216E+04  0.16687254450E+04  0.46999998093E+01 0.  1.
</event>
<event>
 5   0  0.1398931E-07  0.3099379E+04  0.7818609E-02  0.8215908E-01
        2   -1    0    0  501    0  0.00000000000E+00  0.00000000000E+00  0.20865227228E+04  0.20865227228E+04  0.25500000920E-02 0.  1.
       -2   -1    0    0    0  501  0.00000000000E+00  0.00000000000E+00 -0.11509759797E+04  0.11509759797E+04  0.25500000920E-02 0. -1.
    10030    2    1    2    0    0  0.00000000000E+00  0.00000000000E+00  0.93554674314E+03  0.32374987025E+04  0.30993789927E+04 0.  0.
        3    1    3    3  502    0  0.45802384563E+03  0.72168463890E+02  0.20123660374E+04  0.20650935110E+04  0.10100000352E+00 0.  1.
       -3    1    3    3    0  502 -0.45802384563E+03 -0.72168463890E+02 -0.10768192943E+04  0.11724051915E+04  0.10100000352E+00 0. -1.
</event>
<event>
 5   0  0.1325713E-07  0.3100451E+04  0.7818609E-02  0.8215614E-01
        2   -1    0    0  501    0  0.00000000000E+00  0.00000000000E+00  0.28898468032E+04  0.28898468032E+04  0.25500000920E-02 0. -1.
       -2   -1    0    0    0  501  0.00000000000E+00  0.00000000000E+00 -0.83160070660E+03  0.83160070660E+03  0.25500000920E-02 0.  1.
    10030    2    1    2    0    0  0.00000000000E+00  0.00000000000E+00  0.20582460966E+04  0.37214475098E+04  0.31004507050E+04 0.  0.
        4    1    3    3  502    0 -0.69652036116E+03  0.46458292432E+03 -0.53688792037E+03  0.99459949679E+03  0.12699999809E+01 0.  1.
       -4    1    3    3    0  502  0.69652036116E+03 -0.46458292432E+03  0.25951340170E+04  0.27268480130E+04  0.12699999809E+01 0. -1.
</event>
<event>
 5   0  0.1398931E-07  0.3100957E+04  0.7818609E-02  0.8215475E-01
        2   -1    0    0  501    0  0.00000000000E+00  0.00000000000E+00  0.21280184509E+04  0.21280184509E+04  0.25500000920E-02 0.  1.
       -2   -1    0    0    0  501  0.00000000000E+00  0.00000000000E+00 -0.11296817907E+04  0.11296817907E+04  0.25500000920E-02 0. -1.
    10030    2    1    2    0    0  0.00000000000E+00  0.00000000000E+00  0.99833666021E+03  0.32577002416E+04  0.31009570743E+04 0.  0.
        3    1    3    3  502    0 -0.12423423226E+04 -0.75046418030E+03  0.10720513515E+04  0.18044126587E+04  0.10100000352E+00 0.  1.
       -3    1    3    3    0  502  0.12423423226E+04  0.75046418030E+03 -0.73714691291E+02  0.14532875828E+04  0.10100000352E+00 0. -1.
</event>
<event>
 5   0  0.4838602E-08  0.3098516E+04  0.7818609E-02  0.8216145E-01
       -1   -1    0    0    0  501  0.00000000000E+00  0.00000000000E+00  0.90887165800E+03  0.90887165802E+03  0.50400001928E-02 0.  1.
        1   -1    0    0  501    0  0.00000000000E+00  0.00000000000E+00 -0.26408574237E+04  0.26408574238E+04  0.50400001928E-02 0. -1.
    10030    2    1    2    0    0  0.00000000000E+00  0.00000000000E+00 -0.17319857657E+04  0.35497290818E+04  0.30985160741E+04 0.  0.
        5    1    3    3  502    0  0.10850117081E+04  0.79698389284E+03 -0.17442785488E+04  0.22033981660E+04  0.46999998093E+01 0. -1.
       -5    1    3    3    0  502 -0.10850117081E+04 -0.79698389284E+03  0.12292783033E+02  0.13463309158E+04  0.46999998093E+01 0.  1.
</event>
<event>
 5   0  0.4450600E-08  0.3097030E+04  0.7818609E-02  0.8216553E-01
        1   -1    0    0  501    0  0.00000000000E+00  0.00000000000E+00  0.26252024156E+04  0.26252024156E+04  0.50400001928E-02 0. -1.
       -1   -1    0    0    0  501  0.00000000000E+00  0.00000000000E+00 -0.91341508117E+03  0.91341508119E+03  0.50400001928E-02 0.  1.
    10030    2    1    2    0    0  0.00000000000E+00  0.00000000000E+00  0.17117873344E+04  0.35386174967E+04  0.30970304987E+04 0.  0.
        4    1    3    3  502    0  0.65172069874E+03  0.72330733537E+03  0.22317396412E+04  0.24348668977E+04  0.12699999809E+01 0. -1.
       -4    1    3    3    0  502 -0.65172069874E+03 -0.72330733537E+03 -0.51995230683E+03  0.11037505990E+04  0.12699999809E+01 0.  1.
</event>
<event>
 5   0  0.4838602E-08  0.3100202E+04  0.7818609E-02  0.8215683E-01
        1   -1    0    0  501    0  0.00000000000E+00  0.00000000000E+00  0.10059380624E+04  0.10059380624E+04  0.50400001928E-02 0.  1.
       -1   -1    0    0    0  501  0.00000000000E+00  0.00000000000E+00 -0.23886286153E+04  0.23886286153E+04  0.50400001928E-02 0. -1.
    10030    2    1    2    0    0  0.00000000000E+00  0.00000000000E+00 -0.13826905529E+04  0.33945666777E+04  0.31002015683E+04 0.  0.
        5    1    3    3  502    0  0.87755003792E+03  0.24254837273E+03  0.68231192502E+03  0.11377589530E+04  0.46999998093E+01 0.  1.
       -5    1    3    3    0  502 -0.87755003792E+03 -0.24254837273E+03 -0.20650024780E+04  0.22568077247E+04  0.46999998093E+01 0. -1.
</event>
<event>
 5   0  0.4450600E-08  0.3095243E+04  0.7818609E-02  0.8217045E-01
       -1   -1    0    0    0  501  0.00000000000E+00  0.00000000000E+00  0.33292365124E+04  0.33292365124E+04  0.50400001928E-02 0.  1.
        1   -1    0    0  501    0  0.00000000000E+00  0.00000000000E+00 -0.71942393340E+03  0.71942393342E+03  0.50400001928E-02 0. -1.
    10030    2    1    2    0    0  0.00000000000E+00  0.00000000000E+00  0.26098125790E+04  0.40486604458E+04  0.30952430774E+04 0.  0.
        4    1    3    3  502    0 -0.79479508956E+03  0.12180058594E+04  0.61289552549E+03  0.15782522124E+04  0.12699999809E+01 0.  1.
       -4    1    3    3    0  502  0.79479508956E+03 -0.12180058594E+04  0.19969170535E+04  0.24704082334E+04  0.12699999809E+01 0. -1.
</event>
<event>
 5   0  0.1398931E-07  0.3099212E+04  0.7818609E-02  0.8215954E-01
       -2   -1    0    0    0  501  0.00000000000E+00  0.00000000000E+00  0.10314182244E+04  0.10314182244E+04  0.25500000920E-02 0. -1.
        2   -1    0    0  501    0  0.00000000000E+00  0.00000000000E+00 -0.23281328909E+04  0.23281328909E+04  0.25500000920E-02 0.  1.
    10030    2    1    2    0    0  0.00000000000E+00  0.00000000000E+00 -0.12967146665E+04  0.33595511153E+04  0.30992119594E+04 0.  0.
        3    1    3    3  502    0  0.13163988945E+04 -0.71818816022E+03 -0.22493232863E+03  0.15163425885E+04  0.10100000352E+00 0. -1.
       -3    1    3    3    0  502 -0.13163988945E+04  0.71818816022E+03 -0.10717823379E+04  0.18432085267E+04  0.10100000352E+00 0.  1.
</event>
<event>
 5   0  0.4436241E-08  0.3108020E+04  0.7818609E-02  0.8213540E-01
       -1   -1    0    0    0  501  0.00000000000E+00  0.00000000000E+00  0.12141342931E+04  0.12141342932E+04  0.50400001928E-02 0.  1.
        1   -1    0    0  501    0  0.00000000000E+00  0.00000000000E+00 -0.19890278992E+04  0.19890278992E+04  0.50400001928E-02 0. -1.
    10030    2    1    2    0    0  0.00000000000E+00  0.00000000000E+00 -0.77489360603E+03  0.32031621923E+04  0.31080199372E+04 0.  0.
        3    1    3    3  502    0 -0.18884864190E+03 -0.15360216448E+04 -0.24198562638E+03  0.15663918273E+04  0.10100000352E+00 0. -1.
       -3    1    3    3    0  502  0.18884864190E+03  0.15360216448E+04 -0.53290797965E+03  0.16367703651E+04  0.10100000352E+00 0.  1.
</event>
<event>
 5   0  0.4517409E-08  0.3097806E+04  0.7818609E-02  0.8216340E-01
       -1   -1    0    0    0  501  0.00000000000E+00  0.00000000000E+00  0.13286248336E+04  0.13286248336E+04  0.50400001928E-02 0.  1.
        1   -1    0    0  501    0  0.00000000000E+00  0.00000000000E+00 -0.18057025025E+04  0.18057025025E+04  0.50400001928E-02 0. -1.
    10030    2    1    2    0    0  0.00000000000E+00  0.00000000000E+00 -0.47707766884E+03  0.31343273361E+04  0.30978064413E+04 0.  0.
        2    1    3    3  502    0 -0.11007617966E+04  0.63275383387E+03 -0.11361546003E+04  0.17037902521E+04  0.25500000920E-02 0. -1.
       -2    1    3    3    0  502  0.11007617966E+04 -0.63275383387E+03  0.65907693146E+03  0.14305370840E+04  0.25500000920E-02 0.  1.
</event>
<event>
 5   0  0.1398931E-07  0.3099524E+04  0.7818609E-02  0.8215868E-01
       -2   -1    0    0    0  501  0.00000000000E+00  0.00000000000E+00  0.14460029175E+04  0.14460029175E+04  0.25500000920E-02 0. -1.
        2   -1    0    0  501    0  0.00000000000E+00  0.00000000000E+00 -0.16609668824E+04  0.16609668824E+04  0.25500000920E-02 0.  1.
    10030    2    1    2    0    0  0.00000000000E+00  0.00000000000E+00 -0.21496396492E+03  0.31069697999E+04  0.30995244524E+04 0.  0.
        3    1    3    3  502    0  0.10468805091E+04  0.11294741826E+04  0.66405798783E+02  0.15414540115E+04  0.10100000352E+00 0. -1.
       -3    1    3    3    0  502 -0.10468805091E+04 -0.11294741826E+04 -0.28136976370E+03  0.15655157883E+04  0.10100000352E+00 0.  1.
</event>
<event>
 5   0  0.4436241E-08  0.3098330E+04  0.7818609E-02  0.8216196E-01
       -1   -1    0    0    0  501  0.00000000000E+00  0.00000000000E+00  0.26477402397E+04  0.26477402397E+04  0.50400001928E-02 0. -1.
        1   -1    0    0  501    0  0.00000000000E+00  0.00000000000E+00 -0.90640016462E+03  0.90640016463E+03  0.50400001928E-02 0.  1.
    10030    2    1    2    0    0  0.00000000000E+00  0.00000000000E+00  0.17413400751E+04  0.35541404044E+04  0.30983299948E+04 0.  0.
        3    1    3    3  502    0  0.51214416190E+03 -0.12544310000E+04  0.91696620062E+01  0.13549807634E+04  0.10100000352E+00 0.  1.
       -3    1    3    3    0  502 -0.51214416190E+03  0.12544310000E+04  0.17321704131E+04  0.21991596410E+04  0.10100000352E+00 0. -1.
</event>
<event>
 5   0  0.1325713E-07  0.3097741E+04  0.7818609E-02  0.8216358E-01
        2   -1    0    0  501    0  0.00000000000E+00  0.00000000000E+00  0.24265098530E+04  0.24265098530E+04  0.25500000920E-02 0.  1.
       -2   -1    0    0    0  501  0.00000000000E+00  0.00000000000E+00 -0.98866277518E+03  0.98866277519E+03  0.25500000920E-02 0. -1.
    10030    2    1    2    0    0  0.00000000000E+00  0.00000000000E+00  0.14378470778E+04  0.34151726282E+04  0.30977410901E+04 0.  0.
        4    1    3    3  502    0 -0.32562301319E+03 -0.15017574569E+04  0.50488337105E+03  0.16174716806E+04  0.12699999809E+01 0. -1.
       -4    1    3    3    0  502  0.32562301319E+03  0.15017574569E+04  0.93296370679E+03  0.17977009477E+04  0.12699999809E+01 0.  1.
</event>
<event>
 5   0  0.4517409E-08  0.3099964E+04  0.7818609E-02  0.8215748E-01
       -1   -1    0    0    0  501  0.00000000000E+00  0.00000000000E+00  0.16656958804E+04  0.16656958804E+04  0.50400001928E-02 0.  1.
        1   -1    0    0  501    0  0.00000000000E+00  0.00000000000E+00 -0.14423063714E+04  0.14423063714E+04  0.50400001928E-02 0. -1.
    10030    2    1    2    0    0  0.00000000000E+00  0.00000000000E+00  0.22338950895E+03  0.31080022518E+04  0.30999637296E+04 0.  0.
        2    1    3    3  502    0 -0.19570310273E+03  0.80477162320E+03 -0.12018501833E+04  0.14595893029E+04  0.25500000920E-02 0. -1.
       -2    1    3    3    0  502  0.19570310273E+03 -0.80477162320E+03  0.14252396922E+04  0.16484129490E+04  0.25500000920E-02 0.  1.
</event>
<event>
 5   0  0.4517409E-08  0.3098888E+04  0.7818609E-02  0.8216043E-01
       -1   -1    0    0    0  501  0.00000000000E+00  0.00000000000E+00  0.27112017003E+04  0.27112017003E+04  0.50400001928E-02 0.  1.
        1   -1    0    0  501    0  0.00000000000E+00  0.00000000000E+00 -0.88550277165E+03  0.88550277167E+03  0.50400001928E-02 0. -1.
    10030    2    1    2    0    0  0.00000000000E+00  0.00000000000E+00  0.18256989287E+04  0.35967044720E+04  0.30988879426E+04 0.  0.
        2    1    3    3  502    0 -0.15432036975E+04  0.29541720843E+02  0.75529982175E+03  0.17183795232E+04  0.25500000920E-02 0.  1.
       -2    1    3    3    0  502  0.15432036975E+04 -0.29541720843E+02  0.10703991069E+04  0.18783249488E+04  0.25500000920E-02 0. -1.
</event>
<event>
 5   0  0.4450600E-08  0.3100005E+04  0.7818609E-02  0.8215736E-01
       -1   -1    0    0    0  501  0.00000000000E+00  0.00000000000E+00  0.12320620902E+04  0.12320620902E+04  0.50400001928E-02 0.  1.
        1   -1    0    0  501    0  0.00000000000E+00  0.00000000000E+00 -0.19499893982E+04  0.19499893982E+04  0.50400001928E-02 0. -1.
    10030    2    1    2    0    0  0.00000000000E+00  0.00000000000E+00 -0.71792730804E+03  0.31820514884E+04  0.31000051701E+04 0.  0.
        4    1    3    3  502    0  0.10153077897E+02 -0.78465084628E+03  0.10130985703E+04  0.12814641476E+04  0.12699999809E+01 0.  1.
       -4    1    3    3    0  502 -0.10153077897E+02  0.78465084628E+03 -0.17310258783E+04  0.19005873408E+04  0.12699999809E+01 0. -1.
</event>
<event>
 5   0  0.4436241E-08  0.3099902E+04  0.7818609E-02  0.8215765E-01
        1   -1    0    0  501    0  0.00000000000E+00  0.00000000000E+00  0.14781967142E+04  0.14781967142E+04  0.50400001928E-02 0.  1.
       -1   -1    0    0    0  501  0.00000000000E+00  0.00000000000E+00 -0.16251883589E+04  0.16251883589E+04  0.50400001928E-02 0. -1.
    10030    2    1    2    0    0  0.00000000000E+00  0.00000000000E+00 -0.14699164470E+03  0.31033850730E+04  0.30999019933E+04 0.  0.
        3    1    3    3  502    0 -0.52405719325E+03  0.14406371497E+04 -0.30239380453E+03  0.15625342755E+04  0.10100000352E+00 0. -1.
       -3    1    3    3    0  502  0.52405719325E+03 -0.14406371497E+04  0.15540215983E+03  0.15408507976E+04  0.10100000352E+00 0.  1.
</event>
<event>
 5   0  0.4838602E-08  0.3100730E+04  0.7818609E-02  0.8215538E-01
       -1   -1    0    0    0  501  0.00000000000E+00  0.00000000000E+00  0.10234889907E+04  0.10234889907E+04  0.50400001928E-02 0.  1.
        1   -1    0    0  501    0  0.00000000000E+00  0.00000000000E+00 -0.23484679497E+04  0.23484679497E+04  0.50400001928E-02 0. -1.
    10030    2    1    2    0    0  0.00000000000E+00  0.00000000000E+00 -0.13249789591E+04  0.33719569404E+04  0.31007296505E+04 0.  0.
        5    1    3    3  502    0  0.61515136292E+03  0.13874239974E+04 -0.31816680486E+03  0.15506800939E+04  0.46999998093E+01 0.  1.
       -5    1    3    3    0  502 -0.61515136292E+03 -0.13874239974E+04 -0.10068121542E+04  0.18212768465E+04  0.46999998093E+01 0. -1.
</event>
<event>
 5   0  0.1398931E-07  0.3098739E+04  0.7818609E-02  0.8216084E-01
        2   -1    0    0  501    0  0.00000000000E+00  0.00000000000E+00  0.15815608469E+04  0.15815608469E+04  0.25500000920E-02 0.  1.
       -2   -1    0    0    0  501  0.00000000000E+00  0.00000000000E+00 -0.15178336633E+04  0.15178336633E+04  0.25500000920E-02 0. -1.
    10030    2    1    2    0    0  0.00000000000E+00  0.00000000000E+00  0.63727183636E+02  0.30993945101E+04  0.30987392881E+04 0.  0.
        3    1    3    3  502    0  0.12943584041E+04 -0.20147051798E+02  0.88338178847E+03  0.15672054672E+04  0.10100000352E+00 0.  1.
       -3    1    3    3    0  502 -0.12943584041E+04  0.20147051798E+02 -0.81965460483E+03  0.15321890430E+04  0.10100000352E+00 0. -1.
</event>
<event>
 5   0  0.4470354E-08  0.3103085E+04  0.7818609E-02  0.8214892E-01
        1   -1    0    0  501    0  0.00000000000E+00  0.00000000000E+00  0.15147902213E+04  0.15147902213E+04  0.50400001928E-02 0. -1.
       -1   -1    0    0    0  501  0.00000000000E+00  0.00000000000E+00 -0.15891866646E+04  0.15891866646E+04  0.50400001928E-02 0.  1.
    10030    2    1    2    0    0  0.00000000000E+00  0.00000000000E+00 -0.74396443319E+02  0.31039768860E+04  0.31030851870E+04 0.  0.
        1    1    3    3  502    0 -0.14787661924E+04  0.15657727893E+03  0.40566879554E+03  0.15413737599E+04  0.50400001928E-02 0. -1.
       -1    1    3    3    0  502  0.14787661924E+04 -0.15657727893E+03 -0.48006523886E+03  0.15626031261E+04  0.50400001928E-02 0.  1.
</event>
<event>
 5   0  0.1329777E-07  0.3102096E+04  0.7818609E-02  0.8215163E-01
        2   -1    0    0  501    0  0.00000000000E+00  0.00000000000E+00  0.21894538650E+04  0.21894538650E+04  0.25500000920E-02 0.  1.
       -2   -1    0    0    0  501  0.00000000000E+00  0.00000000000E+00 -0.10987897631E+04  0.10987897632E+04  0.25500000920E-02 0. -1.
    10030    2    1    2    0    0  0.00000000000E+00  0.00000000000E+00  0.10906641019E+04  0.32882436282E+04  0.31020957392E+04 0.  0.
        1    1    3    3  502    0  0.14825272883E+04 -0.19331028203E+03  0.10764604379E+03  0.14989475296E+04  0.50400001928E-02 0. -1.
       -1    1    3    3    0  502 -0.14825272883E+04  0.19331028203E+03  0.98301805807E+03  0.17892960985E+04  0.50400001928E-02 0.  1.
</event>
<event>
 5   0  0.4436241E-08  0.3100635E+04  0.7818609E-02  0.8215564E-01
        1   -1    0    0  501    0  0.00000000000E+00  0.00000000000E+00  0.17681541569E+04  0.17681541569E+04  0.50400001928E-02 0. -1.
       -1   -1    0    0    0  501  0.00000000000E+00  0.00000000000E+00 -0.13593185755E+04  0.13593185755E+04  0.50400001928E-02 0.  1.
    10030    2    1    2    0    0  0.00000000000E+00  0.00000000000E+00  0.40883558140E+03  0.31274727324E+04  0.31006352832E+04 0.  0.
        3    1    3    3  502    0  0.14829342856E+04  0.39578815943E+03  0.42480939586E+03  0.15925468268E+04  0.10100000352E+00 0. -1.
       -3    1    3    3    0  502 -0.14829342856E+04 -0.39578815943E+03 -0.15973814462E+02  0.15349259056E+04  0.10100000352E+00 0.  1.
</event>
<event>
 5   0  0.4517409E-08  0.3101501E+04  0.7818609E-02  0.8215326E-01
       -1   -1    0    0    0  501  0.00000000000E+00  0.00000000000E+00  0.12084251843E+04  0.12084251843E+04  0.50400001928E-02 0. -1.
        1   -1    0    0  501    0  0.00000000000E+00  0.00000000000E+00 -0.19900499662E+04  0.19900499662E+04  0.50400001928E-02 0.  1.
    10030    2    1    2    0    0  0.00000000000E+00  0.00000000000E+00 -0.78162478188E+03  0.31984751504E+04  0.31015006027E+04 0.  0.
        2    1    3    3  502    0  0.20798752078E+03  0.28176918505E+03  0.11671087477E+04  0.12185218551E+04  0.25500000920E-02 0. -1.
       -2    1    3    3    0  502 -0.20798752078E+03 -0.28176918505E+03 -0.19487335296E+04  0.19799532953E+04  0.25500000920E-02 0.  1.
</event>
<event>
 5   0  0.4838602E-08  0.3099585E+04  0.7818609E-02  0.8215852E-01
       -1   -1    0    0    0  501  0.00000000000E+00  0.00000000000E+00  0.11380766561E+04  0.11380766561E+04  0.50400001928E-02 0.  1.
        1   -1    0    0  501    0  0.00000000000E+00  0.00000000000E+00 -0.21104528377E+04  0.21104528377E+04  0.50400001928E-02 0. -1.
    10030    2    1    2    0    0  0.00000000000E+00  0.00000000000E+00 -0.97237618157E+03  0.32485294938E+04  0.30995852035E+04 0.  0.
        5    1    3    3  502    0 -0.14371826122E+04 -0.40416677753E+03 -0.50280729207E+02  0.14937854218E+04  0.46999998093E+01 0.  1.
       -5    1    3    3    0  502  0.14371826122E+04  0.40416677753E+03 -0.92209545237E+03  0.17547440720E+04  0.46999998093E+01 0. -1.
</event>
<event>
 5   0  0.1318916E-07  0.3110492E+04  0.7818609E-02  0.8212864E-01
        2   -1    0    0  501    0  0.00000000000E+00  0.00000000000E+00  0.20385305700E+04  0.20385305700E+04  0.25500000920E-02 0. -1.
       -2   -1    0    0    0  501  0.00000000000E+00  0.00000000000E+00 -0.11865364152E+04  0.11865364152E+04  0.25500000920E-02 0.  1.
    10030    2    1    2    0    0  0.00000000000E+00  0.00000000000E+00  0.85199415478E+03  0.32250669852E+04  0.31104924078E+04 0.  0.
        5    1    3    3  502    0 -0.80744685141E+03 -0.73754732870E+03 -0.72054830189E+03  0.13096405710E+04  0.46999998093E+01 0.  1.
       -5    1    3    3    0  502  0.80744685141E+03  0.73754732870E+03  0.15725424567E+04  0.19154264141E+04  0.46999998093E+01 0. -1.
</event>
<event>
 5   0  0.1318916E-07  0.3100027E+04  0.7818609E-02  0.8215731E-01
       -2   -1    0    0    0  501  0.00000000000E+00  0.00000000000E+00  0.15254738233E+04  0.15254738233E+04  0.25500000920E-02 0. -1.
        2   -1    0    0  501    0  0.00000000000E+00  0.00000000000E+00 -0.15749476501E+04  0.15749476501E+04  0.25500000920E-02 0.  1.
    10030    2    1    2    0    0  0.00000000000E+00  0.00000000000E+00 -0.49473826782E+02  0.31004214734E+04  0.31000267181E+04 0.  0.
        5    1    3    3  502    0  0.15315757819E+04  0.26902152588E+02  0.21208686662E+03  0.15464317090E+04  0.46999998093E+01 0. -1.
       -5    1    3    3    0  502 -0.15315757819E+04 -0.26902152588E+02 -0.26156069340E+03  0.15539897644E+04  0.46999998093E+01 0.  1.
</event>
<event>
 5   0  0.1318916E-07  0.3100585E+04  0.7818609E-02  0.8215577E-01
        2   -1    0    0  501    0  0.00000000000E+00  0.00000000000E+00  0.22455778206E+04  0.22455778206E+04  0.25500000920E-02 0.  1.
       -2   -1    0    0    0  501  0.00000000000E+00  0.00000000000E+00 -0.10702842882E+04  0.10702842882E+04  0.25500000920E-02 0. -1.
    10030    2    1    2    0    0  0.00000000000E+00  0.00000000000E+00  0.11752935324E+04  0.33158621088E+04  0.31005848864E+04 0.  0.
        5    1    3    3  502    0 -0.15257462912E+04 -0.27421859547E+03  0.60576364171E+03  0.16643525056E+04  0.46999998093E+01 0. -1.
       -5    1    3    3    0  502  0.15257462912E+04  0.27421859547E+03  0.56952989073E+03  0.16515096033E+04  0.46999998093E+01 0.  1.
</event>
<event>
 5   0  0.4450600E-08  0.3100125E+04  0.7818609E-02  0.8215703E-01
       -1   -1    0    0    0  501  0.00000000000E+00  0.00000000000E+00  0.11618715559E+04  0.11618715560E+04  0.50400001928E-02 0.  1.
        1   -1    0    0  501    0  0.00000000000E+00  0.00000000000E+00 -0.20679519143E+04  0.20679519143E+04  0.50400001928E-02 0. -1.
    10030    2    1    2    0    0  0.00000000000E+00  0.00000000000E+00 -0.90608035835E+03  0.32298234703E+04  0.31001254867E+04 0.  0.
        4    1    3    3  502    0  0.15007812811E+04 -0.88107176600E+02 -0.59637515468E+02  0.15045482958E+04  0.12699999809E+01 0.  1.
       -4    1    3    3    0  502 -0.15007812811E+04  0.88107176600E+02 -0.84644284288E+03  0.17252751744E+04  0.12699999809E+01 0. -1.
</event>
<event>
 5   0  0.1377237E-07  0.3100013E+04  0.7818609E-02  0.8215734E-01
       -2   -1    0    0    0  501  0.00000000000E+00  0.00000000000E+00  0.25457175997E+04  0.25457175997E+04  0.25500000920E-02 0.  1.
        2   -1    0    0  501    0  0.00000000000E+00  0.00000000000E+00 -0.94374988468E+03  0.94374988469E+03  0.25500000920E-02 0. -1.
    10030    2    1    2    0    0  0.00000000000E+00  0.00000000000E+00  0.16019677150E+04  0.34894674844E+04  0.31000133491E+04 0.  0.
        2    1    3    3  502    0  0.10993816195E+04  0.78810436006E+03  0.16528798621E+04  0.21358277707E+04  0.25500000920E-02 0.  1.
       -2    1    3    3    0  502 -0.10993816195E+04 -0.78810436006E+03 -0.50912147056E+02  0.13536397137E+04  0.25500000920E-02 0. -1.
</event>
<event>
 5   0  0.1398931E-07  0.3102300E+04  0.7818609E-02  0.8215107E-01
        2   -1    0    0  501    0  0.00000000000E+00  0.00000000000E+00  0.23408886642E+04  0.23408886642E+04  0.25500000920E-02 0.  1.
       -2   -1    0    0    0  501  0.00000000000E+00  0.00000000000E+00 -0.10278428195E+04  0.10278428195E+04  0.25500000920E-02 0. -1.
    10030    2    1    2    0    0  0.00000000000E+00  0.00000000000E+00  0.13130458447E+04  0.33687314837E+04  0.31022995372E+04 0.  0.
        3    1    3    3  502    0  0.41327523292E+02 -0.74275960287E+03  0.21345459824E+04  0.22604615354E+04  0.10100000352E+00 0.  1.
       -3    1    3    3    0  502 -0.41327523292E+02  0.74275960287E+03 -0.82150013765E+03  0.11082699483E+04  0.10100000352E+00 0. -1.
</event>
<event>
 5   0  0.4436241E-08  0.3099388E+04  0.7818609E-02  0.8215906E-01
        1   -1    0    0  501    0  0.00000000000E+00  0.00000000000E+00  0.24142492494E+04  0.24142492494E+04  0.50400001928E-02 0.  1.
       -1   -1    0    0    0  501  0.00000000000E+00  0.00000000000E+00 -0.99474038103E+03  0.99474038104E+03  0.50400001928E-02 0. -1.
    10030    2    1    2    0    0  0.00000000000E+00  0.00000000000E+00  0.14195088684E+04  0.34089896305E+04  0.30993878223E+04 0.  0.
        3    1    3    3  502    0 -0.10163910654E+04  0.96219612525E+03 -0.22048642548E+02  0.13997708149E+04  0.10100000352E+00 0. -1.
       -3    1    3    3    0  502  0.10163910654E+04 -0.96219612525E+03  0.14415575109E+04  0.20092188156E+04  0.10100000352E+00 0.  1.
</event>
<event>
 5   0  0.1398931E-07  0.3100661E+04  0.7818609E-02  0.8215556E-01
        2   -1    0    0  501    0  0.00000000000E+00  0.00000000000E+00  0.15169569175E+04  0.15169569175E+04  0.25500000920E-02 0.  1.
       -2   -1    0    0    0  501  0.00000000000E+00  0.00000000000E+00 -0.15844384690E+04  0.15844384690E+04  0.25500000920E-02 0. -1.
    10030    2    1    2    0    0  0.00000000000E+00  0.00000000000E+00 -0.67481551447E+02  0.31013953865E+04  0.31006611527E+04 0.  0.
        3    1    3    3  502    0  0.16025159030E+03  0.76981351253E+03  0.13027011617E+04  0.15216187903E+04  0.10100000352E+00 0.  1.
       -3    1    3    3    0  502 -0.16025159030E+03 -0.76981351253E+03 -0.13701827131E+04  0.15797765962E+04  0.10100000352E+00 0. -1.
</event>
<event>
 5   0  0.4470354E-08  0.3102100E+04  0.7818609E-02  0.8215162E-01
       -1   -1    0    0    0  501  0.00000000000E+00  0.00000000000E+00  0.22437101526E+04  0.22437101526E+04  0.50400001928E-02 0. -1.
        1   -1    0    0  501    0  0.00000000000E+00  0.00000000000E+00 -0.10722221393E+04  0.10722221393E+04  0.50400001928E-02 0.  1.
    10030    2    1    2    0    0  0.00000000000E+00  0.00000000000E+00  0.11714880133E+04  0.33159322919E+04  0.31020997403E+04 0.  0.
        1    1    3    3  502    0  0.56671551355E+02 -0.88061899425E+03 -0.77774270525E+03  0.11762589823E+04  0.50400001928E-02 0. -1.
       -1    1    3    3    0  502 -0.56671551355E+02  0.88061899425E+03  0.19492307185E+04  0.21396733096E+04  0.50400001928E-02 0.  1.
</event>
<event>
 5   0  0.1318916E-07  0.3098652E+04  0.7818609E-02  0.8216108E-01
        2   -1    0    0  501    0  0.00000000000E+00  0.00000000000E+00  0.17849148770E+04  0.17849148770E+04  0.25500000920E-02 0. -1.
       -2   -1    0    0    0  501  0.00000000000E+00  0.00000000000E+00 -0.13448324303E+04  0.13448324303E+04  0.25500000920E-02 0.  1.
    10030    2    1    2    0    0  0.00000000000E+00  0.00000000000E+00  0.44008244671E+03  0.31297473073E+04  0.30986522308E+04 0.  0.
        5    1    3    3  502    0  0.95975439368E+03 -0.33264678586E+03 -0.96157326271E+03  0.13987235645E+04  0.46999998093E+01 0.  1.
       -5    1    3    3    0  502 -0.95975439368E+03  0.33264678586E+03  0.14016557094E+04  0.17310237428E+04  0.46999998093E+01 0. -1.
</event>
<event>
 5   0  0.4436241E-08  0.3100812E+04  0.7818609E-02  0.8215515E-01
        1   -1    0    0  501    0  0.00000000000E+00  0.00000000000E+00  0.17088329125E+04  0.17088329125E+04  0.50400001928E-02 0. -1.
       -1   -1    0    0    0  501  0.00000000000E+00  0.00000000000E+00 -0.14066667613E+04  0.14066667613E+04  0.50400001928E-02 0.  1.
    10030    2    1    2    0    0  0.00000000000E+00  0.00000000000E+00  0.30216615119E+03  0.31154996739E+04  0.31008118026E+04 0.  0.
        3    1    3    3  502    0 -0.54061785049E+03  0.57019988262E+03 -0.11917967359E+04  0.14275065801E+04  0.10100000352E+00 0.  1.
       -3    1    3    3    0  502  0.54061785049E+03 -0.57019988262E+03  0.14939628871E+04  0.16879930938E+04  0.10100000352E+00 0. -1.
</event>
<event>
 5   0  0.1377237E-07  0.3098120E+04  0.7818609E-02  0.8216254E-01
       -2   -1    0    0    0  501  0.00000000000E+00  0.00000000000E+00  0.11522909346E+04  0.11522909346E+04  0.25500000920E-02 0. -1.
        2   -1    0    0  501    0  0.00000000000E+00  0.00000000000E+00 -0.20824487238E+04  0.20824487238E+04  0.25500000920E-02 0.  1.
    10030    2    1    2    0    0  0.00000000000E+00  0.00000000000E+00 -0.93015778916E+03  0.32347396584E+04  0.30981199371E+04 0.  0.
        2    1    3    3  502    0 -0.40063375620E+03 -0.13471899868E+04 -0.11450730870E+04  0.18129039251E+04  0.25500000920E-02 0.  1.
       -2    1    3    3    0  502  0.40063375620E+03  0.13471899868E+04  0.21491529787E+03  0.14218357333E+04  0.25500000920E-02 0. -1.
</event>
<event>
 5   0  0.4838602E-08  0.3100103E+04  0.7818609E-02  0.8215710E-01
        1   -1    0    0  501    0  0.00000000000E+00  0.00000000000E+00  0.30180160155E+04  0.30180160155E+04  0.50400001928E-02 0.  1.
       -1   -1    0    0    0  501  0.00000000000E+00  0.00000000000E+00 -0.79610542188E+03  0.79610542189E+03  0.50400001928E-02 0. -1.
    10030    2    1    2    0    0  0.00000000000E+00  0.00000000000E+00  0.22219105936E+04  0.38141214374E+04  0.31001025230E+04 0.  0.
        5    1    3    3  502    0 -0.13537008295E+04 -0.73653294908E+03  0.13155370200E+04  0.20262394877E+04  0.46999998093E+01 0. -1.
       -5    1    3    3    0  502  0.13537008295E+04  0.73653294908E+03  0.90637357365E+03  0.17878819496E+04  0.46999998093E+01 0.  1.
</event>
<event>
 5   0  0.4517409E-08  0.3100402E+04  0.7818609E-02  0.8215628E-01
       -1   -1    0    0    0  501  0.00000000000E+00  0.00000000000E+00  0.15080339832E+04  0.15080339832E+04  0.50400001928E-02 0.  1.
        1   -1    0    0  501    0  0.00000000000E+00  0.00000000000E+00 -0.15935467745E+04  0.15935467745E+04  0.50400001928E-02 0. -1.
    10030    2    1    2    0    0  0.00000000000E+00  0.00000000000E+00 -0.85512791236E+02  0.31015807577E+04  0.31004017093E+04 0.  0.
        2    1    3    3  502    0  0.13080474073E+04 -0.12702376567E+03  0.77974824327E+03  0.15281133400E+04  0.25500000920E-02 0.  1.
       -2    1    3    3    0  502 -0.13080474073E+04  0.12702376567E+03 -0.86526103451E+03  0.15734674177E+04  0.25500000920E-02 0. -1.
</event>
<event>
 5   0  0.4838602E-08  0.3098751E+04  0.7818609E-02  0.8216081E-01
       -1   -1    0    0    0  501  0.00000000000E+00  0.00000000000E+00  0.15849687817E+04  0.15849687817E+04  0.50400001928E-02 0.  1.
        1   -1    0    0  501    0  0.00000000000E+00  0.00000000000E+00 -0.15145816234E+04  0.15145816234E+04  0.50400001928E-02 0. -1.
    10030    2    1    2    0    0  0.00000000000E+00  0.00000000000E+00  0.70387158336E+02  0.30995504051E+04  0.30987510971E+04 0.  0.
        5    1    3    3  502    0 -0.10472756177E+04  0.73448570404E+03 -0.83926703789E+03  0.15299172264E+04  0.46999998093E+01 0. -1.
       -5    1    3    3    0  502  0.10472756177E+04 -0.73448570404E+03  0.90965419623E+03  0.15696331787E+04  0.46999998093E+01 0.  1.
</event>
<event>
 5   0  0.1318916E-07  0.3099922E+04  0.7818609E-02  0.8215759E-01
       -2   -1    0    0    0  501  0.00000000000E+00  0.00000000000E+00  0.25742289950E+04  0.25742289950E+04  0.25500000920E-02 0.  1.
        2   -1    0    0  501    0  0.00000000000E+00  0.00000000000E+00 -0.93324236822E+03  0.93324236823E+03  0.25500000920E-02 0. -1.
    10030    2    1    2    0    0  0.00000000000E+00  0.00000000000E+00  0.16409866268E+04  0.35074713632E+04  0.30999222982E+04 0.  0.
        5    1    3    3  502    0  0.30410750263E+03  0.87948234055E+03  0.22229634599E+04  0.24098877970E+04  0.46999998093E+01 0.  1.
       -5    1    3    3    0  502 -0.30410750263E+03 -0.87948234055E+03 -0.58197683308E+03  0.10975835662E+04  0.46999998093E+01 0. -1.
</event>
<event>
 5   0  0.4838602E-08  0.3098564E+04  0.7818609E-02  0.8216132E-01
        1   -1    0    0  501    0  0.00000000000E+00  0.00000000000E+00  0.16298016584E+04  0.16298016584E+04  0.50400001928E-02 0.  1.
       -1   -1    0    0    0  501  0.00000000000E+00  0.00000000000E+00 -0.14727402008E+04  0.14727402008E+04  0.50400001928E-02 0. -1.
    10030    2    1    2    0    0  0.00000000000E+00  0.00000000000E+00  0.15706145758E+03  0.31025418593E+04  0.30985638104E+04 0.  0.
        5    1    3    3  502    0  0.30957740742E+03 -0.43048716163E+02  0.15978980270E+04  0.16281865857E+04  0.46999998093E+01 0.  1.
       -5    1    3    3    0  502 -0.30957740742E+03  0.43048716163E+02 -0.14408365694E+04  0.14743552736E+04  0.46999998093E+01 0. -1.
</event>
<event>
 5   0  0.1329777E-07  0.3100092E+04  0.7818609E-02  0.8215713E-01
        2   -1    0    0  501    0  0.00000000000E+00  0.00000000000E+00  0.15031645823E+04  0.15031645823E+04  0.25500000920E-02 0.  1.
       -2   -1    0    0    0  501  0.00000000000E+00  0.00000000000E+00 -0.15983898934E+04  0.15983898934E+04  0.25500000920E-02 0. -1.
    10030    2    1    2    0    0  0.00000000000E+00  0.00000000000E+00 -0.95225311140E+02  0.31015544757E+04  0.31000923060E+04 0.  0.
        1    1    3    3  502    0  0.10122150329E+04  0.11234413570E+04  0.29305245387E+03  0.15403179855E+04  0.50400001928E-02 0. -1.
       -1    1    3    3    0  502 -0.10122150329E+04 -0.11234413570E+04 -0.38827776501E+03  0.15612364902E+04  0.50400001928E-02 0.  1.
</event>
<event>
 5   0  0.1318916E-07  0.3101360E+04  0.7818609E-02  0.8215365E-01
       -2   -1    0    0    0  501  0.00000000000E+00  0.00000000000E+00  0.11202339346E+04  0.11202339346E+04  0.25500000920E-02 0.  1.
        2   -1    0    0  501    0  0.00000000000E+00  0.00000000000E+00 -0.21465228685E+04  0.21465228685E+04  0.25500000920E-02 0. -1.
    10030    2    1    2    0    0  0.00000000000E+00  0.00000000000E+00 -0.10262889339E+04  0.32667568031E+04  0.31013595462E+04 0.  0.
        5    1    3    3  502    0 -0.15346900608E+04 -0.17168079412E+03 -0.66150259328E+03  0.16799868002E+04  0.46999998093E+01 0. -1.
       -5    1    3    3    0  502  0.15346900608E+04  0.17168079412E+03 -0.36478634058E+03  0.15867700029E+04  0.46999998093E+01 0.  1.
</event>
<event>
 5   0  0.1318916E-07  0.3095243E+04  0.7818609E-02  0.8217045E-01
        2   -1    0    0  501    0  0.00000000000E+00  0.00000000000E+00  0.21941740296E+04  0.21941740296E+04  0.25500000920E-02 0.  1.
       -2   -1    0    0    0  501  0.00000000000E+00  0.00000000000E+00 -0.10915874741E+04  0.10915874741E+04  0.25500000920E-02 0. -1.
    10030    2    1    2    0    0  0.00000000000E+00  0.00000000000E+00  0.11025865555E+04  0.32857615037E+04  0.30952433744E+04 0.  0.
        5    1    3    3  502    0 -0.10636850756E+04  0.14387984629E+03  0.17348086601E+04  0.20400270898E+04  0.46999998093E+01 0.  1.
       -5    1    3    3    0  502  0.10636850756E+04 -0.14387984629E+03 -0.63222210464E+03  0.12457344138E+04  0.46999998093E+01 0. -1.
</event>
<event>
 5   0  0.4838602E-08  0.3100929E+04  0.7818609E-02  0.8215483E-01
        1   -1    0    0  501    0  0.00000000000E+00  0.00000000000E+00  0.17449014049E+04  0.17449014049E+04  0.50400001928E-02 0. -1.
       -1   -1    0    0    0  501  0.00000000000E+00  0.00000000000E+00 -0.13776938706E+04  0.13776938706E+04  0.50400001928E-02 0.  1.
    10030    2    1    2    0    0  0.00000000000E+00  0.00000000000E+00  0.36720753434E+03  0.31225952755E+04  0.31009288740E+04 0.  0.
        5    1    3    3  502    0  0.59665248437E+03  0.18645124596E+02  0.16245371870E+04  0.17307469456E+04  0.46999998093E+01 0. -1.
       -5    1    3    3    0  502 -0.59665248437E+03 -0.18645124596E+02 -0.12573296527E+04  0.13918483299E+04  0.46999998093E+01 0.  1.
</event>
<event>
 5   0  0.4838602E-08  0.3103996E+04  0.7818609E-02  0.8214642E-01
        1   -1    0    0  501    0  0.00000000000E+00  0.00000000000E+00  0.19683799793E+04  0.19683799793E+04  0.50400001928E-02 0. -1.
       -1   -1    0    0    0  501  0.00000000000E+00  0.00000000000E+00 -0.12236954250E+04  0.12236954250E+04  0.50400001928E-02 0.  1.
    10030    2    1    2    0    0  0.00000000000E+00  0.00000000000E+00  0.74468455429E+03  0.31920754044E+04  0.31039958605E+04 0.  0.
        5    1    3    3  502    0 -0.15357944546E+04  0.22270970015E+03  0.39319748242E+03  0.16009030476E+04  0.46999998093E+01 0. -1.
       -5    1    3    3    0  502  0.15357944546E+04 -0.22270970015E+03  0.35148707188E+03  0.15911723568E+04  0.46999998093E+01 0.  1.
</event>
<event>
 5   0  0.1318916E-07  0.3100134E+04  0.7818609E-02  0.8215701E-01
        2   -1    0    0  501    0  0.00000000000E+00  0.00000000000E+00  0.20700173543E+04  0.20700173543E+04  0.25500000920E-02 0.  1.
       -2   -1    0    0    0  501  0.00000000000E+00  0.00000000000E+00 -0.11607184931E+04  0.11607184931E+04  0.25500000920E-02 0. -1.
    10030    2    1    2    0    0  0.00000000000E+00  0.00000000000E+00  0.90929886118E+03  0.32307358474E+04  0.31001338191E+04 0.  0.
        5    1    3    3  502    0 -0.42108075850E+03 -0.12023940704E+03 -0.10949070382E+04  0.11792412953E+04  0.46999998093E+01 0. -1.
       -5    1    3    3    0  502  0.42108075850E+03  0.12023940704E+03  0.20042058994E+04  0.20514945521E+04  0.46999998093E+01 0.  1.
</event>
<event>
 5   0  0.4450600E-08  0.3101536E+04  0.7818609E-02  0.8215317E-01
       -1   -1    0    0    0  501  0.00000000000E+00  0.00000000000E+00  0.89150905120E+03  0.89150905121E+03  0.50400001928E-02 0. -1.
        1   -1    0    0  501    0  0.00000000000E+00  0.00000000000E+00 -0.26975394829E+04  0.26975394829E+04  0.50400001928E-02 0.  1.
    10030    2    1    2    0    0  0.00000000000E+00  0.00000000000E+00 -0.18060304317E+04  0.35890485341E+04  0.31015356616E+04 0.  0.
        4    1    3    3  502    0 -0.69563540865E+03 -0.12356590583E+04 -0.16294812502E+04  0.21600862685E+04  0.12699999809E+01 0.  1.
       -4    1    3    3    0  502  0.69563540865E+03  0.12356590583E+04 -0.17654918155E+03  0.14289622656E+04  0.12699999809E+01 0. -1.
</event>
<event>
 5   0  0.1329777E-07  0.3100319E+04  0.7818609E-02  0.8215650E-01
       -2   -1    0    0    0  501  0.00000000000E+00  0.00000000000E+00  0.87778087769E+03  0.87778087769E+03  0.25500000920E-02 0. -1.
        2   -1    0    0  501    0  0.00000000000E+00  0.00000000000E+00 -0.27375795422E+04  0.27375795422E+04  0.25500000920E-02 0.  1.
    10030    2    1    2    0    0  0.00000000000E+00  0.00000000000E+00 -0.18597986645E+04  0.36153604199E+04  0.31003193212E+04 0.  0.
        1    1    3    3  502    0  0.61214417323E+03  0.29509971558E+03  0.69482343722E+03  0.97189708297E+03  0.50400001928E-02 0. -1.
       -1    1    3    3    0  502 -0.61214417323E+03 -0.29509971558E+03 -0.25546221017E+04  0.26434633369E+04  0.50400001928E-02 0.  1.
</event>
<event>
 5   0  0.4838602E-08  0.3099987E+04  0.7818609E-02  0.8215742E-01
        1   -1    0    0  501    0  0.00000000000E+00  0.00000000000E+00  0.17866623194E+04  0.17866623194E+04  0.50400001928E-02 0.  1.
       -1   -1    0    0    0  501  0.00000000000E+00  0.00000000000E+00 -0.13446744350E+04  0.13446744350E+04  0.50400001928E-02 0. -1.
    10030    2    1    2    0    0  0.00000000000E+00  0.00000000000E+00  0.44198788444E+03  0.31313367544E+04  0.30999865451E+04 0.  0.
        5    1    3    3  502    0 -0.53041995222E+02 -0.12716751598E+04 -0.67253417669E+03  0.14395469684E+04  0.46999998093E+01 0. -1.
       -5    1    3    3    0  502  0.53041995222E+02  0.12716751598E+04  0.11145220611E+04  0.16917897860E+04  0.46999998093E+01 0.  1.
</event>
<event>
 5   0  0.4470354E-08  0.3098677E+04  0.7818609E-02  0.8216101E-01
       -1   -1    0    0    0  501  0.00000000000E+00  0.00000000000E+00  0.12084227216E+04  0.12084227216E+04  0.50400001928E-02 0.  1.
        1   -1    0    0  501    0  0.00000000000E+00  0.00000000000E+00 -0.19864325872E+04  0.19864325872E+04  0.50400001928E-02 0. -1.
    10030    2    1    2    0    0  0.00000000000E+00  0.00000000000E+00 -0.77800986563E+03  0.31948553088E+04  0.30986773135E+04 0.  0.
        1    1    3    3  502    0  0.35417251980E+03  0.15065752024E+04 -0.31434707881E+03  0.15792470042E+04  0.50400001928E-02 0.  1.
       -1    1    3    3    0  502 -0.35417251980E+03 -0.15065752024E+04 -0.46366278682E+03  0.16156083047E+04  0.50400001928E-02 0. -1.
</event>
<event>
 5   0  0.4470354E-08  0.3100008E+04  0.7818609E-02  0.8215736E-01
        1   -1    0    0  501    0  0.00000000000E+00  0.00000000000E+00  0.22419509317E+04  0.22419509317E+04  0.50400001928E-02 0.  1.
       -1   -1    0    0    0  501  0.00000000000E+00  0.00000000000E+00 -0.10716167909E+04  0.10716167909E+04  0.50400001928E-02 0. -1.
    10030    2    1    2    0    0  0.00000000000E+00  0.00000000000E+00  0.11703341407E+04  0.33135677226E+04  0.31000079115E+04 0.  0.
        1    1    3    3  502    0 -0.15372403363E+04  0.19849430501E+03  0.58741484386E+03  0.16575777627E+04  0.50400001928E-02 0. -1.
       -1    1    3    3    0  502  0.15372403363E+04 -0.19849430501E+03  0.58291929688E+03  0.16559899599E+04  0.50400001928E-02 0.  1.
</event>
<event>
 5   0  0.4450600E-08  0.3096595E+04  0.7818609E-02  0.8216673E-01
        1   -1    0    0  501    0  0.00000000000E+00  0.00000000000E+00  0.20323784813E+04  0.20323784813E+04  0.50400001928E-02 0. -1.
       -1   -1    0    0    0  501  0.00000000000E+00  0.00000000000E+00 -0.11795174382E+04  0.11795174383E+04  0.50400001928E-02 0.  1.
    10030    2    1    2    0    0  0.00000000000E+00  0.00000000000E+00  0.85286104305E+03  0.32118959195E+04  0.30965954594E+04 0.  0.
        4    1    3    3  502    0 -0.57797806041E+03  0.13060159272E+04  0.10465962021E+04  0.17706217731E+04  0.12699999809E+01 0. -1.
       -4    1    3    3    0  502  0.57797806041E+03 -0.13060159272E+04 -0.19373515900E+03  0.14412741464E+04  0.12699999809E+01 0.  1.
</event>
<event>
 5   0  0.1325713E-07  0.3098913E+04  0.7818609E-02  0.8216036E-01
       -2   -1    0    0    0  501  0.00000000000E+00  0.00000000000E+00  0.12818866845E+04  0.12818866845E+04  0.25500000920E-02 0.  1.
        2   -1    0    0  501    0  0.00000000000E+00  0.00000000000E+00 -0.18728764460E+04  0.18728764460E+04  0.25500000920E-02 0. -1.
    10030    2    1    2    0    0  0.00000000000E+00  0.00000000000E+00 -0.59098976150E+03  0.31547631305E+04  0.30989129565E+04 0.  0.
        4    1    3    3  502    0  0.23347425238E+03  0.83177354728E+03 -0.16049331510E+04  0.18226819504E+04  0.12699999809E+01 0. -1.
       -4    1    3    3    0  502 -0.23347425238E+03 -0.83177354728E+03  0.10139433895E+04  0.13320811801E+04  0.12699999809E+01 0.  1.
</event>
<event>
 5   0  0.1398931E-07  0.3099209E+04  0.7818609E-02  0.8215955E-01
        2   -1    0    0  501    0  0.00000000000E+00  0.00000000000E+00  0.23573651324E+04  0.23573651324E+04  0.25500000920E-02 0. -1.
       -2   -1    0    0    0  501  0.00000000000E+00  0.00000000000E+00 -0.10186260201E+04  0.10186260201E+04  0.25500000920E-02 0.  1.
    10030    2    1    2    0    0  0.00000000000E+00  0.00000000000E+00  0.13387391123E+04  0.33759911525E+04  0.30992085846E+04 0.  0.
        3    1    3    3  502    0 -0.71395411823E+03  0.64322938692E+03 -0.65484441819E+03  0.11628825174E+04  0.10100000352E+00 0.  1.
       -3    1    3    3    0  502  0.71395411823E+03 -0.64322938692E+03  0.19935835305E+04  0.22131086350E+04  0.10100000352E+00 0. -1.
</event>
<event>
 5   0  0.4470354E-08  0.3100071E+04  0.7818609E-02  0.8215719E-01
       -1   -1    0    0    0  501  0.00000000000E+00  0.00000000000E+00  0.20230826900E+04  0.20230826900E+04  0.50400001928E-02 0. -1.
        1   -1    0    0  501    0  0.00000000000E+00  0.00000000000E+00 -0.11875982769E+04  0.11875982769E+04  0.50400001928E-02 0.  1.
    10030    2    1    2    0    0  0.00000000000E+00  0.00000000000E+00  0.83548441310E+03  0.32106809669E+04  0.31000706551E+04 0.  0.
        1    1    3    3  502    0  0.89288412174E+03 -0.88640680361E+03 -0.51990594034E+03  0.13613453872E+04  0.50400001928E-02 0.  1.
       -1    1    3    3    0  502 -0.89288412174E+03  0.88640680361E+03  0.13553903534E+04  0.18493355798E+04  0.50400001928E-02 0. -1.
</event>
<event>
 5   0  0.1318916E-07  0.3104363E+04  0.7818609E-02  0.8214541E-01
       -2   -1    0    0    0  501  0.00000000000E+00  0.00000000000E+00  0.13523614733E+04  0.13523614733E+04  0.25500000920E-02 0. -1.
        2   -1    0    0  501    0  0.00000000000E+00  0.00000000000E+00 -0.17815267421E+04  0.17815267421E+04  0.25500000920E-02 0.  1.
    10030    2    1    2    0    0  0.00000000000E+00  0.00000000000E+00 -0.42916526885E+03  0.31338882154E+04  0.31043634643E+04 0.  0.
        5    1    3    3  502    0 -0.96469206182E+03  0.42860369813E+03  0.93418296971E+03  0.14096282542E+04  0.46999998093E+01 0. -1.
       -5    1    3    3    0  502  0.96469206182E+03 -0.42860369813E+03 -0.13633482386E+04  0.17242599612E+04  0.46999998093E+01 0.  1.
</event>
<event>
 5   0  0.1398931E-07  0.3090838E+04  0.7818609E-02  0.8218257E-01
       -2   -1    0    0    0  501  0.00000000000E+00  0.00000000000E+00  0.18947660417E+04  0.18947660417E+04  0.25500000920E-02 0. -1.
        2   -1    0    0  501    0  0.00000000000E+00  0.00000000000E+00 -0.12604828489E+04  0.12604828489E+04  0.25500000920E-02 0.  1.
    10030    2    1    2    0    0  0.00000000000E+00  0.00000000000E+00  0.63428319284E+03  0.31552488907E+04  0.30908381377E+04 0.  0.
        3    1    3    3  502    0 -0.11232683352E+04  0.44312762683E+03 -0.66743986396E+03  0.13796991805E+04  0.10100000352E+00 0.  1.
       -3    1    3    3    0  502  0.11232683352E+04 -0.44312762683E+03  0.13017230568E+04  0.17755497102E+04  0.10100000352E+00 0. -1.
</event>
<event>
 5   0  0.1325713E-07  0.3099335E+04  0.7818609E-02  0.8215921E-01
       -2   -1    0    0    0  501  0.00000000000E+00  0.00000000000E+00  0.97918157985E+03  0.97918157985E+03  0.25500000920E-02 0. -1.
        2   -1    0    0  501    0  0.00000000000E+00  0.00000000000E+00 -0.24525264794E+04  0.24525264794E+04  0.25500000920E-02 0.  1.
    10030    2    1    2    0    0  0.00000000000E+00  0.00000000000E+00 -0.14733448995E+04  0.34317080592E+04  0.30993346077E+04 0.  0.
        4    1    3    3  502    0  0.44697939849E+03  0.10276445388E+04 -0.19217936854E+04  0.22246654721E+04  0.12699999809E+01 0.  1.
       -4    1    3    3    0  502 -0.44697939849E+03 -0.10276445388E+04  0.44844878585E+03  0.12070425871E+04  0.12699999809E+01 0. -1.
</event>
<event>
 5   0  0.1377237E-07  0.3101059E+04  0.7818609E-02  0.8215447E-01
       -2   -1    0    0    0  501  0.00000000000E+00  0.00000000000E+00  0.13586789833E+04  0.13586789833E+04  0.25500000920E-02 0. -1.
        2   -1    0    0  501    0  0.00000000000E+00  0.00000000000E+00 -0.17694700028E+04  0.17694700028E+04  0.25500000920E-02 0.  1.
    10030    2    1    2    0    0  0.00000000000E+00  0.00000000000E+00 -0.41079101959E+03  0.31281489861E+04  0.31010589832E+04 0.  0.
        2    1    3    3  502    0  0.11414643334E+04 -0.88408736919E+03  0.36486627319E+03  0.14891872609E+04  0.25500000920E-02 0. -1.
       -2    1    3    3    0  502 -0.11414643334E+04  0.88408736919E+03 -0.77565729279E+03  0.16389617252E+04  0.25500000920E-02 0.  1.
</event>
<event>
 5   0  0.1377237E-07  0.3100414E+04  0.7818609E-02  0.8215624E-01
        2   -1    0    0  501    0  0.00000000000E+00  0.00000000000E+00  0.19610600004E+04  0.19610600004E+04  0.25500000920E-02 0.  1.
       -2   -1    0    0    0  501  0.00000000000E+00  0.00000000000E+00 -0.12254298744E+04  0.12254298744E+04  0.25500000920E-02 0. -1.
    10030    2    1    2    0    0  0.00000000000E+00  0.00000000000E+00  0.73563012599E+03  0.31864898747E+04  0.31004138497E+04 0.  0.
        2    1    3    3  502    0 -0.56489924477E+03 -0.67970571865E+03  0.16767630250E+04  0.18954274617E+04  0.25500000920E-02 0.  1.
       -2    1    3    3    0  502  0.56489924477E+03  0.67970571865E+03 -0.94113289900E+03  0.12910624130E+04  0.25500000920E-02 0. -1.
</event>
<event>
 5   0  0.1377237E-07  0.3099439E+04  0.7818609E-02  0.8215892E-01
       -2   -1    0    0    0  501  0.00000000000E+00  0.00000000000E+00  0.12460873570E+04  0.12460873570E+04  0.25500000920E-02 0.  1.
        2   -1    0    0  501    0  0.00000000000E+00  0.00000000000E+00 -0.19273369803E+04  0.19273369803E+04  0.25500000920E-02 0. -1.
    10030    2    1    2    0    0  0.00000000000E+00  0.00000000000E+00 -0.68124962324E+03  0.31734243373E+04  0.30994388162E+04 0.  0.
        2    1    3    3  502    0  0.13130799167E+04  0.81434872623E+03 -0.21824109731E+03  0.15604396471E+04  0.25500000920E-02 0. -1.
       -2    1    3    3    0  502 -0.13130799167E+04 -0.81434872623E+03 -0.46300852593E+03  0.16129846902E+04  0.25500000920E-02 0.  1.
</event>
<event>
 5   0  0.1398931E-07  0.3100895E+04  0.7818609E-02  0.8215492E-01
        2   -1    0    0  501    0  0.00000000000E+00  0.00000000000E+00  0.14505542086E+04  0.14505542086E+04  0.25500000920E-02 0. -1.
       -2   -1    0    0    0  501  0.00000000000E+00  0.00000000000E+00 -0.16572202643E+04  0.16572202643E+04  0.25500000920E-02 0.  1.
    10030    2    1    2    0    0  0.00000000000E+00  0.00000000000E+00 -0.20666605571E+03  0.31077744728E+04  0.31008952442E+04 0.  0.
        3    1    3    3  502    0  0.60716589110E+03  0.10223509864E+04 -0.11005458702E+04  0.16202015867E+04  0.10100000352E+00 0.  1.
       -3    1    3    3    0  502 -0.60716589110E+03 -0.10223509864E+04  0.89387981453E+03  0.14875728862E+04  0.10100000352E+00 0. -1.
</event>
<event>
 5   0  0.1325713E-07  0.3087947E+04  0.7818609E-02  0.8219054E-01
       -2   -1    0    0    0  501  0.00000000000E+00  0.00000000000E+00  0.13927697586E+04  0.13927697586E+04  0.25500000920E-02 0. -1.
        2   -1    0    0  501    0  0.00000000000E+00  0.00000000000E+00 -0.17115925096E+04  0.17115925096E+04  0.25500000920E-02 0.  1.
    10030    2    1    2    0    0  0.00000000000E+00  0.00000000000E+00 -0.31882275110E+03  0.31043622682E+04  0.30879470762E+04 0.  0.
        4    1    3    3  502    0 -0.83510825906E+03  0.44527080488E+03  0.10669836868E+04  0.14262284862E+04  0.12699999809E+01 0. -1.
       -4    1    3    3    0  502  0.83510825906E+03 -0.44527080488E+03 -0.13858064379E+04  0.16781337820E+04  0.12699999809E+01 0.  1.
</event>
<event>
 5   0  0.1329777E-07  0.3098156E+04  0.7818609E-02  0.8216244E-01
       -2   -1    0    0    0  501  0.00000000000E+00  0.00000000000E+00  0.17121909156E+04  0.17121909156E+04  0.25500000920E-02 0.  1.
        2   -1    0    0  501    0  0.00000000000E+00  0.00000000000E+00 -0.14015045299E+04  0.14015045299E+04  0.25500000920E-02 0. -1.
    10030    2    1    2    0    0  0.00000000000E+00  0.00000000000E+00  0.31068638568E+03  0.31136954455E+04  0.30981564352E+04 0.  0.
        1    1    3    3  502    0 -0.11659766222E+04  0.80257702616E+03 -0.47710788725E+03  0.14937413774E+04  0.50400001928E-02 0. -1.
       -1    1    3    3    0  502  0.11659766222E+04 -0.80257702616E+03  0.78779427293E+03  0.16199540681E+04  0.50400001928E-02 0.  1.
</event>
<event>
 5   0  0.4470354E-08  0.3100421E+04  0.7818609E-02  0.8215622E-01
       -1   -1    0    0    0  501  0.00000000000E+00  0.00000000000E+00  0.14443541085E+04  0.14443541085E+04  0.50400001928E-02 0.  1.
        1   -1    0    0  501    0  0.00000000000E+00  0.00000000000E+00 -0.16638254956E+04  0.16638254956E+04  0.50400001928E-02 0. -1.
    10030    2    1    2    0    0  0.00000000000E+00  0.00000000000E+00 -0.21947138712E+03  0.31081796042E+04  0.31004213846E+04 0.  0.
        1    1    3    3  502    0  0.12179315910E+04 -0.52862965418E+03  0.69248324240E+03  0.14974443938E+04  0.50400001928E-02 0. -1.
       -1    1    3    3    0  502 -0.12179315910E+04  0.52862965418E+03 -0.91195462951E+03  0.16107352103E+04  0.50400001928E-02 0.  1.
</event>
<event>
 5   0  0.4436241E-08  0.3099420E+04  0.7818609E-02  0.8215897E-01
        1   -1    0    0  501    0  0.00000000000E+00  0.00000000000E+00  0.20309626484E+04  0.20309626484E+04  0.50400001928E-02 0.  1.
       -1   -1    0    0    0  501  0.00000000000E+00  0.00000000000E+00 -0.11824936496E+04  0.11824936496E+04  0.50400001928E-02 0. -1.
    10030    2    1    2    0    0  0.00000000000E+00  0.00000000000E+00  0.84846899883E+03  0.32134562980E+04  0.30994195807E+04 0.  0.
        3    1    3    3  502    0  0.13864014616E+03  0.13141544785E+04 -0.41510514486E+03  0.13851120442E+04  0.10100000352E+00 0. -1.
       -3    1    3    3    0  502 -0.13864014616E+03 -0.13141544785E+04  0.12635741437E+04  0.18283442538E+04  0.10100000352E+00 0.  1.
</event>
<event>
 5   0  0.4470354E-08  0.3099382E+04  0.7818609E-02  0.8215907E-01
       -1   -1    0    0    0  501  0.00000000000E+00  0.00000000000E+00  0.95609722889E+03  0.95609722890E+03  0.50400001928E-02 0.  1.
        1   -1    0    0  501    0  0.00000000000E+00  0.00000000000E+00 -0.25118182883E+04  0.25118182883E+04  0.50400001928E-02 0. -1.
    10030    2    1    2    0    0  0.00000000000E+00  0.00000000000E+00 -0.15557210594E+04  0.34679155172E+04  0.30993821997E+04 0.  0.
        1    1    3    3  502    0  0.42892402161E+03  0.87009115121E+03  0.57435324617E+03  0.11273491381E+04  0.50400001928E-02 0.  1.
       -1    1    3    3    0  502 -0.42892402161E+03 -0.87009115121E+03 -0.21300743056E+04  0.23405663791E+04  0.50400001928E-02 0. -1.
</event>
<event>
 5   0  0.1325713E-07  0.3099107E+04  0.7818609E-02  0.8215983E-01
       -2   -1    0    0    0  501  0.00000000000E+00  0.00000000000E+00  0.11467666583E+04  0.11467666583E+04  0.25500000920E-02 0.  1.
        2   -1    0    0  501    0  0.00000000000E+00  0.00000000000E+00 -0.20938140195E+04  0.20938140195E+04  0.25500000920E-02 0. -1.
    10030    2    1    2    0    0  0.00000000000E+00  0.00000000000E+00 -0.94704736120E+03  0.32405806777E+04  0.30991070366E+04 0.  0.
        4    1    3    3  502    0 -0.34628923940E+03 -0.63339115339E+03 -0.19072517651E+04  0.20392919112E+04  0.12699999809E+01 0. -1.
       -4    1    3    3    0  502  0.34628923940E+03  0.63339115339E+03  0.96020440391E+03  0.12012887666E+04  0.12699999809E+01 0.  1.
</event>
<event>
 5   0  0.1377237E-07  0.3099135E+04  0.7818609E-02  0.8215975E-01
        2   -1    0    0  501    0  0.00000000000E+00  0.00000000000E+00  0.30333268224E+04  0.30333268224E+04  0.25500000920E-02 0.  1.
       -2   -1    0    0    0  501  0.00000000000E+00  0.00000000000E+00 -0.79159283772E+03  0.79159283772E+03  0.25500000920E-02 0. -1.
    10030    2    1    2    0    0  0.00000000000E+00  0.00000000000E+00  0.22417339846E+04  0.38249196601E+04  0.30991352259E+04 0.  0.
        2    1    3    3  502    0 -0.58381132256E+03 -0.10279796230E+04  0.23572648031E+04  0.26370959629E+04  0.25500000920E-02 0.  1.
       -2    1    3    3    0  502  0.58381132256E+03  0.10279796230E+04 -0.11553081844E+03  0.11878236972E+04  0.25500000920E-02 0. -1.
</event>
<event>
 5   0  0.1377237E-07  0.3100424E+04  0.7818609E-02  0.8215621E-01
        2   -1    0    0  501    0  0.00000000000E+00  0.00000000000E+00  0.21332294032E+04  0.21332294032E+04  0.25500000920E-02 0.  1.
       -2   -1    0    0    0  501  0.00000000000E+00  0.00000000000E+00 -0.11265351060E+04  0.11265351060E+04  0.25500000920E-02 0. -1.
    10030    2    1    2    0    0  0.00000000000E+00  0.00000000000E+00  0.10066942972E+04  0.32597645093E+04  0.31004243658E+04 0.  0.
        2    1    3    3  502    0  0.14874897652E+04  0.12672963302E+03  0.94251189556E+03  0.17655069739E+04  0.25500000920E-02 0.  1.
       -2    1    3    3    0  502 -0.14874897652E+04 -0.12672963302E+03  0.64182401654E+02  0.14942575354E+04  0.25500000920E-02 0. -1.
</event>
<event>
 5   0  0.1329777E-07  0.3097949E+04  0.7818609E-02  0.8216301E-01
        2   -1    0    0  501    0  0.00000000000E+00  0.00000000000E+00  0.28305817624E+04  0.28305817624E+04  0.25500000920E-02 0. -1.
       -2   -1    0    0    0  501  0.00000000000E+00  0.00000000000E+00 -0.84764251037E+03  0.84764251038E+03  0.25500000920E-02 0.  1.
    10030    2    1    2    0    0  0.00000000000E+00  0.00000000000E+00  0.19829392520E+04  0.36782242728E+04  0.30979486315E+04 0.  0.
        1    1    3    3  502    0 -0.37570674989E+03 -0.14949293259E+04  0.11729073984E+04  0.19369256611E+04  0.50400001928E-02 0. -1.
       -1    1    3    3    0  502  0.37570674989E+03  0.14949293259E+04  0.81003185361E+03  0.17412986117E+04  0.50400001928E-02 0.  1.
</event>
<event>
 5   0  0.1318916E-07  0.3100380E+04  0.7818609E-02  0.8215634E-01
        2   -1    0    0  501    0  0.00000000000E+00  0.00000000000E+00  0.11223040831E+04  0.11223040831E+04  0.25500000920E-02 0.  1.
       -2   -1    0    0    0  501  0.00000000000E+00  0.00000000000E+00 -0.21412103697E+04  0.21412103697E+04  0.25500000920E-02 0. -1.
    10030    2    1    2    0    0  0.00000000000E+00  0.00000000000E+00 -0.10189062866E+04  0.32635144528E+04  0.31003800674E+04 0.  0.
        5    1    3    3  502    0 -0.40531787309E+02 -0.33432440673E+03  0.10833250044E+04  0.11344737943E+04  0.46999998093E+01 0.  1.
       -5    1    3    3    0  502  0.40531787309E+02  0.33432440673E+03 -0.21022312910E+04  0.21290406585E+04  0.46999998093E+01 0. -1.
</event>
<event>
 5   0  0.4517409E-08  0.3098945E+04  0.7818609E-02  0.8216028E-01
        1   -1    0    0  501    0  0.00000000000E+00  0.00000000000E+00  0.20848741375E+04  0.20848741375E+04  0.50400001928E-02 0.  1.
       -1   -1    0    0    0  501  0.00000000000E+00  0.00000000000E+00 -0.11515635430E+04  0.11515635431E+04  0.50400001928E-02 0. -1.
    10030    2    1    2    0    0  0.00000000000E+00  0.00000000000E+00  0.93331059446E+03  0.32364376806E+04  0.30989450131E+04 0.  0.
        2    1    3    3  502    0  0.32348895483E+03 -0.14736226961E+04  0.97923885642E+02  0.15118855915E+04  0.25500000920E-02 0. -1.
       -2    1    3    3    0  502 -0.32348895483E+03  0.14736226961E+04  0.83538670882E+03  0.17245520890E+04  0.25500000920E-02 0.  1.
</event>
<event>
 5   0  0.4436241E-08  0.3098966E+04  0.7818609E-02  0.8216022E-01
        1   -1    0    0  501    0  0.00000000000E+00  0.00000000000E+00  0.26255138079E+04  0.26255138079E+04  0.50400001928E-02 0.  1.
       -1   -1    0    0    0  501  0.00000000000E+00  0.00000000000E+00 -0.91444840582E+03  0.91444840583E+03  0.50400001928E-02 0. -1.
    10030    2    1    2    0    0  0.00000000000E+00  0.00000000000E+00  0.17110654021E+04  0.35399622138E+04  0.30989655798E+04 0.  0.
        3    1    3    3  502    0  0.12704227646E+04 -0.88524156184E+03  0.92085696017E+03  0.18015560427E+04  0.10100000352E+00 0. -1.
       -3    1    3    3    0  502 -0.12704227646E+04  0.88524156184E+03  0.79020844196E+03  0.17384061711E+04  0.10100000352E+00 0.  1.
</event>
<event>
 5   0  0.4470354E-08  0.3097673E+04  0.7818609E-02  0.8216377E-01
        1   -1    0    0  501    0  0.00000000000E+00  0.00000000000E+00  0.28188904916E+04  0.28188904916E+04  0.50400001928E-02 0. -1.
       -1   -1    0    0    0  501  0.00000000000E+00  0.00000000000E+00 -0.85100663258E+03  0.85100663259E+03  0.50400001928E-02 0.  1.
    10030    2    1    2    0    0  0.00000000000E+00  0.00000000000E+00  0.19678838590E+04  0.36698971242E+04  0.30976730007E+04 0.  0.
        1    1    3    3  502    0  0.25790349456E+03  0.12119620557E+03 -0.81968270812E+03  0.86780324658E+03  0.50400001928E-02 0.  1.
       -1    1    3    3    0  502 -0.25790349456E+03 -0.12119620557E+03  0.27875665671E+04  0.28020938776E+04  0.50400001928E-02 0. -1.
</event>
<event>
 5   0  0.4517409E-08  0.3100052E+04  0.7818609E-02  0.8215724E-01
       -1   -1    0    0    0  501  0.00000000000E+00  0.00000000000E+00  0.13249251423E+04  0.13249251423E+04  0.50400001928E-02 0.  1.
        1   -1    0    0  501    0  0.00000000000E+00  0.00000000000E+00 -0.18133703948E+04  0.18133703948E+04  0.50400001928E-02 0. -1.
    10030    2    1    2    0    0  0.00000000000E+00  0.00000000000E+00 -0.48844525256E+03  0.31382955371E+04  0.31000516308E+04 0.  0.
        2    1    3    3  502    0  0.95370228613E+03  0.40870082944E+03  0.92150195747E+03  0.13877140470E+04  0.25500000920E-02 0.  1.
       -2    1    3    3    0  502 -0.95370228613E+03 -0.40870082944E+03 -0.14099472100E+04  0.17505814901E+04  0.25500000920E-02 0. -1.
</event>
<event>
 5   0  0.1398931E-07  0.3100213E+04  0.7818609E-02  0.8215679E-01
       -2   -1    0    0    0  501  0.00000000000E+00  0.00000000000E+00  0.11057570499E+04  0.11057570499E+04  0.25500000920E-02 0.  1.
        2   -1    0    0  501    0  0.00000000000E+00  0.00000000000E+00 -0.21730179987E+04  0.21730179987E+04  0.25500000920E-02 0. -1.
    10030    2    1    2    0    0  0.00000000000E+00  0.00000000000E+00 -0.10672609488E+04  0.32787750486E+04  0.31002128776E+04 0.  0.
        3    1    3    3  502    0 -0.65181138217E+03  0.14057726050E+04 -0.57819116297E+03  0.16538922958E+04  0.10100000352E+00 0. -1.
       -3    1    3    3    0  502  0.65181138217E+03 -0.14057726050E+04 -0.48906978579E+03  0.16248827528E+04  0.10100000352E+00 0.  1.
</event>
<event>
 5   0  0.4517409E-08  0.3099379E+04  0.7818609E-02  0.8215908E-01
        1   -1    0    0  501    0  0.00000000000E+00  0.00000000000E+00  0.21395283525E+04  0.21395283525E+04  0.50400001928E-02 0.  1.
       -1   -1    0    0    0  501  0.00000000000E+00  0.00000000000E+00 -0.11224614405E+04  0.11224614405E+04  0.50400001928E-02 0. -1.
    10030    2    1    2    0    0  0.00000000000E+00  0.00000000000E+00  0.10170669119E+04  0.32619897930E+04  0.30993793421E+04 0.  0.
        2    1    3    3  502    0 -0.89200854115E+02 -0.64294087538E+03 -0.97249466108E+03  0.11692200937E+04  0.25500000920E-02 0. -1.
       -2    1    3    3    0  502  0.89200854115E+02  0.64294087538E+03  0.19895615730E+04  0.20927696993E+04  0.25500000920E-02 0.  1.
</event>
<event>
 5   0  0.1318916E-07  0.3099675E+04  0.7818609E-02  0.8215827E-01
        2   -1    0    0  501    0  0.00000000000E+00  0.00000000000E+00  0.18267585935E+04  0.18267585935E+04  0.25500000920E-02 0.  1.
       -2   -1    0    0    0  501  0.00000000000E+00  0.00000000000E+00 -0.13148949610E+04  0.13148949610E+04  0.25500000920E-02 0. -1.
    10030    2    1    2    0    0  0.00000000000E+00  0.00000000000E+00  0.51186363253E+03  0.31416535545E+04  0.30996746084E+04 0.  0.
        5    1    3    3  502    0  0.56065954827E+03 -0.50641286389E+03 -0.11156059123E+04  0.13473647462E+04  0.46999998093E+01 0. -1.
       -5    1    3    3    0  502 -0.56065954827E+03  0.50641286389E+03  0.16274695449E+04  0.17942888082E+04  0.46999998093E+01 0.  1.
</event>
<event>
 5   0  0.1329777E-07  0.3099148E+04  0.7818609E-02  0.8215972E-01
       -2   -1    0    0    0  501  0.00000000000E+00  0.00000000000E+00  0.11100253312E+04  0.11100253312E+04  0.25500000920E-02 0. -1.
        2   -1    0    0  501    0  0.00000000000E+00  0.00000000000E+00 -0.21631752144E+04  0.21631752144E+04  0.25500000920E-02 0.  1.
    10030    2    1    2    0    0  0.00000000000E+00  0.00000000000E+00 -0.10531498832E+04  0.32732005456E+04  0.30991478079E+04 0.  0.
        1    1    3    3  502    0  0.35782730636E+03 -0.14800100295E+04 -0.22283124436E+03  0.15388709602E+04  0.50400001928E-02 0. -1.
       -1    1    3    3    0  502 -0.35782730636E+03  0.14800100295E+04 -0.83031863881E+03  0.17343295854E+04  0.50400001928E-02 0.  1.
</event>
<event>
 5   0  0.4838602E-08  0.3092356E+04  0.7818609E-02  0.8217839E-01
        1   -1    0    0  501    0  0.00000000000E+00  0.00000000000E+00  0.20207230730E+04  0.20207230730E+04  0.50400001928E-02 0.  1.
       -1   -1    0    0    0  501  0.00000000000E+00  0.00000000000E+00 -0.11830747934E+04  0.11830747934E+04  0.50400001928E-02 0. -1.
    10030    2    1    2    0    0  0.00000000000E+00  0.00000000000E+00  0.83764827962E+03  0.32037978664E+04  0.30923560805E+04 0.  0.
        5    1    3    3  502    0  0.10413488148E+04 -0.68861015646E+03  0.13638662123E+04  0.18489847043E+04  0.46999998093E+01 0.  1.
       -5    1    3    3    0  502 -0.10413488148E+04  0.68861015646E+03 -0.52621793263E+03  0.13548131621E+04  0.46999998093E+01 0. -1.
</event>
<event>
 5   0  0.4436241E-08  0.3097432E+04  0.7818609E-02  0.8216443E-01
       -1   -1    0    0    0  501  0.00000000000E+00  0.00000000000E+00  0.26180282342E+04  0.26180282342E+04  0.50400001928E-02 0.  1.
        1   -1    0    0  501    0  0.00000000000E+00  0.00000000000E+00 -0.91615584776E+03  0.91615584778E+03  0.50400001928E-02 0. -1.
    10030    2    1    2    0    0  0.00000000000E+00  0.00000000000E+00  0.17018723864E+04  0.35341840820E+04  0.30974324053E+04 0.  0.
        3    1    3    3  502    0  0.11888359934E+04  0.15328921954E+02 -0.28145299848E+03  0.12217944981E+04  0.10100000352E+00 0. -1.
       -3    1    3    3    0  502 -0.11888359934E+04 -0.15328921954E+02  0.19833253849E+04  0.23123895839E+04  0.10100000352E+00 0.  1.
</event>
<event>
 5   0  0.4470354E-08  0.3099626E+04  0.7818609E-02  0.8215841E-01
        1   -1    0    0  501    0  0.00000000000E+00  0.00000000000E+00  0.20428398993E+04  0.20428398993E+04  0.50400001928E-02 0. -1.
       -1   -1    0    0    0  501  0.00000000000E+00  0.00000000000E+00 -0.11757751168E+04  0.11757751169E+04  0.50400001928E-02 0.  1.
    10030    2    1    2    0    0  0.00000000000E+00  0.00000000000E+00  0.86706478247E+03  0.32186150162E+04  0.30996259912E+04 0.  0.
        1    1    3    3  502    0 -0.13332376542E+04 -0.44227521978E+03  0.11134905979E+04  0.17924818895E+04  0.50400001928E-02 0. -1.
       -1    1    3    3    0  502  0.13332376542E+04  0.44227521978E+03 -0.24642581545E+03  0.14261331267E+04  0.50400001928E-02 0.  1.
</event>
<event>
 5   0  0.4838602E-08  0.3098696E+04  0.7818609E-02  0.8216096E-01
       -1   -1    0    0    0  501  0.00000000000E+00  0.00000000000E+00  0.10029060463E+04  0.10029060463E+04  0.50400001928E-02 0. -1.
        1   -1    0    0  501    0  0.00000000000E+00  0.00000000000E+00 -0.23935231666E+04  0.23935231666E+04  0.50400001928E-02 0.  1.
    10030    2    1    2    0    0  0.00000000000E+00  0.00000000000E+00 -0.13906171203E+04  0.33964292129E+04  0.30986957616E+04 0.  0.
        5    1    3    3  502    0  0.14374816593E+04  0.96664180701E+02 -0.13199408274E+04  0.19539609419E+04  0.46999998093E+01 0.  1.
       -5    1    3    3    0  502 -0.14374816593E+04 -0.96664180701E+02 -0.70676292925E+02  0.14424682711E+04  0.46999998093E+01 0. -1.
</event>
<event>
 5   0  0.1377237E-07  0.3100007E+04  0.7818609E-02  0.8215736E-01
       -2   -1    0    0    0  501  0.00000000000E+00  0.00000000000E+00  0.13311610610E+04  0.13311610610E+04  0.25500000920E-02 0.  1.
        2   -1    0    0  501    0  0.00000000000E+00  0.00000000000E+00 -0.18048238884E+04  0.18048238884E+04  0.25500000920E-02 0. -1.
    10030    2    1    2    0    0  0.00000000000E+00  0.00000000000E+00 -0.47366282742E+03  0.31359849494E+04  0.31000072788E+04 0.  0.
        2    1    3    3  502    0 -0.12286428984E+04 -0.56593654969E+03 -0.10023594413E+04  0.16836187216E+04  0.25500000920E-02 0. -1.
       -2    1    3    3    0  502  0.12286428984E+04  0.56593654969E+03  0.52869661387E+03  0.14523662278E+04  0.25500000920E-02 0.  1.
</event>
<event>
 5   0  0.4517409E-08  0.3100165E+04  0.7818609E-02  0.8215693E-01
        1   -1    0    0  501    0  0.00000000000E+00  0.00000000000E+00  0.19287526370E+04  0.19287526370E+04  0.50400001928E-02 0. -1.
       -1   -1    0    0    0  501  0.00000000000E+00  0.00000000000E+00 -0.12457561067E+04  0.12457561068E+04  0.50400001928E-02 0.  1.
    10030    2    1    2    0    0  0.00000000000E+00  0.00000000000E+00  0.68299653026E+03  0.31745087438E+04  0.31001647543E+04 0.  0.
        2    1    3    3  502    0  0.15661301982E+03  0.89757938470E+03  0.16255957258E+04  0.18635283345E+04  0.25500000920E-02 0. -1.
       -2    1    3    3    0  502 -0.15661301982E+03 -0.89757938470E+03 -0.94259919558E+03  0.13109804092E+04  0.25500000920E-02 0.  1.
</event>
<event>
 5   0  0.1318916E-07  0.3100362E+04  0.7818609E-02  0.8215638E-01
        2   -1    0    0  501    0  0.00000000000E+00  0.00000000000E+00  0.17468896164E+04  0.17468896164E+04  0.25500000920E-02 0.  1.
       -2   -1    0    0    0  501  0.00000000000E+00  0.00000000000E+00 -0.13756230357E+04  0.13756230357E+04  0.25500000920E-02 0. -1.
    10030    2    1    2    0    0  0.00000000000E+00  0.00000000000E+00  0.37126658066E+03  0.31225126521E+04  0.31003622996E+04 0.  0.
        5    1    3    3  502    0 -0.44224591845E+03  0.12139496118E+04  0.10483654659E+04  0.16638351337E+04  0.46999998093E+01 0.  1.
       -5    1    3    3    0  502  0.44224591845E+03 -0.12139496118E+04 -0.67709888520E+03  0.14586775184E+04  0.46999998093E+01 0. -1.
</event>
<event>
 5   0  0.4470354E-08  0.3099552E+04  0.7818609E-02  0.8215861E-01
        1   -1    0    0  501    0  0.00000000000E+00  0.00000000000E+00  0.15223961266E+04  0.15223961267E+04  0.50400001928E-02 0.  1.
       -1   -1    0    0    0  501  0.00000000000E+00  0.00000000000E+00 -0.15776478997E+04  0.15776478997E+04  0.50400001928E-02 0. -1.
    10030    2    1    2    0    0  0.00000000000E+00  0.00000000000E+00 -0.55251773017E+02  0.31000440263E+04  0.30995516138E+04 0.  0.
        1    1    3    3  502    0 -0.14596910384E+04 -0.48904166020E+03 -0.20638698268E+03  0.15532080542E+04  0.50400001928E-02 0. -1.
       -1    1    3    3    0  502  0.14596910384E+04  0.48904166020E+03  0.15113520967E+03  0.15468359721E+04  0.50400001928E-02 0.  1.
</event>
<event>
 5   0  0.1318916E-07  0.3100424E+04  0.7818609E-02  0.8215622E-01
       -2   -1    0    0    0  501  0.00000000000E+00  0.00000000000E+00  0.13254370523E+04  0.13254370523E+04  0.25500000920E-02 0. -1.
        2   -1    0    0  501    0  0.00000000000E+00  0.00000000000E+00 -0.18131051393E+04  0.18131051393E+04  0.25500000920E-02 0.  1.
    10030    2    1    2    0    0  0.00000000000E+00  0.00000000000E+00 -0.48766808697E+03  0.31385421916E+04  0.31004236687E+04 0.  0.
        5    1    3    3  502    0  0.91776367352E+03 -0.10963144288E+04  0.36264715948E+03  0.14750357757E+04  0.46999998093E+01 0. -1.
       -5    1    3    3    0  502 -0.91776367352E+03  0.10963144288E+04 -0.85031524646E+03  0.16635064159E+04  0.46999998093E+01 0.  1.
</event>
<event>
 5   0  0.1318916E-07  0.3099068E+04  0.7818609E-02  0.8215994E-01
        2   -1    0    0  501    0  0.00000000000E+00  0.00000000000E+00  0.19586929084E+04  0.19586929084E+04  0.25500000920E-02 0. -1.
       -2   -1    0    0    0  501  0.00000000000E+00  0.00000000000E+00 -0.12258458472E+04  0.12258458472E+04  0.25500000920E-02 0.  1.
    10030    2    1    2    0    0  0.00000000000E+00  0.00000000000E+00  0.73284706126E+03  0.31845387556E+04  0.30990679681E+04 0.  0.
        5    1    3    3  502    0  0.87783538073E+03 -0.99256456686E+03 -0.45900756324E+03  0.14023157306E+04  0.46999998093E+01 0. -1.
       -5    1    3    3    0  502 -0.87783538073E+03  0.99256456686E+03  0.11918546245E+04  0.17822230250E+04  0.46999998093E+01 0.  1.
</event>
<event>
 5   0  0.1318916E-07  0.3099663E+04  0.7818609E-02  0.8215830E-01
        2   -1    0    0  501    0  0.00000000000E+00  0.00000000000E+00  0.21417106886E+04  0.21417106886E+04  0.25500000920E-02 0.  1.
       -2   -1    0    0    0  501  0.00000000000E+00  0.00000000000E+00 -0.11215227419E+04  0.11215227419E+04  0.25500000920E-02 0. -1.
    10030    2    1    2    0    0  0.00000000000E+00  0.00000000000E+00  0.10201879467E+04  0.32632334305E+04  0.30996627196E+04 0.  0.
        5    1    3    3  502    0 -0.11182862180E+03  0.30198885216E+03  0.21060927281E+04  0.21305754098E+04  0.46999998093E+01 0.  1.
       -5    1    3    3    0  502  0.11182862180E+03 -0.30198885216E+03 -0.10859047814E+04  0.11326580207E+04  0.46999998093E+01 0. -1.
</event>
<event>
 5   0  0.1398931E-07  0.3100001E+04  0.7818609E-02  0.8215738E-01
       -2   -1    0    0    0  501  0.00000000000E+00  0.00000000000E+00  0.15372921152E+04  0.15372921152E+04  0.25500000920E-02 0. -1.
        2   -1    0    0  501    0  0.00000000000E+00  0.00000000000E+00 -0.15628140703E+04  0.15628140703E+04  0.25500000920E-02 0.  1.
    10030    2    1    2    0    0  0.00000000000E+00  0.00000000000E+00 -0.25521955083E+02  0.31001061854E+04  0.31000011275E+04 0.  0.
        3    1    3    3  502    0  0.53375294841E+03  0.61107409520E+03 -0.13334866115E+04  0.15609261075E+04  0.10100000352E+00 0.  1.
       -3    1    3    3    0  502 -0.53375294841E+03 -0.61107409520E+03  0.13079646564E+04  0.15391800780E+04  0.10100000352E+00 0. -1.
</event>
<event>
 5   0  0.4470354E-08  0.3099683E+04  0.7818609E-02  0.8215825E-01
       -1   -1    0    0    0  501  0.00000000000E+00  0.00000000000E+00  0.12602967303E+04  0.12602967303E+04  0.50400001928E-02 0. -1.
        1   -1    0    0  501    0  0.00000000000E+00  0.00000000000E+00 -0.19059076494E+04  0.19059076494E+04  0.50400001928E-02 0.  1.
    10030    2    1    2    0    0  0.00000000000E+00  0.00000000000E+00 -0.64561091914E+03  0.31662043797E+04  0.30996833250E+04 0.  0.
        1    1    3    3  502    0  0.44814918000E+03 -0.32610094315E+03  0.11556082327E+04  0.12816434372E+04  0.50400001928E-02 0. -1.
       -1    1    3    3    0  502 -0.44814918000E+03  0.32610094315E+03 -0.18012191519E+04  0.18845609424E+04  0.50400001928E-02 0.  1.
</event>
<event>
 5   0  0.4450600E-08  0.3097702E+04  0.7818609E-02  0.8216369E-01
        1   -1    0    0  501    0  0.00000000000E+00  0.00000000000E+00  0.22695880175E+04  0.22695880175E+04  0.50400001928E-02 0. -1.
       -1   -1    0    0    0  501  0.00000000000E+00  0.00000000000E+00 -0.10569931555E+04  0.10569931555E+04  0.50400001928E-02 0.  1.
    10030    2    1    2    0    0  0.00000000000E+00  0.00000000000E+00  0.12125948620E+04  0.33265811731E+04  0.30977017290E+04 0.  0.
        4    1    3    3  502    0  0.36580308335E+03 -0.92751747621E+03 -0.66653569146E+03  0.11993214771E+04  0.12699999809E+01 0.  1.
       -4    1    3    3    0  502 -0.36580308335E+03  0.92751747621E+03  0.18791305534E+04  0.21272596960E+04  0.12699999809E+01 0. -1.
</event>
<event>
 5   0  0.4838602E-08  0.3100132E+04  0.7818609E-02  0.8215702E-01
       -1   -1    0    0    0  501  0.00000000000E+00  0.00000000000E+00  0.15068536500E+04  0.15068536500E+04  0.50400001928E-02 0. -1.
        1   -1    0    0  501    0  0.00000000000E+00  0.00000000000E+00 -0.15945178861E+04  0.15945178861E+04  0.50400001928E-02 0.  1.
    10030    2    1    2    0    0  0.00000000000E+00  0.00000000000E+00 -0.87664236053E+02  0.31013715361E+04  0.31001323176E+04 0.  0.
        5    1    3    3  502    0  0.39913848510E+03 -0.78706390502E+03  0.12310013584E+04  0.15146509681E+04  0.46999998093E+01 0. -1.
       -5    1    3    3    0  502 -0.39913848510E+03  0.78706390502E+03 -0.13186655945E+04  0.15867205680E+04  0.46999998093E+01 0.  1.
</event>
<event>
 5   0  0.1377237E-07  0.3099977E+04  0.7818609E-02  0.8215744E-01
        2   -1    0    0  501    0  0.00000000000E+00  0.00000000000E+00  0.25900920516E+04  0.25900920516E+04  0.25500000920E-02 0.  1.
       -2   -1    0    0    0  501  0.00000000000E+00  0.00000000000E+00 -0.92755966066E+03  0.92755966066E+03  0.25500000920E-02 0. -1.
    10030    2    1    2    0    0  0.00000000000E+00  0.00000000000E+00  0.16625323909E+04  0.35176517122E+04  0.30999773576E+04 0.  0.
        2    1    3    3  502    0 -0.13966387509E+04  0.40351885801E+02  0.15926696168E+04  0.21186846352E+04  0.25500000920E-02 0.  1.
       -2    1    3    3    0  502  0.13966387509E+04 -0.40351885801E+02  0.69862774126E+02  0.13989670770E+04  0.25500000920E-02 0. -1.
</event>
<event>
 5   0  0.4436241E-08  0.3099676E+04  0.7818609E-02  0.8215827E-01
        1   -1    0    0  501    0  0.00000000000E+00  0.00000000000E+00  0.17138849562E+04  0.17138849562E+04  0.50400001928E-02 0. -1.
       -1   -1    0    0    0  501  0.00000000000E+00  0.00000000000E+00 -0.14014927212E+04  0.14014927212E+04  0.50400001928E-02 0.  1.
    10030    2    1    2    0    0  0.00000000000E+00  0.00000000000E+00  0.31239223502E+03  0.31153776774E+04  0.30996756547E+04 0.  0.
        3    1    3    3  502    0  0.86240107390E+03  0.12378320511E+04 -0.20061421231E+03  0.15219099419E+04  0.10100000352E+00 0.  1.
       -3    1    3    3    0  502 -0.86240107390E+03 -0.12378320511E+04  0.51300644734E+03  0.15934677355E+04  0.10100000352E+00 0. -1.
</event>
<event>
 5   0  0.4450600E-08  0.3095790E+04  0.7818609E-02  0.8216894E-01
       -1   -1    0    0    0  501  0.00000000000E+00  0.00000000000E+00  0.14099721355E+04  0.14099721355E+04  0.50400001928E-02 0. -1.
        1   -1    0    0  501    0  0.00000000000E+00  0.00000000000E+00 -0.16993093554E+04  0.16993093554E+04  0.50400001928E-02 0.  1.
    10030    2    1    2    0    0  0.00000000000E+00  0.00000000000E+00 -0.28933721996E+03  0.31092814909E+04  0.30957899417E+04 0.  0.
        4    1    3    3  502    0  0.10970946090E+04  0.10836380747E+04 -0.95864880440E+01  0.15420705469E+04  0.12699999809E+01 0. -1.
       -4    1    3    3    0  502 -0.10970946090E+04 -0.10836380747E+04 -0.27975073191E+03  0.15672109440E+04  0.12699999809E+01 0.  1.
</event>
<event>
 5   0  0.1325713E-07  0.3099778E+04  0.7818609E-02  0.8215799E-01
        2   -1    0    0  501    0  0.00000000000E+00  0.00000000000E+00  0.22448077874E+04  0.22448077874E+04  0.25500000920E-02 0.  1.
       -2   -1    0    0    0  501  0.00000000000E+00  0.00000000000E+00 -0.10700945181E+04  0.10700945181E+04  0.25500000920E-02 0. -1.
    10030    2    1    2    0    0  0.00000000000E+00  0.00000000000E+00  0.11747132693E+04  0.33149023055E+04  0.30997783840E+04 0.  0.
        4    1    3    3  502    0  0.26659666288E+03 -0.80735026300E+03  0.19731546083E+04  0.21485411211E+04  0.12699999809E+01 0.  1.
       -4    1    3    3    0  502 -0.26659666288E+03  0.80735026300E+03 -0.79844133899E+03  0.11663611844E+04  0.12699999809E+01 0. -1.
</event>
<event>
 5   0  0.4450600E-08  0.3098168E+04  0.7818609E-02  0.8216241E-01
        1   -1    0    0  501    0  0.00000000000E+00  0.00000000000E+00  0.25431954342E+04  0.25431954342E+04  0.50400001928E-02 0. -1.
       -1   -1    0    0    0  501  0.00000000000E+00  0.00000000000E+00 -0.94356139750E+03  0.94356139751E+03  0.50400001928E-02 0.  1.
    10030    2    1    2    0    0  0.00000000000E+00  0.00000000000E+00  0.15996340367E+04  0.34867568317E+04  0.30981678702E+04 0.  0.
        4    1    3    3  502    0 -0.10322324422E+04 -0.19203852843E+01  0.20997451965E+04  0.23397519112E+04  0.12699999809E+01 0. -1.
       -4    1    3    3    0  502  0.10322324422E+04  0.19203852843E+01 -0.50011115985E+03  0.11470049205E+04  0.12699999809E+01 0.  1.
</event>
<event>
 5   0  0.4450600E-08  0.3100682E+04  0.7818609E-02  0.8215551E-01
       -1   -1    0    0    0  501  0.00000000000E+00  0.00000000000E+00  0.30148964176E+04  0.30148964176E+04  0.50400001928E-02 0. -1.
        1   -1    0    0  501    0  0.00000000000E+00  0.00000000000E+00 -0.79722707224E+03  0.79722707226E+03  0.50400001928E-02 0.  1.
    10030    2    1    2    0    0  0.00000000000E+00  0.00000000000E+00  0.22176693454E+04  0.38121234899E+04  0.31006818890E+04 0.  0.
        4    1    3    3  502    0  0.11721891197E+04  0.10145759785E+04  0.11245640361E+04  0.19152121639E+04  0.12699999809E+01 0. -1.
       -4    1    3    3    0  502 -0.11721891197E+04 -0.10145759785E+04  0.10931053093E+04  0.18969113260E+04  0.12699999809E+01 0.  1.
</event>
<event>
 5   0  0.4470354E-08  0.3100171E+04  0.7818609E-02  0.8215691E-01
       -1   -1    0    0    0  501  0.00000000000E+00  0.00000000000E+00  0.92347463817E+03  0.92347463818E+03  0.50400001928E-02 0.  1.
        1   -1    0    0  501    0  0.00000000000E+00  0.00000000000E+00 -0.26018745684E+04  0.26018745684E+04  0.50400001928E-02 0. -1.
    10030    2    1    2    0    0  0.00000000000E+00  0.00000000000E+00 -0.16783999302E+04  0.35253492066E+04  0.31001710763E+04 0.  0.
        1    1    3    3  502    0  0.90214583547E+03  0.11259583576E+04 -0.14835878254E+04  0.20694642222E+04  0.50400001928E-02 0.  1.
       -1    1    3    3    0  502 -0.90214583547E+03 -0.11259583576E+04 -0.19481210486E+03  0.14558849844E+04  0.50400001928E-02 0. -1.
</event>
<event>
 5   0  0.1329777E-07  0.3100463E+04  0.7818609E-02  0.8215611E-01
        2   -1    0    0  501    0  0.00000000000E+00  0.00000000000E+00  0.20459462604E+04  0.20459462604E+04  0.25500000920E-02 0.  1.
       -2   -1    0    0    0  501  0.00000000000E+00  0.00000000000E+00 -0.11746239415E+04  0.11746239415E+04  0.25500000920E-02 0. -1.
    10030    2    1    2    0    0  0.00000000000E+00  0.00000000000E+00  0.87132231889E+03  0.32205702018E+04  0.31004628431E+04 0.  0.
        1    1    3    3  502    0  0.64634831892E+03 -0.12103943631E+04  0.11849918951E+04  0.18130158453E+04  0.50400001928E-02 0.  1.
       -1    1    3    3    0  502 -0.64634831892E+03  0.12103943631E+04 -0.31366957625E+03  0.14075543566E+04  0.50400001928E-02 0. -1.
</event>
<event>
 5   0  0.4436241E-08  0.3099393E+04  0.7818609E-02  0.8215904E-01
       -1   -1    0    0    0  501  0.00000000000E+00  0.00000000000E+00  0.97620970388E+03  0.97620970389E+03  0.50400001928E-02 0. -1.
        1   -1    0    0  501    0  0.00000000000E+00  0.00000000000E+00 -0.24600861544E+04  0.24600861544E+04  0.50400001928E-02 0.  1.
    10030    2    1    2    0    0  0.00000000000E+00  0.00000000000E+00 -0.14838764505E+04  0.34362958583E+04  0.30993934738E+04 0.  0.
        3    1    3    3  502    0 -0.12250806081E+04  0.28772850155E+03 -0.17446523997E+04  0.21511443914E+04  0.10100000352E+00 0.  1.
       -3    1    3    3    0  502  0.12250806081E+04 -0.28772850155E+03  0.26077594918E+03  0.12851514668E+04  0.10100000352E+00 0. -1.
</event>
<event>
 5   0  0.1377237E-07  0.3101502E+04  0.7818609E-02  0.8215326E-01
       -2   -1    0    0    0  501  0.00000000000E+00  0.00000000000E+00  0.22277957868E+04  0.22277957868E+04  0.25500000920E-02 0. -1.
        2   -1    0    0  501    0  0.00000000000E+00  0.00000000000E+00 -0.10794652843E+04  0.10794652843E+04  0.25500000920E-02 0.  1.
    10030    2    1    2    0    0  0.00000000000E+00  0.00000000000E+00  0.11483305025E+04  0.33072610712E+04  0.31015017088E+04 0.  0.
        2    1    3    3  502    0 -0.68062072714E+03  0.26522423084E+03  0.20328490886E+04  0.21601073779E+04  0.25500000920E-02 0. -1.
       -2    1    3    3    0  502  0.68062072714E+03 -0.26522423084E+03 -0.88451858612E+03  0.11471536933E+04  0.25500000920E-02 0.  1.
</event>
<event>
 5   0  0.1318916E-07  0.3098810E+04  0.7818609E-02  0.8216065E-01
        2   -1    0    0  501    0  0.00000000000E+00  0.00000000000E+00  0.17301838606E+04  0.17301838606E+04  0.25500000920E-02 0.  1.
       -2   -1    0    0    0  501  0.00000000000E+00  0.00000000000E+00 -0.13875144985E+04  0.13875144985E+04  0.25500000920E-02 0. -1.
    10030    2    1    2    0    0  0.00000000000E+00  0.00000000000E+00  0.34266936207E+03  0.31176983591E+04  0.30988095725E+04 0.  0.
        5    1    3    3  502    0  0.14296008379E+04  0.46971542947E+03  0.54269427554E+03  0.15996656860E+04  0.46999998093E+01 0. -1.
       -5    1    3    3    0  502 -0.14296008379E+04 -0.46971542947E+03 -0.20002491347E+03  0.15180326730E+04  0.46999998093E+01 0.  1.
</event>
<event>
 5   0  0.4838602E-08  0.3100756E+04  0.7818609E-02  0.8215530E-01
        1   -1    0    0  501    0  0.00000000000E+00  0.00000000000E+00  0.17797613479E+04  0.17797613479E+04  0.50400001928E-02 0. -1.
       -1   -1    0    0    0  501  0.00000000000E+00  0.00000000000E+00 -0.13505587172E+04  0.13505587172E+04  0.50400001928E-02 0.  1.
    10030    2    1    2    0    0  0.00000000000E+00  0.00000000000E+00  0.42920263070E+03  0.31303200651E+04  0.31007561677E+04 0.  0.
        5    1    3    3  502    0 -0.14164228311E+04 -0.58575583657E+03  0.44981758371E+03  0.15974108692E+04  0.46999998093E+01 0. -1.
       -5    1    3    3    0  502  0.14164228311E+04  0.58575583657E+03 -0.20614953011E+02  0.15329091959E+04  0.46999998093E+01 0.  1.
</event>
<event>
 5   0  0.1325713E-07  0.3106115E+04  0.7818609E-02  0.8214062E-01
        2   -1    0    0  501    0  0.00000000000E+00  0.00000000000E+00  0.18933578393E+04  0.18933578393E+04  0.25500000920E-02 0. -1.
       -2   -1    0    0    0  501  0.00000000000E+00  0.00000000000E+00 -0.12739202607E+04  0.12739202607E+04  0.25500000920E-02 0.  1.
    10030    2    1    2    0    0  0.00000000000E+00  0.00000000000E+00  0.61943757855E+03  0.31672781000E+04  0.31061145582E+04 0.  0.
        4    1    3    3  502    0 -0.21504355014E+03  0.36756468493E+03  0.18326604068E+04  0.18814869933E+04  0.12699999809E+01 0. -1.
       -4    1    3    3    0  502  0.21504355014E+03 -0.36756468493E+03 -0.12132228283E+04  0.12857911067E+04  0.12699999809E+01 0.  1.
</event>
<event>
 5   0  0.1325713E-07  0.3100392E+04  0.7818609E-02  0.8215630E-01
        2   -1    0    0  501    0  0.00000000000E+00  0.00000000000E+00  0.13968539784E+04  0.13968539784E+04  0.25500000920E-02 0. -1.
       -2   -1    0    0    0  501  0.00000000000E+00  0.00000000000E+00 -0.17203712464E+04  0.17203712464E+04  0.25500000920E-02 0.  1.
    10030    2    1    2    0    0  0.00000000000E+00  0.00000000000E+00 -0.32351726799E+03  0.31172252248E+04  0.31003918590E+04 0.  0.
        4    1    3    3  502    0  0.95194032724E+03 -0.11772485170E+04  0.17321893265E+03  0.15238473903E+04  0.12699999809E+01 0.  1.
       -4    1    3    3    0  502 -0.95194032724E+03  0.11772485170E+04 -0.49673620064E+03  0.15933778345E+04  0.12699999809E+01 0. -1.
</event>
<event>
 5   0  0.1377237E-07  0.3097869E+04  0.7818609E-02  0.8216323E-01
        2   -1    0    0  501    0  0.00000000000E+00  0.00000000000E+00  0.19671975639E+04  0.19671975639E+04  0.25500000920E-02 0. -1.
       -2   -1    0    0    0  501  0.00000000000E+00  0.00000000000E+00 -0.12196016194E+04  0.12196016194E+04  0.25500000920E-02 0.  1.
    10030    2    1    2    0    0  0.00000000000E+00  0.00000000000E+00  0.74759594455E+03  0.31867991833E+04  0.30978685153E+04 0.  0.
        2    1    3    3  502    0 -0.35770349296E+02  0.39241754376E+03  0.19147744505E+04  0.19548995480E+04  0.25500000920E-02 0. -1.
       -2    1    3    3    0  502  0.35770349296E+02 -0.39241754376E+03 -0.11671785060E+04  0.12318996352E+04  0.25500000920E-02 0.  1.
</event>
<event>
 5   0  0.4838602E-08  0.3101238E+04  0.7818609E-02  0.8215398E-01
        1   -1    0    0  501    0  0.00000000000E+00  0.00000000000E+00  0.21975065493E+04  0.21975065493E+04  0.50400001928E-02 0.  1.
       -1   -1    0    0    0  501  0.00000000000E+00  0.00000000000E+00 -0.10941581540E+04  0.10941581540E+04  0.50400001928E-02 0. -1.
    10030    2    1    2    0    0  0.00000000000E+00  0.00000000000E+00  0.11033483953E+04  0.32916647032E+04  0.31012382748E+04 0.  0.
        5    1    3    3  502    0  0.13904588677E+04 -0.66938296482E+03  0.39088576756E+03  0.15919369302E+04  0.46999998093E+01 0. -1.
       -5    1    3    3    0  502 -0.13904588677E+04  0.66938296482E+03  0.71246262774E+03  0.16997277730E+04  0.46999998093E+01 0.  1.
</event>
<event>
 5   0  0.1398931E-07  0.3099505E+04  0.7818609E-02  0.8215874E-01
        2   -1    0    0  501    0  0.00000000000E+00  0.00000000000E+00  0.16683691816E+04  0.16683691816E+04  0.25500000920E-02 0. -1.
       -2   -1    0    0    0  501  0.00000000000E+00  0.00000000000E+00 -0.14395686920E+04  0.14395686920E+04  0.25500000920E-02 0.  1.
    10030    2    1    2    0    0  0.00000000000E+00  0.00000000000E+00  0.22880048962E+03  0.31079378736E+04  0.30995045027E+04 0.  0.
        3    1    3    3  502    0 -0.75696806635E+03  0.13222307779E+04 -0.16998586853E+03  0.15330329707E+04  0.10100000352E+00 0.  1.
       -3    1    3    3    0  502  0.75696806635E+03 -0.13222307779E+04  0.39878635815E+03  0.15749049029E+04  0.10100000352E+00 0. -1.
</event>
<event>
 5   0  0.4305500E-08  0.3098822E+04  0.7818609E-02  0.8216061E-01
        3   -1    0    0  501    0  0.00000000000E+00  0.00000000000E+00  0.14453391265E+04  0.14453391300E+04  0.10100000352E+00 0. -1.
       -3   -1    0    0    0  501  0.00000000000E+00  0.00000000000E+00 -0.16609765268E+04  0.16609765299E+04  0.10100000352E+00 0.  1.
    10030    2    1    2    0    0  0.00000000000E+00  0.00000000000E+00 -0.21563740036E+03  0.31063156599E+04  0.30988219521E+04 0.  0.
        3    1    3    3  502    0  0.78151264580E+03  0.87132959020E+03 -0.11255063113E+04  0.16238047103E+04  0.10100000352E+00 0.  1.
       -3    1    3    3    0  502 -0.78151264580E+03 -0.87132959020E+03  0.90986891095E+03  0.14825109496E+04  0.10100000352E+00 0. -1.
</event>
<event>
 5   0  0.4436241E-08  0.3100921E+04  0.7818609E-02  0.8215485E-01
       -1   -1    0    0    0  501  0.00000000000E+00  0.00000000000E+00  0.12210092470E+04  0.12210092470E+04  0.50400001928E-02 0.  1.
        1   -1    0    0  501    0  0.00000000000E+00  0.00000000000E+00 -0.19688036013E+04  0.19688036013E+04  0.50400001928E-02 0. -1.
    10030    2    1    2    0    0  0.00000000000E+00  0.00000000000E+00 -0.74779435433E+03  0.31898128484E+04  0.31009207683E+04 0.  0.
        3    1    3    3  502    0  0.10287673651E+04  0.84920037620E+03  0.43896003789E+03  0.14043466437E+04  0.10100000352E+00 0.  1.
       -3    1    3    3    0  502 -0.10287673651E+04 -0.84920037620E+03 -0.11867543922E+04  0.17854662047E+04  0.10100000352E+00 0. -1.
</event>
<event>
 5   0  0.4305500E-08  0.3101804E+04  0.7818609E-02  0.8215243E-01
        3   -1    0    0  501    0  0.00000000000E+00  0.00000000000E+00  0.23261357968E+04  0.23261357990E+04  0.10100000352E+00 0.  1.
       -3   -1    0    0    0  501  0.00000000000E+00  0.00000000000E+00 -0.10340309555E+04  0.10340309604E+04  0.10100000352E+00 0. -1.
    10030    2    1    2    0    0  0.00000000000E+00  0.00000000000E+00  0.12921048413E+04  0.33601667594E+04  0.31018036253E+04 0.  0.
        5    1    3    3  502    0 -0.74513927796E+03  0.10963883760E+04  0.15180703851E+04  0.20154056164E+04  0.46999998093E+01 0.  1.
       -5    1    3    3    0  502  0.74513927796E+03 -0.10963883760E+04 -0.22596554373E+03  0.13447611430E+04  0.46999998093E+01 0. -1.
</event>
<event>
 5   0  0.1325713E-07  0.3098377E+04  0.7818609E-02  0.8216183E-01
       -2   -1    0    0    0  501  0.00000000000E+00  0.00000000000E+00  0.11285115476E+04  0.11285115476E+04  0.25500000920E-02 0.  1.
        2   -1    0    0  501    0  0.00000000000E+00  0.00000000000E+00 -0.21266820502E+04  0.21266820502E+04  0.25500000920E-02 0. -1.
    10030    2    1    2    0    0  0.00000000000E+00  0.00000000000E+00 -0.99817050260E+03  0.32551935979E+04  0.30983771570E+04 0.  0.
        4    1    3    3  502    0  0.10711392496E+04 -0.67310625294E+03 -0.14385303737E+04  0.19156676561E+04  0.12699999809E+01 0. -1.
       -4    1    3    3    0  502 -0.10711392496E+04  0.67310625294E+03  0.44035987108E+03  0.13395259418E+04  0.12699999809E+01 0.  1.
</event>
<event>
 5   0  0.4450600E-08  0.3099919E+04  0.7818609E-02  0.8215760E-01
       -1   -1    0    0    0  501  0.00000000000E+00  0.00000000000E+00  0.20885688860E+04  0.20885688860E+04  0.50400001928E-02 0.  1.
        1   -1    0    0  501    0  0.00000000000E+00  0.00000000000E+00 -0.11502492633E+04  0.11502492633E+04  0.50400001928E-02 0. -1.
    10030    2    1    2    0    0  0.00000000000E+00  0.00000000000E+00  0.93831962274E+03  0.32388181493E+04  0.30999192392E+04 0.  0.
        4    1    3    3  502    0  0.89386575386E+03  0.12653574197E+04  0.51869540041E+03  0.16337600549E+04  0.12699999809E+01 0.  1.
       -4    1    3    3    0  502 -0.89386575386E+03 -0.12653574197E+04  0.41962422233E+03  0.16050580944E+04  0.12699999809E+01 0. -1.
</event>
<event>
 5   0  0.4436241E-08  0.3098603E+04  0.7818609E-02  0.8216121E-01
       -1   -1    0    0    0  501  0.00000000000E+00  0.00000000000E+00  0.15630747801E+04  0.15630747801E+04  0.50400001928E-02 0. -1.
        1   -1    0    0  501    0  0.00000000000E+00  0.00000000000E+00 -0.15356495082E+04  0.15356495082E+04  0.50400001928E-02 0.  1.
    10030    2    1    2    0    0  0.00000000000E+00  0.00000000000E+00  0.27425271880E+02  0.30987242883E+04  0.30986029222E+04 0.  0.
        3    1    3    3  502    0 -0.55784286474E+03  0.74727314146E+03  0.12509875088E+04  0.15603126504E+04  0.10100000352E+00 0. -1.
       -3    1    3    3    0  502  0.55784286474E+03 -0.74727314146E+03 -0.12235622369E+04  0.15384116379E+04  0.10100000352E+00 0.  1.
</event>
<event>
 5   0  0.1377237E-07  0.3099024E+04  0.7818609E-02  0.8216006E-01
        2   -1    0    0  501    0  0.00000000000E+00  0.00000000000E+00  0.11881101165E+04  0.11881101165E+04  0.25500000920E-02 0. -1.
       -2   -1    0    0    0  501  0.00000000000E+00  0.00000000000E+00 -0.20208457416E+04  0.20208457416E+04  0.25500000920E-02 0.  1.
    10030    2    1    2    0    0  0.00000000000E+00  0.00000000000E+00 -0.83273562512E+03  0.32089558581E+04  0.30990238912E+04 0.  0.
        2    1    3    3  502    0 -0.11475783111E+04 -0.19788432160E+02  0.66154908884E+03  0.13247546034E+04  0.25500000920E-02 0.  1.
       -2    1    3    3    0  502  0.11475783111E+04  0.19788432160E+02 -0.14942847140E+04  0.18842012548E+04  0.25500000920E-02 0. -1.
</event>
<event>
 5   0  0.4436241E-08  0.3100305E+04  0.7818609E-02  0.8215654E-01
        1   -1    0    0  501    0  0.00000000000E+00  0.00000000000E+00  0.10965330809E+04  0.10965330809E+04  0.50400001928E-02 0. -1.
       -1   -1    0    0    0  501  0.00000000000E+00  0.00000000000E+00 -0.21914277744E+04  0.21914277744E+04  0.50400001928E-02 0.  1.
    10030    2    1    2    0    0  0.00000000000E+00  0.00000000000E+00 -0.10948946935E+04  0.32879608553E+04  0.31003051779E+04 0.  0.
        3    1    3    3  502    0 -0.37883219952E+03 -0.62437074047E+03  0.90265584932E+03  0.11610944188E+04  0.10100000352E+00 0. -1.
       -3    1    3    3    0  502  0.37883219952E+03  0.62437074047E+03 -0.19975505428E+04  0.21268664364E+04  0.10100000352E+00 0.  1.
</event>
<event>
 5   0  0.1329777E-07  0.3104125E+04  0.7818609E-02  0.8214607E-01
       -2   -1    0    0    0  501  0.00000000000E+00  0.00000000000E+00  0.14929109053E+04  0.14929109053E+04  0.25500000920E-02 0. -1.
        2   -1    0    0  501    0  0.00000000000E+00  0.00000000000E+00 -0.16135579440E+04  0.16135579440E+04  0.25500000920E-02 0.  1.
    10030    2    1    2    0    0  0.00000000000E+00  0.00000000000E+00 -0.12064703872E+03  0.31064688493E+04  0.31041251591E+04 0.  0.
        1    1    3    3  502    0 -0.91544476993E+03 -0.19541908922E+02  0.11938095000E+04  0.15045272132E+04  0.50400001928E-02 0. -1.
       -1    1    3    3    0  502  0.91544476993E+03  0.19541908922E+02 -0.13144565387E+04  0.16019416360E+04  0.50400001928E-02 0.  1.
</event>
<event>
 5   0  0.1329777E-07  0.3095701E+04  0.7818609E-02  0.8216919E-01
        2   -1    0    0  501    0  0.00000000000E+00  0.00000000000E+00  0.20791673225E+04  0.20791673225E+04  0.25500000920E-02 0. -1.
       -2   -1    0    0    0  501  0.00000000000E+00  0.00000000000E+00 -0.11523083083E+04  0.11523083084E+04  0.25500000920E-02 0.  1.
    10030    2    1    2    0    0  0.00000000000E+00  0.00000000000E+00  0.92685901416E+03  0.32314756309E+04  0.30957013940E+04 0.  0.
        1    1    3    3  502    0 -0.49170196423E+03 -0.10978228592E+04 -0.55338553001E+03  0.13240926692E+04  0.50400001928E-02 0.  1.
       -1    1    3    3    0  502  0.49170196423E+03  0.10978228592E+04  0.14802445442E+04  0.19073829616E+04  0.50400001928E-02 0. -1.
</event>
<event>
 5   0  0.1398931E-07  0.3097853E+04  0.7818609E-02  0.8216327E-01
       -2   -1    0    0    0  501  0.00000000000E+00  0.00000000000E+00  0.17067917845E+04  0.17067917845E+04  0.25500000920E-02 0. -1.
        2   -1    0    0  501    0  0.00000000000E+00  0.00000000000E+00 -0.14056625973E+04  0.14056625973E+04  0.25500000920E-02 0.  1.
    10030    2    1    2    0    0  0.00000000000E+00  0.00000000000E+00  0.30112918714E+03  0.31124543818E+04  0.30978530455E+04 0.  0.
        3    1    3    3  502    0  0.83770460614E+03  0.52602023990E+03  0.13481252217E+04  0.16720908838E+04  0.10100000352E+00 0. -1.
       -3    1    3    3    0  502 -0.83770460614E+03 -0.52602023990E+03 -0.10469960346E+04  0.14403634981E+04  0.10100000352E+00 0.  1.
</event>
<event>
 5   0  0.1398931E-07  0.3099847E+04  0.7818609E-02  0.8215780E-01
       -2   -1    0    0    0  501  0.00000000000E+00  0.00000000000E+00  0.21967087840E+04  0.21967087840E+04  0.25500000920E-02 0.  1.
        2   -1    0    0  501    0  0.00000000000E+00  0.00000000000E+00 -0.10935737163E+04  0.10935737163E+04  0.25500000920E-02 0. -1.
    10030    2    1    2    0    0  0.00000000000E+00  0.00000000000E+00  0.11031350677E+04  0.32902825003E+04  0.30998470856E+04 0.  0.
        3    1    3    3  502    0 -0.51144409062E+03  0.14259084992E+04  0.89953796824E+03  0.17618055149E+04  0.10100000352E+00 0.  1.
       -3    1    3    3    0  502  0.51144409062E+03 -0.14259084992E+04  0.20359709949E+03  0.15284769854E+04  0.10100000352E+00 0. -1.
</event>
<event>
 5   0  0.1318916E-07  0.3099880E+04  0.7818609E-02  0.8215771E-01
       -2   -1    0    0    0  501  0.00000000000E+00  0.00000000000E+00  0.18452512793E+04  0.18452512794E+04  0.25500000920E-02 0.  1.
        2   -1    0    0  501    0  0.00000000000E+00  0.00000000000E+00 -0.13018897538E+04  0.13018897538E+04  0.25500000920E-02 0. -1.
    10030    2    1    2    0    0  0.00000000000E+00  0.00000000000E+00  0.54336152557E+03  0.31471410331E+04  0.30998798259E+04 0.  0.
        5    1    3    3  502    0  0.13710138527E+04  0.55275468028E+03  0.74469713782E+03  0.16552379399E+04  0.46999998093E+01 0.  1.
       -5    1    3    3    0  502 -0.13710138527E+04 -0.55275468028E+03 -0.20133561225E+03  0.14919030932E+04  0.46999998093E+01 0. -1.
</event>
<event>
 5   0  0.4436241E-08  0.3100663E+04  0.7818609E-02  0.8215556E-01
        1   -1    0    0  501    0  0.00000000000E+00  0.00000000000E+00  0.18159036821E+04  0.18159036821E+04  0.50400001928E-02 0. -1.
       -1   -1    0    0    0  501  0.00000000000E+00  0.00000000000E+00 -0.13235984461E+04  0.13235984462E+04  0.50400001928E-02 0.  1.
    10030    2    1    2    0    0  0.00000000000E+00  0.00000000000E+00  0.49230523596E+03  0.31395021283E+04  0.31006626982E+04 0.  0.
        3    1    3    3  502    0  0.78674324693E+03 -0.11678482658E+04  0.90288553245E+03  0.16727333330E+04  0.10100000352E+00 0. -1.
       -3    1    3    3    0  502 -0.78674324693E+03  0.11678482658E+04 -0.41058029648E+03  0.14667687952E+04  0.10100000352E+00 0.  1.
</event>
<event>
 5   0  0.4450600E-08  0.3100284E+04  0.7818609E-02  0.8215660E-01
       -1   -1    0    0    0  501  0.00000000000E+00  0.00000000000E+00  0.17570415723E+04  0.17570415723E+04  0.50400001928E-02 0.  1.
        1   -1    0    0  501    0  0.00000000000E+00  0.00000000000E+00 -0.13676054155E+04  0.13676054155E+04  0.50400001928E-02 0. -1.
    10030    2    1    2    0    0  0.00000000000E+00  0.00000000000E+00  0.38943615684E+03  0.31246469878E+04  0.31002835803E+04 0.  0.
        4    1    3    3  502    0  0.51226000618E+03 -0.50034631640E+03  0.15803607828E+04  0.17350212008E+04  0.12699999809E+01 0.  1.
       -4    1    3    3    0  502 -0.51226000618E+03  0.50034631640E+03 -0.11909246260E+04  0.13896257870E+04  0.12699999809E+01 0. -1.
</event>
<event>
 5   0  0.1325713E-07  0.3101894E+04  0.7818609E-02  0.8215218E-01
        2   -1    0    0  501    0  0.00000000000E+00  0.00000000000E+00  0.19490551888E+04  0.19490551888E+04  0.25500000920E-02 0. -1.
       -2   -1    0    0    0  501  0.00000000000E+00  0.00000000000E+00 -0.12341553966E+04  0.12341553966E+04  0.25500000920E-02 0.  1.
    10030    2    1    2    0    0  0.00000000000E+00  0.00000000000E+00  0.71489979219E+03  0.31832105854E+04  0.31018942467E+04 0.  0.
        4    1    3    3  502    0 -0.10369644492E+04  0.92339557621E+03 -0.35166449206E+03  0.14323491847E+04  0.12699999809E+01 0.  1.
       -4    1    3    3    0  502  0.10369644492E+04 -0.92339557621E+03  0.10665642843E+04  0.17508614007E+04  0.12699999809E+01 0. -1.
</event>
<event>
 5   0  0.4436241E-08  0.3098723E+04  0.7818609E-02  0.8216088E-01
       -1   -1    0    0    0  501  0.00000000000E+00  0.00000000000E+00  0.11865236054E+04  0.11865236054E+04  0.50400001928E-02 0. -1.
        1   -1    0    0  501    0  0.00000000000E+00  0.00000000000E+00 -0.20231554569E+04  0.20231554569E+04  0.50400001928E-02 0.  1.
    10030    2    1    2    0    0  0.00000000000E+00  0.00000000000E+00 -0.83663185149E+03  0.32096790622E+04  0.30987234190E+04 0.  0.
        3    1    3    3  502    0  0.14429467491E+04  0.22058646133E+03  0.11967382503E+03  0.14646076411E+04  0.10100000352E+00 0. -1.
       -3    1    3    3    0  502 -0.14429467491E+04 -0.22058646133E+03 -0.95630567651E+03  0.17450714211E+04  0.10100000352E+00 0.  1.
</event>
<event>
 5   0  0.4450600E-08  0.3099251E+04  0.7818609E-02  0.8215943E-01
        1   -1    0    0  501    0  0.00000000000E+00  0.00000000000E+00  0.21404504313E+04  0.21404504313E+04  0.50400001928E-02 0.  1.
       -1   -1    0    0    0  501  0.00000000000E+00  0.00000000000E+00 -0.11218850499E+04  0.11218850499E+04  0.50400001928E-02 0. -1.
    10030    2    1    2    0    0  0.00000000000E+00  0.00000000000E+00  0.10185653814E+04  0.32623354812E+04  0.30992510960E+04 0.  0.
        4    1    3    3  502    0  0.33879843635E+03 -0.14954083040E+04  0.74537811841E+03  0.17048813825E+04  0.12699999809E+01 0.  1.
       -4    1    3    3    0  502 -0.33879843635E+03  0.14954083040E+04  0.27318726295E+03  0.15574540987E+04  0.12699999809E+01 0. -1.
</event>
<event>
 5   0  0.4436241E-08  0.3098093E+04  0.7818609E-02  0.8216261E-01
       -1   -1    0    0    0  501  0.00000000000E+00  0.00000000000E+00  0.16531568034E+04  0.16531568034E+04  0.50400001928E-02 0.  1.
        1   -1    0    0  501    0  0.00000000000E+00  0.00000000000E+00 -0.14514927781E+04  0.14514927781E+04  0.50400001928E-02 0. -1.
    10030    2    1    2    0    0  0.00000000000E+00  0.00000000000E+00  0.20166402532E+03  0.31046495816E+04  0.30980930659E+04 0.  0.
        3    1    3    3  502    0  0.13785510260E+04 -0.37050008521E+03  0.70366299338E+03  0.15914819707E+04  0.10100000352E+00 0.  1.
       -3    1    3    3    0  502 -0.13785510260E+04  0.37050008521E+03 -0.50199896806E+03  0.15131676109E+04  0.10100000352E+00 0. -1.
</event>
<event>
 5   0  0.4436241E-08  0.3101513E+04  0.7818609E-02  0.8215323E-01
       -1   -1    0    0    0  501  0.00000000000E+00  0.00000000000E+00  0.12899762404E+04  0.12899762404E+04  0.50400001928E-02 0.  1.
        1   -1    0    0  501    0  0.00000000000E+00  0.00000000000E+00 -0.18642554444E+04  0.18642554445E+04  0.50400001928E-02 0. -1.
    10030    2    1    2    0    0  0.00000000000E+00  0.00000000000E+00 -0.57427920401E+03  0.31542316849E+04  0.31015126822E+04 0.  0.
        3    1    3    3  502    0  0.15119867969E+04 -0.26337348761E+03 -0.61156478622E+02  0.15359719376E+04  0.10100000352E+00 0. -1.
       -3    1    3    3    0  502 -0.15119867969E+04  0.26337348761E+03 -0.51312272539E+03  0.16182597473E+04  0.10100000352E+00 0.  1.
</event>
<event>
 5   0  0.4838602E-08  0.3098130E+04  0.7818609E-02  0.8216251E-01
        1   -1    0    0  501    0  0.00000000000E+00  0.00000000000E+00  0.19406557998E+04  0.19406557998E+04  0.50400001928E-02 0.  1.
       -1   -1    0    0    0  501  0.00000000000E+00  0.00000000000E+00 -0.12364903960E+04  0.12364903960E+04  0.50400001928E-02 0. -1.
    10030    2    1    2    0    0  0.00000000000E+00  0.00000000000E+00  0.70416540377E+03  0.31771461958E+04  0.30981299252E+04 0.  0.
        5    1    3    3  502    0  0.73009920187E+03  0.66065298262E+03  0.15784390123E+04  0.18603760409E+04  0.46999998093E+01 0.  1.
       -5    1    3    3    0  502 -0.73009920187E+03 -0.66065298262E+03 -0.87427360857E+03  0.13167701548E+04  0.46999998093E+01 0. -1.
</event>
<event>
 5   0  0.4517409E-08  0.3101088E+04  0.7818609E-02  0.8215439E-01
        1   -1    0    0  501    0  0.00000000000E+00  0.00000000000E+00  0.13511515432E+04  0.13511515432E+04  0.50400001928E-02 0.  1.
       -1   -1    0    0    0  501  0.00000000000E+00  0.00000000000E+00 -0.17793610334E+04  0.17793610334E+04  0.50400001928E-02 0. -1.
    10030    2    1    2    0    0  0.00000000000E+00  0.00000000000E+00 -0.42820949015E+03  0.31305125766E+04  0.31010878131E+04 0.  0.
        2    1    3    3  502    0 -0.10581872180E+04  0.79246801480E+03  0.60378075801E+03  0.14533812117E+04  0.25500000920E-02 0.  1.
       -2    1    3    3    0  502  0.10581872180E+04 -0.79246801480E+03 -0.10319902482E+04  0.16771313649E+04  0.25500000920E-02 0. -1.
</event>
<event>
 5   0  0.4517409E-08  0.3099351E+04  0.7818609E-02  0.8215916E-01
       -1   -1    0    0    0  501  0.00000000000E+00  0.00000000000E+00  0.10404201391E+04  0.10404201391E+04  0.50400001928E-02 0.  1.
        1   -1    0    0  501    0  0.00000000000E+00  0.00000000000E+00 -0.23081967815E+04  0.23081967815E+04  0.50400001928E-02 0. -1.
    10030    2    1    2    0    0  0.00000000000E+00  0.00000000000E+00 -0.12677766424E+04  0.33486169206E+04  0.30993511685E+04 0.  0.
        2    1    3    3  502    0 -0.48683222388E+03 -0.30796808822E+03 -0.21882159028E+04  0.22627723692E+04  0.25500000920E-02 0. -1.
       -2    1    3    3    0  502  0.48683222388E+03  0.30796808822E+03  0.92043926042E+03  0.10858445514E+04  0.25500000920E-02 0.  1.
</event>
<event>
 5   0  0.1318916E-07  0.3100826E+04  0.7818609E-02  0.8215511E-01
        2   -1    0    0  501    0  0.00000000000E+00  0.00000000000E+00  0.16531344364E+04  0.16531344364E+04  0.25500000920E-02 0. -1.
       -2   -1    0    0    0  501  0.00000000000E+00  0.00000000000E+00 -0.14540741830E+04  0.14540741830E+04  0.25500000920E-02 0.  1.
    10030    2    1    2    0    0  0.00000000000E+00  0.00000000000E+00  0.19906025337E+03  0.31072086194E+04  0.31008257642E+04 0.  0.
        5    1    3    3  502    0  0.58756193666E+03 -0.10551922248E+04  0.10736929519E+04  0.16160130896E+04  0.46999998093E+01 0. -1.
       -5    1    3    3    0  502 -0.58756193666E+03  0.10551922248E+04 -0.87463269855E+03  0.14911955298E+04  0.46999998093E+01 0.  1.
</event>
<event>
 5   0  0.4436241E-08  0.3100347E+04  0.7818609E-02  0.8215643E-01
        1   -1    0    0  501    0  0.00000000000E+00  0.00000000000E+00  0.12511046413E+04  0.12511046413E+04  0.50400001928E-02 0. -1.
       -1   -1    0    0    0  501  0.00000000000E+00  0.00000000000E+00 -0.19207323638E+04  0.19207323638E+04  0.50400001928E-02 0.  1.
    10030    2    1    2    0    0  0.00000000000E+00  0.00000000000E+00 -0.66962772254E+03  0.31718370051E+04  0.31003465452E+04 0.  0.
        3    1    3    3  502    0 -0.99651511921E+03  0.49552462305E+03 -0.14387935116E+04  0.18189870297E+04  0.10100000352E+00 0.  1.
       -3    1    3    3    0  502  0.99651511921E+03 -0.49552462305E+03  0.76916578905E+03  0.13528499755E+04  0.10100000352E+00 0. -1.
</event>
<event>
 5   0  0.1318916E-07  0.3100236E+04  0.7818609E-02  0.8215673E-01
        2   -1    0    0  501    0  0.00000000000E+00  0.00000000000E+00  0.22843319943E+04  0.22843319943E+04  0.25500000920E-02 0. -1.
       -2   -1    0    0    0  501  0.00000000000E+00  0.00000000000E+00 -0.10518901052E+04  0.10518901052E+04  0.25500000920E-02 0.  1.
    10030    2    1    2    0    0  0.00000000000E+00  0.00000000000E+00  0.12324418891E+04  0.33362220995E+04  0.31002362632E+04 0.  0.
        5    1    3    3  502    0  0.15382436703E+04  0.19139325313E+03  0.61150987491E+03  0.16663707221E+04  0.46999998093E+01 0. -1.
       -5    1    3    3    0  502 -0.15382436703E+04 -0.19139325313E+03  0.62093201419E+03  0.16698513774E+04  0.46999998093E+01 0.  1.
</event>
<event>
 5   0  0.4436241E-08  0.3098932E+04  0.7818609E-02  0.8216031E-01
       -1   -1    0    0    0  501  0.00000000000E+00  0.00000000000E+00  0.10662109526E+04  0.10662109526E+04  0.50400001928E-02 0. -1.
        1   -1    0    0  501    0  0.00000000000E+00  0.00000000000E+00 -0.22517534751E+04  0.22517534751E+04  0.50400001928E-02 0.  1.
    10030    2    1    2    0    0  0.00000000000E+00  0.00000000000E+00 -0.11855425225E+04  0.33179644278E+04  0.30989315693E+04 0.  0.
        3    1    3    3  502    0  0.54266094482E+03  0.88876599480E+03  0.63569517409E+03  0.12200386302E+04  0.10100000352E+00 0. -1.
       -3    1    3    3    0  502 -0.54266094482E+03 -0.88876599480E+03 -0.18212376966E+04  0.20979257976E+04  0.10100000352E+00 0.  1.
</event>
<event>
 5   0  0.1325713E-07  0.3100540E+04  0.7818609E-02  0.8215590E-01
       -2   -1    0    0    0  501  0.00000000000E+00  0.00000000000E+00  0.17435249983E+04  0.17435249983E+04  0.25500000920E-02 0. -1.
        2   -1    0    0  501    0  0.00000000000E+00  0.00000000000E+00 -0.13784354964E+04  0.13784354964E+04  0.25500000920E-02 0.  1.
    10030    2    1    2    0    0  0.00000000000E+00  0.00000000000E+00  0.36508950194E+03  0.31219604947E+04  0.31005397894E+04 0.  0.
        4    1    3    3  502    0  0.12971089860E+04 -0.49951364263E+03  0.87382224957E+03  0.16418198858E+04  0.12699999809E+01 0. -1.
       -4    1    3    3    0  502 -0.12971089860E+04  0.49951364263E+03 -0.50873274763E+03  0.14801406089E+04  0.12699999809E+01 0.  1.
</event>
<event>
 5   0  0.4450600E-08  0.3121301E+04  0.7818609E-02  0.8209916E-01
        1   -1    0    0  501    0  0.00000000000E+00  0.00000000000E+00  0.72917037881E+03  0.72917037883E+03  0.50400001928E-02 0. -1.
       -1   -1    0    0    0  501  0.00000000000E+00  0.00000000000E+00 -0.33402762378E+04  0.33402762378E+04  0.50400001928E-02 0.  1.
    10030    2    1    2    0    0  0.00000000000E+00  0.00000000000E+00 -0.26111058590E+04  0.40694466167E+04  0.31213013246E+04 0.  0.
        4    1    3    3  502    0 -0.50139477348E+03  0.93865606922E+03 -0.27938787627E+04  0.29896876239E+04  0.12699999809E+01 0.  1.
       -4    1    3    3    0  502  0.50139477348E+03 -0.93865606922E+03  0.18277290368E+03  0.10797589927E+04  0.12699999809E+01 0. -1.
</event>
<event>
 5   0  0.1325713E-07  0.3099737E+04  0.7818609E-02  0.8215810E-01
       -2   -1    0    0    0  501  0.00000000000E+00  0.00000000000E+00  0.26654093199E+04  0.26654093199E+04  0.25500000920E-02 0.  1.
        2   -1    0    0  501    0  0.00000000000E+00  0.00000000000E+00 -0.90120929644E+03  0.90120929645E+03  0.25500000920E-02 0. -1.
    10030    2    1    2    0    0  0.00000000000E+00  0.00000000000E+00  0.17642000235E+04  0.35666186164E+04  0.30997365423E+04 0.  0.
        4    1    3    3  502    0  0.41174956774E+03  0.14586199070E+04  0.12549085112E+04  0.19677161187E+04  0.12699999809E+01 0.  1.
       -4    1    3    3    0  502 -0.41174956774E+03 -0.14586199070E+04  0.50929151231E+03  0.15989024977E+04  0.12699999809E+01 0. -1.
</event>
<event>
 5   0  0.1377237E-07  0.3100720E+04  0.7818609E-02  0.8215540E-01
       -2   -1    0    0    0  501  0.00000000000E+00  0.00000000000E+00  0.10494022302E+04  0.10494022302E+04  0.25500000920E-02 0. -1.
        2   -1    0    0  501    0  0.00000000000E+00  0.00000000000E+00 -0.22904625986E+04  0.22904625986E+04  0.25500000920E-02 0.  1.
    10030    2    1    2    0    0  0.00000000000E+00  0.00000000000E+00 -0.12410603684E+04  0.33398648288E+04  0.31007202771E+04 0.  0.
        2    1    3    3  502    0  0.14667941260E+03 -0.10194454176E+04  0.62764994179E+03  0.12061211627E+04  0.25500000920E-02 0. -1.
       -2    1    3    3    0  502 -0.14667941260E+03  0.10194454176E+04 -0.18687103102E+04  0.21337436662E+04  0.25500000920E-02 0.  1.
</event>
<event>
 5   0  0.4470354E-08  0.3100026E+04  0.7818609E-02  0.8215731E-01
       -1   -1    0    0    0  501  0.00000000000E+00  0.00000000000E+00  0.16963678130E+04  0.16963678130E+04  0.50400001928E-02 0. -1.
        1   -1    0    0  501    0  0.00000000000E+00  0.00000000000E+00 -0.14162851461E+04  0.14162851461E+04  0.50400001928E-02 0.  1.
    10030    2    1    2    0    0  0.00000000000E+00  0.00000000000E+00  0.28008266689E+03  0.31126529592E+04  0.31000261521E+04 0.  0.
        1    1    3    3  502    0 -0.11481096969E+04 -0.10412606254E+04  0.12730226076E+03  0.15551801926E+04  0.50400001928E-02 0. -1.
       -1    1    3    3    0  502  0.11481096969E+04  0.10412606254E+04  0.15278040612E+03  0.15574727665E+04  0.50400001928E-02 0.  1.
</event>
<event>
 5   0  0.4305500E-08  0.3099931E+04  0.7818609E-02  0.8215757E-01
       -3   -1    0    0    0  501  0.00000000000E+00  0.00000000000E+00  0.10668170843E+04  0.10668170891E+04  0.10100000352E+00 0.  1.
        3   -1    0    0  501    0  0.00000000000E+00  0.00000000000E+00 -0.22519253753E+04  0.22519253776E+04  0.10100000352E+00 0. -1.
    10030    2    1    2    0    0  0.00000000000E+00  0.00000000000E+00 -0.11851082911E+04  0.33187424667E+04  0.30999306280E+04 0.  0.
        5    1    3    3  502    0 -0.81854076713E+03 -0.19804338114E+03 -0.19856084298E+04  0.21568247715E+04  0.46999998093E+01 0. -1.
       -5    1    3    3    0  502  0.81854076713E+03  0.19804338114E+03  0.80050013876E+03  0.11619176952E+04  0.46999998093E+01 0.  1.
</event>
<event>
 5   0  0.4470354E-08  0.3098333E+04  0.7818609E-02  0.8216196E-01
        1   -1    0    0  501    0  0.00000000000E+00  0.00000000000E+00  0.15869740987E+04  0.15869740987E+04  0.50400001928E-02 0.  1.
       -1   -1    0    0    0  501  0.00000000000E+00  0.00000000000E+00 -0.15122597397E+04  0.15122597397E+04  0.50400001928E-02 0. -1.
    10030    2    1    2    0    0  0.00000000000E+00  0.00000000000E+00  0.74714358962E+02  0.30992338384E+04  0.30983331244E+04 0.  0.
        1    1    3    3  502    0  0.12961836042E+04  0.13834902786E+03 -0.79995524625E+03  0.15294315236E+04  0.50400001928E-02 0. -1.
       -1    1    3    3    0  502 -0.12961836042E+04 -0.13834902786E+03  0.87466960521E+03  0.15698023148E+04  0.50400001928E-02 0.  1.
</event>
<event>
 5   0  0.1318916E-07  0.3101732E+04  0.7818609E-02  0.8215263E-01
       -2   -1    0    0    0  501  0.00000000000E+00  0.00000000000E+00  0.11406736356E+04  0.11406736356E+04  0.25500000920E-02 0.  1.
        2   -1    0    0  501    0  0.00000000000E+00  0.00000000000E+00 -0.21085653494E+04  0.21085653494E+04  0.25500000920E-02 0. -1.
    10030    2    1    2    0    0  0.00000000000E+00  0.00000000000E+00 -0.96789171380E+03  0.32492389851E+04  0.31017317119E+04 0.  0.
        5    1    3    3  502    0  0.12080122658E+04  0.96394556288E+03 -0.34866040052E+03  0.15843203108E+04  0.46999998093E+01 0. -1.
       -5    1    3    3    0  502 -0.12080122658E+04 -0.96394556288E+03 -0.61923131328E+03  0.16649186742E+04  0.46999998093E+01 0.  1.
</event>
<event>
 5   0  0.1398931E-07  0.3099747E+04  0.7818609E-02  0.8215807E-01
       -2   -1    0    0    0  501  0.00000000000E+00  0.00000000000E+00  0.14112034884E+04  0.14112034884E+04  0.25500000920E-02 0.  1.
        2   -1    0    0  501    0  0.00000000000E+00  0.00000000000E+00 -0.17021697942E+04  0.17021697942E+04  0.25500000920E-02 0. -1.
    10030    2    1    2    0    0  0.00000000000E+00  0.00000000000E+00 -0.29096630578E+03  0.31133732827E+04  0.30997470552E+04 0.  0.
        3    1    3    3  502    0 -0.69348402342E+03 -0.21924656689E+03  0.12291524844E+04  0.14282174162E+04  0.10100000352E+00 0.  1.
       -3    1    3    3    0  502  0.69348402342E+03  0.21924656689E+03 -0.15201187902E+04  0.16851558665E+04  0.10100000352E+00 0. -1.
</event>
<event>
 5   0  0.1318916E-07  0.3101529E+04  0.7818609E-02  0.8215319E-01
       -2   -1    0    0    0  501  0.00000000000E+00  0.00000000000E+00  0.13777954868E+04  0.13777954868E+04  0.25500000920E-02 0. -1.
        2   -1    0    0  501    0  0.00000000000E+00  0.00000000000E+00 -0.17454475563E+04  0.17454475563E+04  0.25500000920E-02 0.  1.
    10030    2    1    2    0    0  0.00000000000E+00  0.00000000000E+00 -0.36765206945E+03  0.31232430431E+04  0.31015285041E+04 0.  0.
        5    1    3    3  502    0  0.13509691892E+03 -0.10093764380E+04  0.99387287179E+03  0.14229888778E+04  0.46999998093E+01 0. -1.
       -5    1    3    3    0  502 -0.13509691892E+03  0.10093764380E+04 -0.13615249412E+04  0.17002541653E+04  0.46999998093E+01 0.  1.
</event>
<event>
 5   0  0.4517409E-08  0.3101871E+04  0.7818609E-02  0.8215225E-01
       -1   -1    0    0    0  501  0.00000000000E+00  0.00000000000E+00  0.11582971356E+04  0.11582971356E+04  0.50400001928E-02 0.  1.
        1   -1    0    0  501    0  0.00000000000E+00  0.00000000000E+00 -0.20766696772E+04  0.20766696772E+04  0.50400001928E-02 0. -1.
    10030    2    1    2    0    0  0.00000000000E+00  0.00000000000E+00 -0.91837254163E+03  0.32349668128E+04  0.31018707508E+04 0.  0.
        2    1    3    3  502    0 -0.40827826186E+03 -0.51968224939E+03  0.10040998657E+04  0.12020720943E+04  0.25500000920E-02 0.  1.
       -2    1    3    3    0  502  0.40827826186E+03  0.51968224939E+03 -0.19224724074E+04  0.20328947185E+04  0.25500000920E-02 0. -1.
</event>
<event>
 5   0  0.1325713E-07  0.3100750E+04  0.7818609E-02  0.8215532E-01
       -2   -1    0    0    0  501  0.00000000000E+00  0.00000000000E+00  0.17460376608E+04  0.17460376608E+04  0.25500000920E-02 0. -1.
        2   -1    0    0  501    0  0.00000000000E+00  0.00000000000E+00 -0.13766384243E+04  0.13766384243E+04  0.25500000920E-02 0.  1.
    10030    2    1    2    0    0  0.00000000000E+00  0.00000000000E+00  0.36939923657E+03  0.31226760851E+04  0.31007499313E+04 0.  0.
        4    1    3    3  502    0 -0.49190244229E+03 -0.14561389016E+04 -0.20091253740E+02  0.15371121575E+04  0.12699999809E+01 0.  1.
       -4    1    3    3    0  502  0.49190244229E+03  0.14561389016E+04  0.38949049031E+03  0.15855639276E+04  0.12699999809E+01 0. -1.
</event>
<event>
 5   0  0.4470354E-08  0.3099427E+04  0.7818609E-02  0.8215895E-01
       -1   -1    0    0    0  501  0.00000000000E+00  0.00000000000E+00  0.14801706792E+04  0.14801706792E+04  0.50400001928E-02 0. -1.
        1   -1    0    0  501    0  0.00000000000E+00  0.00000000000E+00 -0.16225240351E+04  0.16225240352E+04  0.50400001928E-02 0.  1.
    10030    2    1    2    0    0  0.00000000000E+00  0.00000000000E+00 -0.14235335591E+03  0.31026947144E+04  0.30994273685E+04 0.  0.
        1    1    3    3  502    0  0.11038358941E+03 -0.13129004527E+03 -0.16129921488E+04  0.16220867069E+04  0.50400001928E-02 0.  1.
       -1    1    3    3    0  502 -0.11038358941E+03  0.13129004527E+03  0.14706387928E+04  0.14806080075E+04  0.50400001928E-02 0. -1.
</event>
<event>
 5   0  0.1398931E-07  0.3099950E+04  0.7818609E-02  0.8215752E-01
       -2   -1    0    0    0  501  0.00000000000E+00  0.00000000000E+00  0.19211138291E+04  0.19211138291E+04  0.25500000920E-02 0.  1.
        2   -1    0    0  501    0  0.00000000000E+00  0.00000000000E+00 -0.12505366061E+04  0.12505366061E+04  0.25500000920E-02 0. -1.
    10030    2    1    2    0    0  0.00000000000E+00  0.00000000000E+00  0.67057722294E+03  0.31716504352E+04  0.30999504304E+04 0.  0.
        3    1    3    3  502    0  0.11425907059E+04  0.10334684329E+03 -0.73104052468E+03  0.13603728717E+04  0.10100000352E+00 0. -1.
       -3    1    3    3    0  502 -0.11425907059E+04 -0.10334684329E+03  0.14016177476E+04  0.18112775635E+04  0.10100000352E+00 0.  1.
</event>
<event>
 5   0  0.4470354E-08  0.3100261E+04  0.7818609E-02  0.8215666E-01
        1   -1    0    0  501    0  0.00000000000E+00  0.00000000000E+00  0.27295609005E+04  0.27295609005E+04  0.50400001928E-02 0.  1.
       -1   -1    0    0    0  501  0.00000000000E+00  0.00000000000E+00 -0.88032643114E+03  0.88032643116E+03  0.50400001928E-02 0. -1.
    10030    2    1    2    0    0  0.00000000000E+00  0.00000000000E+00  0.18492344694E+04  0.36098873317E+04  0.31002610252E+04 0.  0.
        1    1    3    3  502    0 -0.14313800901E+03  0.33766419519E+03  0.26783164636E+04  0.27033099485E+04  0.50400001928E-02 0.  1.
       -1    1    3    3    0  502  0.14313800901E+03 -0.33766419519E+03 -0.82908199429E+03  0.90657738314E+03  0.50400001928E-02 0. -1.
</event>
<event>
 5   0  0.1318916E-07  0.3101931E+04  0.7818609E-02  0.8215208E-01
       -2   -1    0    0    0  501  0.00000000000E+00  0.00000000000E+00  0.26583322821E+04  0.26583322821E+04  0.25500000920E-02 0.  1.
        2   -1    0    0  501    0  0.00000000000E+00  0.00000000000E+00 -0.90488812588E+03  0.90488812589E+03  0.25500000920E-02 0. -1.
    10030    2    1    2    0    0  0.00000000000E+00  0.00000000000E+00  0.17534441562E+04  0.35632204080E+04  0.31019305709E+04 0.  0.
        5    1    3    3  502    0 -0.68837296498E+03  0.13563421969E+04  0.52839611267E+03  0.16102006198E+04  0.46999998093E+01 0. -1.
       -5    1    3    3    0  502  0.68837296498E+03 -0.13563421969E+04  0.12250480435E+04  0.19530197882E+04  0.46999998093E+01 0.  1.
</event>
<event>
 5   0  0.4450600E-08  0.3100086E+04  0.7818609E-02  0.8215714E-01
        1   -1    0    0  501    0  0.00000000000E+00  0.00000000000E+00  0.13952498409E+04  0.13952498409E+04  0.50400001928E-02 0. -1.
       -1   -1    0    0    0  501  0.00000000000E+00  0.00000000000E+00 -0.17220097551E+04  0.17220097552E+04  0.50400001928E-02 0.  1.
    10030    2    1    2    0    0  0.00000000000E+00  0.00000000000E+00 -0.32675991421E+03  0.31172595961E+04  0.31000863452E+04 0.  0.
        4    1    3    3  502    0  0.82896224819E+03  0.84444898303E+03  0.84334534896E+03  0.14531020213E+04  0.12699999809E+01 0. -1.
       -4    1    3    3    0  502 -0.82896224819E+03 -0.84444898303E+03 -0.11701052632E+04  0.16641575748E+04  0.12699999809E+01 0.  1.
</event>
<event>
 5   0  0.1377237E-07  0.3100722E+04  0.7818609E-02  0.8215540E-01
       -2   -1    0    0    0  501  0.00000000000E+00  0.00000000000E+00  0.14276594177E+04  0.14276594177E+04  0.25500000920E-02 0.  1.
        2   -1    0    0  501    0  0.00000000000E+00  0.00000000000E+00 -0.16836078089E+04  0.16836078089E+04  0.25500000920E-02 0. -1.
    10030    2    1    2    0    0  0.00000000000E+00  0.00000000000E+00 -0.25594839127E+03  0.31112672266E+04  0.31007215574E+04 0.  0.
        2    1    3    3  502    0  0.87976912484E+03  0.91102262129E+02  0.11496690791E+04  0.14505282922E+04  0.25500000920E-02 0.  1.
       -2    1    3    3    0  502 -0.87976912484E+03 -0.91102262129E+02 -0.14056174703E+04  0.16607389344E+04  0.25500000920E-02 0. -1.
</event>
<event>
 5   0  0.1398931E-07  0.3100709E+04  0.7818609E-02  0.8215543E-01
        2   -1    0    0  501    0  0.00000000000E+00  0.00000000000E+00  0.18900433799E+04  0.18900433799E+04  0.25500000920E-02 0. -1.
       -2   -1    0    0    0  501  0.00000000000E+00  0.00000000000E+00 -0.12717162176E+04  0.12717162176E+04  0.25500000920E-02 0.  1.
    10030    2    1    2    0    0  0.00000000000E+00  0.00000000000E+00  0.61832716230E+03  0.31617595976E+04  0.31007088340E+04 0.  0.
        3    1    3    3  502    0  0.20732110302E+02  0.15313156978E+04  0.55524742187E+03  0.16290050019E+04  0.10100000352E+00 0. -1.
       -3    1    3    3    0  502 -0.20732110302E+02 -0.15313156978E+04  0.63079740429E+02  0.15327545957E+04  0.10100000352E+00 0.  1.
</event>
<event>
 5   0  0.4838602E-08  0.3100600E+04  0.7818609E-02  0.8215573E-01
        1   -1    0    0  501    0  0.00000000000E+00  0.00000000000E+00  0.12692473276E+04  0.12692473276E+04  0.50400001928E-02 0.  1.
       -1   -1    0    0    0  501  0.00000000000E+00  0.00000000000E+00 -0.18935872921E+04  0.18935872921E+04  0.50400001928E-02 0. -1.
    10030    2    1    2    0    0  0.00000000000E+00  0.00000000000E+00 -0.62433996448E+03  0.31628346197E+04  0.31006003355E+04 0.  0.
        5    1    3    3  502    0 -0.89731329585E+03 -0.93430346938E+03 -0.11809180326E+04  0.17529071891E+04  0.46999998093E+01 0. -1.
       -5    1    3    3    0  502  0.89731329585E+03  0.93430346938E+03  0.55657806810E+03  0.14099274307E+04  0.46999998093E+01 0.  1.
</event>
<event>
 5   0  0.4517409E-08  0.3099195E+04  0.7818609E-02  0.8215959E-01
       -1   -1    0    0    0  501  0.00000000000E+00  0.00000000000E+00  0.10698258236E+04  0.10698258236E+04  0.50400001928E-02 0.  1.
        1   -1    0    0  501    0  0.00000000000E+00  0.00000000000E+00 -0.22445259016E+04  0.22445259016E+04  0.50400001928E-02 0. -1.
    10030    2    1    2    0    0  0.00000000000E+00  0.00000000000E+00 -0.11747000780E+04  0.33143517252E+04  0.30991945865E+04 0.  0.
        2    1    3    3  502    0 -0.34297184287E+03 -0.10720102238E+04  0.55168203454E+03  0.12534706507E+04  0.25500000920E-02 0.  1.
       -2    1    3    3    0  502  0.34297184287E+03  0.10720102238E+04 -0.17263821125E+04  0.20608810745E+04  0.25500000920E-02 0. -1.
</event>
<event>
 5   0  0.1329777E-07  0.3099942E+04  0.7818609E-02  0.8215754E-01
        2   -1    0    0  501    0  0.00000000000E+00  0.00000000000E+00  0.25076879026E+04  0.25076879026E+04  0.25500000920E-02 0.  1.
       -2   -1    0    0    0  501  0.00000000000E+00  0.00000000000E+00 -0.95801808223E+03  0.95801808223E+03  0.25500000920E-02 0. -1.
    10030    2    1    2    0    0  0.00000000000E+00  0.00000000000E+00  0.15496698203E+04  0.34657059848E+04  0.30999421641E+04 0.  0.
        1    1    3    3  502    0 -0.98614993131E+03 -0.11786695508E+04  0.54940865415E+03  0.16320549826E+04  0.50400001928E-02 0. -1.
       -1    1    3    3    0  502  0.98614993131E+03  0.11786695508E+04  0.10002611662E+04  0.18336510022E+04  0.50400001928E-02 0.  1.
</event>
<event>
 5   0  0.1377237E-07  0.3098302E+04  0.7818609E-02  0.8216204E-01
        2   -1    0    0  501    0  0.00000000000E+00  0.00000000000E+00  0.17607962825E+04  0.17607962825E+04  0.25500000920E-02 0. -1.
       -2   -1    0    0    0  501  0.00000000000E+00  0.00000000000E+00 -0.13629453674E+04  0.13629453674E+04  0.25500000920E-02 0.  1.
    10030    2    1    2    0    0  0.00000000000E+00  0.00000000000E+00  0.39785091516E+03  0.31237416499E+04  0.30983022035E+04 0.  0.
        2    1    3    3  502    0  0.34516119221E+02 -0.75919919367E+01 -0.13625388802E+04  0.13629971390E+04  0.25500000920E-02 0.  1.
       -2    1    3    3    0  502 -0.34516119221E+02  0.75919919367E+01  0.17603897954E+04  0.17607445109E+04  0.25500000920E-02 0. -1.
</event>
<event>
 5   0  0.4517409E-08  0.3101213E+04  0.7818609E-02  0.8215405E-01
        1   -1    0    0  501    0  0.00000000000E+00  0.00000000000E+00  0.15877006942E+04  0.15877006943E+04  0.50400001928E-02 0. -1.
       -1   -1    0    0    0  501  0.00000000000E+00  0.00000000000E+00 -0.15143786783E+04  0.15143786783E+04  0.50400001928E-02 0.  1.
    10030    2    1    2    0    0  0.00000000000E+00  0.00000000000E+00  0.73322015961E+02  0.31020793726E+04  0.31012127169E+04 0.  0.
        2    1    3    3  502    0  0.70295770593E+03 -0.19123960104E+03  0.14058597947E+04  0.15834026284E+04  0.25500000920E-02 0. -1.
       -2    1    3    3    0  502 -0.70295770593E+03  0.19123960104E+03 -0.13325377787E+04  0.15186767441E+04  0.25500000920E-02 0.  1.
</event>
<event>
 5   0  0.1325713E-07  0.3101136E+04  0.7818609E-02  0.8215426E-01
        2   -1    0    0  501    0  0.00000000000E+00  0.00000000000E+00  0.14575059798E+04  0.14575059798E+04  0.25500000920E-02 0. -1.
       -2   -1    0    0    0  501  0.00000000000E+00  0.00000000000E+00 -0.16495716281E+04  0.16495716281E+04  0.25500000920E-02 0.  1.
    10030    2    1    2    0    0  0.00000000000E+00  0.00000000000E+00 -0.19206564825E+03  0.31070776079E+04  0.31011356062E+04 0.  0.
        4    1    3    3  502    0 -0.10219344864E+04 -0.79344471401E+03  0.76021234862E+03  0.15006095550E+04  0.12699999809E+01 0. -1.
       -4    1    3    3    0  502  0.10219344864E+04  0.79344471401E+03 -0.95227799687E+03  0.16064680529E+04  0.12699999809E+01 0.  1.
</event>
<event>
 5   0  0.1318916E-07  0.3113207E+04  0.7818609E-02  0.8212123E-01
       -2   -1    0    0    0  501  0.00000000000E+00  0.00000000000E+00  0.15865846777E+04  0.15865846777E+04  0.25500000920E-02 0.  1.
        2   -1    0    0  501    0  0.00000000000E+00  0.00000000000E+00 -0.15271885962E+04  0.15271885962E+04  0.25500000920E-02 0. -1.
    10030    2    1    2    0    0  0.00000000000E+00  0.00000000000E+00  0.59396081413E+02  0.31137732739E+04  0.31132067241E+04 0.  0.
        5    1    3    3  502    0  0.14127031362E+04  0.64965233672E+03 -0.42520548910E+02  0.15555090475E+04  0.46999998093E+01 0. -1.
       -5    1    3    3    0  502 -0.14127031362E+04 -0.64965233672E+03  0.10191663032E+03  0.15582642264E+04  0.46999998093E+01 0.  1.
</event>
<event>
 5   0  0.1325713E-07  0.3097685E+04  0.7818609E-02  0.8216374E-01
       -2   -1    0    0    0  501  0.00000000000E+00  0.00000000000E+00  0.10130976683E+04  0.10130976683E+04  0.25500000920E-02 0. -1.
        2   -1    0    0  501    0  0.00000000000E+00  0.00000000000E+00 -0.23678990434E+04  0.23678990434E+04  0.25500000920E-02 0.  1.
    10030    2    1    2    0    0  0.00000000000E+00  0.00000000000E+00 -0.13548013751E+04  0.33809967117E+04  0.30976849418E+04 0.  0.
        4    1    3    3  502    0  0.11516614142E+02 -0.13387689136E+04  0.17259067090E+03  0.13498977699E+04  0.12699999809E+01 0. -1.
       -4    1    3    3    0  502 -0.11516614142E+02  0.13387689136E+04 -0.15273920460E+04  0.20310989418E+04  0.12699999809E+01 0.  1.
</event>
<event>
 5   0  0.1377237E-07  0.3100298E+04  0.7818609E-02  0.8215656E-01
        2   -1    0    0  501    0  0.00000000000E+00  0.00000000000E+00  0.13111975799E+04  0.13111975799E+04  0.25500000920E-02 0. -1.
       -2   -1    0    0    0  501  0.00000000000E+00  0.00000000000E+00 -0.18326469374E+04  0.18326469374E+04  0.25500000920E-02 0.  1.
    10030    2    1    2    0    0  0.00000000000E+00  0.00000000000E+00 -0.52144935749E+03  0.31438445173E+04  0.31002981980E+04 0.  0.
        2    1    3    3  502    0 -0.10557231286E+04 -0.11208238877E+04 -0.78860375804E+02  0.15417575913E+04  0.25500000920E-02 0.  1.
       -2    1    3    3    0  502  0.10557231286E+04  0.11208238877E+04 -0.44258898168E+03  0.16020869259E+04  0.25500000920E-02 0. -1.
</event>
<event>
 5   0  0.4517409E-08  0.3101938E+04  0.7818609E-02  0.8215206E-01
       -1   -1    0    0    0  501  0.00000000000E+00  0.00000000000E+00  0.13263164785E+04  0.13263164785E+04  0.50400001928E-02 0. -1.
        1   -1    0    0  501    0  0.00000000000E+00  0.00000000000E+00 -0.18136738993E+04  0.18136738993E+04  0.50400001928E-02 0.  1.
    10030    2    1    2    0    0  0.00000000000E+00  0.00000000000E+00 -0.48735742078E+03  0.31399903778E+04  0.31019384773E+04 0.  0.
        2    1    3    3  502    0 -0.41595210230E+03  0.13007330719E+04 -0.98794147287E+03  0.16855120971E+04  0.25500000920E-02 0.  1.
       -2    1    3    3    0  502  0.41595210230E+03 -0.13007330719E+04  0.50058405209E+03  0.14544782807E+04  0.25500000920E-02 0. -1.
</event>
<event>
 5   0  0.4470354E-08  0.3099696E+04  0.7818609E-02  0.8215821E-01
       -1   -1    0    0    0  501  0.00000000000E+00  0.00000000000E+00  0.10883608913E+04  0.10883608913E+04  0.50400001928E-02 0.  1.
        1   -1    0    0  501    0  0.00000000000E+00  0.00000000000E+00 -0.22070156477E+04  0.22070156477E+04  0.50400001928E-02 0. -1.
    10030    2    1    2    0    0  0.00000000000E+00  0.00000000000E+00 -0.11186547564E+04  0.32953765390E+04  0.30996964480E+04 0.  0.
        1    1    3    3  502    0 -0.45442346167E+03 -0.73968203299E+03 -0.19242784813E+04  0.21110371541E+04  0.50400001928E-02 0. -1.
       -1    1    3    3    0  502  0.45442346167E+03  0.73968203299E+03  0.80562372489E+03  0.11843393849E+04  0.50400001928E-02 0.  1.
</event>
<event>
 5   0  0.1398931E-07  0.3099330E+04  0.7818609E-02  0.8215922E-01
       -2   -1    0    0    0  501  0.00000000000E+00  0.00000000000E+00  0.82661515581E+03  0.82661515581E+03  0.25500000920E-02 0.  1.
        2   -1    0    0  501    0  0.00000000000E+00  0.00000000000E+00 -0.29051755877E+04  0.29051755877E+04  0.25500000920E-02 0. -1.
    10030    2    1    2    0    0  0.00000000000E+00  0.00000000000E+00 -0.20785604319E+04  0.37317907435E+04  0.30993303606E+04 0.  0.
        3    1    3    3  502    0  0.40411990028E+03  0.40641898872E+02 -0.28399481109E+04  0.28688447048E+04  0.10100000352E+00 0. -1.
       -3    1    3    3    0  502 -0.40411990028E+03 -0.40641898872E+02  0.76138767899E+03  0.86294603868E+03  0.10100000352E+00 0.  1.
</event>
<event>
 5   0  0.4470354E-08  0.3099542E+04  0.7818609E-02  0.8215864E-01
        1   -1    0    0  501    0  0.00000000000E+00  0.00000000000E+00  0.18374688730E+04  0.18374688730E+04  0.50400001928E-02 0.  1.
       -1   -1    0    0    0  501  0.00000000000E+00  0.00000000000E+00 -0.13071191682E+04  0.13071191682E+04  0.50400001928E-02 0. -1.
    10030    2    1    2    0    0  0.00000000000E+00  0.00000000000E+00  0.53034970480E+03  0.31445880412E+04  0.30995424081E+04 0.  0.
        1    1    3    3  502    0  0.15001359742E+04 -0.36738493953E+03  0.13520707731E+03  0.15503743382E+04  0.50400001928E-02 0. -1.
       -1    1    3    3    0  502 -0.15001359742E+04  0.36738493953E+03  0.39514262750E+03  0.15942137030E+04  0.50400001928E-02 0.  1.
</event>
<event>
 5   0  0.1377237E-07  0.3099524E+04  0.7818609E-02  0.8215869E-01
       -2   -1    0    0    0  501  0.00000000000E+00  0.00000000000E+00  0.13129104161E+04  0.13129104161E+04  0.25500000920E-02 0.  1.
        2   -1    0    0  501    0  0.00000000000E+00  0.00000000000E+00 -0.18293417049E+04  0.18293417050E+04  0.25500000920E-02 0. -1.
    10030    2    1    2    0    0  0.00000000000E+00  0.00000000000E+00 -0.51643128881E+03  0.31422521211E+04  0.30995236919E+04 0.  0.
        2    1    3    3  502    0 -0.57984441415E+03  0.96879962258E+03 -0.13344383591E+04  0.17480040010E+04  0.25500000920E-02 0. -1.
       -2    1    3    3    0  502  0.57984441415E+03 -0.96879962258E+03  0.81800707028E+03  0.13942481201E+04  0.25500000920E-02 0.  1.
</event>
<event>
 5   0  0.1318916E-07  0.3100289E+04  0.7818609E-02  0.8215659E-01
       -2   -1    0    0    0  501  0.00000000000E+00  0.00000000000E+00  0.11762152842E+04  0.11762152842E+04  0.25500000920E-02 0. -1.
        2   -1    0    0  501    0  0.00000000000E+00  0.00000000000E+00 -0.20429485621E+04  0.20429485621E+04  0.25500000920E-02 0.  1.
    10030    2    1    2    0    0  0.00000000000E+00  0.00000000000E+00 -0.86673327796E+03  0.32191638463E+04  0.31002885824E+04 0.  0.
        5    1    3    3  502    0  0.43107087521E+03 -0.14140904926E+04  0.50830119776E+02  0.14792159449E+04  0.46999998093E+01 0. -1.
       -5    1    3    3    0  502 -0.43107087521E+03  0.14140904926E+04 -0.91756339774E+03  0.17399479014E+04  0.46999998093E+01 0.  1.
</event>
<event>
 5   0  0.4436241E-08  0.3097939E+04  0.7818609E-02  0.8216304E-01
        1   -1    0    0  501    0  0.00000000000E+00  0.00000000000E+00  0.27235621064E+04  0.27235621064E+04  0.50400001928E-02 0. -1.
       -1   -1    0    0    0  501  0.00000000000E+00  0.00000000000E+00 -0.88094409944E+03  0.88094409945E+03  0.50400001928E-02 0.  1.
    10030    2    1    2    0    0  0.00000000000E+00  0.00000000000E+00  0.18426180070E+04  0.36045062059E+04  0.30979386483E+04 0.  0.
        3    1    3    3  502    0 -0.54615189978E+03  0.73962626837E+02 -0.76300225094E+03  0.94123579030E+03  0.10100000352E+00 0.  1.
       -3    1    3    3    0  502  0.54615189978E+03 -0.73962626837E+02  0.26056202579E+04  0.26632704156E+04  0.10100000352E+00 0. -1.
</event>
<event>
 5   0  0.4470354E-08  0.3099645E+04  0.7818609E-02  0.8215835E-01
       -1   -1    0    0    0  501  0.00000000000E+00  0.00000000000E+00  0.17898604283E+04  0.17898604283E+04  0.50400001928E-02 0.  1.
        1   -1    0    0  501    0  0.00000000000E+00  0.00000000000E+00 -0.13419764503E+04  0.13419764503E+04  0.50400001928E-02 0. -1.
    10030    2    1    2    0    0  0.00000000000E+00  0.00000000000E+00  0.44788397797E+03  0.31318368786E+04  0.30996454921E+04 0.  0.
        1    1    3    3  502    0  0.37316416410E+03 -0.11819051592E+04 -0.71620489088E+03  0.14314680382E+04  0.50400001928E-02 0. -1.
       -1    1    3    3    0  502 -0.37316416410E+03  0.11819051592E+04  0.11640888688E+04  0.17003688404E+04  0.50400001928E-02 0.  1.
</event>
<event>
 5   0  0.4838602E-08  0.3100080E+04  0.7818609E-02  0.8215716E-01
       -1   -1    0    0    0  501  0.00000000000E+00  0.00000000000E+00  0.12122769146E+04  0.12122769146E+04  0.50400001928E-02 0.  1.
        1   -1    0    0  501    0  0.00000000000E+00  0.00000000000E+00 -0.19819104502E+04  0.19819104502E+04  0.50400001928E-02 0. -1.
    10030    2    1    2    0    0  0.00000000000E+00  0.00000000000E+00 -0.76963353563E+03  0.31941873648E+04  0.31000801832E+04 0.  0.
        5    1    3    3  502    0  0.40506065090E+03  0.14010088243E+03 -0.19196327281E+04  0.19669047483E+04  0.46999998093E+01 0. -1.
       -5    1    3    3    0  502 -0.40506065090E+03 -0.14010088243E+03  0.11499991924E+04  0.12272826165E+04  0.46999998093E+01 0.  1.
</event>
<event>
 5   0  0.4305500E-08  0.3095461E+04  0.7818609E-02  0.8216985E-01
       -3   -1    0    0    0  501  0.00000000000E+00  0.00000000000E+00  0.89523513665E+03  0.89523514235E+03  0.10100000352E+00 0. -1.
        3   -1    0    0  501    0  0.00000000000E+00  0.00000000000E+00 -0.26757986794E+04  0.26757986814E+04  0.10100000352E+00 0.  1.
    10030    2    1    2    0    0  0.00000000000E+00  0.00000000000E+00 -0.17805635428E+04  0.35710338237E+04  0.30954605538E+04 0.  0.
        3    1    3    3  502    0  0.47915102739E+03  0.36436867605E+03 -0.25352217794E+04  0.26057052251E+04  0.10100000352E+00 0.  1.
       -3    1    3    3    0  502 -0.47915102739E+03 -0.36436867605E+03  0.75465823657E+03  0.96532859864E+03  0.10100000352E+00 0. -1.
</event>
<event>
 5   0  0.4436241E-08  0.3097008E+04  0.7818609E-02  0.8216559E-01
       -1   -1    0    0    0  501  0.00000000000E+00  0.00000000000E+00  0.10945426106E+04  0.10945426106E+04  0.50400001928E-02 0. -1.
        1   -1    0    0  501    0  0.00000000000E+00  0.00000000000E+00 -0.21907461770E+04  0.21907461770E+04  0.50400001928E-02 0.  1.
    10030    2    1    2    0    0  0.00000000000E+00  0.00000000000E+00 -0.10962035664E+04  0.32852887876E+04  0.30970082594E+04 0.  0.
        3    1    3    3  502    0 -0.75099328434E+03 -0.72271010606E+03 -0.17629610420E+04  0.20480069474E+04  0.10100000352E+00 0.  1.
       -3    1    3    3    0  502  0.75099328434E+03  0.72271010606E+03  0.66675747567E+03  0.12372818402E+04  0.10100000352E+00 0. -1.
</event>
<event>
 5   0  0.1318916E-07  0.3099883E+04  0.7818609E-02  0.8215770E-01
        2   -1    0    0  501    0  0.00000000000E+00  0.00000000000E+00  0.21584942937E+04  0.21584942937E+04  0.25500000920E-02 0.  1.
       -2   -1    0    0    0  501  0.00000000000E+00  0.00000000000E+00 -0.11129601902E+04  0.11129601903E+04  0.25500000920E-02 0. -1.
    10030    2    1    2    0    0  0.00000000000E+00  0.00000000000E+00  0.10455341034E+04  0.32714544839E+04  0.30998827202E+04 0.  0.
        5    1    3    3  502    0  0.85678430694E+03  0.12757566460E+04  0.30995867824E+03  0.15677151657E+04  0.46999998093E+01 0. -1.
       -5    1    3    3    0  502 -0.85678430694E+03 -0.12757566460E+04  0.73557542518E+03  0.17037393183E+04  0.46999998093E+01 0.  1.
</event>
<event>
 5   0  0.4305500E-08  0.3099702E+04  0.7818609E-02  0.8215820E-01
       -3   -1    0    0    0  501  0.00000000000E+00  0.00000000000E+00  0.14996542970E+04  0.14996543004E+04  0.10100000352E+00 0. -1.
        3   -1    0    0  501    0  0.00000000000E+00  0.00000000000E+00 -0.16017274856E+04  0.16017274888E+04  0.10100000352E+00 0.  1.
    10030    2    1    2    0    0  0.00000000000E+00  0.00000000000E+00 -0.10207318855E+03  0.31013817892E+04  0.30997016093E+04 0.  0.
        1    1    3    3  502    0 -0.44231047661E+03 -0.10374713935E+04  0.10125786926E+04  0.15156850130E+04  0.50400001928E-02 0. -1.
       -1    1    3    3    0  502  0.44231047661E+03  0.10374713935E+04 -0.11146518811E+04  0.15856967762E+04  0.50400001928E-02 0.  1.
</event>
<event>
 5   0  0.1318916E-07  0.3100307E+04  0.7818609E-02  0.8215654E-01
        2   -1    0    0  501    0  0.00000000000E+00  0.00000000000E+00  0.20389775946E+04  0.20389775946E+04  0.25500000920E-02 0. -1.
       -2   -1    0    0    0  501  0.00000000000E+00  0.00000000000E+00 -0.11785198302E+04  0.11785198302E+04  0.25500000920E-02 0.  1.
    10030    2    1    2    0    0  0.00000000000E+00  0.00000000000E+00  0.86045776438E+03  0.32174974248E+04  0.31003067774E+04 0.  0.
        5    1    3    3  502    0  0.26242626263E+03  0.77834009250E+03 -0.93410184423E+03  0.12438847166E+04  0.46999998093E+01 0.  1.
       -5    1    3    3    0  502 -0.26242626263E+03 -0.77834009250E+03  0.17945596086E+04  0.19736127081E+04  0.46999998093E+01 0. -1.
</event>
<event>
 5   0  0.4470354E-08  0.3099691E+04  0.7818609E-02  0.8215823E-01
        1   -1    0    0  501    0  0.00000000000E+00  0.00000000000E+00  0.15063271373E+04  0.15063271373E+04  0.50400001928E-02 0.  1.
       -1   -1    0    0    0  501  0.00000000000E+00  0.00000000000E+00 -0.15946209024E+04  0.15946209024E+04  0.50400001928E-02 0. -1.
    10030    2    1    2    0    0  0.00000000000E+00  0.00000000000E+00 -0.88293765071E+02  0.31009480398E+04  0.30996907840E+04 0.  0.
        1    1    3    3  502    0 -0.65138037229E+03 -0.13108781495E+04 -0.55359092812E+03  0.15649794977E+04  0.50400001928E-02 0. -1.
       -1    1    3    3    0  502  0.65138037229E+03  0.13108781495E+04  0.46529716305E+03  0.15359685421E+04  0.50400001928E-02 0.  1.
</event>
<event>
 5   0  0.4838602E-08  0.3100503E+04  0.7818609E-02  0.8215600E-01
       -1   -1    0    0    0  501  0.00000000000E+00  0.00000000000E+00  0.17706052809E+04  0.17706052809E+04  0.50400001928E-02 0. -1.
        1   -1    0    0  501    0  0.00000000000E+00  0.00000000000E+00 -0.13573209779E+04  0.13573209779E+04  0.50400001928E-02 0.  1.
    10030    2    1    2    0    0  0.00000000000E+00  0.00000000000E+00  0.41328430298E+03  0.31279262588E+04  0.31005029859E+04 0.  0.
        5    1    3    3  502    0  0.22869433668E+03  0.10530909301E+04 -0.91764553995E+03  0.14154140856E+04  0.46999998093E+01 0.  1.
       -5    1    3    3    0  502 -0.22869433668E+03 -0.10530909301E+04  0.13309298429E+04  0.17125121732E+04  0.46999998093E+01 0. -1.
</event>
<event>
 5   0  0.1398931E-07  0.3100542E+04  0.7818609E-02  0.8215589E-01
       -2   -1    0    0    0  501  0.00000000000E+00  0.00000000000E+00  0.96870938989E+03  0.96870938990E+03  0.25500000920E-02 0. -1.
        2   -1    0    0  501    0  0.00000000000E+00  0.00000000000E+00 -0.24809708882E+04  0.24809708882E+04  0.25500000920E-02 0.  1.
    10030    2    1    2    0    0  0.00000000000E+00  0.00000000000E+00 -0.15122614983E+04  0.34496802781E+04  0.31005417562E+04 0.  0.
        3    1    3    3  502    0  0.12523670988E+03  0.98492575124E+03 -0.20808216776E+04  0.23055545609E+04  0.10100000352E+00 0.  1.
       -3    1    3    3    0  502 -0.12523670988E+03 -0.98492575124E+03  0.56856017935E+03  0.11441257172E+04  0.10100000352E+00 0. -1.
</event>
<event>
 5   0  0.1318916E-07  0.3098687E+04  0.7818609E-02  0.8216098E-01
       -2   -1    0    0    0  501  0.00000000000E+00  0.00000000000E+00  0.12666010272E+04  0.12666010272E+04  0.25500000920E-02 0. -1.
        2   -1    0    0  501    0  0.00000000000E+00  0.00000000000E+00 -0.18952028496E+04  0.18952028496E+04  0.25500000920E-02 0.  1.
    10030    2    1    2    0    0  0.00000000000E+00  0.00000000000E+00 -0.62860182237E+03  0.31618038768E+04  0.30986873841E+04 0.  0.
        5    1    3    3  502    0 -0.86525860960E+02  0.14641093524E+04 -0.82381229913E+03  0.16821984765E+04  0.46999998093E+01 0. -1.
       -5    1    3    3    0  502  0.86525860960E+02 -0.14641093524E+04  0.19521047675E+03  0.14796054003E+04  0.46999998093E+01 0.  1.
</event>
<event>
 5   0  0.4305500E-08  0.3100814E+04  0.7818609E-02  0.8215514E-01
       -3   -1    0    0    0  501  0.00000000000E+00  0.00000000000E+00  0.22798136601E+04  0.22798136624E+04  0.10100000352E+00 0. -1.
        3   -1    0    0  501    0  0.00000000000E+00  0.00000000000E+00 -0.10543679636E+04  0.10543679684E+04  0.10100000352E+00 0.  1.
    10030    2    1    2    0    0  0.00000000000E+00  0.00000000000E+00  0.12254456966E+04  0.33341816308E+04  0.31008144078E+04 0.  0.
        5    1    3    3  502    0  0.11140994583E+04  0.97935250842E+03  0.10976537364E+04  0.18453223984E+04  0.46999998093E+01 0. -1.
       -5    1    3    3    0  502 -0.11140994583E+04 -0.97935250842E+03  0.12779196013E+03  0.14888592324E+04  0.46999998093E+01 0.  1.
</event>
<event>
 5   0  0.1325713E-07  0.3099910E+04  0.7818609E-02  0.8215763E-01
        2   -1    0    0  501    0  0.00000000000E+00  0.00000000000E+00  0.26315526684E+04  0.26315526684E+04  0.25500000920E-02 0.  1.
       -2   -1    0    0    0  501  0.00000000000E+00  0.00000000000E+00 -0.91290596892E+03  0.91290596893E+03  0.25500000920E-02 0. -1.
    10030    2    1    2    0    0  0.00000000000E+00  0.00000000000E+00  0.17186466995E+04  0.35444586373E+04  0.30999097655E+04 0.  0.
        4    1    3    3  502    0  0.51736394847E+03 -0.68676283047E+03 -0.61520626249E+03  0.10572554085E+04  0.12699999809E+01 0. -1.
       -4    1    3    3    0  502 -0.51736394847E+03  0.68676283047E+03  0.23338529620E+04  0.24872032288E+04  0.12699999809E+01 0.  1.
</event>
<event>
 5   0  0.4436241E-08  0.3100867E+04  0.7818609E-02  0.8215500E-01
       -1   -1    0    0    0  501  0.00000000000E+00  0.00000000000E+00  0.10150008605E+04  0.10150008605E+04  0.50400001928E-02 0. -1.
        1   -1    0    0  501    0  0.00000000000E+00  0.00000000000E+00 -0.23683173580E+04  0.23683173580E+04  0.50400001928E-02 0.  1.
    10030    2    1    2    0    0  0.00000000000E+00  0.00000000000E+00 -0.13533164975E+04  0.33833182186E+04  0.31008670764E+04 0.  0.
        3    1    3    3  502    0 -0.36133114177E+02  0.17844703935E+03 -0.23566128960E+04  0.23636356105E+04  0.10100000352E+00 0.  1.
       -3    1    3    3    0  502  0.36133114177E+02 -0.17844703935E+03  0.10032963984E+04  0.10196826080E+04  0.10100000352E+00 0. -1.
</event>
<event>
 5   0  0.4450600E-08  0.3100198E+04  0.7818609E-02  0.8215684E-01
       -1   -1    0    0    0  501  0.00000000000E+00  0.00000000000E+00  0.10954886777E+04  0.10954886777E+04  0.50400001928E-02 0.  1.
        1   -1    0    0  501    0  0.00000000000E+00  0.00000000000E+00 -0.21933652139E+04  0.21933652139E+04  0.50400001928E-02 0. -1.
    10030    2    1    2    0    0  0.00000000000E+00  0.00000000000E+00 -0.10978765362E+04  0.32888538915E+04  0.31001979019E+04 0.  0.
        4    1    3    3  502    0  0.19213224825E+03  0.13700737096E+04 -0.12906166082E+04  0.18920120541E+04  0.12699999809E+01 0. -1.
       -4    1    3    3    0  502 -0.19213224825E+03 -0.13700737096E+04  0.19274007198E+03  0.13968418374E+04  0.12699999809E+01 0.  1.
</event>
<event>
 5   0  0.4450600E-08  0.3106001E+04  0.7818609E-02  0.8214093E-01
        1   -1    0    0  501    0  0.00000000000E+00  0.00000000000E+00  0.15385906677E+04  0.15385906677E+04  0.50400001928E-02 0.  1.
       -1   -1    0    0    0  501  0.00000000000E+00  0.00000000000E+00 -0.15675457184E+04  0.15675457184E+04  0.50400001928E-02 0. -1.
    10030    2    1    2    0    0  0.00000000000E+00  0.00000000000E+00 -0.28955050643E+02  0.31061363861E+04  0.31060014254E+04 0.  0.
        4    1    3    3  502    0  0.41462322919E+03 -0.14734854022E+04  0.24771309565E+03  0.15506240819E+04  0.12699999809E+01 0.  1.
       -4    1    3    3    0  502 -0.41462322919E+03  0.14734854022E+04 -0.27666814630E+03  0.15555123043E+04  0.12699999809E+01 0. -1.
</event>
<event>
 5   0  0.4450600E-08  0.3099884E+04  0.7818609E-02  0.8215770E-01
       -1   -1    0    0    0  501  0.00000000000E+00  0.00000000000E+00  0.11853602363E+04  0.11853602363E+04  0.50400001928E-02 0. -1.
        1   -1    0    0  501    0  0.00000000000E+00  0.00000000000E+00 -0.20266585824E+04  0.20266585824E+04  0.50400001928E-02 0.  1.
    10030    2    1    2    0    0  0.00000000000E+00  0.00000000000E+00 -0.84129834608E+03  0.32120188187E+04  0.30998841889E+04 0.  0.
        4    1    3    3  502    0  0.12361637182E+03 -0.90172677446E+03  0.87929548449E+03  0.12655253238E+04  0.12699999809E+01 0. -1.
       -4    1    3    3    0  502 -0.12361637182E+03  0.90172677446E+03 -0.17205938306E+04  0.19464934949E+04  0.12699999809E+01 0.  1.
</event>
<event>
 5   0  0.4470354E-08  0.3099482E+04  0.7818609E-02  0.8215880E-01
        1   -1    0    0  501    0  0.00000000000E+00  0.00000000000E+00  0.18144915552E+04  0.18144915552E+04  0.50400001928E-02 0.  1.
       -1   -1    0    0    0  501  0.00000000000E+00  0.00000000000E+00 -0.13236198047E+04  0.13236198047E+04  0.50400001928E-02 0. -1.
    10030    2    1    2    0    0  0.00000000000E+00  0.00000000000E+00  0.49087175052E+03  0.31381113599E+04  0.30994818651E+04 0.  0.
        1    1    3    3  502    0 -0.18487656961E+03  0.48179941203E+03 -0.12340728896E+04  0.13376269721E+04  0.50400001928E-02 0. -1.
       -1    1    3    3    0  502  0.18487656961E+03 -0.48179941203E+03  0.17249446401E+04  0.18004843879E+04  0.50400001928E-02 0.  1.
</event>
<event>
 5   0  0.4838602E-08  0.3099788E+04  0.7818609E-02  0.8215796E-01
       -1   -1    0    0    0  501  0.00000000000E+00  0.00000000000E+00  0.12243266141E+04  0.12243266141E+04  0.50400001928E-02 0. -1.
        1   -1    0    0  501    0  0.00000000000E+00  0.00000000000E+00 -0.19620351140E+04  0.19620351141E+04  0.50400001928E-02 0.  1.
    10030    2    1    2    0    0  0.00000000000E+00  0.00000000000E+00 -0.73770849995E+03  0.31863617282E+04  0.30997882560E+04 0.  0.
        5    1    3    3  502    0  0.83267401849E+03  0.33194015603E+03  0.93082322480E+03  0.12922787060E+04  0.46999998093E+01 0. -1.
       -5    1    3    3    0  502 -0.83267401849E+03 -0.33194015603E+03 -0.16685317247E+04  0.18940830221E+04  0.46999998093E+01 0.  1.
</event>
<event>
 5   0  0.1325713E-07  0.3098820E+04  0.7818609E-02  0.8216062E-01
        2   -1    0    0  501    0  0.00000000000E+00  0.00000000000E+00  0.18597629137E+04  0.18597629137E+04  0.25500000920E-02 0. -1.
       -2   -1    0    0    0  501  0.00000000000E+00  0.00000000000E+00 -0.12908481235E+04  0.12908481235E+04  0.25500000920E-02 0.  1.
    10030    2    1    2    0    0  0.00000000000E+00  0.00000000000E+00  0.56891479021E+03  0.31506110371E+04  0.30988200769E+04 0.  0.
        4    1    3    3  502    0  0.34219274542E+03 -0.57891287238E+03 -0.11347349623E+04  0.13190379207E+04  0.12699999809E+01 0.  1.
       -4    1    3    3    0  502 -0.34219274542E+03  0.57891287238E+03  0.17036497525E+04  0.18315731164E+04  0.12699999809E+01 0. -1.
</event>
<event>
 5   0  0.4838602E-08  0.3099296E+04  0.7818609E-02  0.8215931E-01
       -1   -1    0    0    0  501  0.00000000000E+00  0.00000000000E+00  0.10633675144E+04  0.10633675144E+04  0.50400001928E-02 0. -1.
        1   -1    0    0  501    0  0.00000000000E+00  0.00000000000E+00 -0.22583062224E+04  0.22583062224E+04  0.50400001928E-02 0.  1.
    10030    2    1    2    0    0  0.00000000000E+00  0.00000000000E+00 -0.11949387080E+04  0.33216737368E+04  0.30992963553E+04 0.  0.
        5    1    3    3  502    0 -0.11831641535E+04 -0.42919589864E+03  0.37144377937E+03  0.13122801167E+04  0.46999998093E+01 0. -1.
       -5    1    3    3    0  502  0.11831641535E+04  0.42919589864E+03 -0.15663824874E+04  0.20093936201E+04  0.46999998093E+01 0.  1.
</event>
<event>
 5   0  0.1325713E-07  0.3100294E+04  0.7818609E-02  0.8215657E-01
        2   -1    0    0  501    0  0.00000000000E+00  0.00000000000E+00  0.20743873857E+04  0.20743873857E+04  0.25500000920E-02 0. -1.
       -2   -1    0    0    0  501  0.00000000000E+00  0.00000000000E+00 -0.11583932405E+04  0.11583932405E+04  0.25500000920E-02 0.  1.
    10030    2    1    2    0    0  0.00000000000E+00  0.00000000000E+00  0.91599414518E+03  0.32327806262E+04  0.31002943898E+04 0.  0.
        4    1    3    3  502    0  0.53705896175E+03  0.12811087003E+04  0.11753513612E+04  0.18196494898E+04  0.12699999809E+01 0. -1.
       -4    1    3    3    0  502 -0.53705896175E+03 -0.12811087003E+04 -0.25935721603E+03  0.14131311365E+04  0.12699999809E+01 0.  1.
</event>
<event>
 5   0  0.4470354E-08  0.3099740E+04  0.7818609E-02  0.8215809E-01
       -1   -1    0    0    0  501  0.00000000000E+00  0.00000000000E+00  0.16856804630E+04  0.16856804630E+04  0.50400001928E-02 0.  1.
        1   -1    0    0  501    0  0.00000000000E+00  0.00000000000E+00 -0.14250018311E+04  0.14250018311E+04  0.50400001928E-02 0. -1.
    10030    2    1    2    0    0  0.00000000000E+00  0.00000000000E+00  0.26067863189E+03  0.31106822942E+04  0.30997404708E+04 0.  0.
        1    1    3    3  502    0  0.35151743873E+03 -0.38837646214E+03  0.15941510030E+04  0.16780101926E+04  0.50400001928E-02 0.  1.
       -1    1    3    3    0  502 -0.35151743873E+03  0.38837646214E+03 -0.13334723711E+04  0.14326721016E+04  0.50400001928E-02 0. -1.
</event>
<event>
 5   0  0.1329777E-07  0.3109212E+04  0.7818609E-02  0.8213214E-01
       -2   -1    0    0    0  501  0.00000000000E+00  0.00000000000E+00  0.16508414318E+04  0.16508414318E+04  0.25500000920E-02 0.  1.
        2   -1    0    0  501    0  0.00000000000E+00  0.00000000000E+00 -0.14639810122E+04  0.14639810122E+04  0.25500000920E-02 0. -1.
    10030    2    1    2    0    0  0.00000000000E+00  0.00000000000E+00  0.18686041956E+03  0.31148224440E+04  0.31092124471E+04 0.  0.
        1    1    3    3  502    0 -0.11088506881E+04 -0.10259590959E+04  0.46105089282E+03  0.15794650489E+04  0.50400001928E-02 0.  1.
       -1    1    3    3    0  502  0.11088506881E+04  0.10259590959E+04 -0.27419047326E+03  0.15353573951E+04  0.50400001928E-02 0. -1.
</event>
<event>
 5   0  0.4436241E-08  0.3101765E+04  0.7818609E-02  0.8215254E-01
        1   -1    0    0  501    0  0.00000000000E+00  0.00000000000E+00  0.19326234077E+04  0.19326234077E+04  0.50400001928E-02 0. -1.
       -1   -1    0    0    0  501  0.00000000000E+00  0.00000000000E+00 -0.12445448680E+04  0.12445448680E+04  0.50400001928E-02 0.  1.
    10030    2    1    2    0    0  0.00000000000E+00  0.00000000000E+00  0.68807853970E+03  0.31771682757E+04  0.31017650097E+04 0.  0.
        3    1    3    3  502    0  0.10913740913E+04  0.10106069114E+04 -0.10573981080E+03  0.14911755947E+04  0.10100000352E+00 0.  1.
       -3    1    3    3    0  502 -0.10913740913E+04 -0.10106069114E+04  0.79381835050E+03  0.16859926810E+04  0.10100000352E+00 0. -1.
</event>
<event>
 5   0  0.1377237E-07  0.3102053E+04  0.7818609E-02  0.8215175E-01
       -2   -1    0    0    0  501  0.00000000000E+00  0.00000000000E+00  0.10847419315E+04  0.10847419315E+04  0.25500000920E-02 0. -1.
        2   -1    0    0  501    0  0.00000000000E+00  0.00000000000E+00 -0.22177475969E+04  0.22177475969E+04  0.25500000920E-02 0.  1.
    10030    2    1    2    0    0  0.00000000000E+00  0.00000000000E+00 -0.11330056653E+04  0.33024895284E+04  0.31020533921E+04 0.  0.
        2    1    3    3  502    0 -0.11513040748E+04  0.98337172641E+03 -0.92463555000E+03  0.17741115876E+04  0.25500000920E-02 0. -1.
       -2    1    3    3    0  502  0.11513040748E+04 -0.98337172641E+03 -0.20837011534E+03  0.15283779408E+04  0.25500000920E-02 0.  1.
</event>
<event>
 5   0  0.4470354E-08  0.3100814E+04  0.7818609E-02  0.8215515E-01
        1   -1    0    0  501    0  0.00000000000E+00  0.00000000000E+00  0.14145293112E+04  0.14145293112E+04  0.50400001928E-02 0.  1.
       -1   -1    0    0    0  501  0.00000000000E+00  0.00000000000E+00 -0.16993368449E+04  0.16993368449E+04  0.50400001928E-02 0. -1.
    10030    2    1    2    0    0  0.00000000000E+00  0.00000000000E+00 -0.28480753373E+03  0.31138661561E+04  0.31008139427E+04 0.  0.
        1    1    3    3  502    0  0.76473823606E+02  0.81360076633E+03 -0.14655108860E+04  0.16779501214E+04  0.50400001928E-02 0. -1.
       -1    1    3    3    0  502 -0.76473823606E+02 -0.81360076633E+03  0.11807033523E+04  0.14359160348E+04  0.50400001928E-02 0.  1.
</event>
<event>
 5   0  0.4436241E-08  0.3098821E+04  0.7818609E-02  0.8216061E-01
       -1   -1    0    0    0  501  0.00000000000E+00  0.00000000000E+00  0.16677513238E+04  0.16677513239E+04  0.50400001928E-02 0. -1.
        1   -1    0    0  501    0  0.00000000000E+00  0.00000000000E+00 -0.14394671095E+04  0.14394671095E+04  0.50400001928E-02 0.  1.
    10030    2    1    2    0    0  0.00000000000E+00  0.00000000000E+00  0.22828421434E+03  0.31072184334E+04  0.30988211807E+04 0.  0.
        3    1    3    3  502    0  0.64314140299E+03 -0.98708881424E+03 -0.89491382489E+03  0.14794748919E+04  0.10100000352E+00 0.  1.
       -3    1    3    3    0  502 -0.64314140299E+03  0.98708881424E+03  0.11231980392E+04  0.16277435415E+04  0.10100000352E+00 0. -1.
</event>
<event>
 5   0  0.4470354E-08  0.3098917E+04  0.7818609E-02  0.8216035E-01
        1   -1    0    0  501    0  0.00000000000E+00  0.00000000000E+00  0.12577099110E+04  0.12577099110E+04  0.50400001928E-02 0. -1.
       -1   -1    0    0    0  501  0.00000000000E+00  0.00000000000E+00 -0.19088830117E+04  0.19088830117E+04  0.50400001928E-02 0.  1.
    10030    2    1    2    0    0  0.00000000000E+00  0.00000000000E+00 -0.65117310070E+03  0.31665929227E+04  0.30989166383E+04 0.  0.
        1    1    3    3  502    0  0.14963576921E+04 -0.34912616894E+03 -0.52955962676E+03  0.16252411583E+04  0.50400001928E-02 0. -1.
       -1    1    3    3    0  502 -0.14963576921E+04  0.34912616894E+03 -0.12161347395E+03  0.15413517644E+04  0.50400001928E-02 0.  1.
</event>
<event>
 5   0  0.1318916E-07  0.3100331E+04  0.7818609E-02  0.8215647E-01
       -2   -1    0    0    0  501  0.00000000000E+00  0.00000000000E+00  0.10780014877E+04  0.10780014877E+04  0.25500000920E-02 0. -1.
        2   -1    0    0  501    0  0.00000000000E+00  0.00000000000E+00 -0.22291374932E+04  0.22291374932E+04  0.25500000920E-02 0.  1.
    10030    2    1    2    0    0  0.00000000000E+00  0.00000000000E+00 -0.11511360055E+04  0.33071389809E+04  0.31003312945E+04 0.  0.
        5    1    3    3  502    0 -0.14695396981E+04 -0.19753228760E+03 -0.93273965621E+02  0.14856944678E+04  0.46999998093E+01 0. -1.
       -5    1    3    3    0  502  0.14695396981E+04  0.19753228760E+03 -0.10578620399E+04  0.18214445131E+04  0.46999998093E+01 0.  1.
</event>
<event>
 5   0  0.1398931E-07  0.3100419E+04  0.7818609E-02  0.8215623E-01
        2   -1    0    0  501    0  0.00000000000E+00  0.00000000000E+00  0.16258274437E+04  0.16258274437E+04  0.25500000920E-02 0. -1.
       -2   -1    0    0    0  501  0.00000000000E+00  0.00000000000E+00 -0.14781087691E+04  0.14781087691E+04  0.25500000920E-02 0.  1.
    10030    2    1    2    0    0  0.00000000000E+00  0.00000000000E+00  0.14771867453E+03  0.31039362128E+04  0.31004191985E+04 0.  0.
        3    1    3    3  502    0  0.10343821922E+04  0.65907587541E+03 -0.87527848637E+03  0.15067979187E+04  0.10100000352E+00 0.  1.
       -3    1    3    3    0  502 -0.10343821922E+04 -0.65907587541E+03  0.10229971609E+04  0.15971382941E+04  0.10100000352E+00 0. -1.
</event>
<event>
 5   0  0.1329777E-07  0.3110152E+04  0.7818609E-02  0.8212957E-01
        2   -1    0    0  501    0  0.00000000000E+00  0.00000000000E+00  0.93649284002E+03  0.93649284002E+03  0.25500000920E-02 0.  1.
       -2   -1    0    0    0  501  0.00000000000E+00  0.00000000000E+00 -0.25822529827E+04  0.25822529827E+04  0.25500000920E-02 0. -1.
    10030    2    1    2    0    0  0.00000000000E+00  0.00000000000E+00 -0.16457601426E+04  0.35187458227E+04  0.31101520409E+04 0.  0.
        1    1    3    3  502    0  0.79440191032E+03 -0.11317338481E+04 -0.17801357567E+02  0.13828278224E+04  0.50400001928E-02 0.  1.
       -1    1    3    3    0  502 -0.79440191032E+03  0.11317338481E+04 -0.16279587851E+04  0.21359180003E+04  0.50400001928E-02 0. -1.
</event>
<event>
 5   0  0.4517409E-08  0.3101101E+04  0.7818609E-02  0.8215436E-01
        1   -1    0    0  501    0  0.00000000000E+00  0.00000000000E+00  0.10836691511E+04  0.10836691511E+04  0.50400001928E-02 0. -1.
       -1   -1    0    0    0  501  0.00000000000E+00  0.00000000000E+00 -0.22185804942E+04  0.22185804942E+04  0.50400001928E-02 0.  1.
    10030    2    1    2    0    0  0.00000000000E+00  0.00000000000E+00 -0.11349113431E+04  0.33022496452E+04  0.31011012500E+04 0.  0.
        2    1    3    3  502    0 -0.87357353327E+03 -0.50991836737E+03  0.68395598268E+03  0.12210418689E+04  0.25500000920E-02 0. -1.
       -2    1    3    3    0  502  0.87357353327E+03  0.50991836737E+03 -0.18188673258E+04  0.20812077763E+04  0.25500000920E-02 0.  1.
</event>
<event>
 5   0  0.4470354E-08  0.3103886E+04  0.7818609E-02  0.8214672E-01
       -1   -1    0    0    0  501  0.00000000000E+00  0.00000000000E+00  0.19174317055E+04  0.19174317055E+04  0.50400001928E-02 0.  1.
        1   -1    0    0  501    0  0.00000000000E+00  0.00000000000E+00 -0.12561216817E+04  0.12561216817E+04  0.50400001928E-02 0. -1.
    10030    2    1    2    0    0  0.00000000000E+00  0.00000000000E+00  0.66131002378E+03  0.31735533872E+04  0.31038862985E+04 0.  0.
        1    1    3    3  502    0  0.21402013147E+03 -0.14702117724E+04  0.78927637420E+03  0.16823449312E+04  0.50400001928E-02 0.  1.
       -1    1    3    3    0  502 -0.21402013147E+03  0.14702117724E+04 -0.12796635042E+03  0.14912084560E+04  0.50400001928E-02 0. -1.
</event>
<event>
 5   0  0.1318916E-07  0.3100365E+04  0.7818609E-02  0.8215638E-01
       -2   -1    0    0    0  501  0.00000000000E+00  0.00000000000E+00  0.18046352805E+04  0.18046352805E+04  0.25500000920E-02 0. -1.
        2   -1    0    0  501    0  0.00000000000E+00  0.00000000000E+00 -0.13316077700E+04  0.13316077700E+04  0.25500000920E-02 0.  1.
    10030    2    1    2    0    0  0.00000000000E+00  0.00000000000E+00  0.47302751049E+03  0.31362430506E+04  0.31003653731E+04 0.  0.
        5    1    3    3  502    0  0.10006292344E+04 -0.48809111407E+03  0.13276772314E+04  0.17326975273E+04  0.46999998093E+01 0.  1.
       -5    1    3    3    0  502 -0.10006292344E+04  0.48809111407E+03 -0.85464972092E+03  0.14035455233E+04  0.46999998093E+01 0. -1.
</event>
<event>
 5   0  0.4838602E-08  0.3099516E+04  0.7818609E-02  0.8215871E-01
       -1   -1    0    0    0  501  0.00000000000E+00  0.00000000000E+00  0.10757231050E+04  0.10757231050E+04  0.50400001928E-02 0.  1.
        1   -1    0    0  501    0  0.00000000000E+00  0.00000000000E+00 -0.22326845785E+04  0.22326845785E+04  0.50400001928E-02 0. -1.
    10030    2    1    2    0    0  0.00000000000E+00  0.00000000000E+00 -0.11569614735E+04  0.33084076835E+04  0.30995163411E+04 0.  0.
        5    1    3    3  502    0 -0.11245684653E+04 -0.10634517785E+04 -0.66214964095E+03  0.16834631435E+04  0.46999998093E+01 0.  1.
       -5    1    3    3    0  502  0.11245684653E+04  0.10634517785E+04 -0.49481183254E+03  0.16249445400E+04  0.46999998093E+01 0. -1.
</event>
<event>
 5   0  0.4450600E-08  0.3099926E+04  0.7818609E-02  0.8215758E-01
       -1   -1    0    0    0  501  0.00000000000E+00  0.00000000000E+00  0.15411496824E+04  0.15411496824E+04  0.50400001928E-02 0.  1.
        1   -1    0    0  501    0  0.00000000000E+00  0.00000000000E+00 -0.15588270961E+04  0.15588270961E+04  0.50400001928E-02 0. -1.
    10030    2    1    2    0    0  0.00000000000E+00  0.00000000000E+00 -0.17677413649E+02  0.30999767785E+04  0.30999263759E+04 0.  0.
        4    1    3    3  502    0  0.21836041985E+03  0.62401549112E+03 -0.14107558137E+04  0.15579827293E+04  0.12699999809E+01 0. -1.
       -4    1    3    3    0  502 -0.21836041985E+03 -0.62401549112E+03  0.13930784000E+04  0.15419940492E+04  0.12699999809E+01 0.  1.
</event>
<event>
 5   0  0.1318916E-07  0.3100017E+04  0.7818609E-02  0.8215733E-01
        2   -1    0    0  501    0  0.00000000000E+00  0.00000000000E+00  0.17867768305E+04  0.17867768305E+04  0.25500000920E-02 0.  1.
       -2   -1    0    0    0  501  0.00000000000E+00  0.00000000000E+00 -0.13446145023E+04  0.13446145023E+04  0.25500000920E-02 0. -1.
    10030    2    1    2    0    0  0.00000000000E+00  0.00000000000E+00  0.44216232825E+03  0.31313913328E+04  0.31000167990E+04 0.  0.
        5    1    3    3  502    0  0.11285406995E+03  0.13259794242E+04  0.10238231071E+04  0.16790453595E+04  0.46999998093E+01 0.  1.
       -5    1    3    3    0  502 -0.11285406995E+03 -0.13259794242E+04 -0.58166077880E+03  0.14523459733E+04  0.46999998093E+01 0. -1.
</event>
<event>
 5   0  0.4305500E-08  0.3102107E+04  0.7818609E-02  0.8215160E-01
        3   -1    0    0  501    0  0.00000000000E+00  0.00000000000E+00  0.16462820410E+04  0.16462820441E+04  0.10100000352E+00 0. -1.
       -3   -1    0    0    0  501  0.00000000000E+00  0.00000000000E+00 -0.14613330701E+04  0.14613330736E+04  0.10100000352E+00 0.  1.
    10030    2    1    2    0    0  0.00000000000E+00  0.00000000000E+00  0.18494897098E+03  0.31076151177E+04  0.31021066387E+04 0.  0.
        4    1    3    3  502    0 -0.16468006565E+03 -0.34831775109E+03 -0.14126314477E+04  0.14642315390E+04  0.12699999809E+01 0.  1.
       -4    1    3    3    0  502  0.16468006565E+03  0.34831775109E+03  0.15975804187E+04  0.16433835787E+04  0.12699999809E+01 0. -1.
</event>
<event>
 5   0  0.1318916E-07  0.3098881E+04  0.7818609E-02  0.8216045E-01
        2   -1    0    0  501    0  0.00000000000E+00  0.00000000000E+00  0.31041279217E+04  0.31041279217E+04  0.25500000920E-02 0. -1.
       -2   -1    0    0    0  501  0.00000000000E+00  0.00000000000E+00 -0.77341057693E+03  0.77341057694E+03  0.25500000920E-02 0.  1.
    10030    2    1    2    0    0  0.00000000000E+00  0.00000000000E+00  0.23307173448E+04  0.38775384987E+04  0.30988806798E+04 0.  0.
        5    1    3    3  502    0  0.53076916559E+03 -0.60723912977E+03 -0.49005303715E+03  0.94373160224E+03  0.46999998093E+01 0.  1.
       -5    1    3    3    0  502 -0.53076916559E+03  0.60723912977E+03  0.28207703820E+04  0.29338068964E+04  0.46999998093E+01 0. -1.
</event>
<event>
 5   0  0.1325713E-07  0.3100383E+04  0.7818609E-02  0.8215633E-01
       -2   -1    0    0    0  501  0.00000000000E+00  0.00000000000E+00  0.14743835990E+04  0.14743835990E+04  0.25500000920E-02 0.  1.
        2   -1    0    0  501    0  0.00000000000E+00  0.00000000000E+00 -0.16298975340E+04  0.16298975340E+04  0.25500000920E-02 0. -1.
    10030    2    1    2    0    0  0.00000000000E+00  0.00000000000E+00 -0.15551393499E+03  0.31042811330E+04  0.31003833261E+04 0.  0.
        4    1    3    3  502    0 -0.13403627762E+04 -0.17088886822E+03  0.68301219780E+03  0.15140286168E+04  0.12699999809E+01 0.  1.
       -4    1    3    3    0  502  0.13403627762E+04  0.17088886822E+03 -0.83852613279E+03  0.15902525162E+04  0.12699999809E+01 0. -1.
</event>
<event>
 5   0  0.1329777E-07  0.3090454E+04  0.7818609E-02  0.8218363E-01
        2   -1    0    0  501    0  0.00000000000E+00  0.00000000000E+00  0.26734219566E+04  0.26734219566E+04  0.25500000920E-02 0.  1.
       -2   -1    0    0    0  501  0.00000000000E+00  0.00000000000E+00 -0.89313469787E+03  0.89313469788E+03  0.25500000920E-02 0. -1.
    10030    2    1    2    0    0  0.00000000000E+00  0.00000000000E+00  0.17802872587E+04  0.35665566545E+04  0.30904536311E+04 0.  0.
        1    1    3    3  502    0 -0.77008004395E+03 -0.10831332927E+04 -0.19677805121E+02  0.13291306256E+04  0.50400001928E-02 0. -1.
       -1    1    3    3    0  502  0.77008004395E+03  0.10831332927E+04  0.17999650638E+04  0.22374260289E+04  0.50400001928E-02 0.  1.
</event>
<event>
 5   0  0.1329777E-07  0.3100318E+04  0.7818609E-02  0.8215651E-01
        2   -1    0    0  501    0  0.00000000000E+00  0.00000000000E+00  0.18020543519E+04  0.18020543519E+04  0.25500000920E-02 0. -1.
       -2   -1    0    0    0  501  0.00000000000E+00  0.00000000000E+00 -0.13334738947E+04  0.13334738947E+04  0.25500000920E-02 0.  1.
    10030    2    1    2    0    0  0.00000000000E+00  0.00000000000E+00  0.46858045714E+03  0.31355282466E+04  0.31003176838E+04 0.  0.
        1    1    3    3  502    0  0.88633125391E+03 -0.12260537735E+04  0.57606531430E+03  0.16188397678E+04  0.50400001928E-02 0. -1.
       -1    1    3    3    0  502 -0.88633125391E+03  0.12260537735E+04 -0.10748485716E+03  0.15166884788E+04  0.50400001928E-02 0.  1.
</event>
<event>
 5   0  0.4517409E-08  0.3100413E+04  0.7818609E-02  0.8215624E-01
        1   -1    0    0  501    0  0.00000000000E+00  0.00000000000E+00  0.34365457549E+04  0.34365457549E+04  0.50400001928E-02 0. -1.
       -1   -1    0    0    0  501  0.00000000000E+00  0.00000000000E+00 -0.69928959831E+03  0.69928959833E+03  0.50400001928E-02 0.  1.
    10030    2    1    2    0    0  0.00000000000E+00  0.00000000000E+00  0.27372561566E+04  0.41358353533E+04  0.31004133277E+04 0.  0.
        2    1    3    3  502    0  0.13421599452E+04  0.70129627912E+03  0.92634170474E+03  0.17751954100E+04  0.25500000920E-02 0. -1.
       -2    1    3    3    0  502 -0.13421599452E+04 -0.70129627912E+03  0.18109144519E+04  0.23606399433E+04  0.25500000920E-02 0.  1.
</event>
<event>
 5   0  0.1329777E-07  0.3099926E+04  0.7818609E-02  0.8215758E-01
        2   -1    0    0  501    0  0.00000000000E+00  0.00000000000E+00  0.98453685165E+03  0.98453685165E+03  0.25500000920E-02 0.  1.
       -2   -1    0    0    0  501  0.00000000000E+00  0.00000000000E+00 -0.24401170265E+04  0.24401170265E+04  0.25500000920E-02 0. -1.
    10030    2    1    2    0    0  0.00000000000E+00  0.00000000000E+00 -0.14555801749E+04  0.34246538782E+04  0.30999258926E+04 0.  0.
        1    1    3    3  502    0 -0.11843667306E+04  0.92222324985E+03 -0.11544665003E+04  0.18936771572E+04  0.50400001928E-02 0. -1.
       -1    1    3    3    0  502  0.11843667306E+04 -0.92222324985E+03 -0.30111367454E+03  0.15309767210E+04  0.50400001928E-02 0.  1.
</event>
<event>
 5   0  0.4838602E-08  0.3100983E+04  0.7818609E-02  0.8215468E-01
        1   -1    0    0  501    0  0.00000000000E+00  0.00000000000E+00  0.16119844366E+04  0.16119844366E+04  0.50400001928E-02 0. -1.
       -1   -1    0    0    0  501  0.00000000000E+00  0.00000000000E+00 -0.14913441051E+04  0.14913441051E+04  0.50400001928E-02 0.  1.
    10030    2    1    2    0    0  0.00000000000E+00  0.00000000000E+00  0.12064033155E+03  0.31033285417E+04  0.31009827391E+04 0.  0.
        5    1    3    3  502    0  0.72147390276E+03  0.35245827710E+03 -0.12670503991E+04  0.15000634098E+04  0.46999998093E+01 0.  1.
       -5    1    3    3    0  502 -0.72147390276E+03 -0.35245827710E+03  0.13876907307E+04  0.16032651320E+04  0.46999998093E+01 0. -1.
</event>
<event>
 5   0  0.4436241E-08  0.3101173E+04  0.7818609E-02  0.8215416E-01
       -1   -1    0    0    0  501  0.00000000000E+00  0.00000000000E+00  0.17848777672E+04  0.17848777673E+04  0.50400001928E-02 0.  1.
        1   -1    0    0  501    0  0.00000000000E+00  0.00000000000E+00 -0.13470496050E+04  0.13470496050E+04  0.50400001928E-02 0. -1.
    10030    2    1    2    0    0  0.00000000000E+00  0.00000000000E+00  0.43782816222E+03  0.31319273723E+04  0.31011732563E+04 0.  0.
        3    1    3    3  502    0 -0.31135770580E+03 -0.71223544675E+03  0.15738959290E+04  0.17553835359E+04  0.10100000352E+00 0.  1.
       -3    1    3    3    0  502  0.31135770580E+03  0.71223544675E+03 -0.11360677668E+04  0.13765438364E+04  0.10100000352E+00 0. -1.
</event>
<event>
 5   0  0.1325713E-07  0.3099939E+04  0.7818609E-02  0.8215755E-01
       -2   -1    0    0    0  501  0.00000000000E+00  0.00000000000E+00  0.13134875101E+04  0.13134875101E+04  0.25500000920E-02 0. -1.
        2   -1    0    0  501    0  0.00000000000E+00  0.00000000000E+00 -0.18290279242E+04  0.18290279242E+04  0.25500000920E-02 0.  1.
    10030    2    1    2    0    0  0.00000000000E+00  0.00000000000E+00 -0.51554041413E+03  0.31425154344E+04  0.30999389247E+04 0.  0.
        4    1    3    3  502    0  0.11412677598E+03  0.93841877264E+03  0.98741164001E+03  0.13669813728E+04  0.12699999809E+01 0. -1.
       -4    1    3    3    0  502 -0.11412677598E+03 -0.93841877264E+03 -0.15029520541E+04  0.17755340616E+04  0.12699999809E+01 0.  1.
</event>
<event>
 5   0  0.4470354E-08  0.3099168E+04  0.7818609E-02  0.8215966E-01
        1   -1    0    0  501    0  0.00000000000E+00  0.00000000000E+00  0.20316652709E+04  0.20316652710E+04  0.50400001928E-02 0.  1.
       -1   -1    0    0    0  501  0.00000000000E+00  0.00000000000E+00 -0.11818925561E+04  0.11818925561E+04  0.50400001928E-02 0. -1.
    10030    2    1    2    0    0  0.00000000000E+00  0.00000000000E+00  0.84977271481E+03  0.32135578271E+04  0.30991676691E+04 0.  0.
        1    1    3    3  502    0  0.47068882985E+03 -0.14445190395E+04  0.74114700693E+03  0.16904088605E+04  0.50400001928E-02 0. -1.
       -1    1    3    3    0  502 -0.47068882985E+03  0.14445190395E+04  0.10862570788E+03  0.15231489666E+04  0.50400001928E-02 0.  1.
</event>
<event>
 5   0  0.1398931E-07  0.3100926E+04  0.7818609E-02  0.8215484E-01
       -2   -1    0    0    0  501  0.00000000000E+00  0.00000000000E+00  0.10146754359E+04  0.10146754359E+04  0.25500000920E-02 0. -1.
        2   -1    0    0  501    0  0.00000000000E+00  0.00000000000E+00 -0.23691669699E+04  0.23691669699E+04  0.25500000920E-02 0.  1.
    10030    2    1    2    0    0  0.00000000000E+00  0.00000000000E+00 -0.13544915340E+04  0.33838424058E+04  0.31009260087E+04 0.  0.
        3    1    3    3  502    0 -0.14839754773E+04  0.19836442109E+01 -0.11673898200E+04  0.18881170922E+04  0.10100000352E+00 0.  1.
       -3    1    3    3    0  502  0.14839754773E+04 -0.19836442109E+01 -0.18710171409E+03  0.14957253136E+04  0.10100000352E+00 0. -1.
</event>
<event>
 5   0  0.1398931E-07  0.3101792E+04  0.7818609E-02  0.8215246E-01
       -2   -1    0    0    0  501  0.00000000000E+00  0.00000000000E+00  0.90631562580E+03  0.90631562581E+03  0.25500000920E-02 0.  1.
        2   -1    0    0  501    0  0.00000000000E+00  0.00000000000E+00 -0.26539088469E+04  0.26539088469E+04  0.25500000920E-02 0. -1.
    10030    2    1    2    0    0  0.00000000000E+00  0.00000000000E+00 -0.17475932211E+04  0.35602244727E+04  0.31017924221E+04 0.  0.
        3    1    3    3  502    0 -0.82526784907E+03  0.20505790526E+03  0.61487437782E+03  0.10493742316E+04  0.10100000352E+00 0.  1.
       -3    1    3    3    0  502  0.82526784907E+03 -0.20505790526E+03 -0.23624675989E+04  0.25108502411E+04  0.10100000352E+00 0. -1.
</event>
<event>
 5   0  0.1398931E-07  0.3098618E+04  0.7818609E-02  0.8216117E-01
       -2   -1    0    0    0  501  0.00000000000E+00  0.00000000000E+00  0.12398207448E+04  0.12398207448E+04  0.25500000920E-02 0. -1.
        2   -1    0    0  501    0  0.00000000000E+00  0.00000000000E+00 -0.19360524792E+04  0.19360524792E+04  0.25500000920E-02 0.  1.
    10030    2    1    2    0    0  0.00000000000E+00  0.00000000000E+00 -0.69623173440E+03  0.31758732240E+04  0.30986177736E+04 0.  0.
        3    1    3    3  502    0  0.79811549682E+03 -0.77166843836E+03 -0.14557530156E+04  0.18307586891E+04  0.10100000352E+00 0.  1.
       -3    1    3    3    0  502 -0.79811549682E+03  0.77166843836E+03  0.75952128124E+03  0.13451145349E+04  0.10100000352E+00 0. -1.
</event>
<event>
 5   0  0.4517409E-08  0.3099088E+04  0.7818609E-02  0.8215988E-01
       -1   -1    0    0    0  501  0.00000000000E+00  0.00000000000E+00  0.15909994421E+04  0.15909994421E+04  0.50400001928E-02 0.  1.
        1   -1    0    0  501    0  0.00000000000E+00  0.00000000000E+00 -0.15091689585E+04  0.15091689585E+04  0.50400001928E-02 0. -1.
    10030    2    1    2    0    0  0.00000000000E+00  0.00000000000E+00  0.81830483630E+02  0.31001684006E+04  0.30990882343E+04 0.  0.
        2    1    3    3  502    0  0.11377490211E+04  0.91505049859E+03 -0.47820370095E+03  0.15363817981E+04  0.25500000920E-02 0. -1.
       -2    1    3    3    0  502 -0.11377490211E+04 -0.91505049859E+03  0.56003418458E+03  0.15637866024E+04  0.25500000920E-02 0.  1.
</event>
<event>
 5   0  0.1318916E-07  0.3100848E+04  0.7818609E-02  0.8215505E-01
        2   -1    0    0  501    0  0.00000000000E+00  0.00000000000E+00  0.20687141556E+04  0.20687141556E+04  0.25500000920E-02 0. -1.
       -2   -1    0    0    0  501  0.00000000000E+00  0.00000000000E+00 -0.11619851737E+04  0.11619851737E+04  0.25500000920E-02 0.  1.
    10030    2    1    2    0    0  0.00000000000E+00  0.00000000000E+00  0.90672898192E+03  0.32306993292E+04  0.31008483854E+04 0.  0.
        5    1    3    3  502    0 -0.25743421381E+02 -0.31493298093E+03 -0.11280740050E+04  0.11715026918E+04  0.46999998093E+01 0.  1.
       -5    1    3    3    0  502  0.25743421381E+02  0.31493298093E+03  0.20348029869E+04  0.20591966374E+04  0.46999998093E+01 0. -1.
</event>
<event>
 5   0  0.1318916E-07  0.3099336E+04  0.7818609E-02  0.8215920E-01
       -2   -1    0    0    0  501  0.00000000000E+00  0.00000000000E+00  0.93946692807E+03  0.93946692808E+03  0.25500000920E-02 0.  1.
        2   -1    0    0  501    0  0.00000000000E+00  0.00000000000E+00 -0.25562051012E+04  0.25562051012E+04  0.25500000920E-02 0. -1.
    10030    2    1    2    0    0  0.00000000000E+00  0.00000000000E+00 -0.16167381731E+04  0.34956720292E+04  0.30993355120E+04 0.  0.
        5    1    3    3  502    0  0.15036890659E+04 -0.46487434656E+02 -0.12276700031E+04  0.19417614722E+04  0.46999998093E+01 0. -1.
       -5    1    3    3    0  502 -0.15036890659E+04  0.46487434656E+02 -0.38906816997E+03  0.15539105570E+04  0.46999998093E+01 0.  1.
</event>
<event>
 5   0  0.1325713E-07  0.3099811E+04  0.7818609E-02  0.8215790E-01
       -2   -1    0    0    0  501  0.00000000000E+00  0.00000000000E+00  0.12192169531E+04  0.12192169531E+04  0.25500000920E-02 0. -1.
        2   -1    0    0  501    0  0.00000000000E+00  0.00000000000E+00 -0.19702866720E+04  0.19702866720E+04  0.25500000920E-02 0.  1.
    10030    2    1    2    0    0  0.00000000000E+00  0.00000000000E+00 -0.75106971896E+03  0.31895036251E+04  0.30998109058E+04 0.  0.
        4    1    3    3  502    0 -0.28431793839E+03 -0.55770125079E+03  0.10833547496E+04  0.12512100150E+04  0.12699999809E+01 0. -1.
       -4    1    3    3    0  502  0.28431793839E+03  0.55770125079E+03 -0.18344244685E+04  0.19382936101E+04  0.12699999809E+01 0.  1.
</event>
<event>
 5   0  0.1325713E-07  0.3100932E+04  0.7818609E-02  0.8215482E-01
       -2   -1    0    0    0  501  0.00000000000E+00  0.00000000000E+00  0.10169527489E+04  0.10169527489E+04  0.25500000920E-02 0.  1.
        2   -1    0    0  501    0  0.00000000000E+00  0.00000000000E+00 -0.23638706841E+04  0.23638706841E+04  0.25500000920E-02 0. -1.
    10030    2    1    2    0    0  0.00000000000E+00  0.00000000000E+00 -0.13469179352E+04  0.33808234330E+04  0.31009319826E+04 0.  0.
        4    1    3    3  502    0 -0.10582102239E+04  0.48579694928E+03  0.44273325070E+03  0.12457214368E+04  0.12699999809E+01 0.  1.
       -4    1    3    3    0  502  0.10582102239E+04 -0.48579694928E+03 -0.17896511859E+04  0.21351019962E+04  0.12699999809E+01 0. -1.
</event>
<event>
 5   0  0.4450600E-08  0.3098291E+04  0.7818609E-02  0.8216207E-01
        1   -1    0    0  501    0  0.00000000000E+00  0.00000000000E+00  0.16190848568E+04  0.16190848568E+04  0.50400001928E-02 0.  1.
       -1   -1    0    0    0  501  0.00000000000E+00  0.00000000000E+00 -0.14822268680E+04  0.14822268680E+04  0.50400001928E-02 0. -1.
    10030    2    1    2    0    0  0.00000000000E+00  0.00000000000E+00  0.13685798877E+03  0.31013117248E+04  0.30982905457E+04 0.  0.
        4    1    3    3  502    0 -0.27708415084E+03  0.69724487788E+03  0.14250820726E+04  0.16105236952E+04  0.12699999809E+01 0.  1.
       -4    1    3    3    0  502  0.27708415084E+03 -0.69724487788E+03 -0.12882240838E+04  0.14907880296E+04  0.12699999809E+01 0. -1.
</event>
<event>
 5   0  0.1398931E-07  0.3100150E+04  0.7818609E-02  0.8215697E-01
       -2   -1    0    0    0  501  0.00000000000E+00  0.00000000000E+00  0.16151387532E+04  0.16151387532E+04  0.25500000920E-02 0.  1.
        2   -1    0    0  501    0  0.00000000000E+00  0.00000000000E+00 -0.14876318120E+04  0.14876318120E+04  0.25500000920E-02 0. -1.
    10030    2    1    2    0    0  0.00000000000E+00  0.00000000000E+00  0.12750694122E+03  0.31027705652E+04  0.31001495384E+04 0.  0.
        3    1    3    3  502    0 -0.15743795908E+03  0.56863788406E+03 -0.13708445978E+04  0.14924311293E+04  0.10100000352E+00 0. -1.
       -3    1    3    3    0  502  0.15743795908E+03 -0.56863788406E+03  0.14983515390E+04  0.16103394359E+04  0.10100000352E+00 0.  1.
</event>
<event>
 5   0  0.4450600E-08  0.3100957E+04  0.7818609E-02  0.8215475E-01
        1   -1    0    0  501    0  0.00000000000E+00  0.00000000000E+00  0.14105889327E+04  0.14105889327E+04  0.50400001928E-02 0.  1.
       -1   -1    0    0    0  501  0.00000000000E+00  0.00000000000E+00 -0.17042411083E+04  0.17042411083E+04  0.50400001928E-02 0. -1.
    10030    2    1    2    0    0  0.00000000000E+00  0.00000000000E+00 -0.29365217565E+03  0.31148300410E+04  0.31009570432E+04 0.  0.
        4    1    3    3  502    0  0.95903908003E+03  0.40407464752E+03 -0.13012937008E+04  0.16662530379E+04  0.12699999809E+01 0. -1.
       -4    1    3    3    0  502 -0.95903908003E+03 -0.40407464752E+03  0.10076415251E+04  0.14485770031E+04  0.12699999809E+01 0.  1.
</event>
<event>
 5   0  0.1329777E-07  0.3100908E+04  0.7818609E-02  0.8215489E-01
        2   -1    0    0  501    0  0.00000000000E+00  0.00000000000E+00  0.17228131313E+04  0.17228131313E+04  0.25500000920E-02 0.  1.
       -2   -1    0    0    0  501  0.00000000000E+00  0.00000000000E+00 -0.13953387957E+04  0.13953387957E+04  0.25500000920E-02 0. -1.
    10030    2    1    2    0    0  0.00000000000E+00  0.00000000000E+00  0.32747433555E+03  0.31181519270E+04  0.31009082540E+04 0.  0.
        1    1    3    3  502    0  0.11270056858E+04 -0.91816118615E+03  0.70594450893E+03  0.16160196253E+04  0.50400001928E-02 0.  1.
       -1    1    3    3    0  502 -0.11270056858E+04  0.91816118615E+03 -0.37847017338E+03  0.15021323017E+04  0.50400001928E-02 0. -1.
</event>
<event>
 5   0  0.1377237E-07  0.3099531E+04  0.7818609E-02  0.8215867E-01
        2   -1    0    0  501    0  0.00000000000E+00  0.00000000000E+00  0.17042354364E+04  0.17042354364E+04  0.25500000920E-02 0. -1.
       -2   -1    0    0    0  501  0.00000000000E+00  0.00000000000E+00 -0.14092966718E+04  0.14092966718E+04  0.25500000920E-02 0.  1.
    10030    2    1    2    0    0  0.00000000000E+00  0.00000000000E+00  0.29493876454E+03  0.31135321082E+04  0.30995311442E+04 0.  0.
        2    1    3    3  502    0  0.15468991022E+04  0.44680849460E+02  0.23079053656E+03  0.15646589029E+04  0.25500000920E-02 0. -1.
       -2    1    3    3    0  502 -0.15468991022E+04 -0.44680849460E+02  0.64148227973E+02  0.15488732052E+04  0.25500000920E-02 0.  1.
</event>
<event>
 5   0  0.4470354E-08  0.3102979E+04  0.7818609E-02  0.8214921E-01
       -1   -1    0    0    0  501  0.00000000000E+00  0.00000000000E+00  0.20224163292E+04  0.20224163292E+04  0.50400001928E-02 0. -1.
        1   -1    0    0  501    0  0.00000000000E+00  0.00000000000E+00 -0.11902199119E+04  0.11902199119E+04  0.50400001928E-02 0.  1.
    10030    2    1    2    0    0  0.00000000000E+00  0.00000000000E+00  0.83219641737E+03  0.32126362411E+04  0.31029793330E+04 0.  0.
        1    1    3    3  502    0 -0.54733873831E+03 -0.75839406074E+03  0.16977373387E+04  0.19383119762E+04  0.50400001928E-02 0. -1.
       -1    1    3    3    0  502  0.54733873831E+03  0.75839406074E+03 -0.86554092129E+03  0.12743242650E+04  0.50400001928E-02 0.  1.
</event>
<event>
 5   0  0.4517409E-08  0.3101044E+04  0.7818609E-02  0.8215452E-01
        1   -1    0    0  501    0  0.00000000000E+00  0.00000000000E+00  0.11155686118E+04  0.11155686118E+04  0.50400001928E-02 0. -1.
       -1   -1    0    0    0  501  0.00000000000E+00  0.00000000000E+00 -0.21550607714E+04  0.21550607714E+04  0.50400001928E-02 0.  1.
    10030    2    1    2    0    0  0.00000000000E+00  0.00000000000E+00 -0.10394921596E+04  0.32706293832E+04  0.31010437940E+04 0.  0.
        2    1    3    3  502    0  0.55353381060E+03  0.12059713777E+04 -0.13657017326E+04  0.19041816788E+04  0.25500000920E-02 0.  1.
       -2    1    3    3    0  502 -0.55353381060E+03 -0.12059713777E+04  0.32620957298E+03  0.13664477044E+04  0.25500000920E-02 0. -1.
</event>
<event>
 5   0  0.1325713E-07  0.3098180E+04  0.7818609E-02  0.8216238E-01
        2   -1    0    0  501    0  0.00000000000E+00  0.00000000000E+00  0.16057389959E+04  0.16057389959E+04  0.25500000920E-02 0.  1.
       -2   -1    0    0    0  501  0.00000000000E+00  0.00000000000E+00 -0.14944394133E+04  0.14944394133E+04  0.25500000920E-02 0. -1.
    10030    2    1    2    0    0  0.00000000000E+00  0.00000000000E+00  0.11129958263E+03  0.31001784092E+04  0.30981798805E+04 0.  0.
        4    1    3    3  502    0  0.13009323829E+04 -0.23821560580E+03 -0.75141018116E+03  0.15211149243E+04  0.12699999809E+01 0. -1.
       -4    1    3    3    0  502 -0.13009323829E+04  0.23821560580E+03  0.86270976379E+03  0.15790634849E+04  0.12699999809E+01 0.  1.
</event>
<event>
 5   0  0.1325713E-07  0.3101358E+04  0.7818609E-02  0.8215365E-01
        2   -1    0    0  501    0  0.00000000000E+00  0.00000000000E+00  0.15991537555E+04  0.15991537555E+04  0.25500000920E-02 0. -1.
       -2   -1    0    0    0  501  0.00000000000E+00  0.00000000000E+00 -0.15036737731E+04  0.15036737731E+04  0.25500000920E-02 0.  1.
    10030    2    1    2    0    0  0.00000000000E+00  0.00000000000E+00  0.95479982417E+02  0.31028275286E+04  0.31013581291E+04 0.  0.
        4    1    3    3  502    0  0.15484366615E+04  0.36811955987E+02  0.12256000494E+03  0.15537161203E+04  0.12699999809E+01 0. -1.
       -4    1    3    3    0  502 -0.15484366615E+04 -0.36811955987E+02 -0.27080022523E+02  0.15491114083E+04  0.12699999809E+01 0.  1.
</event>
<event>
 5   0  0.4450600E-08  0.3099395E+04  0.7818609E-02  0.8215904E-01
       -1   -1    0    0    0  501  0.00000000000E+00  0.00000000000E+00  0.27737072648E+04  0.27737072649E+04  0.50400001928E-02 0.  1.
        1   -1    0    0  501    0  0.00000000000E+00  0.00000000000E+00 -0.86583110822E+03  0.86583110824E+03  0.50400001928E-02 0. -1.
    10030    2    1    2    0    0  0.00000000000E+00  0.00000000000E+00  0.19078761566E+04  0.36395383731E+04  0.30993948022E+04 0.  0.
        4    1    3    3  502    0 -0.10707418877E+04  0.35074951662E+03  0.22033384564E+04  0.24747152118E+04  0.12699999809E+01 0.  1.
       -4    1    3    3    0  502  0.10707418877E+04 -0.35074951662E+03 -0.29546229973E+03  0.11648231613E+04  0.12699999809E+01 0. -1.
</event>
<event>
 5   0  0.4517409E-08  0.3099165E+04  0.7818609E-02  0.8215967E-01
        1   -1    0    0  501    0  0.00000000000E+00  0.00000000000E+00  0.11428901908E+04  0.11428901908E+04  0.50400001928E-02 0. -1.
       -1   -1    0    0    0  501  0.00000000000E+00  0.00000000000E+00 -0.21009950898E+04  0.21009950898E+04  0.50400001928E-02 0.  1.
    10030    2    1    2    0    0  0.00000000000E+00  0.00000000000E+00 -0.95810489899E+03  0.32438852807E+04  0.30991654872E+04 0.  0.
        2    1    3    3  502    0  0.11366730902E+03  0.15171855675E+04 -0.78677829265E+03  0.17128316861E+04  0.25500000920E-02 0.  1.
       -2    1    3    3    0  502 -0.11366730902E+03 -0.15171855675E+04 -0.17132660634E+03  0.15310535945E+04  0.25500000920E-02 0. -1.
</event>
<event>
 5   0  0.1318916E-07  0.3098903E+04  0.7818609E-02  0.8216039E-01
        2   -1    0    0  501    0  0.00000000000E+00  0.00000000000E+00  0.14560298912E+04  0.14560298912E+04  0.25500000920E-02 0. -1.
       -2   -1    0    0    0  501  0.00000000000E+00  0.00000000000E+00 -0.16488676716E+04  0.16488676716E+04  0.25500000920E-02 0.  1.
    10030    2    1    2    0    0  0.00000000000E+00  0.00000000000E+00 -0.19283778039E+03  0.31048975628E+04  0.30989034296E+04 0.  0.
        5    1    3    3  502    0  0.20115361558E+03 -0.10657362826E+04 -0.12051405110E+04  0.16213088362E+04  0.46999998093E+01 0.  1.
       -5    1    3    3    0  502 -0.20115361558E+03  0.10657362826E+04  0.10123027306E+04  0.14835887266E+04  0.46999998093E+01 0. -1.
</event>
<event>
 5   0  0.4517409E-08  0.3099499E+04  0.7818609E-02  0.8215875E-01
        1   -1    0    0  501    0  0.00000000000E+00  0.00000000000E+00  0.17667465164E+04  0.17667465164E+04  0.50400001928E-02 0. -1.
       -1   -1    0    0    0  501  0.00000000000E+00  0.00000000000E+00 -0.13594050039E+04  0.13594050039E+04  0.50400001928E-02 0.  1.
    10030    2    1    2    0    0  0.00000000000E+00  0.00000000000E+00  0.40734151249E+03  0.31261515203E+04  0.30994993499E+04 0.  0.
        2    1    3    3  502    0  0.68582572454E+03  0.49012161143E+03  0.15152945132E+04  0.17339820011E+04  0.25500000920E-02 0. -1.
       -2    1    3    3    0  502 -0.68582572454E+03 -0.49012161143E+03 -0.11079530007E+04  0.13921695192E+04  0.25500000920E-02 0.  1.
</event>
<event>
 5   0  0.4838602E-08  0.3099487E+04  0.7818609E-02  0.8215879E-01
        1   -1    0    0  501    0  0.00000000000E+00  0.00000000000E+00  0.22058539294E+04  0.22058539294E+04  0.50400001928E-02 0. -1.
       -1   -1    0    0    0  501  0.00000000000E+00  0.00000000000E+00 -0.10887870039E+04  0.10887870039E+04  0.50400001928E-02 0.  1.
    10030    2    1    2    0    0  0.00000000000E+00  0.00000000000E+00  0.11170669256E+04  0.32946409333E+04  0.30994871129E+04 0.  0.
        5    1    3    3  502    0  0.18466018053E+03  0.44954280124E+03  0.21227498680E+04  0.21776770202E+04  0.46999998093E+01 0. -1.
       -5    1    3    3    0  502 -0.18466018053E+03 -0.44954280124E+03 -0.10056829424E+04  0.11169639131E+04  0.46999998093E+01 0.  1.
</event>
<event>
 5   0  0.1377237E-07  0.3100387E+04  0.7818609E-02  0.8215632E-01
        2   -1    0    0  501    0  0.00000000000E+00  0.00000000000E+00  0.11482042862E+04  0.11482042862E+04  0.25500000920E-02 0. -1.
       -2   -1    0    0    0  501  0.00000000000E+00  0.00000000000E+00 -0.20929198745E+04  0.20929198745E+04  0.25500000920E-02 0.  1.
    10030    2    1    2    0    0  0.00000000000E+00  0.00000000000E+00 -0.94471558827E+03  0.32411241607E+04  0.31003867956E+04 0.  0.
        2    1    3    3  502    0 -0.42312179352E+03 -0.14338468925E+04 -0.43681952084E+02  0.14956126090E+04  0.25500000920E-02 0.  1.
       -2    1    3    3    0  502  0.42312179352E+03  0.14338468925E+04 -0.90103363619E+03  0.17455115516E+04  0.25500000920E-02 0. -1.
</event>
<event>
 5   0  0.4450600E-08  0.3101717E+04  0.7818609E-02  0.8215267E-01
       -1   -1    0    0    0  501  0.00000000000E+00  0.00000000000E+00  0.15680933647E+04  0.15680933647E+04  0.50400001928E-02 0. -1.
        1   -1    0    0  501    0  0.00000000000E+00  0.00000000000E+00 -0.15338132651E+04  0.15338132651E+04  0.50400001928E-02 0.  1.
    10030    2    1    2    0    0  0.00000000000E+00  0.00000000000E+00  0.34280099599E+02  0.31019066299E+04  0.31017172043E+04 0.  0.
        4    1    3    3  502    0 -0.14046915544E+04  0.28675273674E+03 -0.57431410711E+03  0.15444169778E+04  0.12699999809E+01 0.  1.
       -4    1    3    3    0  502  0.14046915544E+04 -0.28675273674E+03  0.60859420671E+03  0.15574896520E+04  0.12699999809E+01 0. -1.
</event>
<event>
 5   0  0.1398931E-07  0.3100675E+04  0.7818609E-02  0.8215553E-01
        2   -1    0    0  501    0  0.00000000000E+00  0.00000000000E+00  0.14118426414E+04  0.14118426414E+04  0.25500000920E-02 0.  1.
       -2   -1    0    0    0  501  0.00000000000E+00  0.00000000000E+00 -0.17024177129E+04  0.17024177129E+04  0.25500000920E-02 0. -1.
    10030    2    1    2    0    0  0.00000000000E+00  0.00000000000E+00 -0.29057507150E+03  0.31142603543E+04  0.31006747141E+04 0.  0.
        3    1    3    3  502    0 -0.10099111210E+04 -0.37363731077E+03  0.97495612528E+03  0.14526061988E+04  0.10100000352E+00 0.  1.
       -3    1    3    3    0  502  0.10099111210E+04  0.37363731077E+03 -0.12655311968E+04  0.16616541555E+04  0.10100000352E+00 0. -1.
</event>
<event>
 5   0  0.4517409E-08  0.3078703E+04  0.7818609E-02  0.8221607E-01
       -1   -1    0    0    0  501  0.00000000000E+00  0.00000000000E+00  0.83660953184E+03  0.83660953185E+03  0.50400001928E-02 0.  1.
        1   -1    0    0  501    0  0.00000000000E+00  0.00000000000E+00 -0.28323880969E+04  0.28323880969E+04  0.50400001928E-02 0. -1.
    10030    2    1    2    0    0  0.00000000000E+00  0.00000000000E+00 -0.19957785651E+04  0.36689976288E+04  0.30787028956E+04 0.  0.
        2    1    3    3  502    0 -0.81754486866E+03  0.25845849900E+03  0.52567861529E+03  0.10057427179E+04  0.25500000920E-02 0.  1.
       -2    1    3    3    0  502  0.81754486866E+03 -0.25845849900E+03 -0.25214571804E+04  0.26632549109E+04  0.25500000920E-02 0. -1.
</event>
<event>
 5   0  0.1377237E-07  0.3100446E+04  0.7818609E-02  0.8215616E-01
        2   -1    0    0  501    0  0.00000000000E+00  0.00000000000E+00  0.16642593046E+04  0.16642593046E+04  0.25500000920E-02 0.  1.
       -2   -1    0    0    0  501  0.00000000000E+00  0.00000000000E+00 -0.14440003668E+04  0.14440003668E+04  0.25500000920E-02 0. -1.
    10030    2    1    2    0    0  0.00000000000E+00  0.00000000000E+00  0.22025893782E+03  0.31082596715E+04  0.31004458043E+04 0.  0.
        2    1    3    3  502    0  0.42685003162E+03 -0.10188076472E+04 -0.98027943727E+03  0.14768607743E+04  0.25500000920E-02 0. -1.
       -2    1    3    3    0  502 -0.42685003162E+03  0.10188076472E+04  0.12005383751E+04  0.16313988971E+04  0.25500000920E-02 0.  1.
</event>
<event>
 5   0  0.4436241E-08  0.3099613E+04  0.7818609E-02  0.8215844E-01
        1   -1    0    0  501    0  0.00000000000E+00  0.00000000000E+00  0.20412432446E+04  0.20412432446E+04  0.50400001928E-02 0. -1.
       -1   -1    0    0    0  501  0.00000000000E+00  0.00000000000E+00 -0.11766848840E+04  0.11766848840E+04  0.50400001928E-02 0.  1.
    10030    2    1    2    0    0  0.00000000000E+00  0.00000000000E+00  0.86455836055E+03  0.32179281286E+04  0.30996129245E+04 0.  0.
        3    1    3    3  502    0  0.97670526310E+03  0.93444808179E+03  0.12193426470E+04  0.18204238214E+04  0.10100000352E+00 0. -1.
       -3    1    3    3    0  502 -0.97670526310E+03 -0.93444808179E+03 -0.35478428645E+03  0.13975043072E+04  0.10100000352E+00 0.  1.
</event>
<event>
 5   0  0.1377237E-07  0.3104453E+04  0.7818609E-02  0.8214517E-01
        2   -1    0    0  501    0  0.00000000000E+00  0.00000000000E+00  0.18744080681E+04  0.18744080681E+04  0.25500000920E-02 0. -1.
       -2   -1    0    0    0  501  0.00000000000E+00  0.00000000000E+00 -0.12854230666E+04  0.12854230666E+04  0.25500000920E-02 0.  1.
    10030    2    1    2    0    0  0.00000000000E+00  0.00000000000E+00  0.58898500154E+03  0.31598311347E+04  0.31044531673E+04 0.  0.
        2    1    3    3  502    0  0.11149467800E+03 -0.93908291238E+03 -0.95835828977E+03  0.13463871624E+04  0.25500000920E-02 0.  1.
       -2    1    3    3    0  502 -0.11149467800E+03  0.93908291238E+03  0.15473432913E+04  0.18134439723E+04  0.25500000920E-02 0. -1.
</event>
<event>
 5   0  0.4838602E-08  0.3099435E+04  0.7818609E-02  0.8215893E-01
        1   -1    0    0  501    0  0.00000000000E+00  0.00000000000E+00  0.17170464337E+04  0.17170464337E+04  0.50400001928E-02 0.  1.
       -1   -1    0    0    0  501  0.00000000000E+00  0.00000000000E+00 -0.13986953141E+04  0.13986953141E+04  0.50400001928E-02 0. -1.
    10030    2    1    2    0    0  0.00000000000E+00  0.00000000000E+00  0.31835111960E+03  0.31157417478E+04  0.30994353040E+04 0.  0.
        5    1    3    3  502    0 -0.14663649055E+03  0.73706871390E+03  0.15216029903E+04  0.16970769869E+04  0.46999998093E+01 0.  1.
       -5    1    3    3    0  502  0.14663649055E+03 -0.73706871390E+03 -0.12032518707E+04  0.14186647609E+04  0.46999998093E+01 0. -1.
</event>
<event>
 5   0  0.4450600E-08  0.3101689E+04  0.7818609E-02  0.8215275E-01
       -1   -1    0    0    0  501  0.00000000000E+00  0.00000000000E+00  0.13771253141E+04  0.13771253141E+04  0.50400001928E-02 0.  1.
        1   -1    0    0  501    0  0.00000000000E+00  0.00000000000E+00 -0.17464775570E+04  0.17464775570E+04  0.50400001928E-02 0. -1.
    10030    2    1    2    0    0  0.00000000000E+00  0.00000000000E+00 -0.36935224290E+03  0.31236028712E+04  0.31016888654E+04 0.  0.
        4    1    3    3  502    0 -0.13548786726E+04  0.50464458193E+03 -0.74966973085E+03  0.16286094344E+04  0.12699999809E+01 0. -1.
       -4    1    3    3    0  502  0.13548786726E+04 -0.50464458193E+03  0.38031748795E+03  0.14949934368E+04  0.12699999809E+01 0.  1.
</event>
<event>
 5   0  0.1398931E-07  0.3100872E+04  0.7818609E-02  0.8215499E-01
       -2   -1    0    0    0  501  0.00000000000E+00  0.00000000000E+00  0.20368531712E+04  0.20368531712E+04  0.25500000920E-02 0.  1.
        2   -1    0    0  501    0  0.00000000000E+00  0.00000000000E+00 -0.11801794638E+04  0.11801794638E+04  0.25500000920E-02 0. -1.
    10030    2    1    2    0    0  0.00000000000E+00  0.00000000000E+00  0.85667370735E+03  0.32170326350E+04  0.31008723182E+04 0.  0.
        3    1    3    3  502    0 -0.23948241094E+03 -0.14411728851E+04  0.96693892442E+03  0.17519423517E+04  0.10100000352E+00 0.  1.
       -3    1    3    3    0  502  0.23948241094E+03  0.14411728851E+04 -0.11026521707E+03  0.14650902833E+04  0.10100000352E+00 0. -1.
</event>
<event>
 5   0  0.4436241E-08  0.3101302E+04  0.7818609E-02  0.8215381E-01
        1   -1    0    0  501    0  0.00000000000E+00  0.00000000000E+00  0.13387972841E+04  0.13387972841E+04  0.50400001928E-02 0. -1.
       -1   -1    0    0    0  501  0.00000000000E+00  0.00000000000E+00 -0.17960283667E+04  0.17960283667E+04  0.50400001928E-02 0.  1.
    10030    2    1    2    0    0  0.00000000000E+00  0.00000000000E+00 -0.45723108266E+03  0.31348256508E+04  0.31013015974E+04 0.  0.
        3    1    3    3  502    0 -0.94945923083E+03  0.11731822389E+04  0.13116525057E+03  0.15149368732E+04  0.10100000352E+00 0. -1.
       -3    1    3    3    0  502  0.94945923083E+03 -0.11731822389E+04 -0.58839633323E+03  0.16198887776E+04  0.10100000352E+00 0.  1.
</event>
<event>
 5   0  0.4517409E-08  0.3099952E+04  0.7818609E-02  0.8215751E-01
        1   -1    0    0  501    0  0.00000000000E+00  0.00000000000E+00  0.17731020638E+04  0.17731020638E+04  0.50400001928E-02 0.  1.
       -1   -1    0    0    0  501  0.00000000000E+00  0.00000000000E+00 -0.13549277035E+04  0.13549277035E+04  0.50400001928E-02 0. -1.
    10030    2    1    2    0    0  0.00000000000E+00  0.00000000000E+00  0.41817436035E+03  0.31280297673E+04  0.30999516818E+04 0.  0.
        2    1    3    3  502    0 -0.20931742872E+03 -0.14908306618E+04  0.58125746669E+03  0.16137689087E+04  0.25500000920E-02 0.  1.
       -2    1    3    3    0  502  0.20931742872E+03  0.14908306618E+04 -0.16308310633E+03  0.15142608586E+04  0.25500000920E-02 0. -1.
</event>
<event>
 5   0  0.4517409E-08  0.3096556E+04  0.7818609E-02  0.8216684E-01
        1   -1    0    0  501    0  0.00000000000E+00  0.00000000000E+00  0.95126169633E+03  0.95126169635E+03  0.50400001928E-02 0.  1.
       -1   -1    0    0    0  501  0.00000000000E+00  0.00000000000E+00 -0.25199851939E+04  0.25199851939E+04  0.50400001928E-02 0. -1.
    10030    2    1    2    0    0  0.00000000000E+00  0.00000000000E+00 -0.15687234975E+04  0.34712468902E+04  0.30965564037E+04 0.  0.
        2    1    3    3  502    0 -0.29936023464E+03 -0.10547684182E+04  0.44108013248E+03  0.11818225964E+04  0.25500000920E-02 0.  1.
       -2    1    3    3    0  502  0.29936023464E+03  0.10547684182E+04 -0.20098036300E+04  0.22894242939E+04  0.25500000920E-02 0. -1.
</event>
<event>
 5   0  0.1325713E-07  0.3099492E+04  0.7818609E-02  0.8215877E-01
       -2   -1    0    0    0  501  0.00000000000E+00  0.00000000000E+00  0.20341603905E+04  0.20341603905E+04  0.25500000920E-02 0.  1.
        2   -1    0    0  501    0  0.00000000000E+00  0.00000000000E+00 -0.11806897596E+04  0.11806897596E+04  0.25500000920E-02 0. -1.
    10030    2    1    2    0    0  0.00000000000E+00  0.00000000000E+00  0.85347063088E+03  0.32148501501E+04  0.30994917922E+04 0.  0.
        4    1    3    3  502    0  0.12929680697E+04  0.66174578755E+03  0.98725264477E+03  0.17562298580E+04  0.12699999809E+01 0. -1.
       -4    1    3    3    0  502 -0.12929680697E+04 -0.66174578755E+03 -0.13378201389E+03  0.14586202921E+04  0.12699999809E+01 0.  1.
</event>
<event>
 5   0  0.4470354E-08  0.3104311E+04  0.7818609E-02  0.8214556E-01
        1   -1    0    0  501    0  0.00000000000E+00  0.00000000000E+00  0.11618179762E+04  0.11618179762E+04  0.50400001928E-02 0.  1.
       -1   -1    0    0    0  501  0.00000000000E+00  0.00000000000E+00 -0.20736348182E+04  0.20736348182E+04  0.50400001928E-02 0. -1.
    10030    2    1    2    0    0  0.00000000000E+00  0.00000000000E+00 -0.91181684197E+03  0.32354527945E+04  0.31043106855E+04 0.  0.
        1    1    3    3  502    0 -0.10918143706E+04 -0.12946157548E+03 -0.15978055050E+04  0.19395363754E+04  0.50400001928E-02 0. -1.
       -1    1    3    3    0  502  0.10918143706E+04  0.12946157548E+03  0.68598866307E+03  0.12959164191E+04  0.50400001928E-02 0.  1.
</event>
<event>
 5   0  0.4470354E-08  0.3096696E+04  0.7818609E-02  0.8216645E-01
        1   -1    0    0  501    0  0.00000000000E+00  0.00000000000E+00  0.17140016714E+04  0.17140016714E+04  0.50400001928E-02 0.  1.
       -1   -1    0    0    0  501  0.00000000000E+00  0.00000000000E+00 -0.13987041859E+04  0.13987041859E+04  0.50400001928E-02 0. -1.
    10030    2    1    2    0    0  0.00000000000E+00  0.00000000000E+00  0.31529748545E+03  0.31127058573E+04  0.30966958601E+04 0.  0.
        1    1    3    3  502    0  0.13578656449E+04 -0.73944332087E+03  0.74725090994E+02  0.15479532854E+04  0.50400001928E-02 0.  1.
       -1    1    3    3    0  502 -0.13578656449E+04  0.73944332087E+03  0.24057239446E+03  0.15647525719E+04  0.50400001928E-02 0. -1.
</event>
<event>
 5   0  0.1318916E-07  0.3100234E+04  0.7818609E-02  0.8215674E-01
       -2   -1    0    0    0  501  0.00000000000E+00  0.00000000000E+00  0.99864833718E+03  0.99864833718E+03  0.25500000920E-02 0. -1.
        2   -1    0    0  501    0  0.00000000000E+00  0.00000000000E+00 -0.24061151264E+04  0.24061151264E+04  0.25500000920E-02 0.  1.
    10030    2    1    2    0    0  0.00000000000E+00  0.00000000000E+00 -0.14074667892E+04  0.34047634636E+04  0.31002341009E+04 0.  0.
        5    1    3    3  502    0 -0.38235899762E+03 -0.76913124386E+02 -0.23513412089E+04  0.23834725932E+04  0.46999998093E+01 0.  1.
       -5    1    3    3    0  502  0.38235899762E+03  0.76913124386E+02  0.94387441970E+03  0.10212908704E+04  0.46999998093E+01 0. -1.
</event>
<event>
 5   0  0.1329777E-07  0.3101760E+04  0.7818609E-02  0.8215255E-01
        2   -1    0    0  501    0  0.00000000000E+00  0.00000000000E+00  0.12088926999E+04  0.12088926999E+04  0.25500000920E-02 0.  1.
       -2   -1    0    0    0  501  0.00000000000E+00  0.00000000000E+00 -0.19896129686E+04  0.19896129686E+04  0.25500000920E-02 0. -1.
    10030    2    1    2    0    0  0.00000000000E+00  0.00000000000E+00 -0.78072026870E+03  0.31985056684E+04  0.31017598832E+04 0.  0.
        1    1    3    3  502    0 -0.76143318402E+03 -0.11411554983E+04  0.35553520376E+03  0.14171879361E+04  0.50400001928E-02 0.  1.
       -1    1    3    3    0  502  0.76143318402E+03  0.11411554983E+04 -0.11362554725E+04  0.17813177324E+04  0.50400001928E-02 0. -1.
</event>
<event>
 5   0  0.1329777E-07  0.3100130E+04  0.7818609E-02  0.8215702E-01
       -2   -1    0    0    0  501  0.00000000000E+00  0.00000000000E+00  0.11277183232E+04  0.11277183232E+04  0.25500000920E-02 0.  1.
        2   -1    0    0  501    0  0.00000000000E+00  0.00000000000E+00 -0.21305863187E+04  0.21305863187E+04  0.25500000920E-02 0. -1.
    10030    2    1    2    0    0  0.00000000000E+00  0.00000000000E+00 -0.10028679956E+04  0.32583046419E+04  0.31001298235E+04 0.  0.
        1    1    3    3  502    0 -0.25803703564E+03  0.11416936310E+04 -0.15694780698E+04  0.19578837735E+04  0.50400001928E-02 0. -1.
       -1    1    3    3    0  502  0.25803703564E+03 -0.11416936310E+04  0.56661007422E+03  0.13004208684E+04  0.50400001928E-02 0.  1.
</event>
<event>
 5   0  0.4436241E-08  0.3099599E+04  0.7818609E-02  0.8215848E-01
        1   -1    0    0  501    0  0.00000000000E+00  0.00000000000E+00  0.16636179380E+04  0.16636179380E+04  0.50400001928E-02 0.  1.
       -1   -1    0    0    0  501  0.00000000000E+00  0.00000000000E+00 -0.14437676597E+04  0.14437676597E+04  0.50400001928E-02 0. -1.
    10030    2    1    2    0    0  0.00000000000E+00  0.00000000000E+00  0.21985027828E+03  0.31073855977E+04  0.30995985398E+04 0.  0.
        3    1    3    3  502    0 -0.86557772019E+03  0.85864866249E+03 -0.84923104567E+03  0.14858316508E+04  0.10100000352E+00 0. -1.
       -3    1    3    3    0  502  0.86557772019E+03 -0.85864866249E+03  0.10690813240E+04  0.16215539469E+04  0.10100000352E+00 0.  1.
</event>
<event>
 5   0  0.1318916E-07  0.3100620E+04  0.7818609E-02  0.8215568E-01
       -2   -1    0    0    0  501  0.00000000000E+00  0.00000000000E+00  0.10559244871E+04  0.10559244871E+04  0.25500000920E-02 0.  1.
        2   -1    0    0  501    0  0.00000000000E+00  0.00000000000E+00 -0.22761681169E+04  0.22761681169E+04  0.25500000920E-02 0. -1.
    10030    2    1    2    0    0  0.00000000000E+00  0.00000000000E+00 -0.12202436297E+04  0.33320926040E+04  0.31006203582E+04 0.  0.
        5    1    3    3  502    0 -0.78938671208E+03  0.62357873372E+03 -0.18777838365E+04  0.21302760490E+04  0.46999998093E+01 0. -1.
       -5    1    3    3    0  502  0.78938671208E+03 -0.62357873372E+03  0.65754020676E+03  0.12018165550E+04  0.46999998093E+01 0.  1.
</event>
<event>
 5   0  0.1377237E-07  0.3093017E+04  0.7818609E-02  0.8217657E-01
       -2   -1    0    0    0  501  0.00000000000E+00  0.00000000000E+00  0.14996843870E+04  0.14996843870E+04  0.25500000920E-02 0.  1.
        2   -1    0    0  501    0  0.00000000000E+00  0.00000000000E+00 -0.15947948034E+04  0.15947948034E+04  0.25500000920E-02 0. -1.
    10030    2    1    2    0    0  0.00000000000E+00  0.00000000000E+00 -0.95110416392E+02  0.30944791903E+04  0.30930172111E+04 0.  0.
        2    1    3    3  502    0 -0.15021001822E+04 -0.10582082453E+03 -0.40012192339E+03  0.15580759153E+04  0.25500000920E-02 0. -1.
       -2    1    3    3    0  502  0.15021001822E+04  0.10582082453E+03  0.30501150700E+03  0.15364032751E+04  0.25500000920E-02 0.  1.
</event>
<event>
 5   0  0.4838602E-08  0.3100943E+04  0.7818609E-02  0.8215479E-01
       -1   -1    0    0    0  501  0.00000000000E+00  0.00000000000E+00  0.16837244463E+04  0.16837244463E+04  0.50400001928E-02 0. -1.
        1   -1    0    0  501    0  0.00000000000E+00  0.00000000000E+00 -0.14277642968E+04  0.14277642968E+04  0.50400001928E-02 0.  1.
    10030    2    1    2    0    0  0.00000000000E+00  0.00000000000E+00  0.25596014956E+03  0.31114887431E+04  0.31009428566E+04 0.  0.
        5    1    3    3  502    0 -0.80592856175E+03  0.49786692957E+03  0.13595692045E+04  0.16570584896E+04  0.46999998093E+01 0. -1.
       -5    1    3    3    0  502  0.80592856175E+03 -0.49786692957E+03 -0.11036090549E+04  0.14544302535E+04  0.46999998093E+01 0.  1.
</event>
<event>
 5   0  0.1329777E-07  0.3090521E+04  0.7818609E-02  0.8218344E-01
        2   -1    0    0  501    0  0.00000000000E+00  0.00000000000E+00  0.15633979421E+04  0.15633979421E+04  0.25500000920E-02 0. -1.
       -2   -1    0    0    0  501  0.00000000000E+00  0.00000000000E+00 -0.15273330525E+04  0.15273330525E+04  0.25500000920E-02 0.  1.
    10030    2    1    2    0    0  0.00000000000E+00  0.00000000000E+00  0.36064889551E+02  0.30907309946E+04  0.30905205718E+04 0.  0.
        1    1    3    3  502    0  0.59383154087E+03 -0.12879737029E+04 -0.59545629921E+03  0.15382068660E+04  0.50400001928E-02 0.  1.
       -1    1    3    3    0  502 -0.59383154087E+03  0.12879737029E+04  0.63152118876E+03  0.15525241287E+04  0.50400001928E-02 0. -1.
</event>
<event>
 5   0  0.1325713E-07  0.3104381E+04  0.7818609E-02  0.8214537E-01
        2   -1    0    0  501    0  0.00000000000E+00  0.00000000000E+00  0.18434381727E+04  0.18434381727E+04  0.25500000920E-02 0. -1.
       -2   -1    0    0    0  501  0.00000000000E+00  0.00000000000E+00 -0.13069577368E+04  0.13069577368E+04  0.25500000920E-02 0.  1.
    10030    2    1    2    0    0  0.00000000000E+00  0.00000000000E+00  0.53648043587E+03  0.31503959095E+04  0.31043812795E+04 0.  0.
        4    1    3    3  502    0  0.98331447972E+03  0.10878066478E+04 -0.24828697906E+03  0.14872386177E+04  0.12699999809E+01 0.  1.
       -4    1    3    3    0  502 -0.98331447972E+03 -0.10878066478E+04  0.78476741493E+03  0.16631572918E+04  0.12699999809E+01 0. -1.
</event>
<event>
 5   0  0.1329777E-07  0.3099128E+04  0.7818609E-02  0.8215977E-01
       -2   -1    0    0    0  501  0.00000000000E+00  0.00000000000E+00  0.88753944121E+03  0.88753944121E+03  0.25500000920E-02 0. -1.
        2   -1    0    0  501    0  0.00000000000E+00  0.00000000000E+00 -0.27053989538E+04  0.27053989538E+04  0.25500000920E-02 0.  1.
    10030    2    1    2    0    0  0.00000000000E+00  0.00000000000E+00 -0.18178595126E+04  0.35929383950E+04  0.30991277971E+04 0.  0.
        1    1    3    3  502    0 -0.93586835125E+03 -0.78513860466E+03 -0.20141729344E+04  0.23556707769E+04  0.50400001928E-02 0.  1.
       -1    1    3    3    0  502  0.93586835125E+03  0.78513860466E+03  0.19631342176E+03  0.12372676182E+04  0.50400001928E-02 0. -1.
</event>
<event>
 5   0  0.1377237E-07  0.3100141E+04  0.7818609E-02  0.8215699E-01
        2   -1    0    0  501    0  0.00000000000E+00  0.00000000000E+00  0.22124703893E+04  0.22124703893E+04  0.25500000920E-02 0. -1.
       -2   -1    0    0    0  501  0.00000000000E+00  0.00000000000E+00 -0.10859892314E+04  0.10859892314E+04  0.25500000920E-02 0.  1.
    10030    2    1    2    0    0  0.00000000000E+00  0.00000000000E+00  0.11264811578E+04  0.32984596207E+04  0.31001412985E+04 0.  0.
        2    1    3    3  502    0 -0.15179916247E+04  0.15503082569E+03  0.27305557876E+03  0.15501266008E+04  0.25500000920E-02 0.  1.
       -2    1    3    3    0  502  0.15179916247E+04 -0.15503082569E+03  0.85342557907E+03  0.17483330199E+04  0.25500000920E-02 0. -1.
</event>
<event>
 5   0  0.4517409E-08  0.3100591E+04  0.7818609E-02  0.8215576E-01
        1   -1    0    0  501    0  0.00000000000E+00  0.00000000000E+00  0.19493843422E+04  0.19493843423E+04  0.50400001928E-02 0.  1.
       -1   -1    0    0    0  501  0.00000000000E+00  0.00000000000E+00 -0.12329103646E+04  0.12329103646E+04  0.50400001928E-02 0. -1.
    10030    2    1    2    0    0  0.00000000000E+00  0.00000000000E+00  0.71647397762E+03  0.31822947069E+04  0.31005910148E+04 0.  0.
        2    1    3    3  502    0 -0.10379564234E+04  0.11505592467E+04  0.40720203450E+03  0.16021715307E+04  0.25500000920E-02 0. -1.
       -2    1    3    3    0  502  0.10379564234E+04 -0.11505592467E+04  0.30927194313E+03  0.15801231762E+04  0.25500000920E-02 0.  1.
</event>
<event>
 5   0  0.4517409E-08  0.3100004E+04  0.7818609E-02  0.8215737E-01
        1   -1    0    0  501    0  0.00000000000E+00  0.00000000000E+00  0.16909491841E+04  0.16909491841E+04  0.50400001928E-02 0.  1.
       -1   -1    0    0    0  501  0.00000000000E+00  0.00000000000E+00 -0.14208034683E+04  0.14208034683E+04  0.50400001928E-02 0. -1.
    10030    2    1    2    0    0  0.00000000000E+00  0.00000000000E+00  0.27014571576E+03  0.31117526524E+04  0.31000041713E+04 0.  0.
        2    1    3    3  502    0 -0.51672398876E+03  0.76337412237E+03 -0.11157486490E+04  0.14472866955E+04  0.25500000920E-02 0.  1.
       -2    1    3    3    0  502  0.51672398876E+03 -0.76337412237E+03  0.13858943648E+04  0.16644659569E+04  0.25500000920E-02 0. -1.
</event>
<event>
 5   0  0.1329777E-07  0.3096613E+04  0.7818609E-02  0.8216668E-01
        2   -1    0    0  501    0  0.00000000000E+00  0.00000000000E+00  0.10343471822E+04  0.10343471822E+04  0.25500000920E-02 0.  1.
       -2   -1    0    0    0  501  0.00000000000E+00  0.00000000000E+00 -0.23176479570E+04  0.23176479570E+04  0.25500000920E-02 0. -1.
    10030    2    1    2    0    0  0.00000000000E+00  0.00000000000E+00 -0.12833007748E+04  0.33519951392E+04  0.30966127518E+04 0.  0.
        1    1    3    3  502    0  0.97010011213E+03  0.45181506650E+03 -0.18528685781E+04  0.21397086366E+04  0.50400001928E-02 0. -1.
       -1    1    3    3    0  502 -0.97010011213E+03 -0.45181506650E+03  0.56956780328E+03  0.12122865026E+04  0.50400001928E-02 0.  1.
</event>
<event>
 5   0  0.4470354E-08  0.3099497E+04  0.7818609E-02  0.8215876E-01
       -1   -1    0    0    0  501  0.00000000000E+00  0.00000000000E+00  0.89546347442E+03  0.89546347443E+03  0.50400001928E-02 0. -1.
        1   -1    0    0  501    0  0.00000000000E+00  0.00000000000E+00 -0.26820974266E+04  0.26820974266E+04  0.50400001928E-02 0.  1.
    10030    2    1    2    0    0  0.00000000000E+00  0.00000000000E+00 -0.17866339522E+04  0.35775609010E+04  0.30994969143E+04 0.  0.
        1    1    3    3  502    0 -0.10039858374E+04 -0.62840247956E+02  0.46740517010E+03  0.11092357962E+04  0.50400001928E-02 0. -1.
       -1    1    3    3    0  502  0.10039858374E+04  0.62840247956E+02 -0.22540391223E+04  0.24683251049E+04  0.50400001928E-02 0.  1.
</event>
<event>
 5   0  0.4838602E-08  0.3099631E+04  0.7818609E-02  0.8215839E-01
       -1   -1    0    0    0  501  0.00000000000E+00  0.00000000000E+00  0.13465669463E+04  0.13465669463E+04  0.50400001928E-02 0. -1.
        1   -1    0    0  501    0  0.00000000000E+00  0.00000000000E+00 -0.17837420343E+04  0.17837420343E+04  0.50400001928E-02 0.  1.
    10030    2    1    2    0    0  0.00000000000E+00  0.00000000000E+00 -0.43717508804E+03  0.31303089806E+04  0.30996309871E+04 0.  0.
        5    1    3    3  502    0 -0.36946258347E+03  0.70500809285E+03  0.11243734831E+04  0.13775982110E+04  0.46999998093E+01 0. -1.
       -5    1    3    3    0  502  0.36946258347E+03 -0.70500809285E+03 -0.15615485711E+04  0.17527107695E+04  0.46999998093E+01 0.  1.
</event>
<event>
 5   0  0.1398931E-07  0.3100201E+04  0.7818609E-02  0.8215683E-01
       -2   -1    0    0    0  501  0.00000000000E+00  0.00000000000E+00  0.13936810886E+04  0.13936810886E+04  0.25500000920E-02 0. -1.
        2   -1    0    0  501    0  0.00000000000E+00  0.00000000000E+00 -0.17240760815E+04  0.17240760815E+04  0.25500000920E-02 0.  1.
    10030    2    1    2    0    0  0.00000000000E+00  0.00000000000E+00 -0.33039499292E+03  0.31177571701E+04  0.31002014322E+04 0.  0.
        3    1    3    3  502    0 -0.81751296980E+03  0.12849473552E+04 -0.45561482953E+03  0.15896546935E+04  0.10100000352E+00 0.  1.
       -3    1    3    3    0  502  0.81751296980E+03 -0.12849473552E+04  0.12521983661E+03  0.15281024766E+04  0.10100000352E+00 0. -1.
</event>
<event>
 5   0  0.4450600E-08  0.3100352E+04  0.7818609E-02  0.8215641E-01
       -1   -1    0    0    0  501  0.00000000000E+00  0.00000000000E+00  0.11147191479E+04  0.11147191479E+04  0.50400001928E-02 0. -1.
        1   -1    0    0  501    0  0.00000000000E+00  0.00000000000E+00 -0.21557413620E+04  0.21557413620E+04  0.50400001928E-02 0.  1.
    10030    2    1    2    0    0  0.00000000000E+00  0.00000000000E+00 -0.10410222141E+04  0.32704605099E+04  0.31003523504E+04 0.  0.
        4    1    3    3  502    0 -0.36343372425E+03  0.10914184190E+04  0.57562061178E+03  0.12863199209E+04  0.12699999809E+01 0. -1.
       -4    1    3    3    0  502  0.36343372425E+03 -0.10914184190E+04 -0.16166428259E+04  0.19841405890E+04  0.12699999809E+01 0.  1.
</event>
<event>
 5   0  0.1377237E-07  0.3099796E+04  0.7818609E-02  0.8215794E-01
        2   -1    0    0  501    0  0.00000000000E+00  0.00000000000E+00  0.79103530841E+03  0.79103530841E+03  0.25500000920E-02 0.  1.
       -2   -1    0    0    0  501  0.00000000000E+00  0.00000000000E+00 -0.30367589459E+04  0.30367589459E+04  0.25500000920E-02 0. -1.
    10030    2    1    2    0    0  0.00000000000E+00  0.00000000000E+00 -0.22457236374E+04  0.38277942543E+04  0.30997958315E+04 0.  0.
        2    1    3    3  502    0 -0.48122241633E+03  0.25495810764E+03  0.66899761480E+03  0.86263344431E+03  0.25500000920E-02 0.  1.
       -2    1    3    3    0  502  0.48122241633E+03 -0.25495810764E+03 -0.29147212522E+04  0.29651608100E+04  0.25500000920E-02 0. -1.
</event>
<event>
 5   0  0.4470354E-08  0.3100247E+04  0.7818609E-02  0.8215670E-01
       -1   -1    0    0    0  501  0.00000000000E+00  0.00000000000E+00  0.12814775654E+04  0.12814775654E+04  0.50400001928E-02 0. -1.
        1   -1    0    0  501    0  0.00000000000E+00  0.00000000000E+00 -0.18750876546E+04  0.18750876546E+04  0.50400001928E-02 0.  1.
    10030    2    1    2    0    0  0.00000000000E+00  0.00000000000E+00 -0.59361008919E+03  0.31565652200E+04  0.31002469338E+04 0.  0.
        1    1    3    3  502    0 -0.85900105133E+03 -0.95363795703E+03  0.58822325170E+03  0.14118479922E+04  0.50400001928E-02 0. -1.
       -1    1    3    3    0  502  0.85900105133E+03  0.95363795703E+03 -0.11818333409E+04  0.17447172278E+04  0.50400001928E-02 0.  1.
</event>
<event>
 5   0  0.4470354E-08  0.3099611E+04  0.7818609E-02  0.8215845E-01
       -1   -1    0    0    0  501  0.00000000000E+00  0.00000000000E+00  0.23201440067E+04  0.23201440067E+04  0.50400001928E-02 0. -1.
        1   -1    0    0  501    0  0.00000000000E+00  0.00000000000E+00 -0.10352364485E+04  0.10352364485E+04  0.50400001928E-02 0.  1.
    10030    2    1    2    0    0  0.00000000000E+00  0.00000000000E+00  0.12849075583E+04  0.33553804552E+04  0.30996113572E+04 0.  0.
        1    1    3    3  502    0 -0.14109538760E+04 -0.98071374114E+00  0.13365366869E+04  0.19434819571E+04  0.50400001928E-02 0. -1.
       -1    1    3    3    0  502  0.14109538760E+04  0.98071374114E+00 -0.51629128672E+02  0.14118984981E+04  0.50400001928E-02 0.  1.
</event>
<event>
 5   0  0.1318916E-07  0.3093759E+04  0.7818609E-02  0.8217453E-01
        2   -1    0    0  501    0  0.00000000000E+00  0.00000000000E+00  0.18437578413E+04  0.18437578414E+04  0.25500000920E-02 0.  1.
       -2   -1    0    0    0  501  0.00000000000E+00  0.00000000000E+00 -0.12978042777E+04  0.12978042777E+04  0.25500000920E-02 0. -1.
    10030    2    1    2    0    0  0.00000000000E+00  0.00000000000E+00  0.54595356369E+03  0.31415621190E+04  0.30937594047E+04 0.  0.
        5    1    3    3  502    0 -0.13881854449E+04 -0.28069033683E+03  0.90465675275E+03  0.16805569984E+04  0.46999998093E+01 0. -1.
       -5    1    3    3    0  502  0.13881854449E+04  0.28069033683E+03 -0.35870318907E+03  0.14610051206E+04  0.46999998093E+01 0.  1.
</event>
<event>
 5   0  0.4436241E-08  0.3095766E+04  0.7818609E-02  0.8216901E-01
        1   -1    0    0  501    0  0.00000000000E+00  0.00000000000E+00  0.11946920146E+04  0.11946920146E+04  0.50400001928E-02 0. -1.
       -1   -1    0    0    0  501  0.00000000000E+00  0.00000000000E+00 -0.20054885371E+04  0.20054885371E+04  0.50400001928E-02 0.  1.
    10030    2    1    2    0    0  0.00000000000E+00  0.00000000000E+00 -0.81079652248E+03  0.32001805517E+04  0.30957655859E+04 0.  0.
        3    1    3    3  502    0 -0.72013989884E+03 -0.10540468828E+04 -0.13103238332E+04  0.18293618732E+04  0.10100000352E+00 0.  1.
       -3    1    3    3    0  502  0.72013989884E+03  0.10540468828E+04  0.49952731070E+03  0.13708186785E+04  0.10100000352E+00 0. -1.
</event>
<event>
 5   0  0.4436241E-08  0.3100113E+04  0.7818609E-02  0.8215707E-01
       -1   -1    0    0    0  501  0.00000000000E+00  0.00000000000E+00  0.10045229202E+04  0.10045229202E+04  0.50400001928E-02 0. -1.
        1   -1    0    0  501    0  0.00000000000E+00  0.00000000000E+00 -0.23918562621E+04  0.23918562621E+04  0.50400001928E-02 0.  1.
    10030    2    1    2    0    0  0.00000000000E+00  0.00000000000E+00 -0.13873333419E+04  0.33963791823E+04  0.31001125380E+04 0.  0.
        3    1    3    3  502    0  0.68374501653E+03  0.13787143451E+04 -0.89660961910E+03  0.17810865539E+04  0.10100000352E+00 0.  1.
       -3    1    3    3    0  502 -0.68374501653E+03 -0.13787143451E+04 -0.49072372276E+03  0.16152926284E+04  0.10100000352E+00 0. -1.
</event>
<event>
 5   0  0.1377237E-07  0.3093352E+04  0.7818609E-02  0.8217565E-01
        2   -1    0    0  501    0  0.00000000000E+00  0.00000000000E+00  0.10056980042E+04  0.10056980042E+04  0.25500000920E-02 0.  1.
       -2   -1    0    0    0  501  0.00000000000E+00  0.00000000000E+00 -0.23786538194E+04  0.23786538194E+04  0.25500000920E-02 0. -1.
    10030    2    1    2    0    0  0.00000000000E+00  0.00000000000E+00 -0.13729558152E+04  0.33843518236E+04  0.30933524848E+04 0.  0.
        2    1    3    3  502    0  0.13721964465E+04  0.70777275160E+03 -0.78640478212E+03  0.17327140091E+04  0.25500000920E-02 0.  1.
       -2    1    3    3    0  502 -0.13721964465E+04 -0.70777275160E+03 -0.58655103312E+03  0.16516378145E+04  0.25500000920E-02 0. -1.
</event>
<event>
 5   0  0.1325713E-07  0.3099185E+04  0.7818609E-02  0.8215962E-01
       -2   -1    0    0    0  501  0.00000000000E+00  0.00000000000E+00  0.12883923624E+04  0.12883923624E+04  0.25500000920E-02 0. -1.
        2   -1    0    0  501    0  0.00000000000E+00  0.00000000000E+00 -0.18637468906E+04  0.18637468906E+04  0.25500000920E-02 0.  1.
    10030    2    1    2    0    0  0.00000000000E+00  0.00000000000E+00 -0.57535452818E+03  0.31521392530E+04  0.30991852215E+04 0.  0.
        4    1    3    3  502    0  0.29006159633E+03 -0.25153299541E+03  0.12392506810E+04  0.12973621086E+04  0.12699999809E+01 0. -1.
       -4    1    3    3    0  502 -0.29006159633E+03  0.25153299541E+03 -0.18146052092E+04  0.18547771445E+04  0.12699999809E+01 0.  1.
</event>
<event>
 5   0  0.4436241E-08  0.3098535E+04  0.7818609E-02  0.8216140E-01
        1   -1    0    0  501    0  0.00000000000E+00  0.00000000000E+00  0.18982236825E+04  0.18982236825E+04  0.50400001928E-02 0.  1.
       -1   -1    0    0    0  501  0.00000000000E+00  0.00000000000E+00 -0.12644607094E+04  0.12644607094E+04  0.50400001928E-02 0. -1.
    10030    2    1    2    0    0  0.00000000000E+00  0.00000000000E+00  0.63376297314E+03  0.31626843919E+04  0.30985346628E+04 0.  0.
        3    1    3    3  502    0 -0.46980418871E+03  0.78134474758E+03 -0.96165421366E+03  0.13251393991E+04  0.10100000352E+00 0. -1.
       -3    1    3    3    0  502  0.46980418871E+03 -0.78134474758E+03  0.15954171868E+04  0.18375449928E+04  0.10100000352E+00 0.  1.
</event>
<event>
 5   0  0.1377237E-07  0.3102590E+04  0.7818609E-02  0.8215027E-01
       -2   -1    0    0    0  501  0.00000000000E+00  0.00000000000E+00  0.18780118579E+04  0.18780118579E+04  0.25500000920E-02 0.  1.
        2   -1    0    0  501    0  0.00000000000E+00  0.00000000000E+00 -0.12814170964E+04  0.12814170964E+04  0.25500000920E-02 0. -1.
    10030    2    1    2    0    0  0.00000000000E+00  0.00000000000E+00  0.59659476143E+03  0.31594289543E+04  0.31025902095E+04 0.  0.
        2    1    3    3  502    0 -0.90778438884E+03  0.77571490975E+03  0.13067478284E+04  0.17701401088E+04  0.25500000920E-02 0.  1.
       -2    1    3    3    0  502  0.90778438884E+03 -0.77571490975E+03 -0.71015306692E+03  0.13892888455E+04  0.25500000920E-02 0. -1.
</event>
<event>
 5   0  0.1325713E-07  0.3101140E+04  0.7818609E-02  0.8215425E-01
       -2   -1    0    0    0  501  0.00000000000E+00  0.00000000000E+00  0.22646351226E+04  0.22646351226E+04  0.25500000920E-02 0.  1.
        2   -1    0    0  501    0  0.00000000000E+00  0.00000000000E+00 -0.10616576524E+04  0.10616576524E+04  0.25500000920E-02 0. -1.
    10030    2    1    2    0    0  0.00000000000E+00  0.00000000000E+00  0.12029774702E+04  0.33262927750E+04  0.31011399245E+04 0.  0.
        4    1    3    3  502    0  0.77946220112E+03 -0.12497864655E+04  0.81814879741E+02  0.14752026368E+04  0.12699999809E+01 0. -1.
       -4    1    3    3    0  502 -0.77946220112E+03  0.12497864655E+04  0.11211625905E+04  0.18510901381E+04  0.12699999809E+01 0.  1.
</event>
<event>
 5   0  0.1398931E-07  0.3097570E+04  0.7818609E-02  0.8216405E-01
        2   -1    0    0  501    0  0.00000000000E+00  0.00000000000E+00  0.13069480956E+04  0.13069480956E+04  0.25500000920E-02 0. -1.
       -2   -1    0    0    0  501  0.00000000000E+00  0.00000000000E+00 -0.18353716946E+04  0.18353716946E+04  0.25500000920E-02 0.  1.
    10030    2    1    2    0    0  0.00000000000E+00  0.00000000000E+00 -0.52842359893E+03  0.31423197902E+04  0.30975703647E+04 0.  0.
        3    1    3    3  502    0  0.37528886041E+03 -0.70998234457E+03 -0.16076619908E+04  0.17970792262E+04  0.10100000352E+00 0.  1.
       -3    1    3    3    0  502 -0.37528886041E+03  0.70998234457E+03  0.10792383919E+04  0.13452405640E+04  0.10100000352E+00 0. -1.
</event>
<event>
 5   0  0.4436241E-08  0.3098965E+04  0.7818609E-02  0.8216022E-01
       -1   -1    0    0    0  501  0.00000000000E+00  0.00000000000E+00  0.13054275238E+04  0.13054275238E+04  0.50400001928E-02 0. -1.
        1   -1    0    0  501    0  0.00000000000E+00  0.00000000000E+00 -0.18391640567E+04  0.18391640567E+04  0.50400001928E-02 0.  1.
    10030    2    1    2    0    0  0.00000000000E+00  0.00000000000E+00 -0.53373653291E+03  0.31445915805E+04  0.30989645886E+04 0.  0.
        3    1    3    3  502    0 -0.11068642803E+04  0.80988329026E+03 -0.99848017232E+03  0.16964734432E+04  0.10100000352E+00 0. -1.
       -3    1    3    3    0  502  0.11068642803E+04 -0.80988329026E+03  0.46474363941E+03  0.14481181373E+04  0.10100000352E+00 0.  1.
</event>
<event>
 5   0  0.1377237E-07  0.3098880E+04  0.7818609E-02  0.8216045E-01
        2   -1    0    0  501    0  0.00000000000E+00  0.00000000000E+00  0.22100792876E+04  0.22100792876E+04  0.25500000920E-02 0.  1.
       -2   -1    0    0    0  501  0.00000000000E+00  0.00000000000E+00 -0.10862800225E+04  0.10862800225E+04  0.25500000920E-02 0. -1.
    10030    2    1    2    0    0  0.00000000000E+00  0.00000000000E+00  0.11237992650E+04  0.32963593101E+04  0.30988804290E+04 0.  0.
        2    1    3    3  502    0  0.89749310788E+03 -0.87664245838E+03 -0.40531274081E+03  0.13184363073E+04  0.25500000920E-02 0. -1.
       -2    1    3    3    0  502 -0.89749310788E+03  0.87664245838E+03  0.15291120059E+04  0.19779230028E+04  0.25500000920E-02 0.  1.
</event>
<event>
 5   0  0.4305500E-08  0.3099816E+04  0.7818609E-02  0.8215789E-01
        3   -1    0    0  501    0  0.00000000000E+00  0.00000000000E+00  0.15478382973E+04  0.15478383006E+04  0.10100000352E+00 0. -1.
       -3   -1    0    0    0  501  0.00000000000E+00  0.00000000000E+00 -0.15519801001E+04  0.15519801034E+04  0.10100000352E+00 0.  1.
    10030    2    1    2    0    0  0.00000000000E+00  0.00000000000E+00 -0.41418027980E+01  0.30998184041E+04  0.30998156370E+04 0.  0.
        4    1    3    3  502    0  0.36215165181E+03  0.17893076987E+03  0.14942735078E+04  0.15479098709E+04  0.12699999809E+01 0. -1.
       -4    1    3    3    0  502 -0.36215165181E+03 -0.17893076987E+03 -0.14984153106E+04  0.15519085332E+04  0.12699999809E+01 0.  1.
</event>
<event>
 5   0  0.4450600E-08  0.3099594E+04  0.7818609E-02  0.8215849E-01
        1   -1    0    0  501    0  0.00000000000E+00  0.00000000000E+00  0.22683489380E+04  0.22683489380E+04  0.50400001928E-02 0. -1.
       -1   -1    0    0    0  501  0.00000000000E+00  0.00000000000E+00 -0.10588631950E+04  0.10588631950E+04  0.50400001928E-02 0.  1.
    10030    2    1    2    0    0  0.00000000000E+00  0.00000000000E+00  0.12094857429E+04  0.33272121330E+04  0.30995942986E+04 0.  0.
        4    1    3    3  502    0  0.57002988857E+03 -0.96497432004E+03 -0.54426361607E+03  0.12459269677E+04  0.12699999809E+01 0.  1.
       -4    1    3    3    0  502 -0.57002988857E+03  0.96497432004E+03  0.17537493590E+04  0.20812851653E+04  0.12699999809E+01 0. -1.
</event>
<event>
 5   0  0.1377237E-07  0.3100066E+04  0.7818609E-02  0.8215720E-01
       -2   -1    0    0    0  501  0.00000000000E+00  0.00000000000E+00  0.17048115181E+04  0.17048115181E+04  0.25500000920E-02 0.  1.
        2   -1    0    0  501    0  0.00000000000E+00  0.00000000000E+00 -0.14093064924E+04  0.14093064924E+04  0.25500000920E-02 0. -1.
    10030    2    1    2    0    0  0.00000000000E+00  0.00000000000E+00  0.29550502568E+03  0.31141180105E+04  0.31000657676E+04 0.  0.
        2    1    3    3  502    0  0.40232592933E+03 -0.12336028421E+04 -0.70400596988E+03  0.14762339012E+04  0.25500000920E-02 0. -1.
       -2    1    3    3    0  502 -0.40232592933E+03  0.12336028421E+04  0.99951099556E+03  0.16378841093E+04  0.25500000920E-02 0.  1.
</event>
<event>
 5   0  0.4838602E-08  0.3095433E+04  0.7818609E-02  0.8216992E-01
        1   -1    0    0  501    0  0.00000000000E+00  0.00000000000E+00  0.22507480998E+04  0.22507480998E+04  0.50400001928E-02 0. -1.
       -1   -1    0    0    0  501  0.00000000000E+00  0.00000000000E+00 -0.10642799916E+04  0.10642799916E+04  0.50400001928E-02 0.  1.
    10030    2    1    2    0    0  0.00000000000E+00  0.00000000000E+00  0.11864681082E+04  0.33150280914E+04  0.30954328736E+04 0.  0.
        5    1    3    3  502    0 -0.93654602872E+03 -0.76530196854E+03  0.16274546482E+04  0.20276676969E+04  0.46999998093E+01 0. -1.
       -5    1    3    3    0  502  0.93654602872E+03  0.76530196854E+03 -0.44098653999E+03  0.12873603945E+04  0.46999998093E+01 0.  1.
</event>
<event>
 5   0  0.4838602E-08  0.3095511E+04  0.7818609E-02  0.8216971E-01
        1   -1    0    0  501    0  0.00000000000E+00  0.00000000000E+00  0.19416432747E+04  0.19416432747E+04  0.50400001928E-02 0.  1.
       -1   -1    0    0    0  501  0.00000000000E+00  0.00000000000E+00 -0.12337728461E+04  0.12337728461E+04  0.50400001928E-02 0. -1.
    10030    2    1    2    0    0  0.00000000000E+00  0.00000000000E+00  0.70787042857E+03  0.31754161208E+04  0.30955107812E+04 0.  0.
        5    1    3    3  502    0 -0.76391635659E+02  0.13127580935E+04 -0.48344213366E+03  0.14010381439E+04  0.46999998093E+01 0. -1.
       -5    1    3    3    0  502  0.76391635659E+02 -0.13127580935E+04  0.11913125622E+04  0.17743779769E+04  0.46999998093E+01 0.  1.
</event>
<event>
 5   0  0.4436241E-08  0.3099792E+04  0.7818609E-02  0.8215795E-01
       -1   -1    0    0    0  501  0.00000000000E+00  0.00000000000E+00  0.12371130672E+04  0.12371130672E+04  0.50400001928E-02 0. -1.
        1   -1    0    0  501    0  0.00000000000E+00  0.00000000000E+00 -0.19417607283E+04  0.19417607283E+04  0.50400001928E-02 0.  1.
    10030    2    1    2    0    0  0.00000000000E+00  0.00000000000E+00 -0.70464766109E+03  0.31788737955E+04  0.30997919739E+04 0.  0.
        3    1    3    3  502    0 -0.45300979924E+03  0.14749454570E+04 -0.50267794941E+03  0.16227652665E+04  0.10100000352E+00 0.  1.
       -3    1    3    3    0  502  0.45300979924E+03 -0.14749454570E+04 -0.20196971168E+03  0.15561085290E+04  0.10100000352E+00 0. -1.
</event>
<event>
 5   0  0.4517409E-08  0.3099390E+04  0.7818609E-02  0.8215905E-01
        1   -1    0    0  501    0  0.00000000000E+00  0.00000000000E+00  0.16097256534E+04  0.16097256534E+04  0.50400001928E-02 0.  1.
       -1   -1    0    0    0  501  0.00000000000E+00  0.00000000000E+00 -0.14919032190E+04  0.14919032190E+04  0.50400001928E-02 0. -1.
    10030    2    1    2    0    0  0.00000000000E+00  0.00000000000E+00  0.11782243445E+03  0.31016288724E+04  0.30993901878E+04 0.  0.
        2    1    3    3  502    0 -0.55813693069E+03  0.54042220843E+03  0.14007682082E+04  0.16017879291E+04  0.25500000920E-02 0.  1.
       -2    1    3    3    0  502  0.55813693069E+03 -0.54042220843E+03 -0.12829457737E+04  0.14998409433E+04  0.25500000920E-02 0. -1.
</event>
<event>
 5   0  0.1318916E-07  0.3099458E+04  0.7818609E-02  0.8215887E-01
        2   -1    0    0  501    0  0.00000000000E+00  0.00000000000E+00  0.17044539397E+04  0.17044539397E+04  0.25500000920E-02 0. -1.
       -2   -1    0    0    0  501  0.00000000000E+00  0.00000000000E+00 -0.14090494228E+04  0.14090494228E+04  0.25500000920E-02 0.  1.
    10030    2    1    2    0    0  0.00000000000E+00  0.00000000000E+00  0.29540451690E+03  0.31135033625E+04  0.30994579139E+04 0.  0.
        5    1    3    3  502    0  0.61153171342E+03 -0.12587132902E+04 -0.52112839239E+03  0.14932940349E+04  0.46999998093E+01 0.  1.
       -5    1    3    3    0  502 -0.61153171342E+03  0.12587132902E+04  0.81653290929E+03  0.16202093276E+04  0.46999998093E+01 0. -1.
</event>
<event>
 5   0  0.4450600E-08  0.3100978E+04  0.7818609E-02  0.8215470E-01
       -1   -1    0    0    0  501  0.00000000000E+00  0.00000000000E+00  0.95168581258E+03  0.95168581259E+03  0.50400001928E-02 0.  1.
        1   -1    0    0  501    0  0.00000000000E+00  0.00000000000E+00 -0.25260604286E+04  0.25260604286E+04  0.50400001928E-02 0. -1.
    10030    2    1    2    0    0  0.00000000000E+00  0.00000000000E+00 -0.15743746160E+04  0.34777462412E+04  0.31009778275E+04 0.  0.
        4    1    3    3  502    0  0.13601212795E+04  0.65297481145E+03 -0.38640483424E+03  0.15574390223E+04  0.12699999809E+01 0.  1.
       -4    1    3    3    0  502 -0.13601212795E+04 -0.65297481145E+03 -0.11879697818E+04  0.19203072188E+04  0.12699999809E+01 0. -1.
</event>
<event>
 5   0  0.4838602E-08  0.3098558E+04  0.7818609E-02  0.8216134E-01
        1   -1    0    0  501    0  0.00000000000E+00  0.00000000000E+00  0.28084044246E+04  0.28084044247E+04  0.50400001928E-02 0. -1.
       -1   -1    0    0    0  501  0.00000000000E+00  0.00000000000E+00 -0.85467228968E+03  0.85467228970E+03  0.50400001928E-02 0.  1.
    10030    2    1    2    0    0  0.00000000000E+00  0.00000000000E+00  0.19537321350E+04  0.36630767144E+04  0.30985580130E+04 0.  0.
        5    1    3    3  502    0 -0.19376311759E+03 -0.53348836038E+02  0.27929205250E+04  0.28001459593E+04  0.46999998093E+01 0. -1.
       -5    1    3    3    0  502  0.19376311759E+03  0.53348836038E+02 -0.83918839007E+03  0.86293075508E+03  0.46999998093E+01 0.  1.
</event>
<event>
 5   0  0.1377237E-07  0.3100633E+04  0.7818609E-02  0.8215564E-01
       -2   -1    0    0    0  501  0.00000000000E+00  0.00000000000E+00  0.24480044822E+04  0.24480044822E+04  0.25500000920E-02 0.  1.
        2   -1    0    0  501    0  0.00000000000E+00  0.00000000000E+00 -0.98181213476E+03  0.98181213476E+03  0.25500000920E-02 0. -1.
    10030    2    1    2    0    0  0.00000000000E+00  0.00000000000E+00  0.14661923474E+04  0.34298166169E+04  0.31006325203E+04 0.  0.
        2    1    3    3  502    0 -0.11031988344E+04 -0.87040285133E+03  0.87201772956E+01  0.14052490289E+04  0.25500000920E-02 0. -1.
       -2    1    3    3    0  502  0.11031988344E+04  0.87040285133E+03  0.14574721701E+04  0.20245675880E+04  0.25500000920E-02 0.  1.
</event>
<event>
 5   0  0.4517409E-08  0.3100062E+04  0.7818609E-02  0.8215721E-01
       -1   -1    0    0    0  501  0.00000000000E+00  0.00000000000E+00  0.96145934115E+03  0.96145934117E+03  0.50400001928E-02 0. -1.
        1   -1    0    0  501    0  0.00000000000E+00  0.00000000000E+00 -0.24989055001E+04  0.24989055001E+04  0.50400001928E-02 0.  1.
    10030    2    1    2    0    0  0.00000000000E+00  0.00000000000E+00 -0.15374461590E+04  0.34603648413E+04  0.31000619580E+04 0.  0.
        2    1    3    3  502    0 -0.59733157644E+03 -0.57215651155E+03 -0.22319685247E+04  0.23803049345E+04  0.25500000920E-02 0.  1.
       -2    1    3    3    0  502  0.59733157644E+03  0.57215651155E+03  0.69452236569E+03  0.10800599068E+04  0.25500000920E-02 0. -1.
</event>
<event>
 5   0  0.1318916E-07  0.3097507E+04  0.7818609E-02  0.8216422E-01
        2   -1    0    0  501    0  0.00000000000E+00  0.00000000000E+00  0.16778195214E+04  0.16778195214E+04  0.25500000920E-02 0. -1.
       -2   -1    0    0    0  501  0.00000000000E+00  0.00000000000E+00 -0.14296160912E+04  0.14296160912E+04  0.25500000920E-02 0.  1.
    10030    2    1    2    0    0  0.00000000000E+00  0.00000000000E+00  0.24820343011E+03  0.31074356126E+04  0.30975072468E+04 0.  0.
        5    1    3    3  502    0 -0.11862193112E+04 -0.49471466212E+03  0.99102249595E+03  0.16229622697E+04  0.46999998093E+01 0. -1.
       -5    1    3    3    0  502  0.11862193112E+04  0.49471466212E+03 -0.74281906584E+03  0.14844733429E+04  0.46999998093E+01 0.  1.
</event>
<event>
 5   0  0.4470354E-08  0.3099289E+04  0.7818609E-02  0.8215933E-01
        1   -1    0    0  501    0  0.00000000000E+00  0.00000000000E+00  0.18315742191E+04  0.18315742191E+04  0.50400001928E-02 0.  1.
       -1   -1    0    0    0  501  0.00000000000E+00  0.00000000000E+00 -0.13111117152E+04  0.13111117152E+04  0.50400001928E-02 0. -1.
    10030    2    1    2    0    0  0.00000000000E+00  0.00000000000E+00  0.52046250390E+03  0.31426859343E+04  0.30992892191E+04 0.  0.
        1    1    3    3  502    0 -0.10332148488E+04 -0.73904539495E+03 -0.63970773712E+03  0.14223034165E+04  0.50400001928E-02 0. -1.
       -1    1    3    3    0  502  0.10332148488E+04  0.73904539495E+03  0.11601702410E+04  0.17203825178E+04  0.50400001928E-02 0.  1.
</event>
<event>
 5   0  0.1398931E-07  0.3104845E+04  0.7818609E-02  0.8214409E-01
        2   -1    0    0  501    0  0.00000000000E+00  0.00000000000E+00  0.17250516491E+04  0.17250516491E+04  0.25500000920E-02 0. -1.
       -2   -1    0    0    0  501  0.00000000000E+00  0.00000000000E+00 -0.13970689692E+04  0.13970689692E+04  0.25500000920E-02 0.  1.
    10030    2    1    2    0    0  0.00000000000E+00  0.00000000000E+00  0.32798267985E+03  0.31221206183E+04  0.31048453290E+04 0.  0.
        3    1    3    3  502    0 -0.42014705035E+03 -0.14448097613E+04 -0.22025691777E+03  0.15206945486E+04  0.10100000352E+00 0. -1.
       -3    1    3    3    0  502  0.42014705035E+03  0.14448097613E+04  0.54823959762E+03  0.16014260697E+04  0.10100000352E+00 0.  1.
</event>
<event>
 5   0  0.1318916E-07  0.3092708E+04  0.7818609E-02  0.8217742E-01
       -2   -1    0    0    0  501  0.00000000000E+00  0.00000000000E+00  0.23021474333E+04  0.23021474333E+04  0.25500000920E-02 0.  1.
        2   -1    0    0  501    0  0.00000000000E+00  0.00000000000E+00 -0.10386868255E+04  0.10386868255E+04  0.25500000920E-02 0. -1.
    10030    2    1    2    0    0  0.00000000000E+00  0.00000000000E+00  0.12634606077E+04  0.33408342588E+04  0.30927076871E+04 0.  0.
        5    1    3    3  502    0  0.62994065218E+03  0.19299587493E+03  0.21429384412E+04  0.22419366373E+04  0.46999998093E+01 0.  1.
       -5    1    3    3    0  502 -0.62994065218E+03 -0.19299587493E+03 -0.87947783346E+03  0.10988976215E+04  0.46999998093E+01 0. -1.
</event>
<event>
 5   0  0.4470354E-08  0.3103087E+04  0.7818609E-02  0.8214891E-01
        1   -1    0    0  501    0  0.00000000000E+00  0.00000000000E+00  0.20579191156E+04  0.20579191156E+04  0.50400001928E-02 0.  1.
       -1   -1    0    0    0  501  0.00000000000E+00  0.00000000000E+00 -0.11697676230E+04  0.11697676231E+04  0.50400001928E-02 0. -1.
    10030    2    1    2    0    0  0.00000000000E+00  0.00000000000E+00  0.88815149253E+03  0.32276867386E+04  0.31030869483E+04 0.  0.
        1    1    3    3  502    0  0.20009434690E+03 -0.27347083899E+03 -0.11308083981E+04  0.11804878994E+04  0.50400001928E-02 0. -1.
       -1    1    3    3    0  502 -0.20009434690E+03  0.27347083899E+03  0.20189598906E+04  0.20471988392E+04  0.50400001928E-02 0.  1.
</event>
<event>
 5   0  0.1377237E-07  0.3100065E+04  0.7818609E-02  0.8215720E-01
        2   -1    0    0  501    0  0.00000000000E+00  0.00000000000E+00  0.21416691107E+04  0.21416691107E+04  0.25500000920E-02 0. -1.
       -2   -1    0    0    0  501  0.00000000000E+00  0.00000000000E+00 -0.11218356375E+04  0.11218356375E+04  0.25500000920E-02 0.  1.
    10030    2    1    2    0    0  0.00000000000E+00  0.00000000000E+00  0.10198334731E+04  0.32635047482E+04  0.31000649878E+04 0.  0.
        2    1    3    3  502    0  0.19028888180E+02 -0.14966575787E+04  0.85871559578E+02  0.14992397844E+04  0.25500000920E-02 0.  1.
       -2    1    3    3    0  502 -0.19028888180E+02  0.14966575787E+04  0.93396191356E+03  0.17642649638E+04  0.25500000920E-02 0. -1.
</event>
<event>
 5   0  0.1318916E-07  0.3100789E+04  0.7818609E-02  0.8215521E-01
        2   -1    0    0  501    0  0.00000000000E+00  0.00000000000E+00  0.22277080835E+04  0.22277080835E+04  0.25500000920E-02 0.  1.
       -2   -1    0    0    0  501  0.00000000000E+00  0.00000000000E+00 -0.10790118868E+04  0.10790118868E+04  0.25500000920E-02 0. -1.
    10030    2    1    2    0    0  0.00000000000E+00  0.00000000000E+00  0.11486961967E+04  0.33067199703E+04  0.31007892559E+04 0.  0.
        5    1    3    3  502    0  0.35417406589E+03  0.11786458065E+04  0.15798659299E+04  0.20026591454E+04  0.46999998093E+01 0.  1.
       -5    1    3    3    0  502 -0.35417406589E+03 -0.11786458065E+04 -0.43116973324E+03  0.13040608249E+04  0.46999998093E+01 0. -1.
</event>
<event>
 5   0  0.4450600E-08  0.3097452E+04  0.7818609E-02  0.8216438E-01
        1   -1    0    0  501    0  0.00000000000E+00  0.00000000000E+00  0.14392895568E+04  0.14392895568E+04  0.50400001928E-02 0.  1.
       -1   -1    0    0    0  501  0.00000000000E+00  0.00000000000E+00 -0.16664832182E+04  0.16664832182E+04  0.50400001928E-02 0. -1.
    10030    2    1    2    0    0  0.00000000000E+00  0.00000000000E+00 -0.22719366138E+03  0.31057727750E+04  0.30974517865E+04 0.  0.
        4    1    3    3  502    0  0.20215559139E+03 -0.38845956188E+03  0.13759182192E+04  0.14439253004E+04  0.12699999809E+01 0.  1.
       -4    1    3    3    0  502 -0.20215559139E+03  0.38845956188E+03 -0.16031118805E+04  0.16618474746E+04  0.12699999809E+01 0. -1.
</event>
<event>
 5   0  0.1318916E-07  0.3099973E+04  0.7818609E-02  0.8215745E-01
       -2   -1    0    0    0  501  0.00000000000E+00  0.00000000000E+00  0.11757097571E+04  0.11757097571E+04  0.25500000920E-02 0. -1.
        2   -1    0    0  501    0  0.00000000000E+00  0.00000000000E+00 -0.20434114600E+04  0.20434114600E+04  0.25500000920E-02 0.  1.
    10030    2    1    2    0    0  0.00000000000E+00  0.00000000000E+00 -0.86770170294E+03  0.32191212171E+04  0.30999734136E+04 0.  0.
        5    1    3    3  502    0  0.62314415807E+03 -0.30674864758E+03  0.10050595262E+04  0.12217078684E+04  0.46999998093E+01 0. -1.
       -5    1    3    3    0  502 -0.62314415807E+03  0.30674864758E+03 -0.18727612291E+04  0.19974133487E+04  0.46999998093E+01 0.  1.
</event>
<event>
 5   0  0.4450600E-08  0.3099121E+04  0.7818609E-02  0.8215979E-01
        1   -1    0    0  501    0  0.00000000000E+00  0.00000000000E+00  0.14583103684E+04  0.14583103684E+04  0.50400001928E-02 0.  1.
       -1   -1    0    0    0  501  0.00000000000E+00  0.00000000000E+00 -0.16465204169E+04  0.16465204169E+04  0.50400001928E-02 0. -1.
    10030    2    1    2    0    0  0.00000000000E+00  0.00000000000E+00 -0.18821004846E+03  0.31048307853E+04  0.30991210340E+04 0.  0.
        4    1    3    3  502    0  0.90300032757E+03 -0.67297803480E+03 -0.11604094799E+04  0.16170531224E+04  0.12699999809E+01 0. -1.
       -4    1    3    3    0  502 -0.90300032757E+03  0.67297803480E+03  0.97219943140E+03  0.14877776629E+04  0.12699999809E+01 0.  1.
</event>
<event>
 5   0  0.4838602E-08  0.3099864E+04  0.7818609E-02  0.8215775E-01
       -1   -1    0    0    0  501  0.00000000000E+00  0.00000000000E+00  0.19086857985E+04  0.19086857985E+04  0.50400001928E-02 0. -1.
        1   -1    0    0  501    0  0.00000000000E+00  0.00000000000E+00 -0.12586090462E+04  0.12586090462E+04  0.50400001928E-02 0.  1.
    10030    2    1    2    0    0  0.00000000000E+00  0.00000000000E+00  0.65007675225E+03  0.31672948447E+04  0.30998640050E+04 0.  0.
        5    1    3    3  502    0 -0.12434427392E+04 -0.14412855222E+03  0.12588915370E+04  0.17753176834E+04  0.46999998093E+01 0. -1.
       -5    1    3    3    0  502  0.12434427392E+04  0.14412855222E+03 -0.60881478475E+03  0.13919771612E+04  0.46999998093E+01 0.  1.
</event>
<event>
 5   0  0.4838602E-08  0.3099705E+04  0.7818609E-02  0.8215819E-01
        1   -1    0    0  501    0  0.00000000000E+00  0.00000000000E+00  0.21933493539E+04  0.21933493539E+04  0.50400001928E-02 0. -1.
       -1   -1    0    0    0  501  0.00000000000E+00  0.00000000000E+00 -0.10951481091E+04  0.10951481091E+04  0.50400001928E-02 0.  1.
    10030    2    1    2    0    0  0.00000000000E+00  0.00000000000E+00  0.10982012448E+04  0.32884974630E+04  0.30997047586E+04 0.  0.
        5    1    3    3  502    0  0.52165171179E+03  0.14491688663E+04  0.36593086477E+03  0.15830787723E+04  0.46999998093E+01 0.  1.
       -5    1    3    3    0  502 -0.52165171179E+03 -0.14491688663E+04  0.73227038004E+03  0.17054186908E+04  0.46999998093E+01 0. -1.
</event>
<event>
 5   0  0.4305500E-08  0.3100031E+04  0.7818609E-02  0.8215729E-01
       -3   -1    0    0    0  501  0.00000000000E+00  0.00000000000E+00  0.83400692712E+03  0.83400693323E+03  0.10100000352E+00 0.  1.
        3   -1    0    0  501    0  0.00000000000E+00  0.00000000000E+00 -0.28807291816E+04  0.28807291834E+04  0.10100000352E+00 0. -1.
    10030    2    1    2    0    0  0.00000000000E+00  0.00000000000E+00 -0.20467222545E+04  0.37147361166E+04  0.31000310368E+04 0.  0.
        3    1    3    3  502    0 -0.49148139417E+03 -0.39367606018E+03 -0.27205447407E+04  0.27924717541E+04  0.10100000352E+00 0. -1.
       -3    1    3    3    0  502  0.49148139417E+03  0.39367606018E+03  0.67382248622E+03  0.92226436249E+03  0.10100000352E+00 0.  1.
</event>
<event>
 5   0  0.1318916E-07  0.3108496E+04  0.7818609E-02  0.8213410E-01
        2   -1    0    0  501    0  0.00000000000E+00  0.00000000000E+00  0.19092238482E+04  0.19092238482E+04  0.25500000920E-02 0. -1.
       -2   -1    0    0    0  501  0.00000000000E+00  0.00000000000E+00 -0.12652720641E+04  0.12652720641E+04  0.25500000920E-02 0.  1.
    10030    2    1    2    0    0  0.00000000000E+00  0.00000000000E+00  0.64395178403E+03  0.31744959123E+04  0.31084964850E+04 0.  0.
        5    1    3    3  502    0 -0.34087760469E+03  0.51589053660E+03  0.17781985477E+04  0.18826451477E+04  0.46999998093E+01 0. -1.
       -5    1    3    3    0  502  0.34087760469E+03 -0.51589053660E+03 -0.11342467637E+04  0.12918507646E+04  0.46999998093E+01 0.  1.
</event>
<event>
 5   0  0.4838602E-08  0.3100384E+04  0.7818609E-02  0.8215633E-01
        1   -1    0    0  501    0  0.00000000000E+00  0.00000000000E+00  0.21305928438E+04  0.21305928438E+04  0.50400001928E-02 0.  1.
       -1   -1    0    0    0  501  0.00000000000E+00  0.00000000000E+00 -0.11278994963E+04  0.11278994963E+04  0.50400001928E-02 0. -1.
    10030    2    1    2    0    0  0.00000000000E+00  0.00000000000E+00  0.10026933474E+04  0.32584923401E+04  0.31003835862E+04 0.  0.
        5    1    3    3  502    0  0.16072856567E+03  0.19417761773E+03  0.21089020618E+04  0.21239182224E+04  0.46999998093E+01 0.  1.
       -5    1    3    3    0  502 -0.16072856567E+03 -0.19417761773E+03 -0.11062087143E+04  0.11345741178E+04  0.46999998093E+01 0. -1.
</event>
<event>
 5   0  0.4838602E-08  0.3100535E+04  0.7818609E-02  0.8215591E-01
       -1   -1    0    0    0  501  0.00000000000E+00  0.00000000000E+00  0.89420877109E+03  0.89420877111E+03  0.50400001928E-02 0. -1.
        1   -1    0    0  501    0  0.00000000000E+00  0.00000000000E+00 -0.26876595912E+04  0.26876595912E+04  0.50400001928E-02 0.  1.
    10030    2    1    2    0    0  0.00000000000E+00  0.00000000000E+00 -0.17934508201E+04  0.35818683623E+04  0.31005346508E+04 0.  0.
        5    1    3    3  502    0  0.97604371611E+02  0.15334175902E+04 -0.65881683754E+03  0.16718127391E+04  0.46999998093E+01 0. -1.
       -5    1    3    3    0  502 -0.97604371611E+02 -0.15334175902E+04 -0.11346339826E+04  0.19100556232E+04  0.46999998093E+01 0.  1.
</event>
<event>
 5   0  0.1398931E-07  0.3100975E+04  0.7818609E-02  0.8215470E-01
        2   -1    0    0  501    0  0.00000000000E+00  0.00000000000E+00  0.34610517119E+04  0.34610517119E+04  0.25500000920E-02 0.  1.
       -2   -1    0    0    0  501  0.00000000000E+00  0.00000000000E+00 -0.69458988569E+03  0.69458988570E+03  0.25500000920E-02 0. -1.
    10030    2    1    2    0    0  0.00000000000E+00  0.00000000000E+00  0.27664618262E+04  0.41556415976E+04  0.31009750163E+04 0.  0.
        3    1    3    3  502    0 -0.27907202192E+03  0.14232081703E+04  0.21179827362E+04  0.25669541426E+04  0.10100000352E+00 0. -1.
       -3    1    3    3    0  502  0.27907202192E+03 -0.14232081703E+04  0.64847909006E+03  0.15886874550E+04  0.10100000352E+00 0.  1.
</event>
<event>
 5   0  0.1329777E-07  0.3083535E+04  0.7818609E-02  0.8220271E-01
        2   -1    0    0  501    0  0.00000000000E+00  0.00000000000E+00  0.20625586663E+04  0.20625586663E+04  0.25500000920E-02 0.  1.
       -2   -1    0    0    0  501  0.00000000000E+00  0.00000000000E+00 -0.11524747224E+04  0.11524747224E+04  0.25500000920E-02 0. -1.
    10030    2    1    2    0    0  0.00000000000E+00  0.00000000000E+00  0.91008394391E+03  0.32150333887E+04  0.30835348070E+04 0.  0.
        1    1    3    3  502    0 -0.11417268264E+04  0.38512609863E+03 -0.54784225082E+03  0.13236288716E+04  0.50400001928E-02 0. -1.
       -1    1    3    3    0  502  0.11417268264E+04 -0.38512609863E+03  0.14579261947E+04  0.18914045171E+04  0.50400001928E-02 0.  1.
</event>
<event>
 5   0  0.1325713E-07  0.3098109E+04  0.7818609E-02  0.8216257E-01
        2   -1    0    0  501    0  0.00000000000E+00  0.00000000000E+00  0.17087251987E+04  0.17087251987E+04  0.25500000920E-02 0.  1.
       -2   -1    0    0    0  501  0.00000000000E+00  0.00000000000E+00 -0.14043037010E+04  0.14043037010E+04  0.25500000920E-02 0. -1.
    10030    2    1    2    0    0  0.00000000000E+00  0.00000000000E+00  0.30442149777E+03  0.31130288997E+04  0.30981085330E+04 0.  0.
        4    1    3    3  502    0  0.65988785444E+03  0.77668257164E+03 -0.10199748841E+04  0.14418870187E+04  0.12699999809E+01 0. -1.
       -4    1    3    3    0  502 -0.65988785444E+03 -0.77668257164E+03  0.13243963818E+04  0.16711418811E+04  0.12699999809E+01 0.  1.
</event>
<event>
 5   0  0.4517409E-08  0.3101435E+04  0.7818609E-02  0.8215344E-01
        1   -1    0    0  501    0  0.00000000000E+00  0.00000000000E+00  0.17004308429E+04  0.17004308429E+04  0.50400001928E-02 0.  1.
       -1   -1    0    0    0  501  0.00000000000E+00  0.00000000000E+00 -0.14141856565E+04  0.14141856565E+04  0.50400001928E-02 0. -1.
    10030    2    1    2    0    0  0.00000000000E+00  0.00000000000E+00  0.28624518633E+03  0.31146164994E+04  0.31014350923E+04 0.  0.
        2    1    3    3  502    0  0.10652244453E+04 -0.89981030080E+03  0.82450699716E+03  0.16199300864E+04  0.25500000920E-02 0.  1.
       -2    1    3    3    0  502 -0.10652244453E+04  0.89981030080E+03 -0.53826181083E+03  0.14946864131E+04  0.25500000920E-02 0. -1.
</event>
<event>
 5   0  0.4305500E-08  0.3098820E+04  0.7818609E-02  0.8216062E-01
       -4   -1    0    0    0  501  0.00000000000E+00  0.00000000000E+00  0.16566903425E+04  0.16566908293E+04  0.12699999809E+01 0.  1.
        4   -1    0    0  501    0  0.00000000000E+00  0.00000000000E+00 -0.14490759100E+04  0.14490764666E+04  0.12699999809E+01 0. -1.
    10030    2    1    2    0    0  0.00000000000E+00  0.00000000000E+00  0.20761443248E+03  0.31057672959E+04  0.30988202180E+04 0.  0.
        1    1    3    3  502    0  0.11118410281E+04  0.10608313274E+04  0.30203359927E+03  0.15661346916E+04  0.50400001928E-02 0. -1.
       -1    1    3    3    0  502 -0.11118410281E+04 -0.10608313274E+04 -0.94419166783E+02  0.15396326043E+04  0.50400001928E-02 0.  1.
</event>
<event>
 5   0  0.4450600E-08  0.3099411E+04  0.7818609E-02  0.8215899E-01
       -1   -1    0    0    0  501  0.00000000000E+00  0.00000000000E+00  0.27522639325E+04  0.27522639325E+04  0.50400001928E-02 0. -1.
        1   -1    0    0  501    0  0.00000000000E+00  0.00000000000E+00 -0.87258626815E+03  0.87258626817E+03  0.50400001928E-02 0.  1.
    10030    2    1    2    0    0  0.00000000000E+00  0.00000000000E+00  0.18796776644E+04  0.36248502007E+04  0.30994113724E+04 0.  0.
        4    1    3    3  502    0 -0.21856140097E+02  0.48793937598E+02 -0.87150669989E+03  0.87314608174E+03  0.12699999809E+01 0.  1.
       -4    1    3    3    0  502  0.21856140097E+02 -0.48793937598E+02  0.27511843642E+04  0.27517041189E+04  0.12699999809E+01 0. -1.
</event>
<event>
 5   0  0.1329777E-07  0.3100048E+04  0.7818609E-02  0.8215725E-01
       -2   -1    0    0    0  501  0.00000000000E+00  0.00000000000E+00  0.16034704443E+04  0.16034704443E+04  0.25500000920E-02 0.  1.
        2   -1    0    0  501    0  0.00000000000E+00  0.00000000000E+00 -0.14983590049E+04  0.14983590049E+04  0.25500000920E-02 0. -1.
    10030    2    1    2    0    0  0.00000000000E+00  0.00000000000E+00  0.10511143942E+03  0.31018294492E+04  0.31000479863E+04 0.  0.
        1    1    3    3  502    0 -0.11688796052E+04 -0.71008559755E+03  0.78240843539E+03  0.15756471836E+04  0.50400001928E-02 0.  1.
       -1    1    3    3    0  502  0.11688796052E+04  0.71008559755E+03 -0.67729699597E+03  0.15261822657E+04  0.50400001928E-02 0. -1.
</event>
<event>
 5   0  0.4517409E-08  0.3099555E+04  0.7818609E-02  0.8215860E-01
       -1   -1    0    0    0  501  0.00000000000E+00  0.00000000000E+00  0.99580678650E+03  0.99580678651E+03  0.50400001928E-02 0. -1.
        1   -1    0    0  501    0  0.00000000000E+00  0.00000000000E+00 -0.24119235079E+04  0.24119235079E+04  0.50400001928E-02 0.  1.
    10030    2    1    2    0    0  0.00000000000E+00  0.00000000000E+00 -0.14161167214E+04  0.34077302944E+04  0.30995546762E+04 0.  0.
        2    1    3    3  502    0 -0.28712080111E+03 -0.13776021046E+04 -0.14219099226E+04  0.20005133694E+04  0.25500000920E-02 0.  1.
       -2    1    3    3    0  502  0.28712080111E+03  0.13776021046E+04  0.57932012116E+01  0.14072169251E+04  0.25500000920E-02 0. -1.
</event>
<event>
 5   0  0.1377237E-07  0.3099480E+04  0.7818609E-02  0.8215881E-01
        2   -1    0    0  501    0  0.00000000000E+00  0.00000000000E+00  0.92622960781E+03  0.92622960781E+03  0.25500000920E-02 0.  1.
       -2   -1    0    0    0  501  0.00000000000E+00  0.00000000000E+00 -0.25929786260E+04  0.25929786260E+04  0.25500000920E-02 0. -1.
    10030    2    1    2    0    0  0.00000000000E+00  0.00000000000E+00 -0.16667490182E+04  0.35192082338E+04  0.30994796827E+04 0.  0.
        2    1    3    3  502    0 -0.82544650194E+03  0.95952226403E+03  0.18195213179E+03  0.12787304176E+04  0.25500000920E-02 0.  1.
       -2    1    3    3    0  502  0.82544650194E+03 -0.95952226403E+03 -0.18487011500E+04  0.22404778161E+04  0.25500000920E-02 0. -1.
</event>
<event>
 5   0  0.4470354E-08  0.3085643E+04  0.7818609E-02  0.8219689E-01
        1   -1    0    0  501    0  0.00000000000E+00  0.00000000000E+00  0.28917547435E+04  0.28917547435E+04  0.50400001928E-02 0.  1.
       -1   -1    0    0    0  501  0.00000000000E+00  0.00000000000E+00 -0.82313289466E+03  0.82313289468E+03  0.50400001928E-02 0. -1.
    10030    2    1    2    0    0  0.00000000000E+00  0.00000000000E+00  0.20686218488E+04  0.37148876382E+04  0.30856431762E+04 0.  0.
        1    1    3    3  502    0 -0.14753516905E+04 -0.21407086474E+02  0.15769834939E+04  0.21596290918E+04  0.50400001928E-02 0.  1.
       -1    1    3    3    0  502  0.14753516905E+04  0.21407086474E+02  0.49163835495E+03  0.15552585464E+04  0.50400001928E-02 0. -1.
</event>
<event>
 5   0  0.4450600E-08  0.3104809E+04  0.7818609E-02  0.8214419E-01
       -1   -1    0    0    0  501  0.00000000000E+00  0.00000000000E+00  0.11686547537E+04  0.11686547537E+04  0.50400001928E-02 0.  1.
        1   -1    0    0  501    0  0.00000000000E+00  0.00000000000E+00 -0.20621657683E+04  0.20621657683E+04  0.50400001928E-02 0. -1.
    10030    2    1    2    0    0  0.00000000000E+00  0.00000000000E+00 -0.89351101461E+03  0.32308205219E+04  0.31048090620E+04 0.  0.
        4    1    3    3  502    0 -0.51717157096E+03 -0.23096011414E+03  0.10572958458E+04  0.11994520109E+04  0.12699999809E+01 0.  1.
       -4    1    3    3    0  502  0.51717157096E+03  0.23096011414E+03 -0.19508068604E+04  0.20313685110E+04  0.12699999809E+01 0. -1.
</event>
<event>
 5   0  0.1377237E-07  0.3100750E+04  0.7818609E-02  0.8215532E-01
        2   -1    0    0  501    0  0.00000000000E+00  0.00000000000E+00  0.10265046304E+04  0.10265046304E+04  0.25500000920E-02 0.  1.
       -2   -1    0    0    0  501  0.00000000000E+00  0.00000000000E+00 -0.23415992482E+04  0.23415992482E+04  0.25500000920E-02 0. -1.
    10030    2    1    2    0    0  0.00000000000E+00  0.00000000000E+00 -0.13150946179E+04  0.33681038786E+04  0.31007498904E+04 0.  0.
        2    1    3    3  502    0 -0.15243390848E+04 -0.23314451670E+03 -0.83167000596E+03  0.17520391006E+04  0.25500000920E-02 0. -1.
       -2    1    3    3    0  502  0.15243390848E+04  0.23314451670E+03 -0.48342461191E+03  0.16160647780E+04  0.25500000920E-02 0.  1.
</event>
<event>
 5   0  0.1318916E-07  0.3100476E+04  0.7818609E-02  0.8215607E-01
       -2   -1    0    0    0  501  0.00000000000E+00  0.00000000000E+00  0.14914286947E+04  0.14914286947E+04  0.25500000920E-02 0.  1.
        2   -1    0    0  501    0  0.00000000000E+00  0.00000000000E+00 -0.16113665315E+04  0.16113665315E+04  0.25500000920E-02 0. -1.
    10030    2    1    2    0    0  0.00000000000E+00  0.00000000000E+00 -0.11993783680E+03  0.31027952261E+04  0.31004762748E+04 0.  0.
        5    1    3    3  502    0 -0.68245932895E+03 -0.77333372655E+03 -0.12181678432E+04  0.15961675265E+04  0.46999998093E+01 0. -1.
       -5    1    3    3    0  502  0.68245932895E+03  0.77333372655E+03  0.10982300064E+04  0.15066276996E+04  0.46999998093E+01 0.  1.
</event>
<event>
 5   0  0.4470354E-08  0.3098934E+04  0.7818609E-02  0.8216030E-01
       -1   -1    0    0    0  501  0.00000000000E+00  0.00000000000E+00  0.13087921749E+04  0.13087921749E+04  0.50400001928E-02 0.  1.
        1   -1    0    0  501    0  0.00000000000E+00  0.00000000000E+00 -0.18344001049E+04  0.18344001049E+04  0.50400001928E-02 0. -1.
    10030    2    1    2    0    0  0.00000000000E+00  0.00000000000E+00 -0.52560793000E+03  0.31431922798E+04  0.30989343348E+04 0.  0.
        1    1    3    3  502    0  0.76017611358E+03 -0.94513927542E+03  0.71517214472E+03  0.14080579428E+04  0.50400001928E-02 0.  1.
       -1    1    3    3    0  502 -0.76017611358E+03  0.94513927542E+03 -0.12407800747E+04  0.17351343370E+04  0.50400001928E-02 0. -1.
</event>
<event>
 5   0  0.4517409E-08  0.3099210E+04  0.7818609E-02  0.8215955E-01
       -1   -1    0    0    0  501  0.00000000000E+00  0.00000000000E+00  0.11587113856E+04  0.11587113856E+04  0.50400001928E-02 0.  1.
        1   -1    0    0  501    0  0.00000000000E+00  0.00000000000E+00 -0.20723676175E+04  0.20723676175E+04  0.50400001928E-02 0. -1.
    10030    2    1    2    0    0  0.00000000000E+00  0.00000000000E+00 -0.91365623194E+03  0.32310790031E+04  0.30992101920E+04 0.  0.
        2    1    3    3  502    0 -0.44395963108E+03 -0.93002714107E+03  0.74966089548E+03  0.12743791019E+04  0.25500000920E-02 0.  1.
       -2    1    3    3    0  502  0.44395963108E+03  0.93002714107E+03 -0.16633171274E+04  0.19566999012E+04  0.25500000920E-02 0. -1.
</event>
<event>
 5   0  0.1325713E-07  0.3099747E+04  0.7818609E-02  0.8215807E-01
        2   -1    0    0  501    0  0.00000000000E+00  0.00000000000E+00  0.14203943632E+04  0.14203943632E+04  0.25500000920E-02 0.  1.
       -2   -1    0    0    0  501  0.00000000000E+00  0.00000000000E+00 -0.16911556730E+04  0.16911556730E+04  0.25500000920E-02 0. -1.
    10030    2    1    2    0    0  0.00000000000E+00  0.00000000000E+00 -0.27076130982E+03  0.31115500362E+04  0.30997470770E+04 0.  0.
        4    1    3    3  502    0  0.52178100338E+03 -0.14410048676E+04  0.96487908098E+02  0.15355982461E+04  0.12699999809E+01 0.  1.
       -4    1    3    3    0  502 -0.52178100338E+03  0.14410048676E+04 -0.36724921791E+03  0.15759517902E+04  0.12699999809E+01 0. -1.
</event>
<event>
 5   0  0.4305500E-08  0.3097748E+04  0.7818609E-02  0.8216356E-01
       -3   -1    0    0    0  501  0.00000000000E+00  0.00000000000E+00  0.12825280601E+04  0.12825280641E+04  0.10100000352E+00 0.  1.
        3   -1    0    0  501    0  0.00000000000E+00  0.00000000000E+00 -0.18705324453E+04  0.18705324480E+04  0.10100000352E+00 0. -1.
    10030    2    1    2    0    0  0.00000000000E+00  0.00000000000E+00 -0.58800438513E+03  0.31530605121E+04  0.30977478006E+04 0.  0.
        2    1    3    3  502    0 -0.10080960902E+04  0.53604958928E+03 -0.13593055713E+04  0.17751953485E+04  0.25500000920E-02 0. -1.
       -2    1    3    3    0  502  0.10080960902E+04 -0.53604958928E+03  0.77130118618E+03  0.13778651636E+04  0.25500000920E-02 0.  1.
</event>
<event>
 5   0  0.1325713E-07  0.3098782E+04  0.7818609E-02  0.8216072E-01
        2   -1    0    0  501    0  0.00000000000E+00  0.00000000000E+00  0.16168416417E+04  0.16168416417E+04  0.25500000920E-02 0.  1.
       -2   -1    0    0    0  501  0.00000000000E+00  0.00000000000E+00 -0.14847537775E+04  0.14847537775E+04  0.25500000920E-02 0. -1.
    10030    2    1    2    0    0  0.00000000000E+00  0.00000000000E+00  0.13208786415E+03  0.31015954192E+04  0.30987815251E+04 0.  0.
        4    1    3    3  502    0  0.53247692324E+03  0.58889413411E+03  0.13977716326E+04  0.16075120916E+04  0.12699999809E+01 0.  1.
       -4    1    3    3    0  502 -0.53247692324E+03 -0.58889413411E+03 -0.12656837685E+04  0.14940833275E+04  0.12699999809E+01 0. -1.
</event>
<event>
 5   0  0.1325713E-07  0.3101190E+04  0.7818609E-02  0.8215411E-01
       -2   -1    0    0    0  501  0.00000000000E+00  0.00000000000E+00  0.12904220277E+04  0.12904220277E+04  0.25500000920E-02 0.  1.
        2   -1    0    0  501    0  0.00000000000E+00  0.00000000000E+00 -0.18632242537E+04  0.18632242537E+04  0.25500000920E-02 0. -1.
    10030    2    1    2    0    0  0.00000000000E+00  0.00000000000E+00 -0.57280222600E+03  0.31536462813E+04  0.31011904936E+04 0.  0.
        4    1    3    3  502    0 -0.39118700174E+03 -0.14945090090E+04 -0.42192024621E+03  0.16014377151E+04  0.12699999809E+01 0. -1.
       -4    1    3    3    0  502  0.39118700174E+03  0.14945090090E+04 -0.15088197979E+03  0.15522085662E+04  0.12699999809E+01 0.  1.
</event>
<event>
 5   0  0.1318916E-07  0.3100404E+04  0.7818609E-02  0.8215627E-01
       -2   -1    0    0    0  501  0.00000000000E+00  0.00000000000E+00  0.13690751811E+04  0.13690751811E+04  0.25500000920E-02 0. -1.
        2   -1    0    0  501    0  0.00000000000E+00  0.00000000000E+00 -0.17552920710E+04  0.17552920710E+04  0.25500000920E-02 0.  1.
    10030    2    1    2    0    0  0.00000000000E+00  0.00000000000E+00 -0.38621688989E+03  0.31243672521E+04  0.31004043671E+04 0.  0.
        5    1    3    3  502    0 -0.15282717613E+04  0.23081500891E+03 -0.72962067898E+02  0.15473317996E+04  0.46999998093E+01 0.  1.
       -5    1    3    3    0  502  0.15282717613E+04 -0.23081500891E+03 -0.31325482199E+03  0.15770354524E+04  0.46999998093E+01 0. -1.
</event>
<event>
 5   0  0.4517409E-08  0.3100249E+04  0.7818609E-02  0.8215670E-01
        1   -1    0    0  501    0  0.00000000000E+00  0.00000000000E+00  0.26421919156E+04  0.26421919156E+04  0.50400001928E-02 0. -1.
       -1   -1    0    0    0  501  0.00000000000E+00  0.00000000000E+00 -0.90942893812E+03  0.90942893813E+03  0.50400001928E-02 0.  1.
    10030    2    1    2    0    0  0.00000000000E+00  0.00000000000E+00  0.17327629774E+04  0.35516208537E+04  0.31002488856E+04 0.  0.
        2    1    3    3  502    0 -0.10423206326E+04  0.11430384787E+04  0.98046155068E+03  0.18314677495E+04  0.25500000920E-02 0. -1.
       -2    1    3    3    0  502  0.10423206326E+04 -0.11430384787E+04  0.75230142677E+03  0.17201531042E+04  0.25500000920E-02 0.  1.
</event>
<event>
 5   0  0.4470354E-08  0.3098007E+04  0.7818609E-02  0.8216285E-01
        1   -1    0    0  501    0  0.00000000000E+00  0.00000000000E+00  0.89090108759E+03  0.89090108760E+03  0.50400001928E-02 0. -1.
       -1   -1    0    0    0  501  0.00000000000E+00  0.00000000000E+00 -0.26932423321E+04  0.26932423321E+04  0.50400001928E-02 0.  1.
    10030    2    1    2    0    0  0.00000000000E+00  0.00000000000E+00 -0.18023412445E+04  0.35841434197E+04  0.30980074389E+04 0.  0.
        1    1    3    3  502    0  0.92994370698E+03 -0.94215160579E+03  0.29388951111E+02  0.13241256198E+04  0.50400001928E-02 0. -1.
       -1    1    3    3    0  502 -0.92994370698E+03  0.94215160579E+03 -0.18317301956E+04  0.22600177999E+04  0.50400001928E-02 0.  1.
</event>
<event>
 5   0  0.4838602E-08  0.3106307E+04  0.7818609E-02  0.8214009E-01
       -1   -1    0    0    0  501  0.00000000000E+00  0.00000000000E+00  0.10708821620E+04  0.10708821620E+04  0.50400001928E-02 0.  1.
        1   -1    0    0  501    0  0.00000000000E+00  0.00000000000E+00 -0.22526151632E+04  0.22526151632E+04  0.50400001928E-02 0. -1.
    10030    2    1    2    0    0  0.00000000000E+00  0.00000000000E+00 -0.11817330013E+04  0.33234973252E+04  0.31063067434E+04 0.  0.
        5    1    3    3  502    0  0.11493900984E+04  0.97220537002E+03 -0.99965746035E+03  0.18071021022E+04  0.46999998093E+01 0. -1.
       -5    1    3    3    0  502 -0.11493900984E+04 -0.97220537002E+03 -0.18207554093E+03  0.15163952230E+04  0.46999998093E+01 0.  1.
</event>
<event>
 5   0  0.1329777E-07  0.3099129E+04  0.7818609E-02  0.8215977E-01
        2   -1    0    0  501    0  0.00000000000E+00  0.00000000000E+00  0.27265654671E+04  0.27265654671E+04  0.25500000920E-02 0.  1.
       -2   -1    0    0    0  501  0.00000000000E+00  0.00000000000E+00 -0.88065020192E+03  0.88065020193E+03  0.25500000920E-02 0. -1.
    10030    2    1    2    0    0  0.00000000000E+00  0.00000000000E+00  0.18459152652E+04  0.36072156691E+04  0.30991291868E+04 0.  0.
        1    1    3    3  502    0  0.13432288468E+04  0.69285086664E+02  0.27335279611E+02  0.13452923012E+04  0.50400001928E-02 0. -1.
       -1    1    3    3    0  502 -0.13432288468E+04 -0.69285086664E+02  0.18185799856E+04  0.22619233679E+04  0.50400001928E-02 0.  1.
</event>
<event>
 5   0  0.4305500E-08  0.3098925E+04  0.7818609E-02  0.8216033E-01
        4   -1    0    0  501    0  0.00000000000E+00  0.00000000000E+00  0.11967195171E+04  0.11967201910E+04  0.12699999809E+01 0. -1.
       -4   -1    0    0    0  501  0.00000000000E+00  0.00000000000E+00 -0.20061779712E+04  0.20061783732E+04  0.12699999809E+01 0.  1.
    10030    2    1    2    0    0  0.00000000000E+00  0.00000000000E+00 -0.80945845413E+03  0.32028985642E+04  0.30989250110E+04 0.  0.
        5    1    3    3  502    0  0.12440504536E+04 -0.90669945139E+03 -0.58684129196E+03  0.16474738900E+04  0.46999998093E+01 0. -1.
       -5    1    3    3    0  502 -0.12440504536E+04  0.90669945139E+03 -0.22261716217E+03  0.15554246742E+04  0.46999998093E+01 0.  1.
</event>
<event>
 5   0  0.1325713E-07  0.3100338E+04  0.7818609E-02  0.8215645E-01
        2   -1    0    0  501    0  0.00000000000E+00  0.00000000000E+00  0.21642881311E+04  0.21642881311E+04  0.25500000920E-02 0. -1.
       -2   -1    0    0    0  501  0.00000000000E+00  0.00000000000E+00 -0.11103067610E+04  0.11103067610E+04  0.25500000920E-02 0.  1.
    10030    2    1    2    0    0  0.00000000000E+00  0.00000000000E+00  0.10539813701E+04  0.32745948921E+04  0.31003378813E+04 0.  0.
        4    1    3    3  502    0  0.92697485873E+03  0.11752278572E+04  0.95286463914E+03  0.17743718715E+04  0.12699999809E+01 0. -1.
       -4    1    3    3    0  502 -0.92697485873E+03 -0.11752278572E+04  0.10111673101E+03  0.15002230205E+04  0.12699999809E+01 0.  1.
</event>
<event>
 5   0  0.4838602E-08  0.3099602E+04  0.7818609E-02  0.8215847E-01
        1   -1    0    0  501    0  0.00000000000E+00  0.00000000000E+00  0.20949280685E+04  0.20949280685E+04  0.50400001928E-02 0.  1.
       -1   -1    0    0    0  501  0.00000000000E+00  0.00000000000E+00 -0.11465227451E+04  0.11465227451E+04  0.50400001928E-02 0. -1.
    10030    2    1    2    0    0  0.00000000000E+00  0.00000000000E+00  0.94840532343E+03  0.32414508136E+04  0.30996017033E+04 0.  0.
        5    1    3    3  502    0  0.76927077061E+03  0.10621253664E+04  0.13378114727E+04  0.18734058393E+04  0.46999998093E+01 0.  1.
       -5    1    3    3    0  502 -0.76927077061E+03 -0.10621253664E+04 -0.38940614924E+03  0.13680449742E+04  0.46999998093E+01 0. -1.
</event>
<event>
 5   0  0.4470354E-08  0.3100396E+04  0.7818609E-02  0.8215629E-01
       -1   -1    0    0    0  501  0.00000000000E+00  0.00000000000E+00  0.15587760776E+04  0.15587760776E+04  0.50400001928E-02 0. -1.
        1   -1    0    0  501    0  0.00000000000E+00  0.00000000000E+00 -0.15416671960E+04  0.15416671960E+04  0.50400001928E-02 0.  1.
    10030    2    1    2    0    0  0.00000000000E+00  0.00000000000E+00  0.17108881641E+02  0.31004432736E+04  0.31003960681E+04 0.  0.
        1    1    3    3  502    0  0.11605360599E+04 -0.90832978883E+03  0.48940164493E+03  0.15528750502E+04  0.50400001928E-02 0. -1.
       -1    1    3    3    0  502 -0.11605360599E+04  0.90832978883E+03 -0.47229276329E+03  0.15475682233E+04  0.50400001928E-02 0.  1.
</event>
<event>
 5   0  0.4517409E-08  0.3100962E+04  0.7818609E-02  0.8215474E-01
        1   -1    0    0  501    0  0.00000000000E+00  0.00000000000E+00  0.18354893358E+04  0.18354893358E+04  0.50400001928E-02 0. -1.
       -1   -1    0    0    0  501  0.00000000000E+00  0.00000000000E+00 -0.13097279908E+04  0.13097279909E+04  0.50400001928E-02 0.  1.
    10030    2    1    2    0    0  0.00000000000E+00  0.00000000000E+00  0.52576134492E+03  0.31452173266E+04  0.31009622764E+04 0.  0.
        2    1    3    3  502    0 -0.12109363144E+04 -0.66218585739E+03  0.97945813008E+03  0.16923933042E+04  0.25500000920E-02 0.  1.
       -2    1    3    3    0  502  0.12109363144E+04  0.66218585739E+03 -0.45369678516E+03  0.14528240225E+04  0.25500000920E-02 0. -1.
</event>
<event>
 5   0  0.4517409E-08  0.3099336E+04  0.7818609E-02  0.8215920E-01
       -1   -1    0    0    0  501  0.00000000000E+00  0.00000000000E+00  0.14546688698E+04  0.14546688698E+04  0.50400001928E-02 0.  1.
        1   -1    0    0  501    0  0.00000000000E+00  0.00000000000E+00 -0.16508712590E+04  0.16508712590E+04  0.50400001928E-02 0. -1.
    10030    2    1    2    0    0  0.00000000000E+00  0.00000000000E+00 -0.19620238919E+03  0.31055401288E+04  0.30993360763E+04 0.  0.
        2    1    3    3  502    0  0.10438198480E+04  0.30003383333E+03 -0.12057056159E+04  0.16227465016E+04  0.25500000920E-02 0. -1.
       -2    1    3    3    0  502 -0.10438198480E+04 -0.30003383333E+03  0.10095032267E+04  0.14827936272E+04  0.25500000920E-02 0.  1.
</event>
<event>
 5   0  0.4838602E-08  0.3099505E+04  0.7818609E-02  0.8215874E-01
        1   -1    0    0  501    0  0.00000000000E+00  0.00000000000E+00  0.91043287526E+03  0.91043287527E+03  0.50400001928E-02 0.  1.
       -1   -1    0    0    0  501  0.00000000000E+00  0.00000000000E+00 -0.26380124350E+04  0.26380124350E+04  0.50400001928E-02 0. -1.
    10030    2    1    2    0    0  0.00000000000E+00  0.00000000000E+00 -0.17275795598E+04  0.35484453103E+04  0.30995052807E+04 0.  0.
        5    1    3    3  502    0 -0.13022814234E+03 -0.75052607109E+03  0.68130754749E+03  0.10219837654E+04  0.46999998093E+01 0.  1.
       -5    1    3    3    0  502  0.13022814234E+03  0.75052607109E+03 -0.24088871072E+04  0.25264615449E+04  0.46999998093E+01 0. -1.
</event>
<event>
 5   0  0.1329777E-07  0.3099559E+04  0.7818609E-02  0.8215859E-01
       -2   -1    0    0    0  501  0.00000000000E+00  0.00000000000E+00  0.13077746435E+04  0.13077746435E+04  0.25500000920E-02 0.  1.
        2   -1    0    0  501    0  0.00000000000E+00  0.00000000000E+00 -0.18365670641E+04  0.18365670641E+04  0.25500000920E-02 0. -1.
    10030    2    1    2    0    0  0.00000000000E+00  0.00000000000E+00 -0.52879242062E+03  0.31443417076E+04  0.30995585734E+04 0.  0.
        1    1    3    3  502    0 -0.86680959408E+03 -0.11067899909E+04 -0.92610336539E+03  0.16834519297E+04  0.50400001928E-02 0. -1.
       -1    1    3    3    0  502  0.86680959408E+03  0.11067899909E+04  0.39731094477E+03  0.14608897779E+04  0.50400001928E-02 0.  1.
</event>
<event>
 5   0  0.4450600E-08  0.3100791E+04  0.7818609E-02  0.8215521E-01
       -1   -1    0    0    0  501  0.00000000000E+00  0.00000000000E+00  0.12002453696E+04  0.12002453696E+04  0.50400001928E-02 0.  1.
        1   -1    0    0  501    0  0.00000000000E+00  0.00000000000E+00 -0.20026953125E+04  0.20026953125E+04  0.50400001928E-02 0. -1.
    10030    2    1    2    0    0  0.00000000000E+00  0.00000000000E+00 -0.80244994292E+03  0.32029406822E+04  0.31007907221E+04 0.  0.
        4    1    3    3  502    0  0.35282414673E+03 -0.84033411355E+03  0.89431718511E+03  0.12768912019E+04  0.12699999809E+01 0.  1.
       -4    1    3    3    0  502 -0.35282414673E+03  0.84033411355E+03 -0.16967671280E+04  0.19260494803E+04  0.12699999809E+01 0. -1.
</event>
<event>
 5   0  0.4470354E-08  0.3100795E+04  0.7818609E-02  0.8215520E-01
       -1   -1    0    0    0  501  0.00000000000E+00  0.00000000000E+00  0.16312330030E+04  0.16312330030E+04  0.50400001928E-02 0. -1.
        1   -1    0    0  501    0  0.00000000000E+00  0.00000000000E+00 -0.14735675643E+04  0.14735675644E+04  0.50400001928E-02 0.  1.
    10030    2    1    2    0    0  0.00000000000E+00  0.00000000000E+00  0.15766543863E+03  0.31048005673E+04  0.31007947646E+04 0.  0.
        1    1    3    3  502    0 -0.65231542564E+03  0.11995622198E+04 -0.65646404258E+03  0.15150610459E+04  0.50400001928E-02 0.  1.
       -1    1    3    3    0  502  0.65231542564E+03 -0.11995622198E+04  0.81412948122E+03  0.15897395214E+04  0.50400001928E-02 0. -1.
</event>
<event>
 5   0  0.1325713E-07  0.3099046E+04  0.7818609E-02  0.8216000E-01
        2   -1    0    0  501    0  0.00000000000E+00  0.00000000000E+00  0.14667310162E+04  0.14667310162E+04  0.25500000920E-02 0. -1.
       -2   -1    0    0    0  501  0.00000000000E+00  0.00000000000E+00 -0.16369882180E+04  0.16369882180E+04  0.25500000920E-02 0.  1.
    10030    2    1    2    0    0  0.00000000000E+00  0.00000000000E+00 -0.17025720180E+03  0.31037192342E+04  0.30990459129E+04 0.  0.
        4    1    3    3  502    0  0.10492098719E+04 -0.26347187380E+03 -0.11961982379E+04  0.16128083026E+04  0.12699999809E+01 0.  1.
       -4    1    3    3    0  502 -0.10492098719E+04  0.26347187380E+03  0.10259410361E+04  0.14909109316E+04  0.12699999809E+01 0. -1.
</event>
<event>
 5   0  0.4838602E-08  0.3101564E+04  0.7818609E-02  0.8215309E-01
       -1   -1    0    0    0  501  0.00000000000E+00  0.00000000000E+00  0.10232315743E+04  0.10232315743E+04  0.50400001928E-02 0. -1.
        1   -1    0    0  501    0  0.00000000000E+00  0.00000000000E+00 -0.23503230503E+04  0.23503230503E+04  0.50400001928E-02 0.  1.
    10030    2    1    2    0    0  0.00000000000E+00  0.00000000000E+00 -0.13270914760E+04  0.33735546246E+04  0.31015639634E+04 0.  0.
        5    1    3    3  502    0 -0.12515172889E+04  0.71923690954E+03 -0.46998974051E+02  0.14442396788E+04  0.46999998093E+01 0. -1.
       -5    1    3    3    0  502  0.12515172889E+04 -0.71923690954E+03 -0.12800925020E+04  0.19293149458E+04  0.46999998093E+01 0.  1.
</event>
<event>
 5   0  0.4838602E-08  0.3100088E+04  0.7818609E-02  0.8215714E-01
        1   -1    0    0  501    0  0.00000000000E+00  0.00000000000E+00  0.18675544080E+04  0.18675544080E+04  0.50400001928E-02 0.  1.
       -1   -1    0    0    0  501  0.00000000000E+00  0.00000000000E+00 -0.12865148974E+04  0.12865148974E+04  0.50400001928E-02 0. -1.
    10030    2    1    2    0    0  0.00000000000E+00  0.00000000000E+00  0.58103951055E+03  0.31540693054E+04  0.31000881069E+04 0.  0.
        5    1    3    3  502    0  0.37351221704E+03 -0.66637416448E+03  0.16627258474E+04  0.18298210943E+04  0.46999998093E+01 0.  1.
       -5    1    3    3    0  502 -0.37351221704E+03  0.66637416448E+03 -0.10816863369E+04  0.13242482112E+04  0.46999998093E+01 0. -1.
</event>
<event>
 5   0  0.4450600E-08  0.3099357E+04  0.7818609E-02  0.8215914E-01
        1   -1    0    0  501    0  0.00000000000E+00  0.00000000000E+00  0.16642957974E+04  0.16642957974E+04  0.50400001928E-02 0. -1.
       -1   -1    0    0    0  501  0.00000000000E+00  0.00000000000E+00 -0.14429547430E+04  0.14429547430E+04  0.50400001928E-02 0.  1.
    10030    2    1    2    0    0  0.00000000000E+00  0.00000000000E+00  0.22134105433E+03  0.31072505404E+04  0.30993570396E+04 0.  0.
        4    1    3    3  502    0 -0.21834445676E+03 -0.46598264087E+03 -0.13547936146E+04  0.14492347893E+04  0.12699999809E+01 0.  1.
       -4    1    3    3    0  502  0.21834445676E+03  0.46598264087E+03  0.15761346690E+04  0.16580157511E+04  0.12699999809E+01 0. -1.
</event>
<event>
 5   0  0.1329777E-07  0.3100989E+04  0.7818609E-02  0.8215467E-01
        2   -1    0    0  501    0  0.00000000000E+00  0.00000000000E+00  0.25768682080E+04  0.25768682080E+04  0.25500000920E-02 0. -1.
       -2   -1    0    0    0  501  0.00000000000E+00  0.00000000000E+00 -0.93292803160E+03  0.93292803161E+03  0.25500000920E-02 0.  1.
    10030    2    1    2    0    0  0.00000000000E+00  0.00000000000E+00  0.16439401764E+04  0.35097962397E+04  0.31009886069E+04 0.  0.
        1    1    3    3  502    0  0.15130995519E+04  0.27162978587E+03  0.59340854246E+03  0.16478430425E+04  0.50400001928E-02 0. -1.
       -1    1    3    3    0  502 -0.15130995519E+04 -0.27162978587E+03  0.10505316340E+04  0.18619531972E+04  0.50400001928E-02 0.  1.
</event>
<event>
 5   0  0.4450600E-08  0.3099917E+04  0.7818609E-02  0.8215761E-01
        1   -1    0    0  501    0  0.00000000000E+00  0.00000000000E+00  0.15666447764E+04  0.15666447764E+04  0.50400001928E-02 0.  1.
       -1   -1    0    0    0  501  0.00000000000E+00  0.00000000000E+00 -0.15334503787E+04  0.15334503787E+04  0.50400001928E-02 0. -1.
    10030    2    1    2    0    0  0.00000000000E+00  0.00000000000E+00  0.33194397663E+02  0.31000951551E+04  0.30999174348E+04 0.  0.
        4    1    3    3  502    0  0.11205610245E+04  0.56438088311E+03 -0.89350311753E+03  0.15403026406E+04  0.12699999809E+01 0. -1.
       -4    1    3    3    0  502 -0.11205610245E+04 -0.56438088311E+03  0.92669751519E+03  0.15597925145E+04  0.12699999809E+01 0.  1.
</event>
<event>
 5   0  0.1329777E-07  0.3101951E+04  0.7818609E-02  0.8215203E-01
       -2   -1    0    0    0  501  0.00000000000E+00  0.00000000000E+00  0.95574271447E+03  0.95574271448E+03  0.25500000920E-02 0. -1.
        2   -1    0    0  501    0  0.00000000000E+00  0.00000000000E+00 -0.25169169304E+04  0.25169169304E+04  0.25500000920E-02 0.  1.
    10030    2    1    2    0    0  0.00000000000E+00  0.00000000000E+00 -0.15611742159E+04  0.34726596449E+04  0.31019510113E+04 0.  0.
        1    1    3    3  502    0 -0.32943434830E+03  0.83047741024E+03 -0.21998945301E+04  0.23743958521E+04  0.50400001928E-02 0.  1.
       -1    1    3    3    0  502  0.32943434830E+03 -0.83047741024E+03  0.63872031419E+03  0.10982637928E+04  0.50400001928E-02 0. -1.
</event>
<event>
 5   0  0.1398931E-07  0.3098274E+04  0.7818609E-02  0.8216212E-01
       -2   -1    0    0    0  501  0.00000000000E+00  0.00000000000E+00  0.10586864973E+04  0.10586864973E+04  0.25500000920E-02 0. -1.
        2   -1    0    0  501    0  0.00000000000E+00  0.00000000000E+00 -0.22667948187E+04  0.22667948187E+04  0.25500000920E-02 0.  1.
    10030    2    1    2    0    0  0.00000000000E+00  0.00000000000E+00 -0.12081083214E+04  0.33254813160E+04  0.30982737559E+04 0.  0.
        3    1    3    3  502    0 -0.10629317617E+04 -0.50048146430E+03 -0.16878125625E+04  0.20564573622E+04  0.10100000352E+00 0.  1.
       -3    1    3    3    0  502  0.10629317617E+04  0.50048146430E+03  0.47970424107E+03  0.12690239538E+04  0.10100000352E+00 0. -1.
</event>
<event>
 5   0  0.1398931E-07  0.3099551E+04  0.7818609E-02  0.8215861E-01
       -2   -1    0    0    0  501  0.00000000000E+00  0.00000000000E+00  0.97151617059E+03  0.97151617060E+03  0.25500000920E-02 0. -1.
        2   -1    0    0  501    0  0.00000000000E+00  0.00000000000E+00 -0.24722216835E+04  0.24722216835E+04  0.25500000920E-02 0.  1.
    10030    2    1    2    0    0  0.00000000000E+00  0.00000000000E+00 -0.15007055129E+04  0.34437378541E+04  0.30995505112E+04 0.  0.
        3    1    3    3  502    0 -0.14176109679E+04  0.61577371175E+03 -0.87705668743E+03  0.17770837244E+04  0.10100000352E+00 0.  1.
       -3    1    3    3    0  502  0.14176109679E+04 -0.61577371175E+03 -0.62364882549E+03  0.16666541297E+04  0.10100000352E+00 0. -1.
</event>
<event>
 5   0  0.4470354E-08  0.3101758E+04  0.7818609E-02  0.8215256E-01
        1   -1    0    0  501    0  0.00000000000E+00  0.00000000000E+00  0.99576431323E+03  0.99576431325E+03  0.50400001928E-02 0.  1.
       -1   -1    0    0    0  501  0.00000000000E+00  0.00000000000E+00 -0.24154572935E+04  0.24154572935E+04  0.50400001928E-02 0. -1.
    10030    2    1    2    0    0  0.00000000000E+00  0.00000000000E+00 -0.14196929803E+04  0.34112216068E+04  0.31017583227E+04 0.  0.
        1    1    3    3  502    0  0.52397152440E+03  0.13790355156E+04 -0.12360622170E+04  0.19246129263E+04  0.50400001928E-02 0. -1.
       -1    1    3    3    0  502 -0.52397152440E+03 -0.13790355156E+04 -0.18363076331E+03  0.14866086805E+04  0.50400001928E-02 0.  1.
</event>
<event>
 5   0  0.4838602E-08  0.3098316E+04  0.7818609E-02  0.8216200E-01
        1   -1    0    0  501    0  0.00000000000E+00  0.00000000000E+00  0.15543000661E+04  0.15543000661E+04  0.50400001928E-02 0.  1.
       -1   -1    0    0    0  501  0.00000000000E+00  0.00000000000E+00 -0.15440333767E+04  0.15440333767E+04  0.50400001928E-02 0. -1.
    10030    2    1    2    0    0  0.00000000000E+00  0.00000000000E+00  0.10266689366E+02  0.30983334428E+04  0.30983164328E+04 0.  0.
        5    1    3    3  502    0 -0.86279410894E+03  0.26757902110E+02  0.12915071624E+04  0.15534292711E+04  0.46999998093E+01 0.  1.
       -5    1    3    3    0  502  0.86279410894E+03 -0.26757902110E+02 -0.12812404731E+04  0.15449041716E+04  0.46999998093E+01 0. -1.
</event>
<event>
 5   0  0.1398931E-07  0.3099212E+04  0.7818609E-02  0.8215954E-01
        2   -1    0    0  501    0  0.00000000000E+00  0.00000000000E+00  0.18243983561E+04  0.18243983561E+04  0.25500000920E-02 0.  1.
       -2   -1    0    0    0  501  0.00000000000E+00  0.00000000000E+00 -0.13162029923E+04  0.13162029923E+04  0.25500000920E-02 0. -1.
    10030    2    1    2    0    0  0.00000000000E+00  0.00000000000E+00  0.50819536378E+03  0.31406013484E+04  0.30992118840E+04 0.  0.
        3    1    3    3  502    0  0.14780959947E+04 -0.12139496592E+02  0.72545849171E+03  0.16465737670E+04  0.10100000352E+00 0. -1.
       -3    1    3    3    0  502 -0.14780959947E+04  0.12139496592E+02 -0.21726312794E+03  0.14940275813E+04  0.10100000352E+00 0.  1.
</event>
<event>
 5   0  0.4838602E-08  0.3099623E+04  0.7818609E-02  0.8215841E-01
        1   -1    0    0  501    0  0.00000000000E+00  0.00000000000E+00  0.23253313901E+04  0.23253313902E+04  0.50400001928E-02 0.  1.
       -1   -1    0    0    0  501  0.00000000000E+00  0.00000000000E+00 -0.10329346643E+04  0.10329346643E+04  0.50400001928E-02 0. -1.
    10030    2    1    2    0    0  0.00000000000E+00  0.00000000000E+00  0.12923967258E+04  0.33582660545E+04  0.30996228151E+04 0.  0.
        5    1    3    3  502    0 -0.47044350165E+01  0.13994817240E+04  0.13675814109E+04  0.19567504269E+04  0.46999998093E+01 0. -1.
       -5    1    3    3    0  502  0.47044350165E+01 -0.13994817240E+04 -0.75184685111E+02  0.14015156276E+04  0.46999998093E+01 0.  1.
</event>
<event>
 5   0  0.1377237E-07  0.3098084E+04  0.7818609E-02  0.8216264E-01
        2   -1    0    0  501    0  0.00000000000E+00  0.00000000000E+00  0.15439377007E+04  0.15439377007E+04  0.25500000920E-02 0.  1.
       -2   -1    0    0    0  501  0.00000000000E+00  0.00000000000E+00 -0.15541630950E+04  0.15541630950E+04  0.25500000920E-02 0. -1.
    10030    2    1    2    0    0  0.00000000000E+00  0.00000000000E+00 -0.10225394325E+02  0.30981007958E+04  0.30980839211E+04 0.  0.
        2    1    3    3  502    0 -0.11893158692E+04  0.94325952381E+03  0.30362872856E+03  0.15480313856E+04  0.25500000920E-02 0.  1.
       -2    1    3    3    0  502  0.11893158692E+04 -0.94325952381E+03 -0.31385412288E+03  0.15500694102E+04  0.25500000920E-02 0. -1.
</event>
<event>
 5   0  0.4436241E-08  0.3098707E+04  0.7818609E-02  0.8216093E-01
        1   -1    0    0  501    0  0.00000000000E+00  0.00000000000E+00  0.16410273130E+04  0.16410273130E+04  0.50400001928E-02 0.  1.
       -1   -1    0    0    0  501  0.00000000000E+00  0.00000000000E+00 -0.14628008478E+04  0.14628008478E+04  0.50400001928E-02 0. -1.
    10030    2    1    2    0    0  0.00000000000E+00  0.00000000000E+00  0.17822646522E+03  0.31038281608E+04  0.30987069204E+04 0.  0.
        3    1    3    3  502    0  0.11099522183E+04 -0.34060374089E+02  0.11713349405E+04  0.16140568730E+04  0.10100000352E+00 0.  1.
       -3    1    3    3    0  502 -0.11099522183E+04  0.34060374089E+02 -0.99310847532E+03  0.14897712878E+04  0.10100000352E+00 0. -1.
</event>
<event>
 5   0  0.4470354E-08  0.3104979E+04  0.7818609E-02  0.8214373E-01
       -1   -1    0    0    0  501  0.00000000000E+00  0.00000000000E+00  0.11749463111E+04  0.11749463111E+04  0.50400001928E-02 0.  1.
        1   -1    0    0  501    0  0.00000000000E+00  0.00000000000E+00 -0.20513478867E+04  0.20513478867E+04  0.50400001928E-02 0. -1.
    10030    2    1    2    0    0  0.00000000000E+00  0.00000000000E+00 -0.87640157556E+03  0.32262941978E+04  0.31049789901E+04 0.  0.
        1    1    3    3  502    0  0.27763251342E+03  0.13027090864E+04  0.39051490003E+03  0.13880319389E+04  0.50400001928E-02 0.  1.
       -1    1    3    3    0  502 -0.27763251342E+03 -0.13027090864E+04 -0.12669164756E+04  0.18382622589E+04  0.50400001928E-02 0. -1.
</event>
<event>
 5   0  0.4450600E-08  0.3099179E+04  0.7818609E-02  0.8215963E-01
        1   -1    0    0  501    0  0.00000000000E+00  0.00000000000E+00  0.19416616552E+04  0.19416616552E+04  0.50400001928E-02 0. -1.
       -1   -1    0    0    0  501  0.00000000000E+00  0.00000000000E+00 -0.12366872938E+04  0.12366872938E+04  0.50400001928E-02 0.  1.
    10030    2    1    2    0    0  0.00000000000E+00  0.00000000000E+00  0.70497436139E+03  0.31783489490E+04  0.30991794384E+04 0.  0.
        4    1    3    3  502    0  0.24928472962E+03  0.60159365351E+03  0.17945252906E+04  0.19090260427E+04  0.12699999809E+01 0. -1.
       -4    1    3    3    0  502 -0.24928472962E+03 -0.60159365351E+03 -0.10895509292E+04  0.12693229063E+04  0.12699999809E+01 0.  1.
</event>
<event>
 5   0  0.1325713E-07  0.3095944E+04  0.7818609E-02  0.8216852E-01
       -2   -1    0    0    0  501  0.00000000000E+00  0.00000000000E+00  0.11895122997E+04  0.11895122997E+04  0.25500000920E-02 0. -1.
        2   -1    0    0  501    0  0.00000000000E+00  0.00000000000E+00 -0.20144533486E+04  0.20144533486E+04  0.25500000920E-02 0.  1.
    10030    2    1    2    0    0  0.00000000000E+00  0.00000000000E+00 -0.82494104895E+03  0.32039656483E+04  0.30959438208E+04 0.  0.
        4    1    3    3  502    0 -0.10916640250E+04 -0.83427627391E+03 -0.11504200685E+04  0.17919863816E+04  0.12699999809E+01 0. -1.
       -4    1    3    3    0  502  0.10916640250E+04  0.83427627391E+03  0.32547901957E+03  0.14119792668E+04  0.12699999809E+01 0.  1.
</event>
<event>
 5   0  0.4436241E-08  0.3100206E+04  0.7818609E-02  0.8215681E-01
        1   -1    0    0  501    0  0.00000000000E+00  0.00000000000E+00  0.14856863047E+04  0.14856863047E+04  0.50400001928E-02 0. -1.
       -1   -1    0    0    0  501  0.00000000000E+00  0.00000000000E+00 -0.16173128330E+04  0.16173128330E+04  0.50400001928E-02 0.  1.
    10030    2    1    2    0    0  0.00000000000E+00  0.00000000000E+00 -0.13162652830E+03  0.31029991378E+04  0.31002061393E+04 0.  0.
        3    1    3    3  502    0 -0.12414307533E+04  0.67124445644E+03 -0.70756176680E+03  0.15787219830E+04  0.10100000352E+00 0.  1.
       -3    1    3    3    0  502  0.12414307533E+04 -0.67124445644E+03  0.57593523850E+03  0.15242771548E+04  0.10100000352E+00 0. -1.
</event>
<event>
 5   0  0.4838602E-08  0.3099796E+04  0.7818609E-02  0.8215794E-01
       -1   -1    0    0    0  501  0.00000000000E+00  0.00000000000E+00  0.83262629681E+03  0.83262629683E+03  0.50400001928E-02 0.  1.
        1   -1    0    0  501    0  0.00000000000E+00  0.00000000000E+00 -0.28850675522E+04  0.28850675522E+04  0.50400001928E-02 0. -1.
    10030    2    1    2    0    0  0.00000000000E+00  0.00000000000E+00 -0.20524412554E+04  0.37176938491E+04  0.30997955495E+04 0.  0.
        5    1    3    3  502    0 -0.56648480883E+03  0.28961425032E+03 -0.27212252004E+04  0.27946144875E+04  0.46999998093E+01 0. -1.
       -5    1    3    3    0  502  0.56648480883E+03 -0.28961425032E+03  0.66878394498E+03  0.92307936153E+03  0.46999998093E+01 0.  1.
</event>
<event>
 5   0  0.4450600E-08  0.3100086E+04  0.7818609E-02  0.8215714E-01
        1   -1    0    0  501    0  0.00000000000E+00  0.00000000000E+00  0.11269252012E+04  0.11269252012E+04  0.50400001928E-02 0. -1.
       -1   -1    0    0    0  501  0.00000000000E+00  0.00000000000E+00 -0.21320253184E+04  0.21320253184E+04  0.50400001928E-02 0.  1.
    10030    2    1    2    0    0  0.00000000000E+00  0.00000000000E+00 -0.10051001171E+04  0.32589505196E+04  0.31000858446E+04 0.  0.
        4    1    3    3  502    0  0.11594238857E+04 -0.10143820184E+04 -0.68279132792E+03  0.16850638672E+04  0.12699999809E+01 0. -1.
       -4    1    3    3    0  502 -0.11594238857E+04  0.10143820184E+04 -0.32230878921E+03  0.15738866524E+04  0.12699999809E+01 0.  1.
</event>
<event>
 5   0  0.1377237E-07  0.3105892E+04  0.7818609E-02  0.8214123E-01
       -2   -1    0    0    0  501  0.00000000000E+00  0.00000000000E+00  0.91056875761E+03  0.91056875761E+03  0.25500000920E-02 0. -1.
        2   -1    0    0  501    0  0.00000000000E+00  0.00000000000E+00 -0.26484992795E+04  0.26484992795E+04  0.25500000920E-02 0.  1.
    10030    2    1    2    0    0  0.00000000000E+00  0.00000000000E+00 -0.17379305219E+04  0.35590680371E+04  0.31058916262E+04 0.  0.
        2    1    3    3  502    0  0.67079066504E+03  0.12366173450E+04 -0.16225325227E+04  0.21475088734E+04  0.25500000920E-02 0.  1.
       -2    1    3    3    0  502 -0.67079066504E+03 -0.12366173450E+04 -0.11539799919E+03  0.14115591637E+04  0.25500000920E-02 0. -1.
</event>
<event>
 5   0  0.1325713E-07  0.3099749E+04  0.7818609E-02  0.8215807E-01
       -2   -1    0    0    0  501  0.00000000000E+00  0.00000000000E+00  0.94620062878E+03  0.94620062878E+03  0.25500000920E-02 0. -1.
        2   -1    0    0  501    0  0.00000000000E+00  0.00000000000E+00 -0.25386902193E+04  0.25386902193E+04  0.25500000920E-02 0.  1.
    10030    2    1    2    0    0  0.00000000000E+00  0.00000000000E+00 -0.15924895905E+04  0.34848908481E+04  0.30997485587E+04 0.  0.
        4    1    3    3  502    0  0.66857658427E+03 -0.96453556793E+03 -0.19343413971E+04  0.22625211080E+04  0.12699999809E+01 0.  1.
       -4    1    3    3    0  502 -0.66857658427E+03  0.96453556793E+03  0.34185180657E+03  0.12223697401E+04  0.12699999809E+01 0. -1.
</event>
<event>
 5   0  0.1325713E-07  0.3102127E+04  0.7818609E-02  0.8215154E-01
       -2   -1    0    0    0  501  0.00000000000E+00  0.00000000000E+00  0.14399924273E+04  0.14399924273E+04  0.25500000920E-02 0.  1.
        2   -1    0    0  501    0  0.00000000000E+00  0.00000000000E+00 -0.16707023021E+04  0.16707023021E+04  0.25500000920E-02 0. -1.
    10030    2    1    2    0    0  0.00000000000E+00  0.00000000000E+00 -0.23070987478E+03  0.31106947294E+04  0.31021274398E+04 0.  0.
        4    1    3    3  502    0 -0.49807207380E+03 -0.14171465595E+04  0.27225740933E+03  0.15265994470E+04  0.12699999809E+01 0.  1.
       -4    1    3    3    0  502  0.49807207380E+03  0.14171465595E+04 -0.50296728411E+03  0.15840952824E+04  0.12699999809E+01 0. -1.
</event>
<event>
 5   0  0.4450600E-08  0.3098949E+04  0.7818609E-02  0.8216026E-01
        1   -1    0    0  501    0  0.00000000000E+00  0.00000000000E+00  0.16078480329E+04  0.16078480329E+04  0.50400001928E-02 0.  1.
       -1   -1    0    0    0  501  0.00000000000E+00  0.00000000000E+00 -0.14932200121E+04  0.14932200121E+04  0.50400001928E-02 0. -1.
    10030    2    1    2    0    0  0.00000000000E+00  0.00000000000E+00  0.11462802078E+03  0.31010680450E+04  0.30989487631E+04 0.  0.
        4    1    3    3  502    0  0.69402451573E+02 -0.12397850722E+04  0.98476254984E+03  0.15848162726E+04  0.12699999809E+01 0.  1.
       -4    1    3    3    0  502 -0.69402451573E+02  0.12397850722E+04 -0.87013452906E+03  0.15162517723E+04  0.12699999809E+01 0. -1.
</event>
<event>
 5   0  0.1377237E-07  0.3100739E+04  0.7818609E-02  0.8215535E-01
        2   -1    0    0  501    0  0.00000000000E+00  0.00000000000E+00  0.18690273221E+04  0.18690273221E+04  0.25500000920E-02 0.  1.
       -2   -1    0    0    0  501  0.00000000000E+00  0.00000000000E+00 -0.12860410698E+04  0.12860410698E+04  0.25500000920E-02 0. -1.
    10030    2    1    2    0    0  0.00000000000E+00  0.00000000000E+00  0.58298625228E+03  0.31550683919E+04  0.31007392002E+04 0.  0.
        2    1    3    3  502    0 -0.24201980383E+03 -0.70423573612E+03  0.16751442355E+04  0.18332020531E+04  0.25500000920E-02 0.  1.
       -2    1    3    3    0  502  0.24201980383E+03  0.70423573612E+03 -0.10921579833E+04  0.13218663389E+04  0.25500000920E-02 0. -1.
</event>
<event>
 5   0  0.1325713E-07  0.3099328E+04  0.7818609E-02  0.8215922E-01
       -2   -1    0    0    0  501  0.00000000000E+00  0.00000000000E+00  0.14243199754E+04  0.14243199754E+04  0.25500000920E-02 0. -1.
        2   -1    0    0  501    0  0.00000000000E+00  0.00000000000E+00 -0.16860389703E+04  0.16860389703E+04  0.25500000920E-02 0.  1.
    10030    2    1    2    0    0  0.00000000000E+00  0.00000000000E+00 -0.26171899481E+03  0.31103589457E+04  0.30993283045E+04 0.  0.
        4    1    3    3  502    0 -0.11298660692E+04 -0.10439500533E+04  0.56965159849E+02  0.15393750974E+04  0.12699999809E+01 0. -1.
       -4    1    3    3    0  502  0.11298660692E+04  0.10439500533E+04 -0.31868415466E+03  0.15709838483E+04  0.12699999809E+01 0.  1.
</event>
<event>
 5   0  0.1318916E-07  0.3098555E+04  0.7818609E-02  0.8216134E-01
        2   -1    0    0  501    0  0.00000000000E+00  0.00000000000E+00  0.15848523556E+04  0.15848523556E+04  0.25500000920E-02 0. -1.
       -2   -1    0    0    0  501  0.00000000000E+00  0.00000000000E+00 -0.15145015622E+04  0.15145015622E+04  0.25500000920E-02 0.  1.
    10030    2    1    2    0    0  0.00000000000E+00  0.00000000000E+00  0.70350793432E+02  0.30993539177E+04  0.30985553849E+04 0.  0.
        5    1    3    3  502    0 -0.43908030052E+03  0.14658476339E+04  0.27759808815E+03  0.15551795988E+04  0.46999998093E+01 0. -1.
       -5    1    3    3    0  502  0.43908030052E+03 -0.14658476339E+04 -0.20724729472E+03  0.15441743189E+04  0.46999998093E+01 0.  1.
</event>
<event>
 5   0  0.4517409E-08  0.3101386E+04  0.7818609E-02  0.8215358E-01
        1   -1    0    0  501    0  0.00000000000E+00  0.00000000000E+00  0.33047385110E+04  0.33047385110E+04  0.50400001928E-02 0. -1.
       -1   -1    0    0    0  501  0.00000000000E+00  0.00000000000E+00 -0.72763642824E+03  0.72763642825E+03  0.50400001928E-02 0.  1.
    10030    2    1    2    0    0  0.00000000000E+00  0.00000000000E+00  0.25771020828E+04  0.40323749393E+04  0.31013855784E+04 0.  0.
        2    1    3    3  502    0  0.88459733763E+02 -0.14825169046E+04  0.70859474806E+03  0.16455357832E+04  0.25500000920E-02 0. -1.
       -2    1    3    3    0  502 -0.88459733763E+02  0.14825169046E+04  0.18685073347E+04  0.23868391560E+04  0.25500000920E-02 0.  1.
</event>
<event>
 5   0  0.1318916E-07  0.3101052E+04  0.7818609E-02  0.8215449E-01
        2   -1    0    0  501    0  0.00000000000E+00  0.00000000000E+00  0.23124155077E+04  0.23124155077E+04  0.25500000920E-02 0. -1.
       -2   -1    0    0    0  501  0.00000000000E+00  0.00000000000E+00 -0.10396622645E+04  0.10396622645E+04  0.25500000920E-02 0.  1.
    10030    2    1    2    0    0  0.00000000000E+00  0.00000000000E+00  0.12727532432E+04  0.33520777722E+04  0.31010521720E+04 0.  0.
        5    1    3    3  502    0 -0.13465177794E+04  0.74648016957E+03  0.83500743408E+03  0.17514571872E+04  0.46999998093E+01 0.  1.
       -5    1    3    3    0  502  0.13465177794E+04 -0.74648016957E+03  0.43774580909E+03  0.16006205850E+04  0.46999998093E+01 0. -1.
</event>
<event>
 5   0  0.4838602E-08  0.3100037E+04  0.7818609E-02  0.8215728E-01
        1   -1    0    0  501    0  0.00000000000E+00  0.00000000000E+00  0.21704124100E+04  0.21704124100E+04  0.50400001928E-02 0. -1.
       -1   -1    0    0    0  501  0.00000000000E+00  0.00000000000E+00 -0.11069591525E+04  0.11069591525E+04  0.50400001928E-02 0.  1.
    10030    2    1    2    0    0  0.00000000000E+00  0.00000000000E+00  0.10634532574E+04  0.32773715625E+04  0.31000373430E+04 0.  0.
        5    1    3    3  502    0  0.58947883682E+03 -0.53471495169E+03  0.19378993865E+04  0.20949657517E+04  0.46999998093E+01 0. -1.
       -5    1    3    3    0  502 -0.58947883682E+03  0.53471495169E+03 -0.87444612912E+03  0.11824058108E+04  0.46999998093E+01 0.  1.
</event>
<event>
 5   0  0.4517409E-08  0.3101819E+04  0.7818609E-02  0.8215239E-01
       -1   -1    0    0    0  501  0.00000000000E+00  0.00000000000E+00  0.12809450573E+04  0.12809450573E+04  0.50400001928E-02 0. -1.
        1   -1    0    0  501    0  0.00000000000E+00  0.00000000000E+00 -0.18777695758E+04  0.18777695758E+04  0.50400001928E-02 0.  1.
    10030    2    1    2    0    0  0.00000000000E+00  0.00000000000E+00 -0.59682451853E+03  0.31587146332E+04  0.31018186001E+04 0.  0.
        2    1    3    3  502    0 -0.15294486778E+04  0.81684557168E+02 -0.50149491177E+02  0.15324492150E+04  0.25500000920E-02 0.  1.
       -2    1    3    3    0  502  0.15294486778E+04 -0.81684557168E+02 -0.54667502735E+03  0.16262654182E+04  0.25500000920E-02 0. -1.
</event>
<event>
 5   0  0.1329777E-07  0.3101215E+04  0.7818609E-02  0.8215404E-01
        2   -1    0    0  501    0  0.00000000000E+00  0.00000000000E+00  0.20518951039E+04  0.20518951039E+04  0.25500000920E-02 0. -1.
       -2   -1    0    0    0  501  0.00000000000E+00  0.00000000000E+00 -0.11717871279E+04  0.11717871279E+04  0.25500000920E-02 0.  1.
    10030    2    1    2    0    0  0.00000000000E+00  0.00000000000E+00  0.88010797607E+03  0.32236822318E+04  0.31012154201E+04 0.  0.
        1    1    3    3  502    0 -0.59579261934E+03  0.78088920162E+03  0.16872805598E+04  0.19523505008E+04  0.50400001928E-02 0. -1.
       -1    1    3    3    0  502  0.59579261934E+03 -0.78088920162E+03 -0.80717258369E+03  0.12713317310E+04  0.50400001928E-02 0.  1.
</event>
<event>
 5   0  0.4450600E-08  0.3099716E+04  0.7818609E-02  0.8215816E-01
        1   -1    0    0  501    0  0.00000000000E+00  0.00000000000E+00  0.14564371636E+04  0.14564371636E+04  0.50400001928E-02 0.  1.
       -1   -1    0    0    0  501  0.00000000000E+00  0.00000000000E+00 -0.16492710440E+04  0.16492710440E+04  0.50400001928E-02 0. -1.
    10030    2    1    2    0    0  0.00000000000E+00  0.00000000000E+00 -0.19283388043E+03  0.31057082076E+04  0.30997158846E+04 0.  0.
        4    1    3    3  502    0 -0.47181651403E+03  0.12117311255E+04 -0.94134719175E+03  0.16053159477E+04  0.12699999809E+01 0. -1.
       -4    1    3    3    0  502  0.47181651403E+03 -0.12117311255E+04  0.74851331132E+03  0.15003922599E+04  0.12699999809E+01 0.  1.
</event>
<event>
 5   0  0.1318916E-07  0.3100183E+04  0.7818609E-02  0.8215688E-01
        2   -1    0    0  501    0  0.00000000000E+00  0.00000000000E+00  0.10895807158E+04  0.10895807158E+04  0.25500000920E-02 0. -1.
       -2   -1    0    0    0  501  0.00000000000E+00  0.00000000000E+00 -0.22052365831E+04  0.22052365831E+04  0.25500000920E-02 0.  1.
    10030    2    1    2    0    0  0.00000000000E+00  0.00000000000E+00 -0.11156558673E+04  0.32948172989E+04  0.31001827396E+04 0.  0.
        5    1    3    3  502    0  0.49312993306E+03 -0.12676694170E+04 -0.13478674403E+04  0.19149233949E+04  0.46999998093E+01 0.  1.
       -5    1    3    3    0  502 -0.49312993306E+03  0.12676694170E+04  0.23221157301E+03  0.13798939040E+04  0.46999998093E+01 0. -1.
</event>
<event>
 5   0  0.4838602E-08  0.3100622E+04  0.7818609E-02  0.8215567E-01
        1   -1    0    0  501    0  0.00000000000E+00  0.00000000000E+00  0.99982736197E+03  0.99982736198E+03  0.50400001928E-02 0. -1.
       -1   -1    0    0    0  501  0.00000000000E+00  0.00000000000E+00 -0.24038788315E+04  0.24038788315E+04  0.50400001928E-02 0.  1.
    10030    2    1    2    0    0  0.00000000000E+00  0.00000000000E+00 -0.14040514695E+04  0.34037061934E+04  0.31006217638E+04 0.  0.
        5    1    3    3  502    0 -0.13276107914E+04  0.30669583151E+03  0.10973686955E+03  0.13669956171E+04  0.46999998093E+01 0. -1.
       -5    1    3    3    0  502  0.13276107914E+04 -0.30669583151E+03 -0.15137883390E+04  0.20367105764E+04  0.46999998093E+01 0.  1.
</event>
<event>
 5   0  0.4436241E-08  0.3101134E+04  0.7818609E-02  0.8215427E-01
        1   -1    0    0  501    0  0.00000000000E+00  0.00000000000E+00  0.91288962354E+03  0.91288962356E+03  0.50400001928E-02 0. -1.
       -1   -1    0    0    0  501  0.00000000000E+00  0.00000000000E+00 -0.26336780617E+04  0.26336780617E+04  0.50400001928E-02 0.  1.
    10030    2    1    2    0    0  0.00000000000E+00  0.00000000000E+00 -0.17207884382E+04  0.35465676853E+04  0.31011335826E+04 0.  0.
        3    1    3    3  502    0 -0.20481866568E+03  0.11346000617E+04 -0.20461352961E+04  0.23486033394E+04  0.10100000352E+00 0.  1.
       -3    1    3    3    0  502  0.20481866568E+03 -0.11346000617E+04  0.32534685792E+03  0.11979643459E+04  0.10100000352E+00 0. -1.
</event>
<event>
 5   0  0.4305500E-08  0.3091835E+04  0.7818609E-02  0.8217982E-01
        3   -1    0    0  501    0  0.00000000000E+00  0.00000000000E+00  0.26451080968E+04  0.26451080987E+04  0.10100000352E+00 0. -1.
       -3   -1    0    0    0  501  0.00000000000E+00  0.00000000000E+00 -0.90350221606E+03  0.90350222170E+03  0.10100000352E+00 0.  1.
    10030    2    1    2    0    0  0.00000000000E+00  0.00000000000E+00  0.17416058807E+04  0.35486103204E+04  0.30918350801E+04 0.  0.
        3    1    3    3  502    0 -0.13333775485E+04 -0.78075122929E+03  0.81465927510E+03  0.17467506730E+04  0.10100000352E+00 0.  1.
       -3    1    3    3    0  502  0.13333775485E+04  0.78075122929E+03  0.92694660560E+03  0.18018596474E+04  0.10100000352E+00 0. -1.
</event>
<event>
 5   0  0.1377237E-07  0.3100542E+04  0.7818609E-02  0.8215589E-01
       -2   -1    0    0    0  501  0.00000000000E+00  0.00000000000E+00  0.28209048310E+04  0.28209048310E+04  0.25500000920E-02 0.  1.
        2   -1    0    0  501    0  0.00000000000E+00  0.00000000000E+00 -0.85197485725E+03  0.85197485726E+03  0.25500000920E-02 0. -1.
    10030    2    1    2    0    0  0.00000000000E+00  0.00000000000E+00  0.19689299738E+04  0.36728796883E+04  0.31005418821E+04 0.  0.
        2    1    3    3  502    0  0.50775848419E+02  0.14543147746E+04  0.16176742794E+04  0.21758859631E+04  0.25500000920E-02 0.  1.
       -2    1    3    3    0  502 -0.50775848419E+02 -0.14543147746E+04  0.35125569435E+03  0.14969937251E+04  0.25500000920E-02 0. -1.
</event>
<event>
 5   0  0.1318916E-07  0.3098794E+04  0.7818609E-02  0.8216069E-01
        2   -1    0    0  501    0  0.00000000000E+00  0.00000000000E+00  0.83250560262E+03  0.83250560263E+03  0.25500000920E-02 0. -1.
       -2   -1    0    0    0  501  0.00000000000E+00  0.00000000000E+00 -0.28836222906E+04  0.28836222907E+04  0.25500000920E-02 0.  1.
    10030    2    1    2    0    0  0.00000000000E+00  0.00000000000E+00 -0.20511166880E+04  0.37161278933E+04  0.30987944190E+04 0.  0.
        5    1    3    3  502    0  0.54829307486E+03 -0.67483724627E+03 -0.25634482965E+04  0.27069022634E+04  0.46999998093E+01 0.  1.
       -5    1    3    3    0  502 -0.54829307486E+03  0.67483724627E+03  0.51233160848E+03  0.10092256298E+04  0.46999998093E+01 0. -1.
</event>
<event>
 5   0  0.4450600E-08  0.3093919E+04  0.7818609E-02  0.8217409E-01
        1   -1    0    0  501    0  0.00000000000E+00  0.00000000000E+00  0.17694908884E+04  0.17694908884E+04  0.50400001928E-02 0. -1.
       -1   -1    0    0    0  501  0.00000000000E+00  0.00000000000E+00 -0.13524134041E+04  0.13524134041E+04  0.50400001928E-02 0.  1.
    10030    2    1    2    0    0  0.00000000000E+00  0.00000000000E+00  0.41707748429E+03  0.31219042924E+04  0.30939186775E+04 0.  0.
        4    1    3    3  502    0 -0.43708749190E+03  0.40154875915E+03  0.16500244793E+04  0.17535305178E+04  0.12699999809E+01 0. -1.
       -4    1    3    3    0  502  0.43708749190E+03 -0.40154875915E+03 -0.12329469951E+04  0.13683737746E+04  0.12699999809E+01 0.  1.
</event>
<event>
 5   0  0.1325713E-07  0.3101519E+04  0.7818609E-02  0.8215321E-01
        2   -1    0    0  501    0  0.00000000000E+00  0.00000000000E+00  0.14977478155E+04  0.14977478155E+04  0.25500000920E-02 0. -1.
       -2   -1    0    0    0  501  0.00000000000E+00  0.00000000000E+00 -0.16056477921E+04  0.16056477921E+04  0.25500000920E-02 0.  1.
    10030    2    1    2    0    0  0.00000000000E+00  0.00000000000E+00 -0.10789997665E+03  0.31033956076E+04  0.31015192877E+04 0.  0.
        4    1    3    3  502    0 -0.90846656122E+03  0.37024228974E+03 -0.12557023879E+04  0.15934807642E+04  0.12699999809E+01 0.  1.
       -4    1    3    3    0  502  0.90846656122E+03 -0.37024228974E+03  0.11478024113E+04  0.15099148434E+04  0.12699999809E+01 0. -1.
</event>
<event>
 5   0  0.4838602E-08  0.3100132E+04  0.7818609E-02  0.8215702E-01
        1   -1    0    0  501    0  0.00000000000E+00  0.00000000000E+00  0.12157029758E+04  0.12157029758E+04  0.50400001928E-02 0. -1.
       -1   -1    0    0    0  501  0.00000000000E+00  0.00000000000E+00 -0.19763917635E+04  0.19763917635E+04  0.50400001928E-02 0.  1.
    10030    2    1    2    0    0  0.00000000000E+00  0.00000000000E+00 -0.76068878773E+03  0.31920947393E+04  0.31001324799E+04 0.  0.
        5    1    3    3  502    0  0.12237283665E+04 -0.62985663251E+03 -0.11145552915E+04  0.17710127273E+04  0.46999998093E+01 0.  1.
       -5    1    3    3    0  502 -0.12237283665E+04  0.62985663251E+03  0.35386650374E+03  0.14210820120E+04  0.46999998093E+01 0. -1.
</event>
<event>
 5   0  0.1377237E-07  0.3080162E+04  0.7818609E-02  0.8221203E-01
       -2   -1    0    0    0  501  0.00000000000E+00  0.00000000000E+00  0.19445519350E+04  0.19445519350E+04  0.25500000920E-02 0. -1.
        2   -1    0    0  501    0  0.00000000000E+00  0.00000000000E+00 -0.12197407573E+04  0.12197407573E+04  0.25500000920E-02 0.  1.
    10030    2    1    2    0    0  0.00000000000E+00  0.00000000000E+00  0.72481117777E+03  0.31642926923E+04  0.30801618463E+04 0.  0.
        2    1    3    3  502    0  0.38660763824E+03  0.12720021481E+04 -0.43625691990E+03  0.13992051426E+04  0.25500000920E-02 0.  1.
       -2    1    3    3    0  502 -0.38660763824E+03 -0.12720021481E+04  0.11610680977E+04  0.17650875497E+04  0.25500000920E-02 0. -1.
</event>
<event>
 5   0  0.1398931E-07  0.3089173E+04  0.7818609E-02  0.8218715E-01
        2   -1    0    0  501    0  0.00000000000E+00  0.00000000000E+00  0.23297716412E+04  0.23297716412E+04  0.25500000920E-02 0. -1.
       -2   -1    0    0    0  501  0.00000000000E+00  0.00000000000E+00 -0.10240264851E+04  0.10240264851E+04  0.25500000920E-02 0.  1.
    10030    2    1    2    0    0  0.00000000000E+00  0.00000000000E+00  0.13057451560E+04  0.33537981263E+04  0.30891732647E+04 0.  0.
        3    1    3    3  502    0  0.88156591246E+03  0.12623794075E+04  0.78578363289E+03  0.17286457573E+04  0.10100000352E+00 0.  1.
       -3    1    3    3    0  502 -0.88156591246E+03 -0.12623794075E+04  0.51996152315E+03  0.16251523689E+04  0.10100000352E+00 0. -1.
</event>
<event>
 5   0  0.4450600E-08  0.3100128E+04  0.7818609E-02  0.8215703E-01
        1   -1    0    0  501    0  0.00000000000E+00  0.00000000000E+00  0.17363814751E+04  0.17363814751E+04  0.50400001928E-02 0. -1.
       -1   -1    0    0    0  501  0.00000000000E+00  0.00000000000E+00 -0.13837388805E+04  0.13837388805E+04  0.50400001928E-02 0.  1.
    10030    2    1    2    0    0  0.00000000000E+00  0.00000000000E+00  0.35264259460E+03  0.31201203556E+04  0.31001280996E+04 0.  0.
        4    1    3    3  502    0  0.61767810344E+03 -0.72238385923E+03 -0.10560473783E+04  0.14207752664E+04  0.12699999809E+01 0.  1.
       -4    1    3    3    0  502 -0.61767810344E+03  0.72238385923E+03  0.14086899729E+04  0.16993450892E+04  0.12699999809E+01 0. -1.
</event>
<event>
 5   0  0.4838602E-08  0.3099709E+04  0.7818609E-02  0.8215818E-01
       -1   -1    0    0    0  501  0.00000000000E+00  0.00000000000E+00  0.10218704116E+04  0.10218704116E+04  0.50400001928E-02 0.  1.
        1   -1    0    0  501    0  0.00000000000E+00  0.00000000000E+00 -0.23506388584E+04  0.23506388584E+04  0.50400001928E-02 0. -1.
    10030    2    1    2    0    0  0.00000000000E+00  0.00000000000E+00 -0.13287684468E+04  0.33725092700E+04  0.30997085655E+04 0.  0.
        5    1    3    3  502    0  0.10136008749E+04  0.96419508504E+03 -0.13901497621E+04  0.19722062130E+04  0.46999998093E+01 0.  1.
       -5    1    3    3    0  502 -0.10136008749E+04 -0.96419508504E+03  0.61381315303E+02  0.14003030570E+04  0.46999998093E+01 0. -1.
</event>
<event>
 5   0  0.1398931E-07  0.3099986E+04  0.7818609E-02  0.8215742E-01
        2   -1    0    0  501    0  0.00000000000E+00  0.00000000000E+00  0.17365642651E+04  0.17365642651E+04  0.25500000920E-02 0. -1.
       -2   -1    0    0    0  501  0.00000000000E+00  0.00000000000E+00 -0.13834660356E+04  0.13834660356E+04  0.25500000920E-02 0.  1.
    10030    2    1    2    0    0  0.00000000000E+00  0.00000000000E+00  0.35309822950E+03  0.31200303006E+04  0.30999855995E+04 0.  0.
        3    1    3    3  502    0 -0.44821319247E+03 -0.11963954048E+04  0.10598460248E+04  0.16599791074E+04  0.10100000352E+00 0. -1.
       -3    1    3    3    0  502  0.44821319247E+03  0.11963954048E+04 -0.70674779533E+03  0.14600511932E+04  0.10100000352E+00 0.  1.
</event>
<event>
 5   0  0.1398931E-07  0.3099695E+04  0.7818609E-02  0.8215822E-01
        2   -1    0    0  501    0  0.00000000000E+00  0.00000000000E+00  0.15689059189E+04  0.15689059189E+04  0.25500000920E-02 0.  1.
       -2   -1    0    0    0  501  0.00000000000E+00  0.00000000000E+00 -0.15310203390E+04  0.15310203390E+04  0.25500000920E-02 0. -1.
    10030    2    1    2    0    0  0.00000000000E+00  0.00000000000E+00  0.37885579876E+02  0.30999262579E+04  0.30996947409E+04 0.  0.
        3    1    3    3  502    0  0.60805649466E+03  0.13179348054E+04  0.56243715921E+03  0.15566054158E+04  0.10100000352E+00 0.  1.
       -3    1    3    3    0  502 -0.60805649466E+03 -0.13179348054E+04 -0.52455157933E+03  0.15433208421E+04  0.10100000352E+00 0. -1.
</event>
<event>
 5   0  0.1377237E-07  0.3099732E+04  0.7818609E-02  0.8215812E-01
       -2   -1    0    0    0  501  0.00000000000E+00  0.00000000000E+00  0.89018716800E+03  0.89018716800E+03  0.25500000920E-02 0.  1.
        2   -1    0    0  501    0  0.00000000000E+00  0.00000000000E+00 -0.26984035798E+04  0.26984035798E+04  0.25500000920E-02 0. -1.
    10030    2    1    2    0    0  0.00000000000E+00  0.00000000000E+00 -0.18082164118E+04  0.35885907478E+04  0.30997317567E+04 0.  0.
        2    1    3    3  502    0 -0.13755350109E+03 -0.11260491056E+04 -0.21266723693E+04  0.24103200867E+04  0.25500000920E-02 0. -1.
       -2    1    3    3    0  502  0.13755350109E+03  0.11260491056E+04  0.31845595751E+03  0.11782706611E+04  0.25500000920E-02 0.  1.
</event>
<event>
 5   0  0.4470354E-08  0.3100062E+04  0.7818609E-02  0.8215721E-01
        1   -1    0    0  501    0  0.00000000000E+00  0.00000000000E+00  0.22225565170E+04  0.22225565170E+04  0.50400001928E-02 0.  1.
       -1   -1    0    0    0  501  0.00000000000E+00  0.00000000000E+00 -0.10810057944E+04  0.10810057944E+04  0.50400001928E-02 0. -1.
    10030    2    1    2    0    0  0.00000000000E+00  0.00000000000E+00  0.11415507225E+04  0.33035623114E+04  0.31000622402E+04 0.  0.
        1    1    3    3  502    0  0.76161179349E+03 -0.17420526064E+03  0.19973841629E+04  0.21447478852E+04  0.50400001928E-02 0.  1.
       -1    1    3    3    0  502 -0.76161179349E+03  0.17420526064E+03 -0.85583344033E+03  0.11588144262E+04  0.50400001928E-02 0. -1.
</event>
<event>
 5   0  0.1325713E-07  0.3099837E+04  0.7818609E-02  0.8215783E-01
        2   -1    0    0  501    0  0.00000000000E+00  0.00000000000E+00  0.19782627754E+04  0.19782627754E+04  0.25500000920E-02 0. -1.
       -2   -1    0    0    0  501  0.00000000000E+00  0.00000000000E+00 -0.12143214066E+04  0.12143214066E+04  0.25500000920E-02 0.  1.
    10030    2    1    2    0    0  0.00000000000E+00  0.00000000000E+00  0.76394136883E+03  0.31925841820E+04  0.30998366641E+04 0.  0.
        4    1    3    3  502    0  0.82465915218E+03  0.10079114994E+04 -0.48358936210E+03  0.13891755080E+04  0.12699999809E+01 0.  1.
       -4    1    3    3    0  502 -0.82465915218E+03 -0.10079114994E+04  0.12475307309E+04  0.18034086740E+04  0.12699999809E+01 0. -1.
</event>
<event>
 5   0  0.1398931E-07  0.3121196E+04  0.7818609E-02  0.8209945E-01
        2   -1    0    0  501    0  0.00000000000E+00  0.00000000000E+00  0.13240509893E+04  0.13240509893E+04  0.25500000920E-02 0. -1.
       -2   -1    0    0    0  501  0.00000000000E+00  0.00000000000E+00 -0.18394047071E+04  0.18394047071E+04  0.25500000920E-02 0.  1.
    10030    2    1    2    0    0  0.00000000000E+00  0.00000000000E+00 -0.51535371782E+03  0.31634556965E+04  0.31211956826E+04 0.  0.
        3    1    3    3  502    0  0.55591195158E+03  0.37810234986E+03  0.11697476628E+04  0.13491883077E+04  0.10100000352E+00 0. -1.
       -3    1    3    3    0  502 -0.55591195158E+03 -0.37810234986E+03 -0.16851013806E+04  0.18142673888E+04  0.10100000352E+00 0.  1.
</event>
<event>
 5   0  0.4517409E-08  0.3099756E+04  0.7818609E-02  0.8215805E-01
        1   -1    0    0  501    0  0.00000000000E+00  0.00000000000E+00  0.18356908571E+04  0.18356908571E+04  0.50400001928E-02 0. -1.
       -1   -1    0    0    0  501  0.00000000000E+00  0.00000000000E+00 -0.13085654729E+04  0.13085654730E+04  0.50400001928E-02 0.  1.
    10030    2    1    2    0    0  0.00000000000E+00  0.00000000000E+00  0.52712538413E+03  0.31442563300E+04  0.30997559095E+04 0.  0.
        2    1    3    3  502    0 -0.57189956750E+03  0.13646969608E+04  0.73132799686E+03  0.16505476512E+04  0.25500000920E-02 0.  1.
       -2    1    3    3    0  502  0.57189956750E+03 -0.13646969608E+04 -0.20420261274E+03  0.14937086788E+04  0.25500000920E-02 0. -1.
</event>
<event>
 5   0  0.4470354E-08  0.3099798E+04  0.7818609E-02  0.8215793E-01
       -1   -1    0    0    0  501  0.00000000000E+00  0.00000000000E+00  0.13953158002E+04  0.13953158002E+04  0.50400001928E-02 0.  1.
        1   -1    0    0  501    0  0.00000000000E+00  0.00000000000E+00 -0.17216083028E+04  0.17216083029E+04  0.50400001928E-02 0. -1.
    10030    2    1    2    0    0  0.00000000000E+00  0.00000000000E+00 -0.32629250265E+03  0.31169241031E+04  0.30997982300E+04 0.  0.
        1    1    3    3  502    0 -0.63970558190E+03  0.20024733082E+03  0.12420239035E+04  0.14113630298E+04  0.50400001928E-02 0.  1.
       -1    1    3    3    0  502  0.63970558190E+03 -0.20024733082E+03 -0.15683164061E+04  0.17055610733E+04  0.50400001928E-02 0. -1.
</event>
<event>
 5   0  0.1329777E-07  0.3102075E+04  0.7818609E-02  0.8215169E-01
       -2   -1    0    0    0  501  0.00000000000E+00  0.00000000000E+00  0.18051448667E+04  0.18051448667E+04  0.25500000920E-02 0.  1.
        2   -1    0    0  501    0  0.00000000000E+00  0.00000000000E+00 -0.13327000148E+04  0.13327000148E+04  0.25500000920E-02 0. -1.
    10030    2    1    2    0    0  0.00000000000E+00  0.00000000000E+00  0.47244485196E+03  0.31378448815E+04  0.31020745255E+04 0.  0.
        1    1    3    3  502    0 -0.14542468080E+04  0.12770075349E+03 -0.29381922724E+03  0.14891175237E+04  0.50400001928E-02 0. -1.
       -1    1    3    3    0  502  0.14542468080E+04 -0.12770075349E+03  0.76626407920E+03  0.16487273578E+04  0.50400001928E-02 0.  1.
</event>
<event>
 5   0  0.4838602E-08  0.3101275E+04  0.7818609E-02  0.8215388E-01
       -1   -1    0    0    0  501  0.00000000000E+00  0.00000000000E+00  0.16240827240E+04  0.16240827240E+04  0.50400001928E-02 0.  1.
        1   -1    0    0  501    0  0.00000000000E+00  0.00000000000E+00 -0.14805134181E+04  0.14805134181E+04  0.50400001928E-02 0. -1.
    10030    2    1    2    0    0  0.00000000000E+00  0.00000000000E+00  0.14356930593E+03  0.31045961422E+04  0.31012747476E+04 0.  0.
        5    1    3    3  502    0  0.35236066569E+03 -0.14005666507E+04 -0.49336330942E+03  0.15261633028E+04  0.46999998093E+01 0. -1.
       -5    1    3    3    0  502 -0.35236066569E+03  0.14005666507E+04  0.63693261535E+03  0.15784328393E+04  0.46999998093E+01 0.  1.
</event>
<event>
 5   0  0.4470354E-08  0.3099613E+04  0.7818609E-02  0.8215844E-01
       -1   -1    0    0    0  501  0.00000000000E+00  0.00000000000E+00  0.13243113453E+04  0.13243113453E+04  0.50400001928E-02 0.  1.
        1   -1    0    0  501    0  0.00000000000E+00  0.00000000000E+00 -0.18136979553E+04  0.18136979553E+04  0.50400001928E-02 0. -1.
    10030    2    1    2    0    0  0.00000000000E+00  0.00000000000E+00 -0.48938661001E+03  0.31380093006E+04  0.30996133818E+04 0.  0.
        1    1    3    3  502    0  0.13357754574E+04 -0.15946960291E+03 -0.10237542310E+04  0.16905026922E+04  0.50400001928E-02 0.  1.
       -1    1    3    3    0  502 -0.13357754574E+04  0.15946960291E+03  0.53436762101E+03  0.14475066084E+04  0.50400001928E-02 0. -1.
</event>
<event>
 5   0  0.1398931E-07  0.3099523E+04  0.7818609E-02  0.8215869E-01
        2   -1    0    0  501    0  0.00000000000E+00  0.00000000000E+00  0.23532353825E+04  0.23532353825E+04  0.25500000920E-02 0. -1.
       -2   -1    0    0    0  501  0.00000000000E+00  0.00000000000E+00 -0.10206207910E+04  0.10206207910E+04  0.25500000920E-02 0.  1.
    10030    2    1    2    0    0  0.00000000000E+00  0.00000000000E+00  0.13326145915E+04  0.33738561735E+04  0.30995231617E+04 0.  0.
        3    1    3    3  502    0  0.14891339461E+03  0.15377141386E+04  0.79971495241E+03  0.17396217941E+04  0.10100000352E+00 0. -1.
       -3    1    3    3    0  502 -0.14891339461E+03 -0.15377141386E+04  0.53289963914E+03  0.16342343794E+04  0.10100000352E+00 0.  1.
</event>
<event>
 5   0  0.4470354E-08  0.3095847E+04  0.7818609E-02  0.8216879E-01
       -1   -1    0    0    0  501  0.00000000000E+00  0.00000000000E+00  0.16271363624E+04  0.16271363624E+04  0.50400001928E-02 0. -1.
        1   -1    0    0  501    0  0.00000000000E+00  0.00000000000E+00 -0.14725667399E+04  0.14725667399E+04  0.50400001928E-02 0.  1.
    10030    2    1    2    0    0  0.00000000000E+00  0.00000000000E+00  0.15456962250E+03  0.30997031023E+04  0.30958468234E+04 0.  0.
        1    1    3    3  502    0  0.10272003382E+04  0.11561503106E+04  0.14250282633E+03  0.15531037091E+04  0.50400001928E-02 0.  1.
       -1    1    3    3    0  502 -0.10272003382E+04 -0.11561503106E+04  0.12066796176E+02  0.15465993932E+04  0.50400001928E-02 0. -1.
</event>
<event>
 5   0  0.4470354E-08  0.3098837E+04  0.7818609E-02  0.8216057E-01
       -1   -1    0    0    0  501  0.00000000000E+00  0.00000000000E+00  0.11832522352E+04  0.11832522352E+04  0.50400001928E-02 0.  1.
        1   -1    0    0  501    0  0.00000000000E+00  0.00000000000E+00 -0.20288977690E+04  0.20288977690E+04  0.50400001928E-02 0. -1.
    10030    2    1    2    0    0  0.00000000000E+00  0.00000000000E+00 -0.84564553379E+03  0.32121500042E+04  0.30988370852E+04 0.  0.
        1    1    3    3  502    0  0.94934679957E+03 -0.12245027907E+04 -0.42863030363E+03  0.16076039212E+04  0.50400001928E-02 0. -1.
       -1    1    3    3    0  502 -0.94934679957E+03  0.12245027907E+04 -0.41701523016E+03  0.16045460830E+04  0.50400001928E-02 0.  1.
</event>
<event>
 5   0  0.4517409E-08  0.3097503E+04  0.7818609E-02  0.8216424E-01
        1   -1    0    0  501    0  0.00000000000E+00  0.00000000000E+00  0.17052545268E+04  0.17052545268E+04  0.50400001928E-02 0.  1.
       -1   -1    0    0    0  501  0.00000000000E+00  0.00000000000E+00 -0.14066118618E+04  0.14066118618E+04  0.50400001928E-02 0. -1.
    10030    2    1    2    0    0  0.00000000000E+00  0.00000000000E+00  0.29864266499E+03  0.31118663885E+04  0.30975030232E+04 0.  0.
        2    1    3    3  502    0  0.15267956323E+04 -0.16932178514E+03  0.34735585362E+03  0.15749383667E+04  0.25500000920E-02 0.  1.
       -2    1    3    3    0  502 -0.15267956323E+04  0.16932178514E+03 -0.48713188636E+02  0.15369280219E+04  0.25500000920E-02 0. -1.
</event>
<event>
 5   0  0.1329777E-07  0.3099803E+04  0.7818609E-02  0.8215792E-01
       -2   -1    0    0    0  501  0.00000000000E+00  0.00000000000E+00  0.16697956003E+04  0.16697956003E+04  0.25500000920E-02 0. -1.
        2   -1    0    0  501    0  0.00000000000E+00  0.00000000000E+00 -0.14386163404E+04  0.14386163404E+04  0.25500000920E-02 0.  1.
    10030    2    1    2    0    0  0.00000000000E+00  0.00000000000E+00  0.23117925989E+03  0.31084119408E+04  0.30998033717E+04 0.  0.
        1    1    3    3  502    0 -0.59130494723E+03  0.98886108693E+02 -0.13176364891E+04  0.14476138713E+04  0.50400001928E-02 0.  1.
       -1    1    3    3    0  502  0.59130494723E+03 -0.98886108693E+02  0.15488157490E+04  0.16607980694E+04  0.50400001928E-02 0. -1.
</event>
<event>
 5   0  0.4305500E-08  0.3100303E+04  0.7818609E-02  0.8215655E-01
        3   -1    0    0  501    0  0.00000000000E+00  0.00000000000E+00  0.20033626889E+04  0.20033626914E+04  0.10100000352E+00 0. -1.
       -3   -1    0    0    0  501  0.00000000000E+00  0.00000000000E+00 -0.11994680508E+04  0.11994680551E+04  0.10100000352E+00 0.  1.
    10030    2    1    2    0    0  0.00000000000E+00  0.00000000000E+00  0.80389463805E+03  0.32028307465E+04  0.31003029209E+04 0.  0.
        3    1    3    3  502    0  0.15075137536E+04  0.91017836177E+02  0.40981901841E+02  0.15108148431E+04  0.10100000352E+00 0.  1.
       -3    1    3    3    0  502 -0.15075137536E+04 -0.91017836177E+02  0.76291273621E+03  0.16920159033E+04  0.10100000352E+00 0. -1.
</event>
<event>
 5   0  0.1398931E-07  0.3099860E+04  0.7818609E-02  0.8215776E-01
       -2   -1    0    0    0  501  0.00000000000E+00  0.00000000000E+00  0.16969854040E+04  0.16969854040E+04  0.25500000920E-02 0.  1.
        2   -1    0    0  501    0  0.00000000000E+00  0.00000000000E+00 -0.14156177681E+04  0.14156177682E+04  0.25500000920E-02 0. -1.
    10030    2    1    2    0    0  0.00000000000E+00  0.00000000000E+00  0.28136763587E+03  0.31126031722E+04  0.30998597970E+04 0.  0.
        3    1    3    3  502    0 -0.10555660874E+04 -0.11143515509E+04  0.35670431963E+03  0.15758290281E+04  0.10100000352E+00 0.  1.
       -3    1    3    3    0  502  0.10555660874E+04  0.11143515509E+04 -0.75336683760E+02  0.15367741441E+04  0.10100000352E+00 0. -1.
</event>
<event>
 5   0  0.1377237E-07  0.3107546E+04  0.7818609E-02  0.8213670E-01
       -2   -1    0    0    0  501  0.00000000000E+00  0.00000000000E+00  0.10792774123E+04  0.10792774123E+04  0.25500000920E-02 0.  1.
        2   -1    0    0  501    0  0.00000000000E+00  0.00000000000E+00 -0.22368766755E+04  0.22368766755E+04  0.25500000920E-02 0. -1.
    10030    2    1    2    0    0  0.00000000000E+00  0.00000000000E+00 -0.11575992632E+04  0.33161540878E+04  0.31075459577E+04 0.  0.
        2    1    3    3  502    0 -0.86292071135E+03 -0.99329130440E+03  0.30308509151E+03  0.13502297368E+04  0.25500000920E-02 0.  1.
       -2    1    3    3    0  502  0.86292071135E+03  0.99329130440E+03 -0.14606843547E+04  0.19659243509E+04  0.25500000920E-02 0. -1.
</event>
<event>
 5   0  0.1329777E-07  0.3099528E+04  0.7818609E-02  0.8215868E-01
       -2   -1    0    0    0  501  0.00000000000E+00  0.00000000000E+00  0.11969495092E+04  0.11969495092E+04  0.25500000920E-02 0. -1.
        2   -1    0    0  501    0  0.00000000000E+00  0.00000000000E+00 -0.20065741783E+04  0.20065741783E+04  0.25500000920E-02 0.  1.
    10030    2    1    2    0    0  0.00000000000E+00  0.00000000000E+00 -0.80962466911E+03  0.32035236876E+04  0.30995276917E+04 0.  0.
        1    1    3    3  502    0 -0.12005187220E+04 -0.12966582715E+03  0.59922900319E+03  0.13480110633E+04  0.50400001928E-02 0. -1.
       -1    1    3    3    0  502  0.12005187220E+04  0.12966582715E+03 -0.14088536723E+04  0.18555126242E+04  0.50400001928E-02 0.  1.
</event>
<event>
 5   0  0.1398931E-07  0.3104098E+04  0.7818609E-02  0.8214614E-01
        2   -1    0    0  501    0  0.00000000000E+00  0.00000000000E+00  0.13958324929E+04  0.13958324929E+04  0.25500000920E-02 0. -1.
       -2   -1    0    0    0  501  0.00000000000E+00  0.00000000000E+00 -0.17257485956E+04  0.17257485956E+04  0.25500000920E-02 0.  1.
    10030    2    1    2    0    0  0.00000000000E+00  0.00000000000E+00 -0.32991610273E+03  0.31215810886E+04  0.31040979137E+04 0.  0.
        3    1    3    3  502    0  0.10577212096E+04  0.37230743287E+03  0.91415098436E+03  0.14467408248E+04  0.10100000352E+00 0. -1.
       -3    1    3    3    0  502 -0.10577212096E+04 -0.37230743287E+03 -0.12440670871E+04  0.16748402638E+04  0.10100000352E+00 0.  1.
</event>
<event>
 5   0  0.4470354E-08  0.3101465E+04  0.7818609E-02  0.8215336E-01
        1   -1    0    0  501    0  0.00000000000E+00  0.00000000000E+00  0.27927710594E+04  0.27927710594E+04  0.50400001928E-02 0. -1.
       -1   -1    0    0    0  501  0.00000000000E+00  0.00000000000E+00 -0.86106981592E+03  0.86106981594E+03  0.50400001928E-02 0.  1.
    10030    2    1    2    0    0  0.00000000000E+00  0.00000000000E+00  0.19317012434E+04  0.36538408753E+04  0.31014647262E+04 0.  0.
        1    1    3    3  502    0  0.29345498606E+03  0.98345403164E+02  0.27560160742E+04  0.27733395480E+04  0.50400001928E-02 0. -1.
       -1    1    3    3    0  502 -0.29345498606E+03 -0.98345403164E+02 -0.82431483076E+03  0.88050132731E+03  0.50400001928E-02 0.  1.
</event>
<event>
 5   0  0.4305500E-08  0.3100714E+04  0.7818609E-02  0.8215542E-01
        3   -1    0    0  501    0  0.00000000000E+00  0.00000000000E+00  0.20273582626E+04  0.20273582651E+04  0.10100000352E+00 0. -1.
       -3   -1    0    0    0  501  0.00000000000E+00  0.00000000000E+00 -0.11855857002E+04  0.11855857045E+04  0.10100000352E+00 0.  1.
    10030    2    1    2    0    0  0.00000000000E+00  0.00000000000E+00  0.84177256234E+03  0.32129439696E+04  0.31007140960E+04 0.  0.
        1    1    3    3  502    0 -0.39980564193E+03  0.77859934857E+03  0.17468697619E+04  0.19538719154E+04  0.50400001928E-02 0. -1.
       -1    1    3    3    0  502  0.39980564193E+03 -0.77859934857E+03 -0.90509719956E+03  0.12590720542E+04  0.50400001928E-02 0.  1.
</event>
<event>
 5   0  0.1325713E-07  0.3100075E+04  0.7818609E-02  0.8215717E-01
       -2   -1    0    0    0  501  0.00000000000E+00  0.00000000000E+00  0.16640872864E+04  0.16640872864E+04  0.25500000920E-02 0. -1.
        2   -1    0    0  501    0  0.00000000000E+00  0.00000000000E+00 -0.14438043514E+04  0.14438043514E+04  0.25500000920E-02 0.  1.
    10030    2    1    2    0    0  0.00000000000E+00  0.00000000000E+00  0.22028293504E+03  0.31078916377E+04  0.31000751379E+04 0.  0.
        4    1    3    3  502    0  0.14562979049E+04  0.91900402347E+02  0.63430350449E+03  0.15910976779E+04  0.12699999809E+01 0. -1.
       -4    1    3    3    0  502 -0.14562979049E+04 -0.91900402347E+02 -0.41402056946E+03  0.15167939599E+04  0.12699999809E+01 0.  1.
</event>
<event>
 5   0  0.1377237E-07  0.3099488E+04  0.7818609E-02  0.8215878E-01
       -2   -1    0    0    0  501  0.00000000000E+00  0.00000000000E+00  0.92455680308E+03  0.92455680309E+03  0.25500000920E-02 0. -1.
        2   -1    0    0  501    0  0.00000000000E+00  0.00000000000E+00 -0.25976837415E+04  0.25976837415E+04  0.25500000920E-02 0.  1.
    10030    2    1    2    0    0  0.00000000000E+00  0.00000000000E+00 -0.16731269384E+04  0.35222405446E+04  0.30994878128E+04 0.  0.
        2    1    3    3  502    0 -0.84436836068E+03 -0.70903611162E+03 -0.20741465404E+04  0.23489942544E+04  0.25500000920E-02 0.  1.
       -2    1    3    3    0  502  0.84436836068E+03  0.70903611162E+03  0.40101960204E+03  0.11732462901E+04  0.25500000920E-02 0. -1.
</event>
<event>
 5   0  0.4517409E-08  0.3098833E+04  0.7818609E-02  0.8216058E-01
       -1   -1    0    0    0  501  0.00000000000E+00  0.00000000000E+00  0.12308659614E+04  0.12308659614E+04  0.50400001928E-02 0.  1.
        1   -1    0    0  501    0  0.00000000000E+00  0.00000000000E+00 -0.19504079719E+04  0.19504079719E+04  0.50400001928E-02 0. -1.
    10030    2    1    2    0    0  0.00000000000E+00  0.00000000000E+00 -0.71954201049E+03  0.31812739334E+04  0.30988325438E+04 0.  0.
        2    1    3    3  502    0 -0.12171726147E+04  0.62659465705E+03  0.38517912181E+03  0.14221438022E+04  0.25500000920E-02 0.  1.
       -2    1    3    3    0  502  0.12171726147E+04 -0.62659465705E+03 -0.11047211323E+04  0.17591301312E+04  0.25500000920E-02 0. -1.
</event>
<event>
 5   0  0.4517409E-08  0.3098270E+04  0.7818609E-02  0.8216213E-01
        1   -1    0    0  501    0  0.00000000000E+00  0.00000000000E+00  0.23039332889E+04  0.23039332890E+04  0.50400001928E-02 0. -1.
       -1   -1    0    0    0  501  0.00000000000E+00  0.00000000000E+00 -0.10416183775E+04  0.10416183776E+04  0.50400001928E-02 0.  1.
    10030    2    1    2    0    0  0.00000000000E+00  0.00000000000E+00  0.12623149114E+04  0.33455516665E+04  0.30982700040E+04 0.  0.
        2    1    3    3  502    0 -0.63357927603E+03 -0.13638339163E+03  0.21505105472E+04  0.22460451336E+04  0.25500000920E-02 0. -1.
       -2    1    3    3    0  502  0.63357927603E+03  0.13638339163E+03 -0.88819563578E+03  0.10995065329E+04  0.25500000920E-02 0.  1.
</event>
<event>
 5   0  0.1329777E-07  0.3098788E+04  0.7818609E-02  0.8216071E-01
       -2   -1    0    0    0  501  0.00000000000E+00  0.00000000000E+00  0.12514714622E+04  0.12514714622E+04  0.25500000920E-02 0. -1.
        2   -1    0    0  501    0  0.00000000000E+00  0.00000000000E+00 -0.19182388500E+04  0.19182388500E+04  0.25500000920E-02 0.  1.
    10030    2    1    2    0    0  0.00000000000E+00  0.00000000000E+00 -0.66676738785E+03  0.31697103122E+04  0.30987876200E+04 0.  0.
        1    1    3    3  502    0  0.62967946895E+02  0.99865508029E+03 -0.15433967149E+04  0.18393885809E+04  0.50400001928E-02 0.  1.
       -1    1    3    3    0  502 -0.62967946895E+02 -0.99865508029E+03  0.87662932710E+03  0.13303217313E+04  0.50400001928E-02 0. -1.
</event>
<event>
 5   0  0.4470354E-08  0.3099509E+04  0.7818609E-02  0.8215873E-01
        1   -1    0    0  501    0  0.00000000000E+00  0.00000000000E+00  0.30928776726E+04  0.30928776727E+04  0.50400001928E-02 0. -1.
       -1   -1    0    0    0  501  0.00000000000E+00  0.00000000000E+00 -0.77653872280E+03  0.77653872282E+03  0.50400001928E-02 0.  1.
    10030    2    1    2    0    0  0.00000000000E+00  0.00000000000E+00  0.23163389498E+04  0.38694163955E+04  0.30995091726E+04 0.  0.
        1    1    3    3  502    0  0.48913582675E+03 -0.10209098099E+04 -0.16314400602E+03  0.11437336507E+04  0.50400001928E-02 0.  1.
       -1    1    3    3    0  502 -0.48913582675E+03  0.10209098099E+04  0.24794829559E+04  0.27256827448E+04  0.50400001928E-02 0. -1.
</event>
<event>
 5   0  0.4838602E-08  0.3101123E+04  0.7818609E-02  0.8215430E-01
        1   -1    0    0  501    0  0.00000000000E+00  0.00000000000E+00  0.18365807260E+04  0.18365807260E+04  0.50400001928E-02 0.  1.
       -1   -1    0    0    0  501  0.00000000000E+00  0.00000000000E+00 -0.13090853224E+04  0.13090853224E+04  0.50400001928E-02 0. -1.
    10030    2    1    2    0    0  0.00000000000E+00  0.00000000000E+00  0.52749540355E+03  0.31456660484E+04  0.31011229397E+04 0.  0.
        5    1    3    3  502    0  0.52083396538E+03  0.18989775151E+03  0.17326111199E+04  0.18191461069E+04  0.46999998093E+01 0.  1.
       -5    1    3    3    0  502 -0.52083396538E+03 -0.18989775151E+03 -0.12051157163E+04  0.13265199415E+04  0.46999998093E+01 0. -1.
</event>
<event>
 5   0  0.4470354E-08  0.3103498E+04  0.7818609E-02  0.8214779E-01
        1   -1    0    0  501    0  0.00000000000E+00  0.00000000000E+00  0.26278340262E+04  0.26278340262E+04  0.50400001928E-02 0.  1.
       -1   -1    0    0    0  501  0.00000000000E+00  0.00000000000E+00 -0.91631552947E+03  0.91631552948E+03  0.50400001928E-02 0. -1.
    10030    2    1    2    0    0  0.00000000000E+00  0.00000000000E+00  0.17115184967E+04  0.35441495557E+04  0.31034981083E+04 0.  0.
        1    1    3    3  502    0  0.10009581533E+04 -0.10867969721E+04  0.13973063137E+04  0.20335952934E+04  0.50400001928E-02 0.  1.
       -1    1    3    3    0  502 -0.10009581533E+04  0.10867969721E+04  0.31421218304E+03  0.15105542622E+04  0.50400001928E-02 0. -1.
</event>
<event>
 5   0  0.4436241E-08  0.3099760E+04  0.7818609E-02  0.8215804E-01
       -1   -1    0    0    0  501  0.00000000000E+00  0.00000000000E+00  0.91123730127E+03  0.91123730128E+03  0.50400001928E-02 0. -1.
        1   -1    0    0  501    0  0.00000000000E+00  0.00000000000E+00 -0.26361174755E+04  0.26361174755E+04  0.50400001928E-02 0.  1.
    10030    2    1    2    0    0  0.00000000000E+00  0.00000000000E+00 -0.17248801742E+04  0.35473547768E+04  0.30997603612E+04 0.  0.
        3    1    3    3  502    0  0.12549240113E+04 -0.66926971317E+03 -0.15756958377E+03  0.14309382960E+04  0.10100000352E+00 0.  1.
       -3    1    3    3    0  502 -0.12549240113E+04  0.66926971317E+03 -0.15673105904E+04  0.21164164808E+04  0.10100000352E+00 0. -1.
</event>
<event>
 5   0  0.1398931E-07  0.3109070E+04  0.7818609E-02  0.8213253E-01
       -2   -1    0    0    0  501  0.00000000000E+00  0.00000000000E+00  0.13938222822E+04  0.13938222822E+04  0.25500000920E-02 0. -1.
        2   -1    0    0  501    0  0.00000000000E+00  0.00000000000E+00 -0.17337782000E+04  0.17337782000E+04  0.25500000920E-02 0.  1.
    10030    2    1    2    0    0  0.00000000000E+00  0.00000000000E+00 -0.33995591781E+03  0.31276004822E+04  0.31090697564E+04 0.  0.
        3    1    3    3  502    0  0.18507472916E+03  0.12361088840E+04 -0.10998035064E+04  0.16648680402E+04  0.10100000352E+00 0.  1.
       -3    1    3    3    0  502 -0.18507472916E+03 -0.12361088840E+04  0.75984758862E+03  0.14627324419E+04  0.10100000352E+00 0. -1.
</event>
<event>
 5   0  0.1329777E-07  0.3100165E+04  0.7818609E-02  0.8215693E-01
        2   -1    0    0  501    0  0.00000000000E+00  0.00000000000E+00  0.30443430646E+04  0.30443430646E+04  0.25500000920E-02 0.  1.
       -2   -1    0    0    0  501  0.00000000000E+00  0.00000000000E+00 -0.78925262058E+03  0.78925262059E+03  0.25500000920E-02 0. -1.
    10030    2    1    2    0    0  0.00000000000E+00  0.00000000000E+00  0.22550904440E+04  0.38335956851E+04  0.31001649902E+04 0.  0.
        1    1    3    3  502    0 -0.13026974875E+04 -0.68891177488E+03  0.17220493673E+04  0.22665114606E+04  0.50400001928E-02 0.  1.
       -1    1    3    3    0  502  0.13026974875E+04  0.68891177488E+03  0.53304107663E+03  0.15670842245E+04  0.50400001928E-02 0. -1.
</event>
<event>
 5   0  0.4305500E-08  0.3097771E+04  0.7818609E-02  0.8216350E-01
       -3   -1    0    0    0  501  0.00000000000E+00  0.00000000000E+00  0.12117280237E+04  0.12117280279E+04  0.10100000352E+00 0.  1.
        3   -1    0    0  501    0  0.00000000000E+00  0.00000000000E+00 -0.19798553662E+04  0.19798553687E+04  0.10100000352E+00 0. -1.
    10030    2    1    2    0    0  0.00000000000E+00  0.00000000000E+00 -0.76812734250E+03  0.31915833966E+04  0.30977709669E+04 0.  0.
        5    1    3    3  502    0 -0.59890536443E+03  0.59572534930E+03 -0.17216276000E+04  0.19177069668E+04  0.46999998093E+01 0. -1.
       -5    1    3    3    0  502  0.59890536443E+03 -0.59572534930E+03  0.95350025751E+03  0.12738764298E+04  0.46999998093E+01 0.  1.
</event>
<event>
 5   0  0.1325713E-07  0.3100613E+04  0.7818609E-02  0.8215570E-01
       -2   -1    0    0    0  501  0.00000000000E+00  0.00000000000E+00  0.16102920815E+04  0.16102920815E+04  0.25500000920E-02 0. -1.
        2   -1    0    0  501    0  0.00000000000E+00  0.00000000000E+00 -0.14925556035E+04  0.14925556035E+04  0.25500000920E-02 0.  1.
    10030    2    1    2    0    0  0.00000000000E+00  0.00000000000E+00  0.11773647797E+03  0.31028476851E+04  0.31006131456E+04 0.  0.
        4    1    3    3  502    0 -0.59440479314E+03  0.11747643159E+04 -0.76029398110E+03  0.15203410165E+04  0.12699999809E+01 0.  1.
       -4    1    3    3    0  502  0.59440479314E+03 -0.11747643159E+04  0.87803045907E+03  0.15825066685E+04  0.12699999809E+01 0. -1.
</event>
<event>
 5   0  0.4517409E-08  0.3102913E+04  0.7818609E-02  0.8214939E-01
        1   -1    0    0  501    0  0.00000000000E+00  0.00000000000E+00  0.74310918461E+03  0.74310918463E+03  0.50400001928E-02 0.  1.
       -1   -1    0    0    0  501  0.00000000000E+00  0.00000000000E+00 -0.32391170527E+04  0.32391170527E+04  0.50400001928E-02 0. -1.
    10030    2    1    2    0    0  0.00000000000E+00  0.00000000000E+00 -0.24960078681E+04  0.39822262374E+04  0.31029132324E+04 0.  0.
        2    1    3    3  502    0 -0.57486679595E+03 -0.59849671086E+03 -0.29303362753E+04  0.30455772576E+04  0.25500000920E-02 0. -1.
       -2    1    3    3    0  502  0.57486679595E+03  0.59849671086E+03  0.43432840714E+03  0.93664897974E+03  0.25500000920E-02 0.  1.
</event>
<event>
 5   0  0.1318916E-07  0.3100511E+04  0.7818609E-02  0.8215598E-01
        2   -1    0    0  501    0  0.00000000000E+00  0.00000000000E+00  0.14128292952E+04  0.14128292952E+04  0.25500000920E-02 0.  1.
       -2   -1    0    0    0  501  0.00000000000E+00  0.00000000000E+00 -0.17010488920E+04  0.17010488920E+04  0.25500000920E-02 0. -1.
    10030    2    1    2    0    0  0.00000000000E+00  0.00000000000E+00 -0.28821959676E+03  0.31138781872E+04  0.31005107368E+04 0.  0.
        5    1    3    3  502    0  0.83153833531E+03 -0.17202613316E+03  0.11584865494E+04  0.14363711807E+04  0.46999998093E+01 0.  1.
       -5    1    3    3    0  502 -0.83153833531E+03  0.17202613316E+03 -0.14467061462E+04  0.16775070065E+04  0.46999998093E+01 0. -1.
</event>
<event>
 5   0  0.1318916E-07  0.3100983E+04  0.7818609E-02  0.8215468E-01
       -2   -1    0    0    0  501  0.00000000000E+00  0.00000000000E+00  0.25002633524E+04  0.25002633524E+04  0.25500000920E-02 0.  1.
        2   -1    0    0  501    0  0.00000000000E+00  0.00000000000E+00 -0.96150826245E+03  0.96150826246E+03  0.25500000920E-02 0. -1.
    10030    2    1    2    0    0  0.00000000000E+00  0.00000000000E+00  0.15387550899E+04  0.34617716149E+04  0.31009829872E+04 0.  0.
        5    1    3    3  502    0 -0.12904171301E+04  0.85942772510E+03  0.78553171322E+03  0.17380663240E+04  0.46999998093E+01 0.  1.
       -5    1    3    3    0  502  0.12904171301E+04 -0.85942772510E+03  0.75322337673E+03  0.17237052908E+04  0.46999998093E+01 0. -1.
</event>
<event>
 5   0  0.1398931E-07  0.3099528E+04  0.7818609E-02  0.8215868E-01
       -2   -1    0    0    0  501  0.00000000000E+00  0.00000000000E+00  0.19724710163E+04  0.19724710163E+04  0.25500000920E-02 0.  1.
        2   -1    0    0  501    0  0.00000000000E+00  0.00000000000E+00 -0.12176441585E+04  0.12176441585E+04  0.25500000920E-02 0. -1.
    10030    2    1    2    0    0  0.00000000000E+00  0.00000000000E+00  0.75482685784E+03  0.31901151748E+04  0.30995275838E+04 0.  0.
        3    1    3    3  502    0  0.10381475766E+04  0.96457627971E+03 -0.26830610524E+03  0.14422711141E+04  0.10100000352E+00 0. -1.
       -3    1    3    3    0  502 -0.10381475766E+04 -0.96457627971E+03  0.10231329631E+04  0.17478440607E+04  0.10100000352E+00 0.  1.
</event>
<event>
 5   0  0.1318916E-07  0.3099210E+04  0.7818609E-02  0.8215955E-01
       -2   -1    0    0    0  501  0.00000000000E+00  0.00000000000E+00  0.10547468170E+04  0.10547468170E+04  0.25500000920E-02 0.  1.
        2   -1    0    0  501    0  0.00000000000E+00  0.00000000000E+00 -0.22766367166E+04  0.22766367166E+04  0.25500000920E-02 0. -1.
    10030    2    1    2    0    0  0.00000000000E+00  0.00000000000E+00 -0.12218898997E+04  0.33313835336E+04  0.30992097898E+04 0.  0.
        5    1    3    3  502    0 -0.79044062522E+03  0.10596161634E+03 -0.20390961384E+04  0.21895112234E+04  0.46999998093E+01 0. -1.
       -5    1    3    3    0  502  0.79044062522E+03 -0.10596161634E+03  0.81720623870E+03  0.11418723102E+04  0.46999998093E+01 0.  1.
</event>
<event>
 5   0  0.1377237E-07  0.3100574E+04  0.7818609E-02  0.8215581E-01
       -2   -1    0    0    0  501  0.00000000000E+00  0.00000000000E+00  0.12845780609E+04  0.12845780609E+04  0.25500000920E-02 0.  1.
        2   -1    0    0  501    0  0.00000000000E+00  0.00000000000E+00 -0.18709560098E+04  0.18709560098E+04  0.25500000920E-02 0. -1.
    10030    2    1    2    0    0  0.00000000000E+00  0.00000000000E+00 -0.58637794890E+03  0.31555340707E+04  0.31005735232E+04 0.  0.
        2    1    3    3  502    0  0.43184959039E+03 -0.30072718699E+03  0.11908976735E+04  0.13019862435E+04  0.25500000920E-02 0.  1.
       -2    1    3    3    0  502 -0.43184959039E+03  0.30072718699E+03 -0.17772756224E+04  0.18535478272E+04  0.25500000920E-02 0. -1.
</event>
<event>
 5   0  0.1318916E-07  0.3100378E+04  0.7818609E-02  0.8215634E-01
       -2   -1    0    0    0  501  0.00000000000E+00  0.00000000000E+00  0.12389732444E+04  0.12389732444E+04  0.25500000920E-02 0.  1.
        2   -1    0    0  501    0  0.00000000000E+00  0.00000000000E+00 -0.19395785464E+04  0.19395785464E+04  0.25500000920E-02 0. -1.
    10030    2    1    2    0    0  0.00000000000E+00  0.00000000000E+00 -0.70060530199E+03  0.31785517909E+04  0.31003779928E+04 0.  0.
        5    1    3    3  502    0 -0.11828344434E+03  0.11320065941E+04 -0.14292811054E+04  0.18271005639E+04  0.46999998093E+01 0. -1.
       -5    1    3    3    0  502  0.11828344434E+03 -0.11320065941E+04  0.72867580341E+03  0.13514512270E+04  0.46999998093E+01 0.  1.
</event>
<event>
 5   0  0.1377237E-07  0.3100291E+04  0.7818609E-02  0.8215658E-01
       -2   -1    0    0    0  501  0.00000000000E+00  0.00000000000E+00  0.10871226363E+04  0.10871226363E+04  0.25500000920E-02 0. -1.
        2   -1    0    0  501    0  0.00000000000E+00  0.00000000000E+00 -0.22103775969E+04  0.22103775969E+04  0.25500000920E-02 0.  1.
    10030    2    1    2    0    0  0.00000000000E+00  0.00000000000E+00 -0.11232549606E+04  0.32975002331E+04  0.31002912897E+04 0.  0.
        2    1    3    3  502    0 -0.37230248737E+03  0.13172181563E+04 -0.13354200338E+04  0.19123335170E+04  0.25500000920E-02 0. -1.
       -2    1    3    3    0  502  0.37230248737E+03 -0.13172181563E+04  0.21216507323E+03  0.13851667162E+04  0.25500000920E-02 0.  1.
</event>
<event>
 5   0  0.1325713E-07  0.3099209E+04  0.7818609E-02  0.8215955E-01
        2   -1    0    0  501    0  0.00000000000E+00  0.00000000000E+00  0.23475598210E+04  0.23475598210E+04  0.25500000920E-02 0.  1.
       -2   -1    0    0    0  501  0.00000000000E+00  0.00000000000E+00 -0.10228811242E+04  0.10228811242E+04  0.25500000920E-02 0. -1.
    10030    2    1    2    0    0  0.00000000000E+00  0.00000000000E+00  0.13246786968E+04  0.33704409453E+04  0.30992093372E+04 0.  0.
        4    1    3    3  502    0  0.35086914069E+03  0.12867721574E+04 -0.19561478327E+03  0.13480202132E+04  0.12699999809E+01 0.  1.
       -4    1    3    3    0  502 -0.35086914069E+03 -0.12867721574E+04  0.15202934800E+04  0.20224207320E+04  0.12699999809E+01 0. -1.
</event>
<event>
 5   0  0.1329777E-07  0.3100255E+04  0.7818609E-02  0.8215668E-01
       -2   -1    0    0    0  501  0.00000000000E+00  0.00000000000E+00  0.16297177231E+04  0.16297177231E+04  0.25500000920E-02 0. -1.
        2   -1    0    0  501    0  0.00000000000E+00  0.00000000000E+00 -0.14744245296E+04  0.14744245296E+04  0.25500000920E-02 0.  1.
    10030    2    1    2    0    0  0.00000000000E+00  0.00000000000E+00  0.15529319354E+03  0.31041422527E+04  0.31002553361E+04 0.  0.
        1    1    3    3  502    0  0.22856693447E+03  0.13974498368E+04  0.70914082940E+03  0.15836633499E+04  0.50400001928E-02 0. -1.
       -1    1    3    3    0  502 -0.22856693447E+03 -0.13974498368E+04 -0.55384763587E+03  0.15204789028E+04  0.50400001928E-02 0.  1.
</event>
<event>
 5   0  0.4470354E-08  0.3095823E+04  0.7818609E-02  0.8216885E-01
        1   -1    0    0  501    0  0.00000000000E+00  0.00000000000E+00  0.21774395455E+04  0.21774395455E+04  0.50400001928E-02 0.  1.
       -1   -1    0    0    0  501  0.00000000000E+00  0.00000000000E+00 -0.11003887629E+04  0.11003887629E+04  0.50400001928E-02 0. -1.
    10030    2    1    2    0    0  0.00000000000E+00  0.00000000000E+00  0.10770507826E+04  0.32778283085E+04  0.30958229975E+04 0.  0.
        1    1    3    3  502    0  0.10742282732E+04 -0.28180352632E+03 -0.60312900075E+03  0.12637817066E+04  0.50400001928E-02 0. -1.
       -1    1    3    3    0  502 -0.10742282732E+04  0.28180352632E+03  0.16801797833E+04  0.20140466019E+04  0.50400001928E-02 0.  1.
</event>
<event>
 5   0  0.4838602E-08  0.3099548E+04  0.7818609E-02  0.8215862E-01
        1   -1    0    0  501    0  0.00000000000E+00  0.00000000000E+00  0.19194571241E+04  0.19194571242E+04  0.50400001928E-02 0.  1.
       -1   -1    0    0    0  501  0.00000000000E+00  0.00000000000E+00 -0.12512910026E+04  0.12512910026E+04  0.50400001928E-02 0. -1.
    10030    2    1    2    0    0  0.00000000000E+00  0.00000000000E+00  0.66816612152E+03  0.31707481268E+04  0.30995479860E+04 0.  0.
        5    1    3    3  502    0 -0.13788729347E+04 -0.38506571809E+01  0.10577741870E+04  0.17378762091E+04  0.46999998093E+01 0.  1.
       -5    1    3    3    0  502  0.13788729347E+04  0.38506571809E+01 -0.38960806545E+03  0.14328719176E+04  0.46999998093E+01 0. -1.
</event>
<event>
 5   0  0.4517409E-08  0.3097219E+04  0.7818609E-02  0.8216501E-01
        1   -1    0    0  501    0  0.00000000000E+00  0.00000000000E+00  0.19674913101E+04  0.19674913101E+04  0.50400001928E-02 0.  1.
       -1   -1    0    0    0  501  0.00000000000E+00  0.00000000000E+00 -0.12189084546E+04  0.12189084546E+04  0.50400001928E-02 0. -1.
    10030    2    1    2    0    0  0.00000000000E+00  0.00000000000E+00  0.74858285549E+03  0.31863997647E+04  0.30972192639E+04 0.  0.
        2    1    3    3  502    0 -0.21863107232E+03  0.14285304241E+04  0.94681590109E+03  0.17277034088E+04  0.25500000920E-02 0.  1.
       -2    1    3    3    0  502  0.21863107232E+03 -0.14285304241E+04 -0.19823304560E+03  0.14586963559E+04  0.25500000920E-02 0. -1.
</event>
<event>
 5   0  0.4838602E-08  0.3101608E+04  0.7818609E-02  0.8215297E-01
        1   -1    0    0  501    0  0.00000000000E+00  0.00000000000E+00  0.20745389976E+04  0.20745389976E+04  0.50400001928E-02 0. -1.
       -1   -1    0    0    0  501  0.00000000000E+00  0.00000000000E+00 -0.11592901493E+04  0.11592901494E+04  0.50400001928E-02 0.  1.
    10030    2    1    2    0    0  0.00000000000E+00  0.00000000000E+00  0.91524884828E+03  0.32338291470E+04  0.31016077279E+04 0.  0.
        5    1    3    3  502    0  0.10754413630E+04 -0.11085344890E+04  0.31185112391E+03  0.15756573397E+04  0.46999998093E+01 0. -1.
       -5    1    3    3    0  502 -0.10754413630E+04  0.11085344890E+04  0.60339772437E+03  0.16581718073E+04  0.46999998093E+01 0.  1.
</event>
<event>
 5   0  0.1398931E-07  0.3100573E+04  0.7818609E-02  0.8215581E-01
        2   -1    0    0  501    0  0.00000000000E+00  0.00000000000E+00  0.13024477515E+04  0.13024477515E+04  0.25500000920E-02 0.  1.
       -2   -1    0    0    0  501  0.00000000000E+00  0.00000000000E+00 -0.18452860532E+04  0.18452860532E+04  0.25500000920E-02 0. -1.
    10030    2    1    2    0    0  0.00000000000E+00  0.00000000000E+00 -0.54283830172E+03  0.31477338048E+04  0.31005732831E+04 0.  0.
        3    1    3    3  502    0 -0.94719611274E+03 -0.97741952103E+03  0.48206882574E+03  0.14439251224E+04  0.10100000352E+00 0.  1.
       -3    1    3    3    0  502  0.94719611274E+03  0.97741952103E+03 -0.10249071275E+04  0.17038086824E+04  0.10100000352E+00 0. -1.
</event>
<event>
 5   0  0.1325713E-07  0.3099784E+04  0.7818609E-02  0.8215797E-01
       -2   -1    0    0    0  501  0.00000000000E+00  0.00000000000E+00  0.11688779952E+04  0.11688779952E+04  0.25500000920E-02 0.  1.
        2   -1    0    0  501    0  0.00000000000E+00  0.00000000000E+00 -0.20551037626E+04  0.20551037626E+04  0.25500000920E-02 0. -1.
    10030    2    1    2    0    0  0.00000000000E+00  0.00000000000E+00 -0.88622576739E+03  0.32239817578E+04  0.30997842286E+04 0.  0.
        4    1    3    3  502    0  0.11739337168E+04  0.91732198464E+02 -0.14912753697E+04  0.19001155251E+04  0.12699999809E+01 0. -1.
       -4    1    3    3    0  502 -0.11739337168E+04 -0.91732198464E+02  0.60504960230E+03  0.13238662326E+04  0.12699999809E+01 0.  1.
</event>
<event>
 5   0  0.4450600E-08  0.3098937E+04  0.7818609E-02  0.8216030E-01
        1   -1    0    0  501    0  0.00000000000E+00  0.00000000000E+00  0.18641778687E+04  0.18641778687E+04  0.50400001928E-02 0.  1.
       -1   -1    0    0    0  501  0.00000000000E+00  0.00000000000E+00 -0.12878877970E+04  0.12878877970E+04  0.50400001928E-02 0. -1.
    10030    2    1    2    0    0  0.00000000000E+00  0.00000000000E+00  0.57629007170E+03  0.31520656656E+04  0.30989365456E+04 0.  0.
        4    1    3    3  502    0  0.10041542447E+04  0.18638180046E+03 -0.89707312857E+03  0.13593401832E+04  0.12699999809E+01 0. -1.
       -4    1    3    3    0  502 -0.10041542447E+04 -0.18638180046E+03  0.14733632003E+04  0.17927254825E+04  0.12699999809E+01 0.  1.
</event>
<event>
 5   0  0.4517409E-08  0.3099368E+04  0.7818609E-02  0.8215911E-01
       -1   -1    0    0    0  501  0.00000000000E+00  0.00000000000E+00  0.15110211206E+04  0.15110211206E+04  0.50400001928E-02 0.  1.
        1   -1    0    0  501    0  0.00000000000E+00  0.00000000000E+00 -0.15893362659E+04  0.15893362659E+04  0.50400001928E-02 0. -1.
    10030    2    1    2    0    0  0.00000000000E+00  0.00000000000E+00 -0.78315145236E+02  0.31003573865E+04  0.30993681069E+04 0.  0.
        2    1    3    3  502    0  0.91225833625E+03  0.72276009679E+03 -0.10626768310E+04  0.15760328286E+04  0.25500000920E-02 0. -1.
       -2    1    3    3    0  502 -0.91225833625E+03 -0.72276009679E+03  0.98436168574E+03  0.15243245579E+04  0.25500000920E-02 0.  1.
</event>
<event>
 5   0  0.4517409E-08  0.3102731E+04  0.7818609E-02  0.8214989E-01
        1   -1    0    0  501    0  0.00000000000E+00  0.00000000000E+00  0.12222386861E+04  0.12222386861E+04  0.50400001928E-02 0.  1.
       -1   -1    0    0    0  501  0.00000000000E+00  0.00000000000E+00 -0.19691206957E+04  0.19691206957E+04  0.50400001928E-02 0. -1.
    10030    2    1    2    0    0  0.00000000000E+00  0.00000000000E+00 -0.74688200957E+03  0.31913593819E+04  0.31027313722E+04 0.  0.
        2    1    3    3  502    0  0.41587425939E+03 -0.13388621515E+04 -0.10566682103E+04  0.17555771037E+04  0.25500000920E-02 0.  1.
       -2    1    3    3    0  502 -0.41587425939E+03  0.13388621515E+04  0.30978620074E+03  0.14357822782E+04  0.25500000920E-02 0. -1.
</event>
<event>
 5   0  0.1377237E-07  0.3102509E+04  0.7818609E-02  0.8215050E-01
        2   -1    0    0  501    0  0.00000000000E+00  0.00000000000E+00  0.19527129117E+04  0.19527129117E+04  0.25500000920E-02 0.  1.
       -2   -1    0    0    0  501  0.00000000000E+00  0.00000000000E+00 -0.12323321212E+04  0.12323321212E+04  0.25500000920E-02 0. -1.
    10030    2    1    2    0    0  0.00000000000E+00  0.00000000000E+00  0.72038079046E+03  0.31850450329E+04  0.31025092068E+04 0.  0.
        2    1    3    3  502    0 -0.85668370261E+03 -0.11561640807E+04  0.95506094837E+03  0.17270679671E+04  0.25500000920E-02 0.  1.
       -2    1    3    3    0  502  0.85668370261E+03  0.11561640807E+04 -0.23468015792E+03  0.14579770658E+04  0.25500000920E-02 0. -1.
</event>
<event>
 5   0  0.4470354E-08  0.3100357E+04  0.7818609E-02  0.8215640E-01
        1   -1    0    0  501    0  0.00000000000E+00  0.00000000000E+00  0.11426731365E+04  0.11426731365E+04  0.50400001928E-02 0.  1.
       -1   -1    0    0    0  501  0.00000000000E+00  0.00000000000E+00 -0.21030098769E+04  0.21030098769E+04  0.50400001928E-02 0. -1.
    10030    2    1    2    0    0  0.00000000000E+00  0.00000000000E+00 -0.96033674038E+03  0.32456830135E+04  0.31003566842E+04 0.  0.
        1    1    3    3  502    0  0.10736449505E+04 -0.48752388443E+03 -0.15336482437E+04  0.19345464464E+04  0.50400001928E-02 0. -1.
       -1    1    3    3    0  502 -0.10736449505E+04  0.48752388443E+03  0.57331150335E+03  0.13111365671E+04  0.50400001928E-02 0.  1.
</event>
<event>
 5   0  0.4450600E-08  0.3100882E+04  0.7818609E-02  0.8215496E-01
        1   -1    0    0  501    0  0.00000000000E+00  0.00000000000E+00  0.20409735994E+04  0.20409735994E+04  0.50400001928E-02 0. -1.
       -1   -1    0    0    0  501  0.00000000000E+00  0.00000000000E+00 -0.11778045061E+04  0.11778045061E+04  0.50400001928E-02 0.  1.
    10030    2    1    2    0    0  0.00000000000E+00  0.00000000000E+00  0.86316909331E+03  0.32187781054E+04  0.31008823919E+04 0.  0.
        4    1    3    3  502    0 -0.15234010421E+04  0.47817872192E+02  0.72669823935E+03  0.16885287170E+04  0.12699999809E+01 0. -1.
       -4    1    3    3    0  502  0.15234010421E+04 -0.47817872192E+02  0.13647085396E+03  0.15302493885E+04  0.12699999809E+01 0.  1.
</event>
<event>
 5   0  0.4436241E-08  0.3099946E+04  0.7818609E-02  0.8215753E-01
       -1   -1    0    0    0  501  0.00000000000E+00  0.00000000000E+00  0.26295316083E+04  0.26295316083E+04  0.50400001928E-02 0.  1.
        1   -1    0    0  501    0  0.00000000000E+00  0.00000000000E+00 -0.91362871804E+03  0.91362871805E+03  0.50400001928E-02 0. -1.
    10030    2    1    2    0    0  0.00000000000E+00  0.00000000000E+00  0.17159028902E+04  0.35431603263E+04  0.30999455430E+04 0.  0.
        3    1    3    3  502    0  0.95211172826E+03  0.48631258248E+03 -0.42472877171E+03  0.11503961103E+04  0.10100000352E+00 0. -1.
       -3    1    3    3    0  502 -0.95211172826E+03 -0.48631258248E+03  0.21406316619E+04  0.23927642160E+04  0.10100000352E+00 0.  1.
</event>
<event>
 5   0  0.4450600E-08  0.3102079E+04  0.7818609E-02  0.8215168E-01
        1   -1    0    0  501    0  0.00000000000E+00  0.00000000000E+00  0.23415001556E+04  0.23415001556E+04  0.50400001928E-02 0. -1.
       -1   -1    0    0    0  501  0.00000000000E+00  0.00000000000E+00 -0.10274280726E+04  0.10274280726E+04  0.50400001928E-02 0.  1.
    10030    2    1    2    0    0  0.00000000000E+00  0.00000000000E+00  0.13140720830E+04  0.33689282283E+04  0.31020786527E+04 0.  0.
        4    1    3    3  502    0  0.12244825574E+04  0.85801919903E+03  0.20903760628E+03  0.15097194484E+04  0.12699999809E+01 0.  1.
       -4    1    3    3    0  502 -0.12244825574E+04 -0.85801919903E+03  0.11050344768E+04  0.18592087798E+04  0.12699999809E+01 0. -1.
</event>
<event>
 5   0  0.1325713E-07  0.3096538E+04  0.7818609E-02  0.8216689E-01
       -2   -1    0    0    0  501  0.00000000000E+00  0.00000000000E+00  0.10249274697E+04  0.10249274697E+04  0.25500000920E-02 0.  1.
        2   -1    0    0  501    0  0.00000000000E+00  0.00000000000E+00 -0.23388354093E+04  0.23388354093E+04  0.25500000920E-02 0. -1.
    10030    2    1    2    0    0  0.00000000000E+00  0.00000000000E+00 -0.13139079395E+04  0.33637628790E+04  0.30965378461E+04 0.  0.
        4    1    3    3  502    0 -0.73201983987E+03 -0.70355428012E+03  0.61280404363E+03  0.11859055948E+04  0.12699999809E+01 0.  1.
       -4    1    3    3    0  502  0.73201983987E+03  0.70355428012E+03 -0.19267119832E+04  0.21778572841E+04  0.12699999809E+01 0. -1.
</event>
<event>
 5   0  0.1377237E-07  0.3104730E+04  0.7818609E-02  0.8214441E-01
        2   -1    0    0  501    0  0.00000000000E+00  0.00000000000E+00  0.21892566650E+04  0.21892566650E+04  0.25500000920E-02 0. -1.
       -2   -1    0    0    0  501  0.00000000000E+00  0.00000000000E+00 -0.11007558320E+04  0.11007558320E+04  0.25500000920E-02 0.  1.
    10030    2    1    2    0    0  0.00000000000E+00  0.00000000000E+00  0.10885008330E+04  0.32900124970E+04  0.31047299668E+04 0.  0.
        2    1    3    3  502    0  0.37005322657E+03  0.69580886849E+03 -0.87300542145E+03  0.11761070690E+04  0.25500000920E-02 0.  1.
       -2    1    3    3    0  502 -0.37005322657E+03 -0.69580886849E+03  0.19615062545E+04  0.21139054280E+04  0.25500000920E-02 0. -1.
</event>
<event>
 5   0  0.1318916E-07  0.3099744E+04  0.7818609E-02  0.8215808E-01
        2   -1    0    0  501    0  0.00000000000E+00  0.00000000000E+00  0.20532234892E+04  0.20532234892E+04  0.25500000920E-02 0. -1.
       -2   -1    0    0    0  501  0.00000000000E+00  0.00000000000E+00 -0.11699181558E+04  0.11699181558E+04  0.25500000920E-02 0.  1.
    10030    2    1    2    0    0  0.00000000000E+00  0.00000000000E+00  0.88330533348E+03  0.32231416450E+04  0.30997441429E+04 0.  0.
        5    1    3    3  502    0 -0.91484746747E+03 -0.85314225122E+03 -0.50980589151E+03  0.13508226111E+04  0.46999998093E+01 0.  1.
       -5    1    3    3    0  502  0.91484746747E+03  0.85314225122E+03  0.13931112250E+04  0.18723190339E+04  0.46999998093E+01 0. -1.
</event>
<event>
 5   0  0.1398931E-07  0.3103935E+04  0.7818609E-02  0.8214659E-01
        2   -1    0    0  501    0  0.00000000000E+00  0.00000000000E+00  0.24149698324E+04  0.24149698324E+04  0.25500000920E-02 0. -1.
       -2   -1    0    0    0  501  0.00000000000E+00  0.00000000000E+00 -0.99736337049E+03  0.99736337049E+03  0.25500000920E-02 0.  1.
    10030    2    1    2    0    0  0.00000000000E+00  0.00000000000E+00  0.14176064619E+04  0.34123332029E+04  0.31039345687E+04 0.  0.
        3    1    3    3  502    0 -0.80589208210E+03 -0.10960741188E+04 -0.11223485666E+03  0.13650777249E+04  0.10100000352E+00 0.  1.
       -3    1    3    3    0  502  0.80589208210E+03  0.10960741188E+04  0.15298413186E+04  0.20472554780E+04  0.10100000352E+00 0. -1.
</event>
<event>
 5   0  0.1329777E-07  0.3101157E+04  0.7818609E-02  0.8215421E-01
        2   -1    0    0  501    0  0.00000000000E+00  0.00000000000E+00  0.17468046974E+04  0.17468046974E+04  0.25500000920E-02 0. -1.
       -2   -1    0    0    0  501  0.00000000000E+00  0.00000000000E+00 -0.13763948697E+04  0.13763948697E+04  0.25500000920E-02 0.  1.
    10030    2    1    2    0    0  0.00000000000E+00  0.00000000000E+00  0.37040982774E+03  0.31231995671E+04  0.31011565738E+04 0.  0.
        1    1    3    3  502    0  0.13227516562E+04 -0.54986586661E+03 -0.41253604231E+03  0.14907080202E+04  0.50400001928E-02 0. -1.
       -1    1    3    3    0  502 -0.13227516562E+04  0.54986586661E+03  0.78294587005E+03  0.16324915469E+04  0.50400001928E-02 0.  1.
</event>
<event>
 5   0  0.4436241E-08  0.3101081E+04  0.7818609E-02  0.8215441E-01
       -1   -1    0    0    0  501  0.00000000000E+00  0.00000000000E+00  0.10031345953E+04  0.10031345953E+04  0.50400001928E-02 0.  1.
        1   -1    0    0  501    0  0.00000000000E+00  0.00000000000E+00 -0.23966635023E+04  0.23966635023E+04  0.50400001928E-02 0. -1.
    10030    2    1    2    0    0  0.00000000000E+00  0.00000000000E+00 -0.13935289070E+04  0.33997980976E+04  0.31010811485E+04 0.  0.
        3    1    3    3  502    0 -0.58476823509E+03  0.37642388772E+03 -0.22160878657E+04  0.23226481160E+04  0.10100000352E+00 0. -1.
       -3    1    3    3    0  502  0.58476823509E+03 -0.37642388772E+03  0.82255895874E+03  0.10771499816E+04  0.10100000352E+00 0.  1.
</event>
<event>
 5   0  0.4436241E-08  0.3099452E+04  0.7818609E-02  0.8215888E-01
        1   -1    0    0  501    0  0.00000000000E+00  0.00000000000E+00  0.13930473027E+04  0.13930473027E+04  0.50400001928E-02 0. -1.
       -1   -1    0    0    0  501  0.00000000000E+00  0.00000000000E+00 -0.17240263148E+04  0.17240263148E+04  0.50400001928E-02 0.  1.
    10030    2    1    2    0    0  0.00000000000E+00  0.00000000000E+00 -0.33097901206E+03  0.31170736175E+04  0.30994516984E+04 0.  0.
        3    1    3    3  502    0 -0.44554632112E+02 -0.10579639599E+04 -0.13034604588E+04  0.16793695345E+04  0.10100000352E+00 0.  1.
       -3    1    3    3    0  502  0.44554632112E+02  0.10579639599E+04  0.97248144675E+03  0.14377040830E+04  0.10100000352E+00 0. -1.
</event>
<event>
 5   0  0.1318916E-07  0.3101793E+04  0.7818609E-02  0.8215246E-01
        2   -1    0    0  501    0  0.00000000000E+00  0.00000000000E+00  0.20932508154E+04  0.20932508154E+04  0.25500000920E-02 0.  1.
       -2   -1    0    0    0  501  0.00000000000E+00  0.00000000000E+00 -0.11490643368E+04  0.11490643368E+04  0.25500000920E-02 0. -1.
    10030    2    1    2    0    0  0.00000000000E+00  0.00000000000E+00  0.94418647861E+03  0.32423151522E+04  0.31017929396E+04 0.  0.
        5    1    3    3  502    0  0.30604875365E+03 -0.15203794826E+04  0.47855041039E+03  0.16230379527E+04  0.46999998093E+01 0.  1.
       -5    1    3    3    0  502 -0.30604875365E+03  0.15203794826E+04  0.46563606822E+03  0.16192771995E+04  0.46999998093E+01 0. -1.
</event>
<event>
 5   0  0.4450600E-08  0.3099446E+04  0.7818609E-02  0.8215890E-01
       -1   -1    0    0    0  501  0.00000000000E+00  0.00000000000E+00  0.99788419339E+03  0.99788419341E+03  0.50400001928E-02 0.  1.
        1   -1    0    0  501    0  0.00000000000E+00  0.00000000000E+00 -0.24067330685E+04  0.24067330685E+04  0.50400001928E-02 0. -1.
    10030    2    1    2    0    0  0.00000000000E+00  0.00000000000E+00 -0.14088488751E+04  0.34046172619E+04  0.30994456839E+04 0.  0.
        4    1    3    3  502    0 -0.12374846971E+04  0.85220077455E+03 -0.28755235288E+03  0.15298047275E+04  0.12699999809E+01 0. -1.
       -4    1    3    3    0  502  0.12374846971E+04 -0.85220077455E+03 -0.11212965222E+04  0.18748125345E+04  0.12699999809E+01 0.  1.
</event>
<event>
 5   0  0.1329777E-07  0.3100739E+04  0.7818609E-02  0.8215535E-01
        2   -1    0    0  501    0  0.00000000000E+00  0.00000000000E+00  0.23995950072E+04  0.23995950072E+04  0.25500000920E-02 0.  1.
       -2   -1    0    0    0  501  0.00000000000E+00  0.00000000000E+00 -0.10016878688E+04  0.10016878688E+04  0.25500000920E-02 0. -1.
    10030    2    1    2    0    0  0.00000000000E+00  0.00000000000E+00  0.13979071384E+04  0.34012828760E+04  0.31007387564E+04 0.  0.
        1    1    3    3  502    0  0.78329099407E+03 -0.12632724764E+04  0.11824022175E+04  0.18993359722E+04  0.50400001928E-02 0.  1.
       -1    1    3    3    0  502 -0.78329099407E+03  0.12632724764E+04  0.21550492086E+03  0.15019469039E+04  0.50400001928E-02 0. -1.
</event>
<event>
 5   0  0.1398931E-07  0.3100009E+04  0.7818609E-02  0.8215735E-01
       -2   -1    0    0    0  501  0.00000000000E+00  0.00000000000E+00  0.13001162486E+04  0.13001162486E+04  0.25500000920E-02 0. -1.
        2   -1    0    0  501    0  0.00000000000E+00  0.00000000000E+00 -0.18479229195E+04  0.18479229195E+04  0.25500000920E-02 0.  1.
    10030    2    1    2    0    0  0.00000000000E+00  0.00000000000E+00 -0.54780667082E+03  0.31480391681E+04  0.31000094283E+04 0.  0.
        3    1    3    3  502    0  0.45256888793E+03  0.14617580819E+04 -0.23178616867E+02  0.15303896716E+04  0.10100000352E+00 0.  1.
       -3    1    3    3    0  502 -0.45256888793E+03 -0.14617580819E+04 -0.52462805395E+03  0.16176494965E+04  0.10100000352E+00 0. -1.
</event>
<event>
 5   0  0.4436241E-08  0.3100255E+04  0.7818609E-02  0.8215668E-01
        1   -1    0    0  501    0  0.00000000000E+00  0.00000000000E+00  0.16699962858E+04  0.16699962858E+04  0.50400001928E-02 0.  1.
       -1   -1    0    0    0  501  0.00000000000E+00  0.00000000000E+00 -0.14388628047E+04  0.14388628047E+04  0.50400001928E-02 0. -1.
    10030    2    1    2    0    0  0.00000000000E+00  0.00000000000E+00  0.23113348113E+03  0.31088590905E+04  0.31002551763E+04 0.  0.
        3    1    3    3  502    0 -0.90751762961E+03  0.31481527396E+03  0.13355773149E+04  0.16451333317E+04  0.10100000352E+00 0.  1.
       -3    1    3    3    0  502  0.90751762961E+03 -0.31481527396E+03 -0.11044438338E+04  0.14637257588E+04  0.10100000352E+00 0. -1.
</event>
<event>
 5   0  0.1398931E-07  0.3098825E+04  0.7818609E-02  0.8216061E-01
        2   -1    0    0  501    0  0.00000000000E+00  0.00000000000E+00  0.14657065193E+04  0.14657065193E+04  0.25500000920E-02 0. -1.
       -2   -1    0    0    0  501  0.00000000000E+00  0.00000000000E+00 -0.16378985198E+04  0.16378985198E+04  0.25500000920E-02 0.  1.
    10030    2    1    2    0    0  0.00000000000E+00  0.00000000000E+00 -0.17219200044E+03  0.31036050391E+04  0.30988246407E+04 0.  0.
        3    1    3    3  502    0 -0.10990682368E+04  0.81814770920E+03  0.63845754347E+03  0.15116033568E+04  0.10100000352E+00 0. -1.
       -3    1    3    3    0  502  0.10990682368E+04 -0.81814770920E+03 -0.81064954390E+03  0.15920016823E+04  0.10100000352E+00 0.  1.
</event>
<event>
 5   0  0.1329777E-07  0.3099240E+04  0.7818609E-02  0.8215946E-01
       -2   -1    0    0    0  501  0.00000000000E+00  0.00000000000E+00  0.79052414615E+03  0.79052414616E+03  0.25500000920E-02 0.  1.
        2   -1    0    0  501    0  0.00000000000E+00  0.00000000000E+00 -0.30376337836E+04  0.30376337836E+04  0.25500000920E-02 0. -1.
    10030    2    1    2    0    0  0.00000000000E+00  0.00000000000E+00 -0.22471096375E+04  0.38281579298E+04  0.30992404574E+04 0.  0.
        1    1    3    3  502    0  0.41494154755E+03 -0.10718939319E+04 -0.24073170732E+04  0.26676410141E+04  0.50400001928E-02 0. -1.
       -1    1    3    3    0  502 -0.41494154755E+03  0.10718939319E+04  0.16020743573E+03  0.11605169157E+04  0.50400001928E-02 0.  1.
</event>
<event>
 5   0  0.4450600E-08  0.3097524E+04  0.7818609E-02  0.8216418E-01
       -1   -1    0    0    0  501  0.00000000000E+00  0.00000000000E+00  0.21271079143E+04  0.21271079143E+04  0.50400001928E-02 0.  1.
        1   -1    0    0  501    0  0.00000000000E+00  0.00000000000E+00 -0.11276641651E+04  0.11276641651E+04  0.50400001928E-02 0. -1.
    10030    2    1    2    0    0  0.00000000000E+00  0.00000000000E+00  0.99944374923E+03  0.32547720794E+04  0.30975237661E+04 0.  0.
        4    1    3    3  502    0  0.41122098060E+03 -0.13894620970E+04  0.10742459377E+04  0.18038053003E+04  0.12699999809E+01 0.  1.
       -4    1    3    3    0  502 -0.41122098060E+03  0.13894620970E+04 -0.74802188495E+02  0.14509667791E+04  0.12699999809E+01 0. -1.
</event>
<event>
 5   0  0.1325713E-07  0.3101738E+04  0.7818609E-02  0.8215261E-01
       -2   -1    0    0    0  501  0.00000000000E+00  0.00000000000E+00  0.86956667407E+03  0.86956667408E+03  0.25500000920E-02 0.  1.
        2   -1    0    0  501    0  0.00000000000E+00  0.00000000000E+00 -0.27659689380E+04  0.27659689380E+04  0.25500000920E-02 0. -1.
    10030    2    1    2    0    0  0.00000000000E+00  0.00000000000E+00 -0.18964022639E+04  0.36355356120E+04  0.31017378419E+04 0.  0.
        4    1    3    3  502    0  0.13404483526E+04  0.44678835096E+01 -0.33987729008E+02  0.13408872162E+04  0.12699999809E+01 0.  1.
       -4    1    3    3    0  502 -0.13404483526E+04 -0.44678835096E+01 -0.18624145349E+04  0.22946483959E+04  0.12699999809E+01 0. -1.
</event>
<event>
 5   0  0.1377237E-07  0.3099665E+04  0.7818609E-02  0.8215830E-01
       -2   -1    0    0    0  501  0.00000000000E+00  0.00000000000E+00  0.16253938681E+04  0.16253938681E+04  0.25500000920E-02 0.  1.
        2   -1    0    0  501    0  0.00000000000E+00  0.00000000000E+00 -0.14777842863E+04  0.14777842863E+04  0.25500000920E-02 0. -1.
    10030    2    1    2    0    0  0.00000000000E+00  0.00000000000E+00  0.14760958180E+03  0.31031781543E+04  0.30996654769E+04 0.  0.
        2    1    3    3  502    0  0.75583747021E+03  0.11675103088E+04 -0.61079096557E+03  0.15190247549E+04  0.25500000920E-02 0. -1.
       -2    1    3    3    0  502 -0.75583747021E+03 -0.11675103088E+04  0.75840054737E+03  0.15841533994E+04  0.25500000920E-02 0.  1.
</event>
<event>
 5   0  0.4436241E-08  0.3101022E+04  0.7818609E-02  0.8215458E-01
       -1   -1    0    0    0  501  0.00000000000E+00  0.00000000000E+00  0.14758922562E+04  0.14758922562E+04  0.50400001928E-02 0. -1.
        1   -1    0    0  501    0  0.00000000000E+00  0.00000000000E+00 -0.16289020147E+04  0.16289020147E+04  0.50400001928E-02 0.  1.
    10030    2    1    2    0    0  0.00000000000E+00  0.00000000000E+00 -0.15300975849E+03  0.31047942708E+04  0.31010216829E+04 0.  0.
        3    1    3    3  502    0  0.38017466142E+03 -0.47479312438E+03  0.13514569066E+04  0.14820246505E+04  0.10100000352E+00 0. -1.
       -3    1    3    3    0  502 -0.38017466142E+03  0.47479312438E+03 -0.15044666651E+04  0.16227696203E+04  0.10100000352E+00 0.  1.
</event>
<event>
 5   0  0.4450600E-08  0.3099965E+04  0.7818609E-02  0.8215747E-01
        1   -1    0    0  501    0  0.00000000000E+00  0.00000000000E+00  0.19432985493E+04  0.19432985493E+04  0.50400001928E-02 0.  1.
       -1   -1    0    0    0  501  0.00000000000E+00  0.00000000000E+00 -0.12362724473E+04  0.12362724473E+04  0.50400001928E-02 0. -1.
    10030    2    1    2    0    0  0.00000000000E+00  0.00000000000E+00  0.70702610196E+03  0.31795709966E+04  0.30999654536E+04 0.  0.
        4    1    3    3  502    0 -0.51409782793E+03 -0.42397882411E+03  0.17888745359E+04  0.19089600148E+04  0.12699999809E+01 0.  1.
       -4    1    3    3    0  502  0.51409782793E+03  0.42397882411E+03 -0.10818484340E+04  0.12706109818E+04  0.12699999809E+01 0. -1.
</event>
<event>
 5   0  0.4838602E-08  0.3100259E+04  0.7818609E-02  0.8215667E-01
        1   -1    0    0  501    0  0.00000000000E+00  0.00000000000E+00  0.15348311899E+04  0.15348311899E+04  0.50400001928E-02 0.  1.
       -1   -1    0    0    0  501  0.00000000000E+00  0.00000000000E+00 -0.15655801364E+04  0.15655801365E+04  0.50400001928E-02 0. -1.
    10030    2    1    2    0    0  0.00000000000E+00  0.00000000000E+00 -0.30748946569E+02  0.31004113263E+04  0.31002588432E+04 0.  0.
        5    1    3    3  502    0 -0.75122851341E+03 -0.10439685995E+04  0.84992204471E+03  0.15416239127E+04  0.46999998093E+01 0.  1.
       -5    1    3    3    0  502  0.75122851341E+03  0.10439685995E+04 -0.88067099128E+03  0.15587874137E+04  0.46999998093E+01 0. -1.
</event>
<event>
 5   0  0.4450600E-08  0.3098914E+04  0.7818609E-02  0.8216036E-01
       -1   -1    0    0    0  501  0.00000000000E+00  0.00000000000E+00  0.10589944453E+04  0.10589944453E+04  0.50400001928E-02 0. -1.
        1   -1    0    0  501    0  0.00000000000E+00  0.00000000000E+00 -0.22670730199E+04  0.22670730199E+04  0.50400001928E-02 0.  1.
    10030    2    1    2    0    0  0.00000000000E+00  0.00000000000E+00 -0.12080785746E+04  0.33260674652E+04  0.30989144777E+04 0.  0.
        4    1    3    3  502    0  0.12346131944E+04 -0.30158307624E+03  0.34726740179E+03  0.13175045931E+04  0.12699999809E+01 0. -1.
       -4    1    3    3    0  502 -0.12346131944E+04  0.30158307624E+03 -0.15553459764E+04  0.20085628720E+04  0.12699999809E+01 0.  1.
</event>
<event>
 5   0  0.4470354E-08  0.3100938E+04  0.7818609E-02  0.8215480E-01
        1   -1    0    0  501    0  0.00000000000E+00  0.00000000000E+00  0.18066746543E+04  0.18066746543E+04  0.50400001928E-02 0. -1.
       -1   -1    0    0    0  501  0.00000000000E+00  0.00000000000E+00 -0.13305961815E+04  0.13305961815E+04  0.50400001928E-02 0.  1.
    10030    2    1    2    0    0  0.00000000000E+00  0.00000000000E+00  0.47607847280E+03  0.31372708358E+04  0.31009381781E+04 0.  0.
        1    1    3    3  502    0 -0.79195443502E+03 -0.77322387401E+03 -0.86044813640E+03  0.14019407912E+04  0.50400001928E-02 0.  1.
       -1    1    3    3    0  502  0.79195443502E+03  0.77322387401E+03  0.13365266092E+04  0.17353300446E+04  0.50400001928E-02 0. -1.
</event>
<event>
 5   0  0.1318916E-07  0.3099629E+04  0.7818609E-02  0.8215840E-01
       -2   -1    0    0    0  501  0.00000000000E+00  0.00000000000E+00  0.15686790615E+04  0.15686790615E+04  0.25500000920E-02 0. -1.
        2   -1    0    0  501    0  0.00000000000E+00  0.00000000000E+00 -0.15311771794E+04  0.15311771794E+04  0.25500000920E-02 0.  1.
    10030    2    1    2    0    0  0.00000000000E+00  0.00000000000E+00  0.37501882115E+02  0.30998562409E+04  0.30996293848E+04 0.  0.
        5    1    3    3  502    0  0.14396139887E+04  0.36978635828E+03 -0.42022662941E+03  0.15446173951E+04  0.46999998093E+01 0.  1.
       -5    1    3    3    0  502 -0.14396139887E+04 -0.36978635828E+03  0.45772851152E+03  0.15552388458E+04  0.46999998093E+01 0. -1.
</event>
<event>
 5   0  0.4450600E-08  0.3091355E+04  0.7818609E-02  0.8218115E-01
       -1   -1    0    0    0  501  0.00000000000E+00  0.00000000000E+00  0.10258508752E+04  0.10258508752E+04  0.50400001928E-02 0. -1.
        1   -1    0    0  501    0  0.00000000000E+00  0.00000000000E+00 -0.23289140201E+04  0.23289140201E+04  0.50400001928E-02 0.  1.
    10030    2    1    2    0    0  0.00000000000E+00  0.00000000000E+00 -0.13030631449E+04  0.33547648954E+04  0.30913547101E+04 0.  0.
        4    1    3    3  502    0  0.86306568253E+03 -0.17851132515E+03  0.72645619704E+03  0.11421422349E+04  0.12699999809E+01 0. -1.
       -4    1    3    3    0  502 -0.86306568253E+03  0.17851132515E+03 -0.20295193419E+04  0.22126226605E+04  0.12699999809E+01 0.  1.
</event>
<event>
 5   0  0.4517409E-08  0.3099537E+04  0.7818609E-02  0.8215865E-01
       -1   -1    0    0    0  501  0.00000000000E+00  0.00000000000E+00  0.21618407515E+04  0.21618407515E+04  0.50400001928E-02 0. -1.
        1   -1    0    0  501    0  0.00000000000E+00  0.00000000000E+00 -0.11109896900E+04  0.11109896900E+04  0.50400001928E-02 0.  1.
    10030    2    1    2    0    0  0.00000000000E+00  0.00000000000E+00  0.10508510615E+04  0.32728304415E+04  0.30995372470E+04 0.  0.
        2    1    3    3  502    0  0.17783037753E+03  0.88277095652E+03  0.18572427260E+04  0.20640394250E+04  0.25500000920E-02 0. -1.
       -2    1    3    3    0  502 -0.17783037753E+03 -0.88277095652E+03 -0.80639166451E+03  0.12087910165E+04  0.25500000920E-02 0.  1.
</event>
<event>
 5   0  0.1398931E-07  0.3102327E+04  0.7818609E-02  0.8215100E-01
        2   -1    0    0  501    0  0.00000000000E+00  0.00000000000E+00  0.19783383753E+04  0.19783383753E+04  0.25500000920E-02 0.  1.
       -2   -1    0    0    0  501  0.00000000000E+00  0.00000000000E+00 -0.12162270433E+04  0.12162270433E+04  0.25500000920E-02 0. -1.
    10030    2    1    2    0    0  0.00000000000E+00  0.00000000000E+00  0.76211133194E+03  0.31945654186E+04  0.31023272767E+04 0.  0.
        3    1    3    3  502    0  0.13526951922E+04  0.49556535988E+03 -0.21114253709E+03  0.14560049760E+04  0.10100000352E+00 0. -1.
       -3    1    3    3    0  502 -0.13526951922E+04 -0.49556535988E+03  0.97325386903E+03  0.17385604426E+04  0.10100000352E+00 0.  1.
</event>
<event>
 5   0  0.1398931E-07  0.3099275E+04  0.7818609E-02  0.8215937E-01
        2   -1    0    0  501    0  0.00000000000E+00  0.00000000000E+00  0.19035743580E+04  0.19035743580E+04  0.25500000920E-02 0.  1.
       -2   -1    0    0    0  501  0.00000000000E+00  0.00000000000E+00 -0.12615092186E+04  0.12615092186E+04  0.25500000920E-02 0. -1.
    10030    2    1    2    0    0  0.00000000000E+00  0.00000000000E+00  0.64206513940E+03  0.31650835767E+04  0.30992751417E+04 0.  0.
        3    1    3    3  502    0 -0.98276856417E+03 -0.23901447482E+03 -0.87795584022E+03  0.13393164068E+04  0.10100000352E+00 0. -1.
       -3    1    3    3    0  502  0.98276856417E+03  0.23901447482E+03  0.15200209796E+04  0.18257671699E+04  0.10100000352E+00 0.  1.
</event>
<event>
 5   0  0.4838602E-08  0.3099887E+04  0.7818609E-02  0.8215769E-01
       -1   -1    0    0    0  501  0.00000000000E+00  0.00000000000E+00  0.12864811635E+04  0.12864811635E+04  0.50400001928E-02 0.  1.
        1   -1    0    0  501    0  0.00000000000E+00  0.00000000000E+00 -0.18673612423E+04  0.18673612423E+04  0.50400001928E-02 0. -1.
    10030    2    1    2    0    0  0.00000000000E+00  0.00000000000E+00 -0.58088007882E+03  0.31538424058E+04  0.30998871358E+04 0.  0.
        5    1    3    3  502    0  0.23444981456E+03 -0.41526262213E+02 -0.18486363722E+04  0.18639124638E+04  0.46999998093E+01 0. -1.
       -5    1    3    3    0  502 -0.23444981456E+03  0.41526262213E+02  0.12677562934E+04  0.12899299421E+04  0.46999998093E+01 0.  1.
</event>
<event>
 5   0  0.1318916E-07  0.3100091E+04  0.7818609E-02  0.8215713E-01
        2   -1    0    0  501    0  0.00000000000E+00  0.00000000000E+00  0.27406166874E+04  0.27406166874E+04  0.25500000920E-02 0.  1.
       -2   -1    0    0    0  501  0.00000000000E+00  0.00000000000E+00 -0.87667917574E+03  0.87667917574E+03  0.25500000920E-02 0. -1.
    10030    2    1    2    0    0  0.00000000000E+00  0.00000000000E+00  0.18639375117E+04  0.36172958632E+04  0.31000913397E+04 0.  0.
        5    1    3    3  502    0 -0.11105128373E+04 -0.34580501618E+03 -0.26356748858E+03  0.11926062980E+04  0.46999998093E+01 0. -1.
       -5    1    3    3    0  502  0.11105128373E+04  0.34580501618E+03  0.21275050003E+04  0.24246895651E+04  0.46999998093E+01 0.  1.
</event>
<event>
 5   0  0.1398931E-07  0.3100923E+04  0.7818609E-02  0.8215485E-01
        2   -1    0    0  501    0  0.00000000000E+00  0.00000000000E+00  0.87436982244E+03  0.87436982244E+03  0.25500000920E-02 0.  1.
       -2   -1    0    0    0  501  0.00000000000E+00  0.00000000000E+00 -0.27493291224E+04  0.27493291224E+04  0.25500000920E-02 0. -1.
    10030    2    1    2    0    0  0.00000000000E+00  0.00000000000E+00 -0.18749593000E+04  0.36236989449E+04  0.31009227121E+04 0.  0.
        3    1    3    3  502    0 -0.10698074547E+04 -0.41547263888E+02  0.37306705280E+03  0.11337518253E+04  0.10100000352E+00 0.  1.
       -3    1    3    3    0  502  0.10698074547E+04  0.41547263888E+02 -0.22480263528E+04  0.24899471196E+04  0.10100000352E+00 0. -1.
</event>
<event>
 5   0  0.4436241E-08  0.3099938E+04  0.7818609E-02  0.8215755E-01
       -1   -1    0    0    0  501  0.00000000000E+00  0.00000000000E+00  0.82233522166E+03  0.82233522168E+03  0.50400001928E-02 0.  1.
        1   -1    0    0  501    0  0.00000000000E+00  0.00000000000E+00 -0.29214409999E+04  0.29214409999E+04  0.50400001928E-02 0. -1.
    10030    2    1    2    0    0  0.00000000000E+00  0.00000000000E+00 -0.20991057782E+04  0.37437762215E+04  0.30999379557E+04 0.  0.
        3    1    3    3  502    0 -0.15049773844E+03  0.10921828265E+04 -0.23652692791E+04  0.26095999058E+04  0.10100000352E+00 0. -1.
       -3    1    3    3    0  502  0.15049773844E+03 -0.10921828265E+04  0.26616350088E+03  0.11341763157E+04  0.10100000352E+00 0.  1.
</event>
<event>
 5   0  0.4436241E-08  0.3099279E+04  0.7818609E-02  0.8215936E-01
        1   -1    0    0  501    0  0.00000000000E+00  0.00000000000E+00  0.12149710910E+04  0.12149710911E+04  0.50400001928E-02 0.  1.
       -1   -1    0    0    0  501  0.00000000000E+00  0.00000000000E+00 -0.19764931944E+04  0.19764931944E+04  0.50400001928E-02 0. -1.
    10030    2    1    2    0    0  0.00000000000E+00  0.00000000000E+00 -0.76152210335E+03  0.31914642855E+04  0.30992786857E+04 0.  0.
        3    1    3    3  502    0 -0.80113125332E+03  0.86139807562E+03 -0.14195091908E+04  0.18435900528E+04  0.10100000352E+00 0. -1.
       -3    1    3    3    0  502  0.80113125332E+03 -0.86139807562E+03  0.65798708743E+03  0.13478742327E+04  0.10100000352E+00 0.  1.
</event>
<event>
 5   0  0.4450600E-08  0.3098726E+04  0.7818609E-02  0.8216088E-01
       -1   -1    0    0    0  501  0.00000000000E+00  0.00000000000E+00  0.90026821340E+03  0.90026821342E+03  0.50400001928E-02 0. -1.
        1   -1    0    0  501    0  0.00000000000E+00  0.00000000000E+00 -0.26664555128E+04  0.26664555128E+04  0.50400001928E-02 0.  1.
    10030    2    1    2    0    0  0.00000000000E+00  0.00000000000E+00 -0.17661872994E+04  0.35667237262E+04  0.30987256352E+04 0.  0.
        4    1    3    3  502    0  0.15790000127E+03 -0.82401934955E+03 -0.23823432114E+04  0.25257674257E+04  0.12699999809E+01 0.  1.
       -4    1    3    3    0  502 -0.15790000127E+03  0.82401934955E+03  0.61615591201E+03  0.10409563005E+04  0.12699999809E+01 0. -1.
</event>
<event>
 5   0  0.1329777E-07  0.3106418E+04  0.7818609E-02  0.8213979E-01
       -2   -1    0    0    0  501  0.00000000000E+00  0.00000000000E+00  0.16753030309E+04  0.16753030309E+04  0.25500000920E-02 0.  1.
        2   -1    0    0  501    0  0.00000000000E+00  0.00000000000E+00 -0.14400132453E+04  0.14400132453E+04  0.25500000920E-02 0. -1.
    10030    2    1    2    0    0  0.00000000000E+00  0.00000000000E+00  0.23528978560E+03  0.31153162762E+04  0.31064182297E+04 0.  0.
        1    1    3    3  502    0  0.13423815082E+04  0.16357875408E+03  0.88384408460E+03  0.16155266906E+04  0.50400001928E-02 0.  1.
       -1    1    3    3    0  502 -0.13423815082E+04 -0.16357875408E+03 -0.64855429900E+03  0.14997895856E+04  0.50400001928E-02 0. -1.
</event>
<event>
 5   0  0.4517409E-08  0.3099799E+04  0.7818609E-02  0.8215793E-01
       -1   -1    0    0    0  501  0.00000000000E+00  0.00000000000E+00  0.10951166419E+04  0.10951166419E+04  0.50400001928E-02 0.  1.
        1   -1    0    0  501    0  0.00000000000E+00  0.00000000000E+00 -0.21935453302E+04  0.21935453302E+04  0.50400001928E-02 0. -1.
    10030    2    1    2    0    0  0.00000000000E+00  0.00000000000E+00 -0.10984286883E+04  0.32886619721E+04  0.30997987005E+04 0.  0.
        2    1    3    3  502    0  0.11077427117E+04 -0.10615270067E+04 -0.31616138041E+03  0.15664901914E+04  0.25500000920E-02 0. -1.
       -2    1    3    3    0  502 -0.11077427117E+04  0.10615270067E+04 -0.78226730784E+03  0.17221717807E+04  0.25500000920E-02 0.  1.
</event>
<event>
 5   0  0.1377237E-07  0.3100537E+04  0.7818609E-02  0.8215591E-01
        2   -1    0    0  501    0  0.00000000000E+00  0.00000000000E+00  0.15450691382E+04  0.15450691382E+04  0.25500000920E-02 0. -1.
       -2   -1    0    0    0  501  0.00000000000E+00  0.00000000000E+00 -0.15554853959E+04  0.15554853959E+04  0.25500000920E-02 0.  1.
    10030    2    1    2    0    0  0.00000000000E+00  0.00000000000E+00 -0.10416257727E+02  0.31005545341E+04  0.31005370375E+04 0.  0.
        2    1    3    3  502    0  0.80555422122E+03 -0.86716248738E+03  0.99601882399E+03  0.15469136629E+04  0.25500000920E-02 0. -1.
       -2    1    3    3    0  502 -0.80555422122E+03  0.86716248738E+03 -0.10064350817E+04  0.15536408712E+04  0.25500000920E-02 0.  1.
</event>
<event>
 5   0  0.1398931E-07  0.3099962E+04  0.7818609E-02  0.8215748E-01
       -2   -1    0    0    0  501  0.00000000000E+00  0.00000000000E+00  0.10274882181E+04  0.10274882181E+04  0.25500000920E-02 0. -1.
        2   -1    0    0  501    0  0.00000000000E+00  0.00000000000E+00 -0.23381683006E+04  0.23381683006E+04  0.25500000920E-02 0.  1.
    10030    2    1    2    0    0  0.00000000000E+00  0.00000000000E+00 -0.13106800825E+04  0.33656565187E+04  0.30999615358E+04 0.  0.
        3    1    3    3  502    0  0.89888797859E+03 -0.10456273942E+04 -0.14238995071E+04  0.19821266514E+04  0.10100000352E+00 0.  1.
       -3    1    3    3    0  502 -0.89888797859E+03  0.10456273942E+04  0.11321942461E+03  0.13835298673E+04  0.10100000352E+00 0. -1.
</event>
<event>
 5   0  0.4450600E-08  0.3099686E+04  0.7818609E-02  0.8215824E-01
       -1   -1    0    0    0  501  0.00000000000E+00  0.00000000000E+00  0.21966297820E+04  0.21966297820E+04  0.50400001928E-02 0. -1.
        1   -1    0    0  501    0  0.00000000000E+00  0.00000000000E+00 -0.10934994622E+04  0.10934994622E+04  0.50400001928E-02 0.  1.
    10030    2    1    2    0    0  0.00000000000E+00  0.00000000000E+00  0.11031303198E+04  0.32901292442E+04  0.30996861037E+04 0.  0.
        4    1    3    3  502    0  0.26454501212E+03  0.72419195855E+03 -0.87549822386E+03  0.11665919634E+04  0.12699999809E+01 0.  1.
       -4    1    3    3    0  502 -0.26454501212E+03 -0.72419195855E+03  0.19786285436E+04  0.21235372808E+04  0.12699999809E+01 0. -1.
</event>
<event>
 5   0  0.4470354E-08  0.3100419E+04  0.7818609E-02  0.8215623E-01
        1   -1    0    0  501    0  0.00000000000E+00  0.00000000000E+00  0.27172852784E+04  0.27172852784E+04  0.50400001928E-02 0.  1.
       -1   -1    0    0    0  501  0.00000000000E+00  0.00000000000E+00 -0.88439374349E+03  0.88439374350E+03  0.50400001928E-02 0. -1.
    10030    2    1    2    0    0  0.00000000000E+00  0.00000000000E+00  0.18328915349E+04  0.36016790219E+04  0.31004193907E+04 0.  0.
        1    1    3    3  502    0 -0.11950677416E+04  0.38002382931E+03 -0.14223778817E+03  0.12620763076E+04  0.50400001928E-02 0. -1.
       -1    1    3    3    0  502  0.11950677416E+04 -0.38002382931E+03  0.19751293231E+04  0.23396027143E+04  0.50400001928E-02 0.  1.
</event>
<event>
 5   0  0.1398931E-07  0.3099190E+04  0.7818609E-02  0.8215960E-01
       -2   -1    0    0    0  501  0.00000000000E+00  0.00000000000E+00  0.16776010939E+04  0.16776010939E+04  0.25500000920E-02 0.  1.
        2   -1    0    0  501    0  0.00000000000E+00  0.00000000000E+00 -0.14313563445E+04  0.14313563445E+04  0.25500000920E-02 0. -1.
    10030    2    1    2    0    0  0.00000000000E+00  0.00000000000E+00  0.24624474943E+03  0.31089574384E+04  0.30991901970E+04 0.  0.
        3    1    3    3  502    0  0.45826825125E+03  0.18320182386E+03 -0.13504086563E+04  0.14377678003E+04  0.10100000352E+00 0. -1.
       -3    1    3    3    0  502 -0.45826825125E+03 -0.18320182386E+03  0.15966534057E+04  0.16711896381E+04  0.10100000352E+00 0.  1.
</event>
<event>
 5   0  0.1318916E-07  0.3099939E+04  0.7818609E-02  0.8215755E-01
        2   -1    0    0  501    0  0.00000000000E+00  0.00000000000E+00  0.14676478728E+04  0.14676478728E+04  0.25500000920E-02 0.  1.
       -2   -1    0    0    0  501  0.00000000000E+00  0.00000000000E+00 -0.16369089472E+04  0.16369089472E+04  0.25500000920E-02 0. -1.
    10030    2    1    2    0    0  0.00000000000E+00  0.00000000000E+00 -0.16926107444E+03  0.31045568200E+04  0.30999393119E+04 0.  0.
        5    1    3    3  502    0  0.87890478108E+02 -0.10224210947E+04 -0.12479606466E+04  0.16157034061E+04  0.46999998093E+01 0. -1.
       -5    1    3    3    0  502 -0.87890478108E+02  0.10224210947E+04  0.10786995722E+04  0.14888534139E+04  0.46999998093E+01 0.  1.
</event>
<event>
 5   0  0.4436241E-08  0.3102514E+04  0.7818609E-02  0.8215048E-01
        1   -1    0    0  501    0  0.00000000000E+00  0.00000000000E+00  0.16035306670E+04  0.16035306670E+04  0.50400001928E-02 0. -1.
       -1   -1    0    0    0  501  0.00000000000E+00  0.00000000000E+00 -0.15006870336E+04  0.15006870336E+04  0.50400001928E-02 0.  1.
    10030    2    1    2    0    0  0.00000000000E+00  0.00000000000E+00  0.10284363337E+03  0.31042177006E+04  0.31025136131E+04 0.  0.
        3    1    3    3  502    0  0.78005870367E+03  0.99103514933E+03  0.95510970059E+03  0.15820482922E+04  0.10100000352E+00 0. -1.
       -3    1    3    3    0  502 -0.78005870367E+03 -0.99103514933E+03 -0.85226606722E+03  0.15221694084E+04  0.10100000352E+00 0.  1.
</event>
<event>
 5   0  0.4450600E-08  0.3100377E+04  0.7818609E-02  0.8215635E-01
       -1   -1    0    0    0  501  0.00000000000E+00  0.00000000000E+00  0.12993460949E+04  0.12993460949E+04  0.50400001928E-02 0. -1.
        1   -1    0    0  501    0  0.00000000000E+00  0.00000000000E+00 -0.18494562513E+04  0.18494562513E+04  0.50400001928E-02 0.  1.
    10030    2    1    2    0    0  0.00000000000E+00  0.00000000000E+00 -0.55011015641E+03  0.31488023462E+04  0.31003765951E+04 0.  0.
        4    1    3    3  502    0  0.50776480772E+03  0.69831168641E+03  0.10325396346E+04  0.13459584025E+04  0.12699999809E+01 0. -1.
       -4    1    3    3    0  502 -0.50776480772E+03 -0.69831168641E+03 -0.15826497911E+04  0.18028439437E+04  0.12699999809E+01 0.  1.
</event>
<event>
 5   0  0.4517409E-08  0.3100368E+04  0.7818609E-02  0.8215637E-01
       -1   -1    0    0    0  501  0.00000000000E+00  0.00000000000E+00  0.13032649618E+04  0.13032649618E+04  0.50400001928E-02 0.  1.
        1   -1    0    0  501    0  0.00000000000E+00  0.00000000000E+00 -0.18438846986E+04  0.18438846986E+04  0.50400001928E-02 0. -1.
    10030    2    1    2    0    0  0.00000000000E+00  0.00000000000E+00 -0.54061973676E+03  0.31471496604E+04  0.31003679274E+04 0.  0.
        2    1    3    3  502    0 -0.13246932281E+04  0.73842913340E+03 -0.59605793224E+03  0.16295320777E+04  0.25500000920E-02 0. -1.
       -2    1    3    3    0  502  0.13246932281E+04 -0.73842913340E+03  0.55438195483E+02  0.15176175827E+04  0.25500000920E-02 0.  1.
</event>
<event>
 5   0  0.1325713E-07  0.3107945E+04  0.7818609E-02  0.8213561E-01
        2   -1    0    0  501    0  0.00000000000E+00  0.00000000000E+00  0.17414818422E+04  0.17414818422E+04  0.25500000920E-02 0.  1.
       -2   -1    0    0    0  501  0.00000000000E+00  0.00000000000E+00 -0.13866529023E+04  0.13866529023E+04  0.25500000920E-02 0. -1.
    10030    2    1    2    0    0  0.00000000000E+00  0.00000000000E+00  0.35482893988E+03  0.31281347446E+04  0.31079452060E+04 0.  0.
        4    1    3    3  502    0  0.94208141829E+03  0.12346708690E+04  0.12321594281E+03  0.15579195534E+04  0.12699999809E+01 0. -1.
       -4    1    3    3    0  502 -0.94208141829E+03 -0.12346708690E+04  0.23161299707E+03  0.15702151912E+04  0.12699999809E+01 0.  1.
</event>
<event>
 5   0  0.4838602E-08  0.3100099E+04  0.7818609E-02  0.8215711E-01
       -1   -1    0    0    0  501  0.00000000000E+00  0.00000000000E+00  0.10764612916E+04  0.10764612916E+04  0.50400001928E-02 0.  1.
        1   -1    0    0  501    0  0.00000000000E+00  0.00000000000E+00 -0.22319921376E+04  0.22319921376E+04  0.50400001928E-02 0. -1.
    10030    2    1    2    0    0  0.00000000000E+00  0.00000000000E+00 -0.11555308460E+04  0.33084534293E+04  0.31000987980E+04 0.  0.
        5    1    3    3  502    0  0.43873128291E+03 -0.93270082611E+03  0.65771748361E+03  0.12227143362E+04  0.46999998093E+01 0.  1.
       -5    1    3    3    0  502 -0.43873128291E+03  0.93270082611E+03 -0.18132483296E+04  0.20857390931E+04  0.46999998093E+01 0. -1.
</event>
<event>
 5   0  0.1318916E-07  0.3101516E+04  0.7818609E-02  0.8215322E-01
        2   -1    0    0  501    0  0.00000000000E+00  0.00000000000E+00  0.21064817256E+04  0.21064817256E+04  0.25500000920E-02 0. -1.
       -2   -1    0    0    0  501  0.00000000000E+00  0.00000000000E+00 -0.11416427880E+04  0.11416427880E+04  0.25500000920E-02 0.  1.
    10030    2    1    2    0    0  0.00000000000E+00  0.00000000000E+00  0.96483893762E+03  0.32481245136E+04  0.31015155457E+04 0.  0.
        5    1    3    3  502    0 -0.39833838962E+03  0.70331681198E+03  0.18684210453E+04  0.20357670061E+04  0.46999998093E+01 0. -1.
       -5    1    3    3    0  502  0.39833838962E+03 -0.70331681198E+03 -0.90358210769E+03  0.12123575075E+04  0.46999998093E+01 0.  1.
</event>
<event>
 5   0  0.4517409E-08  0.3099441E+04  0.7818609E-02  0.8215891E-01
       -1   -1    0    0    0  501  0.00000000000E+00  0.00000000000E+00  0.17079298748E+04  0.17079298748E+04  0.50400001928E-02 0.  1.
        1   -1    0    0  501    0  0.00000000000E+00  0.00000000000E+00 -0.14061666110E+04  0.14061666110E+04  0.50400001928E-02 0. -1.
    10030    2    1    2    0    0  0.00000000000E+00  0.00000000000E+00  0.30176326376E+03  0.31140964858E+04  0.30994412167E+04 0.  0.
        2    1    3    3  502    0  0.22393882171E+03 -0.15180917185E+04 -0.66666773563E+02  0.15359672914E+04  0.25500000920E-02 0.  1.
       -2    1    3    3    0  502 -0.22393882171E+03  0.15180917185E+04  0.36843003732E+03  0.15781291944E+04  0.25500000920E-02 0. -1.
</event>
<event>
 5   0  0.1329777E-07  0.3100230E+04  0.7818609E-02  0.8215675E-01
       -2   -1    0    0    0  501  0.00000000000E+00  0.00000000000E+00  0.13938416881E+04  0.13938416881E+04  0.25500000920E-02 0.  1.
        2   -1    0    0  501    0  0.00000000000E+00  0.00000000000E+00 -0.17239087072E+04  0.17239087072E+04  0.25500000920E-02 0. -1.
    10030    2    1    2    0    0  0.00000000000E+00  0.00000000000E+00 -0.33006701910E+03  0.31177503952E+04  0.31002295544E+04 0.  0.
        1    1    3    3  502    0  0.15333215356E+04 -0.13565640591E+03 -0.34876311645E+03  0.15783261080E+04  0.50400001928E-02 0. -1.
       -1    1    3    3    0  502 -0.15333215356E+04  0.13565640591E+03  0.18696097349E+02  0.15394242872E+04  0.50400001928E-02 0.  1.
</event>
<event>
 5   0  0.4838602E-08  0.3099754E+04  0.7818609E-02  0.8215805E-01
        1   -1    0    0  501    0  0.00000000000E+00  0.00000000000E+00  0.24006926759E+04  0.24006926759E+04  0.50400001928E-02 0. -1.
       -1   -1    0    0    0  501  0.00000000000E+00  0.00000000000E+00 -0.10005942366E+04  0.10005942366E+04  0.50400001928E-02 0.  1.
    10030    2    1    2    0    0  0.00000000000E+00  0.00000000000E+00  0.14000984393E+04  0.34012869125E+04  0.30997543485E+04 0.  0.
        5    1    3    3  502    0 -0.12692445015E+04 -0.63746408789E+03  0.19423774348E+02  0.14204722598E+04  0.46999998093E+01 0. -1.
       -5    1    3    3    0  502  0.12692445015E+04  0.63746408789E+03  0.13806746650E+04  0.19808146527E+04  0.46999998093E+01 0.  1.
</event>
<event>
 5   0  0.4517409E-08  0.3100550E+04  0.7818609E-02  0.8215587E-01
        1   -1    0    0  501    0  0.00000000000E+00  0.00000000000E+00  0.22916652697E+04  0.22916652697E+04  0.50400001928E-02 0.  1.
       -1   -1    0    0    0  501  0.00000000000E+00  0.00000000000E+00 -0.10487366437E+04  0.10487366437E+04  0.50400001928E-02 0. -1.
    10030    2    1    2    0    0  0.00000000000E+00  0.00000000000E+00  0.12429286260E+04  0.33404019134E+04  0.31005504953E+04 0.  0.
        2    1    3    3  502    0  0.13433112917E+04 -0.71081097430E+03  0.95110033712E+03  0.17928550747E+04  0.25500000920E-02 0.  1.
       -2    1    3    3    0  502 -0.13433112917E+04  0.71081097430E+03  0.29182828883E+03  0.15475468387E+04  0.25500000920E-02 0. -1.
</event>
<event>
 5   0  0.1377237E-07  0.3099940E+04  0.7818609E-02  0.8215755E-01
       -2   -1    0    0    0  501  0.00000000000E+00  0.00000000000E+00  0.10945142842E+04  0.10945142842E+04  0.25500000920E-02 0.  1.
        2   -1    0    0  501    0  0.00000000000E+00  0.00000000000E+00 -0.21949519748E+04  0.21949519748E+04  0.25500000920E-02 0. -1.
    10030    2    1    2    0    0  0.00000000000E+00  0.00000000000E+00 -0.11004376906E+04  0.32894662590E+04  0.30999395410E+04 0.  0.
        2    1    3    3  502    0 -0.88322129121E+03 -0.77347653081E+03 -0.16240475748E+04  0.20039651490E+04  0.25500000920E-02 0. -1.
       -2    1    3    3    0  502  0.88322129121E+03  0.77347653081E+03  0.52360988423E+03  0.12855011100E+04  0.25500000920E-02 0.  1.
</event>
<event>
 5   0  0.1377237E-07  0.3099206E+04  0.7818609E-02  0.8215956E-01
        2   -1    0    0  501    0  0.00000000000E+00  0.00000000000E+00  0.19079159797E+04  0.19079159797E+04  0.25500000920E-02 0.  1.
       -2   -1    0    0    0  501  0.00000000000E+00  0.00000000000E+00 -0.12585823455E+04  0.12585823455E+04  0.25500000920E-02 0. -1.
    10030    2    1    2    0    0  0.00000000000E+00  0.00000000000E+00  0.64933363420E+03  0.31664983251E+04  0.30992059426E+04 0.  0.
        2    1    3    3  502    0  0.21484840390E+03  0.36362377814E+02 -0.12428508164E+04  0.12618083099E+04  0.25500000920E-02 0. -1.
       -2    1    3    3    0  502 -0.21484840390E+03 -0.36362377814E+02  0.18921844506E+04  0.19046900152E+04  0.25500000920E-02 0.  1.
</event>
<event>
 5   0  0.1325713E-07  0.3100497E+04  0.7818609E-02  0.8215601E-01
        2   -1    0    0  501    0  0.00000000000E+00  0.00000000000E+00  0.13321075395E+04  0.13321075395E+04  0.25500000920E-02 0. -1.
       -2   -1    0    0    0  501  0.00000000000E+00  0.00000000000E+00 -0.18041118083E+04  0.18041118083E+04  0.25500000920E-02 0.  1.
    10030    2    1    2    0    0  0.00000000000E+00  0.00000000000E+00 -0.47200426881E+03  0.31362193478E+04  0.31004973420E+04 0.  0.
        4    1    3    3  502    0  0.39748121883E+03 -0.48753244656E+03 -0.16692212487E+04  0.17838106390E+04  0.12699999809E+01 0.  1.
       -4    1    3    3    0  502 -0.39748121883E+03  0.48753244656E+03  0.11972169799E+04  0.13524087088E+04  0.12699999809E+01 0. -1.
</event>
<event>
 5   0  0.1377237E-07  0.3099997E+04  0.7818609E-02  0.8215739E-01
       -2   -1    0    0    0  501  0.00000000000E+00  0.00000000000E+00  0.11513751155E+04  0.11513751155E+04  0.25500000920E-02 0. -1.
        2   -1    0    0  501    0  0.00000000000E+00  0.00000000000E+00 -0.20866309954E+04  0.20866309954E+04  0.25500000920E-02 0.  1.
    10030    2    1    2    0    0  0.00000000000E+00  0.00000000000E+00 -0.93525587992E+03  0.32380061109E+04  0.30999967764E+04 0.  0.
        2    1    3    3  502    0  0.12987758797E+03  0.53081804413E+03 -0.19826701716E+04  0.20566032659E+04  0.25500000920E-02 0.  1.
       -2    1    3    3    0  502 -0.12987758797E+03 -0.53081804413E+03  0.10474142917E+04  0.11814028450E+04  0.25500000920E-02 0. -1.
</event>
<event>
 5   0  0.1377237E-07  0.3097105E+04  0.7818609E-02  0.8216533E-01
       -2   -1    0    0    0  501  0.00000000000E+00  0.00000000000E+00  0.14863066837E+04  0.14863066837E+04  0.25500000920E-02 0. -1.
        2   -1    0    0  501    0  0.00000000000E+00  0.00000000000E+00 -0.16134055675E+04  0.16134055675E+04  0.25500000920E-02 0.  1.
    10030    2    1    2    0    0  0.00000000000E+00  0.00000000000E+00 -0.12709888383E+03  0.30997122512E+04  0.30971054090E+04 0.  0.
        2    1    3    3  502    0  0.27550629884E+03 -0.31215829538E+03  0.14292384039E+04  0.14886466798E+04  0.25500000920E-02 0. -1.
       -2    1    3    3    0  502 -0.27550629884E+03  0.31215829538E+03 -0.15563372878E+04  0.16110655714E+04  0.25500000920E-02 0.  1.
</event>
<event>
 5   0  0.1398931E-07  0.3099383E+04  0.7818609E-02  0.8215907E-01
        2   -1    0    0  501    0  0.00000000000E+00  0.00000000000E+00  0.91379860934E+03  0.91379860934E+03  0.25500000920E-02 0.  1.
       -2   -1    0    0    0  501  0.00000000000E+00  0.00000000000E+00 -0.26280891046E+04  0.26280891046E+04  0.25500000920E-02 0. -1.
    10030    2    1    2    0    0  0.00000000000E+00  0.00000000000E+00 -0.17142904953E+04  0.35418877140E+04  0.30993832735E+04 0.  0.
        3    1    3    3  502    0 -0.34820540503E+03  0.27442179646E+03 -0.25540708400E+04  0.25922639126E+04  0.10100000352E+00 0. -1.
       -3    1    3    3    0  502  0.34820540503E+03 -0.27442179646E+03  0.83978034476E+03  0.94962380135E+03  0.10100000352E+00 0.  1.
</event>
<event>
 5   0  0.4450600E-08  0.3100249E+04  0.7818609E-02  0.8215669E-01
       -1   -1    0    0    0  501  0.00000000000E+00  0.00000000000E+00  0.13935373681E+04  0.13935373681E+04  0.50400001928E-02 0. -1.
        1   -1    0    0  501    0  0.00000000000E+00  0.00000000000E+00 -0.17243071527E+04  0.17243071527E+04  0.50400001928E-02 0.  1.
    10030    2    1    2    0    0  0.00000000000E+00  0.00000000000E+00 -0.33076978455E+03  0.31178445208E+04  0.31002493134E+04 0.  0.
        4    1    3    3  502    0 -0.44858081987E+03  0.14819451121E+04 -0.23995944638E+03  0.15668338189E+04  0.12699999809E+01 0.  1.
       -4    1    3    3    0  502  0.44858081987E+03 -0.14819451121E+04 -0.90810338166E+02  0.15510107019E+04  0.12699999809E+01 0. -1.
</event>
<event>
 5   0  0.4470354E-08  0.3097244E+04  0.7818609E-02  0.8216495E-01
        1   -1    0    0  501    0  0.00000000000E+00  0.00000000000E+00  0.24992454043E+04  0.24992454043E+04  0.50400001928E-02 0. -1.
       -1   -1    0    0    0  501  0.00000000000E+00  0.00000000000E+00 -0.95958184115E+03  0.95958184116E+03  0.50400001928E-02 0.  1.
    10030    2    1    2    0    0  0.00000000000E+00  0.00000000000E+00  0.15396635632E+04  0.34588272455E+04  0.30972442633E+04 0.  0.
        1    1    3    3  502    0  0.11176223984E+04  0.93044280251E+03  0.17530157324E+03  0.14647642390E+04  0.50400001928E-02 0.  1.
       -1    1    3    3    0  502 -0.11176223984E+04 -0.93044280251E+03  0.13643619900E+04  0.19940630065E+04  0.50400001928E-02 0. -1.
</event>
<event>
 5   0  0.4436241E-08  0.3107039E+04  0.7818609E-02  0.8213809E-01
       -1   -1    0    0    0  501  0.00000000000E+00  0.00000000000E+00  0.10092784423E+04  0.10092784424E+04  0.50400001928E-02 0. -1.
        1   -1    0    0  501    0  0.00000000000E+00  0.00000000000E+00 -0.23912353476E+04  0.23912353476E+04  0.50400001928E-02 0.  1.
    10030    2    1    2    0    0  0.00000000000E+00  0.00000000000E+00 -0.13819569053E+04  0.34005137900E+04  0.31070386460E+04 0.  0.
        3    1    3    3  502    0 -0.86217286356E+03  0.10863506954E+04  0.75079335172E+02  0.13889336906E+04  0.10100000352E+00 0.  1.
       -3    1    3    3    0  502  0.86217286356E+03 -0.10863506954E+04 -0.14570362405E+04  0.20115800994E+04  0.10100000352E+00 0. -1.
</event>
<event>
 5   0  0.4517409E-08  0.3100157E+04  0.7818609E-02  0.8215695E-01
       -1   -1    0    0    0  501  0.00000000000E+00  0.00000000000E+00  0.11870266617E+04  0.11870266617E+04  0.50400001928E-02 0.  1.
        1   -1    0    0  501    0  0.00000000000E+00  0.00000000000E+00 -0.20241698596E+04  0.20241698596E+04  0.50400001928E-02 0. -1.
    10030    2    1    2    0    0  0.00000000000E+00  0.00000000000E+00 -0.83714319787E+03  0.32111965213E+04  0.31001571516E+04 0.  0.
        2    1    3    3  502    0  0.13039676515E+03 -0.15344562467E+04 -0.60148738485E+03  0.16532835097E+04  0.25500000920E-02 0. -1.
       -2    1    3    3    0  502 -0.13039676515E+03  0.15344562467E+04 -0.23565581302E+03  0.15579130116E+04  0.25500000920E-02 0.  1.
</event>
<event>
 5   0  0.4436241E-08  0.3102502E+04  0.7818609E-02  0.8215052E-01
       -1   -1    0    0    0  501  0.00000000000E+00  0.00000000000E+00  0.14264953219E+04  0.14264953219E+04  0.50400001928E-02 0. -1.
        1   -1    0    0  501    0  0.00000000000E+00  0.00000000000E+00 -0.16869168429E+04  0.16869168429E+04  0.50400001928E-02 0.  1.
    10030    2    1    2    0    0  0.00000000000E+00  0.00000000000E+00 -0.26042152100E+03  0.31134121647E+04  0.31025015615E+04 0.  0.
        3    1    3    3  502    0 -0.17065865100E+03 -0.14510766561E+04 -0.65322605046E+03  0.16004537233E+04  0.10100000352E+00 0.  1.
       -3    1    3    3    0  502  0.17065865100E+03  0.14510766561E+04  0.39280452946E+03  0.15129584415E+04  0.10100000352E+00 0. -1.
</event>
<event>
 5   0  0.1325713E-07  0.3098818E+04  0.7818609E-02  0.8216062E-01
       -2   -1    0    0    0  501  0.00000000000E+00  0.00000000000E+00  0.19901934490E+04  0.19901934490E+04  0.25500000920E-02 0.  1.
        2   -1    0    0  501    0  0.00000000000E+00  0.00000000000E+00 -0.12062484678E+04  0.12062484678E+04  0.25500000920E-02 0. -1.
    10030    2    1    2    0    0  0.00000000000E+00  0.00000000000E+00  0.78394498125E+03  0.31964419168E+04  0.30988177090E+04 0.  0.
        4    1    3    3  502    0 -0.15407085573E+03  0.62778720924E+03  0.18444570053E+04  0.19544507837E+04  0.12699999809E+01 0.  1.
       -4    1    3    3    0  502  0.15407085573E+03 -0.62778720924E+03 -0.10605120240E+04  0.12419911331E+04  0.12699999809E+01 0. -1.
</event>
<event>
 5   0  0.1325713E-07  0.3099461E+04  0.7818609E-02  0.8215886E-01
       -2   -1    0    0    0  501  0.00000000000E+00  0.00000000000E+00  0.12134992460E+04  0.12134992460E+04  0.25500000920E-02 0. -1.
        2   -1    0    0  501    0  0.00000000000E+00  0.00000000000E+00 -0.19791234689E+04  0.19791234689E+04  0.25500000920E-02 0.  1.
    10030    2    1    2    0    0  0.00000000000E+00  0.00000000000E+00 -0.76562422287E+03  0.31926227149E+04  0.30994611385E+04 0.  0.
        4    1    3    3  502    0 -0.14914537479E+04  0.41687177397E+03 -0.44328679825E+03  0.16108138181E+04  0.12699999809E+01 0.  1.
       -4    1    3    3    0  502  0.14914537479E+04 -0.41687177397E+03 -0.32233742462E+03  0.15818088969E+04  0.12699999809E+01 0. -1.
</event>
<event>
 5   0  0.1377237E-07  0.3100035E+04  0.7818609E-02  0.8215728E-01
       -2   -1    0    0    0  501  0.00000000000E+00  0.00000000000E+00  0.18780503933E+04  0.18780503933E+04  0.25500000920E-02 0. -1.
        2   -1    0    0  501    0  0.00000000000E+00  0.00000000000E+00 -0.12792810720E+04  0.12792810720E+04  0.25500000920E-02 0.  1.
    10030    2    1    2    0    0  0.00000000000E+00  0.00000000000E+00  0.59876932137E+03  0.31573314653E+04  0.31000350452E+04 0.  0.
        2    1    3    3  502    0  0.47878886302E+03  0.43847040435E+02  0.18001845506E+04  0.18632835947E+04  0.25500000920E-02 0. -1.
       -2    1    3    3    0  502 -0.47878886302E+03 -0.43847040435E+02 -0.12014152292E+04  0.12940478705E+04  0.25500000920E-02 0.  1.
</event>
<event>
 5   0  0.4305500E-08  0.3101080E+04  0.7818609E-02  0.8215442E-01
        3   -1    0    0  501    0  0.00000000000E+00  0.00000000000E+00  0.14167579317E+04  0.14167579353E+04  0.10100000352E+00 0. -1.
       -3   -1    0    0    0  501  0.00000000000E+00  0.00000000000E+00 -0.16969545080E+04  0.16969545110E+04  0.10100000352E+00 0.  1.
    10030    2    1    2    0    0  0.00000000000E+00  0.00000000000E+00 -0.28019657633E+03  0.31137124463E+04  0.31010796631E+04 0.  0.
        1    1    3    3  502    0  0.10382356262E+04  0.11327189499E+02 -0.12963588770E+04  0.16609057344E+04  0.50400001928E-02 0.  1.
       -1    1    3    3    0  502 -0.10382356262E+04 -0.11327189499E+02  0.10161623006E+04  0.14528067119E+04  0.50400001928E-02 0. -1.
</event>
<event>
 5   0  0.4450600E-08  0.3098966E+04  0.7818609E-02  0.8216022E-01
        1   -1    0    0  501    0  0.00000000000E+00  0.00000000000E+00  0.21955540260E+04  0.21955540260E+04  0.50400001928E-02 0. -1.
       -1   -1    0    0    0  501  0.00000000000E+00  0.00000000000E+00 -0.10935272016E+04  0.10935272016E+04  0.50400001928E-02 0.  1.
    10030    2    1    2    0    0  0.00000000000E+00  0.00000000000E+00  0.11020268244E+04  0.32890812276E+04  0.30989663115E+04 0.  0.
        4    1    3    3  502    0 -0.11961150980E+04  0.85618557317E+03  0.34156217342E+02  0.14713644428E+04  0.12699999809E+01 0.  1.
       -4    1    3    3    0  502  0.11961150980E+04 -0.85618557317E+03  0.10678706071E+04  0.18177167848E+04  0.12699999809E+01 0. -1.
</event>
<event>
 5   0  0.4436241E-08  0.3099611E+04  0.7818609E-02  0.8215845E-01
        1   -1    0    0  501    0  0.00000000000E+00  0.00000000000E+00  0.18291399655E+04  0.18291399655E+04  0.50400001928E-02 0. -1.
       -1   -1    0    0    0  501  0.00000000000E+00  0.00000000000E+00 -0.13131294136E+04  0.13131294136E+04  0.50400001928E-02 0.  1.
    10030    2    1    2    0    0  0.00000000000E+00  0.00000000000E+00  0.51601055184E+03  0.31422693791E+04  0.30996112597E+04 0.  0.
        3    1    3    3  502    0 -0.41580972186E+03 -0.67794158558E+03  0.16064979041E+04  0.17925786020E+04  0.10100000352E+00 0. -1.
       -3    1    3    3    0  502  0.41580972186E+03  0.67794158558E+03 -0.10904873523E+04  0.13496907771E+04  0.10100000352E+00 0.  1.
</event>
<event>
 5   0  0.4450600E-08  0.3099930E+04  0.7818609E-02  0.8215757E-01
        1   -1    0    0  501    0  0.00000000000E+00  0.00000000000E+00  0.24927442422E+04  0.24927442422E+04  0.50400001928E-02 0.  1.
       -1   -1    0    0    0  501  0.00000000000E+00  0.00000000000E+00 -0.96375348325E+03  0.96375348327E+03  0.50400001928E-02 0. -1.
    10030    2    1    2    0    0  0.00000000000E+00  0.00000000000E+00  0.15289907589E+04  0.34564977255E+04  0.30999296420E+04 0.  0.
        4    1    3    3  502    0 -0.70688269277E+03 -0.10946490596E+03 -0.76870339734E+03  0.10500343961E+04  0.12699999809E+01 0. -1.
       -4    1    3    3    0  502  0.70688269277E+03  0.10946490596E+03  0.22976941563E+04  0.24064633294E+04  0.12699999809E+01 0.  1.
</event>
<event>
 5   0  0.4450600E-08  0.3099023E+04  0.7818609E-02  0.8216006E-01
        1   -1    0    0  501    0  0.00000000000E+00  0.00000000000E+00  0.18601769678E+04  0.18601769678E+04  0.50400001928E-02 0. -1.
       -1   -1    0    0    0  501  0.00000000000E+00  0.00000000000E+00 -0.12907296217E+04  0.12907296217E+04  0.50400001928E-02 0.  1.
    10030    2    1    2    0    0  0.00000000000E+00  0.00000000000E+00  0.56944734606E+03  0.31509065895E+04  0.30990227582E+04 0.  0.
        4    1    3    3  502    0  0.63481657560E+03  0.11247359560E+04  0.11551883466E+04  0.17327679545E+04  0.12699999809E+01 0. -1.
       -4    1    3    3    0  502 -0.63481657560E+03 -0.11247359560E+04 -0.58574100051E+03  0.14181386350E+04  0.12699999809E+01 0.  1.
</event>
<event>
 5   0  0.1329777E-07  0.3098062E+04  0.7818609E-02  0.8216270E-01
        2   -1    0    0  501    0  0.00000000000E+00  0.00000000000E+00  0.20212462832E+04  0.20212462832E+04  0.25500000920E-02 0. -1.
       -2   -1    0    0    0  501  0.00000000000E+00  0.00000000000E+00 -0.11871371471E+04  0.11871371471E+04  0.25500000920E-02 0.  1.
    10030    2    1    2    0    0  0.00000000000E+00  0.00000000000E+00  0.83410913612E+03  0.32083834303E+04  0.30980616819E+04 0.  0.
        1    1    3    3  502    0 -0.73038702099E+03  0.12355602508E+04 -0.18629128828E+03  0.14473350607E+04  0.50400001928E-02 0.  1.
       -1    1    3    3    0  502  0.73038702099E+03 -0.12355602508E+04  0.10204004244E+04  0.17610483696E+04  0.50400001928E-02 0. -1.
</event>
<event>
 5   0  0.1377237E-07  0.3089554E+04  0.7818609E-02  0.8218610E-01
        2   -1    0    0  501    0  0.00000000000E+00  0.00000000000E+00  0.20161178777E+04  0.20161178777E+04  0.25500000920E-02 0. -1.
       -2   -1    0    0    0  501  0.00000000000E+00  0.00000000000E+00 -0.11836294653E+04  0.11836294653E+04  0.25500000920E-02 0.  1.
    10030    2    1    2    0    0  0.00000000000E+00  0.00000000000E+00  0.83248841240E+03  0.31997473430E+04  0.30895543534E+04 0.  0.
        2    1    3    3  502    0 -0.67985421588E+03  0.32982122218E+03  0.18116494757E+04  0.19629206852E+04  0.25500000920E-02 0. -1.
       -2    1    3    3    0  502  0.67985421588E+03 -0.32982122218E+03 -0.97916106335E+03  0.12368266578E+04  0.25500000920E-02 0.  1.
</event>
<event>
 5   0  0.1398931E-07  0.3089189E+04  0.7818609E-02  0.8218711E-01
       -2   -1    0    0    0  501  0.00000000000E+00  0.00000000000E+00  0.13476279999E+04  0.13476279999E+04  0.25500000920E-02 0. -1.
        2   -1    0    0  501    0  0.00000000000E+00  0.00000000000E+00 -0.17703487984E+04  0.17703487984E+04  0.25500000920E-02 0.  1.
    10030    2    1    2    0    0  0.00000000000E+00  0.00000000000E+00 -0.42272079850E+03  0.31179767983E+04  0.30891886380E+04 0.  0.
        3    1    3    3  502    0 -0.55870900794E+02 -0.15410846321E+04 -0.12274587428E+03  0.15469744538E+04  0.10100000352E+00 0.  1.
       -3    1    3    3    0  502  0.55870900794E+02  0.15410846321E+04 -0.29997492422E+03  0.15710023444E+04  0.10100000352E+00 0. -1.
</event>
<event>
 5   0  0.1318916E-07  0.3099679E+04  0.7818609E-02  0.8215826E-01
       -2   -1    0    0    0  501  0.00000000000E+00  0.00000000000E+00  0.14162632593E+04  0.14162632593E+04  0.25500000920E-02 0. -1.
        2   -1    0    0  501    0  0.00000000000E+00  0.00000000000E+00 -0.16960145166E+04  0.16960145166E+04  0.25500000920E-02 0.  1.
    10030    2    1    2    0    0  0.00000000000E+00  0.00000000000E+00 -0.27975125731E+03  0.31122777760E+04  0.30996793687E+04 0.  0.
        5    1    3    3  502    0  0.79670234901E+03  0.69423904777E+03  0.99843343792E+03  0.14538204526E+04  0.46999998093E+01 0. -1.
       -5    1    3    3    0  502 -0.79670234901E+03 -0.69423904777E+03 -0.12781846952E+04  0.16584573234E+04  0.46999998093E+01 0.  1.
</event>
<event>
 5   0  0.4838602E-08  0.3095011E+04  0.7818609E-02  0.8217108E-01
       -1   -1    0    0    0  501  0.00000000000E+00  0.00000000000E+00  0.10068343108E+04  0.10068343108E+04  0.50400001928E-02 0. -1.
        1   -1    0    0  501    0  0.00000000000E+00  0.00000000000E+00 -0.23785182369E+04  0.23785182369E+04  0.50400001928E-02 0.  1.
    10030    2    1    2    0    0  0.00000000000E+00  0.00000000000E+00 -0.13716839261E+04  0.33853525477E+04  0.30950113213E+04 0.  0.
        5    1    3    3  502    0  0.87228460835E+02  0.68316522610E+03 -0.22016377374E+04  0.23068494419E+04  0.46999998093E+01 0.  1.
       -5    1    3    3    0  502 -0.87228460835E+02 -0.68316522610E+03  0.82995381129E+03  0.10785031059E+04  0.46999998093E+01 0. -1.
</event>
<event>
 5   0  0.4517409E-08  0.3093129E+04  0.7818609E-02  0.8217626E-01
        1   -1    0    0  501    0  0.00000000000E+00  0.00000000000E+00  0.22925602135E+04  0.22925602135E+04  0.50400001928E-02 0. -1.
       -1   -1    0    0    0  501  0.00000000000E+00  0.00000000000E+00 -0.10433144504E+04  0.10433144504E+04  0.50400001928E-02 0.  1.
    10030    2    1    2    0    0  0.00000000000E+00  0.00000000000E+00  0.12492457632E+04  0.33358746639E+04  0.30931286421E+04 0.  0.
        2    1    3    3  502    0  0.67485914115E+03  0.32785224751E+03 -0.83389373586E+03  0.11217400409E+04  0.25500000920E-02 0.  1.
       -2    1    3    3    0  502 -0.67485914115E+03 -0.32785224751E+03  0.20831394990E+04  0.22141346231E+04  0.25500000920E-02 0. -1.
</event>
<event>
 5   0  0.4838602E-08  0.3100377E+04  0.7818609E-02  0.8215635E-01
        1   -1    0    0  501    0  0.00000000000E+00  0.00000000000E+00  0.17863229096E+04  0.17863229096E+04  0.50400001928E-02 0. -1.
       -1   -1    0    0    0  501  0.00000000000E+00  0.00000000000E+00 -0.13452684006E+04  0.13452684006E+04  0.50400001928E-02 0.  1.
    10030    2    1    2    0    0  0.00000000000E+00  0.00000000000E+00  0.44105450899E+03  0.31315913103E+04  0.31003765989E+04 0.  0.
        5    1    3    3  502    0 -0.56744063122E+03 -0.10333627816E+04  0.12372570286E+04  0.17089922625E+04  0.46999998093E+01 0. -1.
       -5    1    3    3    0  502  0.56744063122E+03  0.10333627816E+04 -0.79620251964E+03  0.14225990478E+04  0.46999998093E+01 0.  1.
</event>
<event>
 5   0  0.1377237E-07  0.3100190E+04  0.7818609E-02  0.8215686E-01
       -2   -1    0    0    0  501  0.00000000000E+00  0.00000000000E+00  0.14340359373E+04  0.14340359373E+04  0.25500000920E-02 0. -1.
        2   -1    0    0  501    0  0.00000000000E+00  0.00000000000E+00 -0.16755471805E+04  0.16755471805E+04  0.25500000920E-02 0.  1.
    10030    2    1    2    0    0  0.00000000000E+00  0.00000000000E+00 -0.24151124326E+03  0.31095831178E+04  0.31001902338E+04 0.  0.
        2    1    3    3  502    0  0.59681149210E+03 -0.23576323173E+03 -0.15360681742E+04  0.16647142981E+04  0.25500000920E-02 0.  1.
       -2    1    3    3    0  502 -0.59681149210E+03  0.23576323173E+03  0.12945569310E+04  0.14448688197E+04  0.25500000920E-02 0. -1.
</event>
<event>
 5   0  0.1329777E-07  0.3100245E+04  0.7818609E-02  0.8215671E-01
        2   -1    0    0  501    0  0.00000000000E+00  0.00000000000E+00  0.24721835870E+04  0.24721835870E+04  0.25500000920E-02 0.  1.
       -2   -1    0    0    0  501  0.00000000000E+00  0.00000000000E+00 -0.97196653024E+03  0.97196653024E+03  0.25500000920E-02 0. -1.
    10030    2    1    2    0    0  0.00000000000E+00  0.00000000000E+00  0.15002170568E+04  0.34441501173E+04  0.31002449601E+04 0.  0.
        1    1    3    3  502    0 -0.12694092153E+04 -0.83255118212E+03  0.10984841849E+04  0.18738219583E+04  0.50400001928E-02 0.  1.
       -1    1    3    3    0  502  0.12694092153E+04  0.83255118212E+03  0.40173287186E+03  0.15703281590E+04  0.50400001928E-02 0. -1.
</event>
<event>
 5   0  0.1329777E-07  0.3101115E+04  0.7818609E-02  0.8215432E-01
       -2   -1    0    0    0  501  0.00000000000E+00  0.00000000000E+00  0.99900792112E+03  0.99900792112E+03  0.25500000920E-02 0. -1.
        2   -1    0    0  501    0  0.00000000000E+00  0.00000000000E+00 -0.24066157305E+04  0.24066157305E+04  0.25500000920E-02 0.  1.
    10030    2    1    2    0    0  0.00000000000E+00  0.00000000000E+00 -0.14076078094E+04  0.34056236517E+04  0.31011147531E+04 0.  0.
        1    1    3    3  502    0 -0.12073905931E+03  0.14809599454E+04 -0.11905004793E+04  0.19039726026E+04  0.50400001928E-02 0.  1.
       -1    1    3    3    0  502  0.12073905931E+03 -0.14809599454E+04 -0.21710733008E+03  0.15016510490E+04  0.50400001928E-02 0. -1.
</event>
<event>
 5   0  0.1398931E-07  0.3099872E+04  0.7818609E-02  0.8215773E-01
        2   -1    0    0  501    0  0.00000000000E+00  0.00000000000E+00  0.22297370297E+04  0.22297370297E+04  0.25500000920E-02 0. -1.
       -2   -1    0    0    0  501  0.00000000000E+00  0.00000000000E+00 -0.10773920746E+04  0.10773920746E+04  0.25500000920E-02 0.  1.
    10030    2    1    2    0    0  0.00000000000E+00  0.00000000000E+00  0.11523449551E+04  0.33071291043E+04  0.30998716129E+04 0.  0.
        3    1    3    3  502    0  0.46306065842E+02 -0.13461715246E+04  0.13942384683E+04  0.19386136650E+04  0.10100000352E+00 0. -1.
       -3    1    3    3    0  502 -0.46306065842E+02  0.13461715246E+04 -0.24189351317E+03  0.13685154392E+04  0.10100000352E+00 0.  1.
</event>
<event>
 5   0  0.4450600E-08  0.3101700E+04  0.7818609E-02  0.8215272E-01
        1   -1    0    0  501    0  0.00000000000E+00  0.00000000000E+00  0.18647135565E+04  0.18647135565E+04  0.50400001928E-02 0. -1.
       -1   -1    0    0    0  501  0.00000000000E+00  0.00000000000E+00 -0.12898151169E+04  0.12898151169E+04  0.50400001928E-02 0.  1.
    10030    2    1    2    0    0  0.00000000000E+00  0.00000000000E+00  0.57489843963E+03  0.31545286734E+04  0.31017000073E+04 0.  0.
        4    1    3    3  502    0  0.11863286987E+04  0.96773470254E+03  0.53914749328E+03  0.16231351972E+04  0.12699999809E+01 0. -1.
       -4    1    3    3    0  502 -0.11863286987E+04 -0.96773470254E+03  0.35750946353E+02  0.15313934762E+04  0.12699999809E+01 0.  1.
</event>
<event>
 5   0  0.1398931E-07  0.3100837E+04  0.7818609E-02  0.8215508E-01
       -2   -1    0    0    0  501  0.00000000000E+00  0.00000000000E+00  0.12448784406E+04  0.12448784406E+04  0.25500000920E-02 0. -1.
        2   -1    0    0  501    0  0.00000000000E+00  0.00000000000E+00 -0.19309492538E+04  0.19309492538E+04  0.25500000920E-02 0.  1.
    10030    2    1    2    0    0  0.00000000000E+00  0.00000000000E+00 -0.68607081318E+03  0.31758276945E+04  0.31008367233E+04 0.  0.
        3    1    3    3  502    0  0.77242595353E+03 -0.11711664746E+04  0.33286738326E+03  0.14418992579E+04  0.10100000352E+00 0. -1.
       -3    1    3    3    0  502 -0.77242595353E+03  0.11711664746E+04 -0.10189381964E+04  0.17339284366E+04  0.10100000352E+00 0.  1.
</event>
<event>
 5   0  0.4517409E-08  0.3099504E+04  0.7818609E-02  0.8215874E-01
       -1   -1    0    0    0  501  0.00000000000E+00  0.00000000000E+00  0.13205501401E+04  0.13205501401E+04  0.50400001928E-02 0. -1.
        1   -1    0    0  501    0  0.00000000000E+00  0.00000000000E+00 -0.18187358593E+04  0.18187358593E+04  0.50400001928E-02 0.  1.
    10030    2    1    2    0    0  0.00000000000E+00  0.00000000000E+00 -0.49818571919E+03  0.31392859994E+04  0.30995044080E+04 0.  0.
        2    1    3    3  502    0  0.13889604463E+04 -0.50477671268E+03 -0.72168775584E+03  0.16446409541E+04  0.25500000920E-02 0.  1.
       -2    1    3    3    0  502 -0.13889604463E+04  0.50477671268E+03  0.22350203665E+03  0.14946450453E+04  0.25500000920E-02 0. -1.
</event>
<event>
 5   0  0.4517409E-08  0.3090113E+04  0.7818609E-02  0.8218457E-01
        1   -1    0    0  501    0  0.00000000000E+00  0.00000000000E+00  0.18821573128E+04  0.18821573128E+04  0.50400001928E-02 0. -1.
       -1   -1    0    0    0  501  0.00000000000E+00  0.00000000000E+00 -0.12683315510E+04  0.12683315511E+04  0.50400001928E-02 0.  1.
    10030    2    1    2    0    0  0.00000000000E+00  0.00000000000E+00  0.61382576179E+03  0.31504888639E+04  0.30901129455E+04 0.  0.
        2    1    3    3  502    0 -0.27972716647E+03  0.15125345604E+04  0.15849588919E+03  0.15463275949E+04  0.25500000920E-02 0.  1.
       -2    1    3    3    0  502  0.27972716647E+03 -0.15125345604E+04  0.45532987260E+03  0.16041612690E+04  0.25500000920E-02 0. -1.
</event>
<event>
 5   0  0.1398931E-07  0.3096460E+04  0.7818609E-02  0.8216710E-01
       -2   -1    0    0    0  501  0.00000000000E+00  0.00000000000E+00  0.20978668086E+04  0.20978668086E+04  0.25500000920E-02 0.  1.
        2   -1    0    0  501    0  0.00000000000E+00  0.00000000000E+00 -0.11425966751E+04  0.11425966751E+04  0.25500000920E-02 0. -1.
    10030    2    1    2    0    0  0.00000000000E+00  0.00000000000E+00  0.95527013352E+03  0.32404634838E+04  0.30964596819E+04 0.  0.
        3    1    3    3  502    0 -0.10918402910E+04 -0.15995765680E+02 -0.67097114688E+03  0.12816291881E+04  0.10100000352E+00 0. -1.
       -3    1    3    3    0  502  0.10918402910E+04  0.15995765680E+02  0.16262412804E+04  0.19588342957E+04  0.10100000352E+00 0.  1.
</event>
<event>
 5   0  0.4517409E-08  0.3100095E+04  0.7818609E-02  0.8215712E-01
       -1   -1    0    0    0  501  0.00000000000E+00  0.00000000000E+00  0.10058897746E+04  0.10058897746E+04  0.50400001928E-02 0. -1.
        1   -1    0    0  501    0  0.00000000000E+00  0.00000000000E+00 -0.23885786832E+04  0.23885786832E+04  0.50400001928E-02 0.  1.
    10030    2    1    2    0    0  0.00000000000E+00  0.00000000000E+00 -0.13826889085E+04  0.33944684578E+04  0.31000947555E+04 0.  0.
        2    1    3    3  502    0 -0.10469391274E+04 -0.71526506278E+03  0.28492518281E+03  0.12995645449E+04  0.25500000920E-02 0. -1.
       -2    1    3    3    0  502  0.10469391274E+04  0.71526506278E+03 -0.16676140914E+04  0.20949039129E+04  0.25500000920E-02 0.  1.
</event>
<event>
 5   0  0.4517409E-08  0.3099889E+04  0.7818609E-02  0.8215768E-01
        1   -1    0    0  501    0  0.00000000000E+00  0.00000000000E+00  0.18413938366E+04  0.18413938366E+04  0.50400001928E-02 0.  1.
       -1   -1    0    0    0  501  0.00000000000E+00  0.00000000000E+00 -0.13046248884E+04  0.13046248884E+04  0.50400001928E-02 0. -1.
    10030    2    1    2    0    0  0.00000000000E+00  0.00000000000E+00  0.53676894823E+03  0.31460187250E+04  0.30998891777E+04 0.  0.
        2    1    3    3  502    0 -0.57674354816E+03  0.12465135823E+04  0.99733403250E+03  0.16973816317E+04  0.25500000920E-02 0.  1.
       -2    1    3    3    0  502  0.57674354816E+03 -0.12465135823E+04 -0.46056508427E+03  0.14486370933E+04  0.25500000920E-02 0. -1.
</event>
<event>
 5   0  0.4838602E-08  0.3099836E+04  0.7818609E-02  0.8215783E-01
        1   -1    0    0  501    0  0.00000000000E+00  0.00000000000E+00  0.85080672819E+03  0.85080672820E+03  0.50400001928E-02 0. -1.
       -1   -1    0    0    0  501  0.00000000000E+00  0.00000000000E+00 -0.28234921447E+04  0.28234921447E+04  0.50400001928E-02 0.  1.
    10030    2    1    2    0    0  0.00000000000E+00  0.00000000000E+00 -0.19726854165E+04  0.36742988729E+04  0.30998361981E+04 0.  0.
        5    1    3    3  502    0  0.39911459663E+03  0.10005391388E+04 -0.23072454102E+04  0.25463256866E+04  0.46999998093E+01 0.  1.
       -5    1    3    3    0  502 -0.39911459663E+03 -0.10005391388E+04  0.33455999370E+03  0.11279731863E+04  0.46999998093E+01 0. -1.
</event>
<event>
 5   0  0.1377237E-07  0.3100548E+04  0.7818609E-02  0.8215587E-01
        2   -1    0    0  501    0  0.00000000000E+00  0.00000000000E+00  0.16303544433E+04  0.16303544433E+04  0.25500000920E-02 0.  1.
       -2   -1    0    0    0  501  0.00000000000E+00  0.00000000000E+00 -0.14741271605E+04  0.14741271605E+04  0.25500000920E-02 0. -1.
    10030    2    1    2    0    0  0.00000000000E+00  0.00000000000E+00  0.15622728281E+03  0.31044816039E+04  0.31005481878E+04 0.  0.
        2    1    3    3  502    0 -0.97886758522E+02  0.67265972002E+03  0.14731855064E+04  0.16224452079E+04  0.25500000920E-02 0.  1.
       -2    1    3    3    0  502  0.97886758522E+02 -0.67265972002E+03 -0.13169582235E+04  0.14820363960E+04  0.25500000920E-02 0. -1.
</event>
<event>
 5   0  0.1377237E-07  0.3100725E+04  0.7818609E-02  0.8215539E-01
        2   -1    0    0  501    0  0.00000000000E+00  0.00000000000E+00  0.16781795830E+04  0.16781795830E+04  0.25500000920E-02 0. -1.
       -2   -1    0    0    0  501  0.00000000000E+00  0.00000000000E+00 -0.14322803299E+04  0.14322803299E+04  0.25500000920E-02 0.  1.
    10030    2    1    2    0    0  0.00000000000E+00  0.00000000000E+00  0.24589925302E+03  0.31104599129E+04  0.31007248229E+04 0.  0.
        2    1    3    3  502    0 -0.99650759250E+03 -0.10618937256E+04 -0.41067722331E+03  0.15130437694E+04  0.25500000920E-02 0.  1.
       -2    1    3    3    0  502  0.99650759250E+03  0.10618937256E+04  0.65657647633E+03  0.15974161435E+04  0.25500000920E-02 0. -1.
</event>
<event>
 5   0  0.4436241E-08  0.3098889E+04  0.7818609E-02  0.8216043E-01
        1   -1    0    0  501    0  0.00000000000E+00  0.00000000000E+00  0.13574692682E+04  0.13574692682E+04  0.50400001928E-02 0. -1.
       -1   -1    0    0    0  501  0.00000000000E+00  0.00000000000E+00 -0.17685687939E+04  0.17685687940E+04  0.50400001928E-02 0.  1.
    10030    2    1    2    0    0  0.00000000000E+00  0.00000000000E+00 -0.41109952578E+03  0.31260380621E+04  0.30988886953E+04 0.  0.
        3    1    3    3  502    0  0.85155285965E+03 -0.12383683765E+04  0.17468659279E+03  0.15130148461E+04  0.10100000352E+00 0.  1.
       -3    1    3    3    0  502 -0.85155285965E+03  0.12383683765E+04 -0.58578611856E+03  0.16130232160E+04  0.10100000352E+00 0. -1.
</event>
<event>
 5   0  0.1325713E-07  0.3101064E+04  0.7818609E-02  0.8215446E-01
        2   -1    0    0  501    0  0.00000000000E+00  0.00000000000E+00  0.17707348967E+04  0.17707348967E+04  0.25500000920E-02 0. -1.
       -2   -1    0    0    0  501  0.00000000000E+00  0.00000000000E+00 -0.13577129407E+04  0.13577129407E+04  0.25500000920E-02 0.  1.
    10030    2    1    2    0    0  0.00000000000E+00  0.00000000000E+00  0.41302195599E+03  0.31284478375E+04  0.31010641296E+04 0.  0.
        4    1    3    3  502    0 -0.46847172951E+03  0.46681694239E+03  0.16213086079E+04  0.17510074340E+04  0.12699999809E+01 0. -1.
       -4    1    3    3    0  502  0.46847172951E+03 -0.46681694239E+03 -0.12082866519E+04  0.13774404035E+04  0.12699999809E+01 0.  1.
</event>
<event>
 5   0  0.4470354E-08  0.3103355E+04  0.7818609E-02  0.8214818E-01
       -1   -1    0    0    0  501  0.00000000000E+00  0.00000000000E+00  0.16880985581E+04  0.16880985581E+04  0.50400001928E-02 0.  1.
        1   -1    0    0  501    0  0.00000000000E+00  0.00000000000E+00 -0.14262810962E+04  0.14262810962E+04  0.50400001928E-02 0. -1.
    10030    2    1    2    0    0  0.00000000000E+00  0.00000000000E+00  0.26181746186E+03  0.31143796543E+04  0.31033549987E+04 0.  0.
        1    1    3    3  502    0 -0.93908534911E+03  0.44622024226E+03 -0.10250117966E+04  0.14600147193E+04  0.50400001928E-02 0. -1.
       -1    1    3    3    0  502  0.93908534911E+03 -0.44622024226E+03  0.12868292585E+04  0.16543649349E+04  0.50400001928E-02 0.  1.
</event>
<event>
 5   0  0.1377237E-07  0.3099076E+04  0.7818609E-02  0.8215992E-01
        2   -1    0    0  501    0  0.00000000000E+00  0.00000000000E+00  0.23057495021E+04  0.23057495021E+04  0.25500000920E-02 0. -1.
       -2   -1    0    0    0  501  0.00000000000E+00  0.00000000000E+00 -0.10413394989E+04  0.10413394989E+04  0.25500000920E-02 0.  1.
    10030    2    1    2    0    0  0.00000000000E+00  0.00000000000E+00  0.12644100033E+04  0.33470890010E+04  0.30990760114E+04 0.  0.
        2    1    3    3  502    0  0.33441872180E+03 -0.57079481691E+02  0.22651467157E+04  0.22904112278E+04  0.25500000920E-02 0. -1.
       -2    1    3    3    0  502 -0.33441872180E+03  0.57079481691E+02 -0.10007367125E+04  0.10566777732E+04  0.25500000920E-02 0.  1.
</event>
<event>
 5   0  0.4436241E-08  0.3100245E+04  0.7818609E-02  0.8215671E-01
       -1   -1    0    0    0  501  0.00000000000E+00  0.00000000000E+00  0.11289515061E+04  0.11289515061E+04  0.50400001928E-02 0.  1.
        1   -1    0    0  501    0  0.00000000000E+00  0.00000000000E+00 -0.21284172979E+04  0.21284172979E+04  0.50400001928E-02 0. -1.
    10030    2    1    2    0    0  0.00000000000E+00  0.00000000000E+00 -0.99946579176E+03  0.32573688040E+04  0.31002450961E+04 0.  0.
        3    1    3    3  502    0  0.79779090865E+03  0.11410075388E+04  0.21635952358E+03  0.14089641554E+04  0.10100000352E+00 0.  1.
       -3    1    3    3    0  502 -0.79779090865E+03 -0.11410075388E+04 -0.12158253153E+04  0.18484046486E+04  0.10100000352E+00 0. -1.
</event>
<event>
 5   0  0.1329777E-07  0.3101079E+04  0.7818609E-02  0.8215442E-01
        2   -1    0    0  501    0  0.00000000000E+00  0.00000000000E+00  0.24183747817E+04  0.24183747817E+04  0.25500000920E-02 0.  1.
       -2   -1    0    0    0  501  0.00000000000E+00  0.00000000000E+00 -0.99412759784E+03  0.99412759785E+03  0.25500000920E-02 0. -1.
    10030    2    1    2    0    0  0.00000000000E+00  0.00000000000E+00  0.14242471839E+04  0.34125023796E+04  0.31010792395E+04 0.  0.
        1    1    3    3  502    0  0.13227328508E+04 -0.52536359544E+03  0.35077417030E+02  0.14236781684E+04  0.50400001928E-02 0. -1.
       -1    1    3    3    0  502 -0.13227328508E+04  0.52536359544E+03  0.13891697669E+04  0.19888242112E+04  0.50400001928E-02 0.  1.
</event>
<event>
 5   0  0.4517409E-08  0.3099445E+04  0.7818609E-02  0.8215890E-01
       -1   -1    0    0    0  501  0.00000000000E+00  0.00000000000E+00  0.10991055256E+04  0.10991055256E+04  0.50400001928E-02 0. -1.
        1   -1    0    0  501    0  0.00000000000E+00  0.00000000000E+00 -0.21850863870E+04  0.21850863870E+04  0.50400001928E-02 0.  1.
    10030    2    1    2    0    0  0.00000000000E+00  0.00000000000E+00 -0.10859808614E+04  0.32841919126E+04  0.30994454484E+04 0.  0.
        2    1    3    3  502    0  0.12706387168E+04  0.84605241992E+03 -0.26002778016E+03  0.15485289446E+04  0.25500000920E-02 0. -1.
       -2    1    3    3    0  502 -0.12706387168E+04 -0.84605241992E+03 -0.82595308125E+03  0.17356629680E+04  0.25500000920E-02 0.  1.
</event>
<event>
 5   0  0.4470354E-08  0.3100642E+04  0.7818609E-02  0.8215562E-01
        1   -1    0    0  501    0  0.00000000000E+00  0.00000000000E+00  0.12154810531E+04  0.12154810531E+04  0.50400001928E-02 0.  1.
       -1   -1    0    0    0  501  0.00000000000E+00  0.00000000000E+00 -0.19774019551E+04  0.19774019551E+04  0.50400001928E-02 0. -1.
    10030    2    1    2    0    0  0.00000000000E+00  0.00000000000E+00 -0.76192090200E+03  0.31928830082E+04  0.31006416179E+04 0.  0.
        1    1    3    3  502    0  0.52426599273E+03 -0.13462278422E+04  0.19818567163E+03  0.14582392790E+04  0.50400001928E-02 0.  1.
       -1    1    3    3    0  502 -0.52426599273E+03  0.13462278422E+04 -0.96010657363E+03  0.17346437292E+04  0.50400001928E-02 0. -1.
</event>
<event>
 5   0  0.4450600E-08  0.3109029E+04  0.7818609E-02  0.8213264E-01
       -1   -1    0    0    0  501  0.00000000000E+00  0.00000000000E+00  0.14711966879E+04  0.14711966879E+04  0.50400001928E-02 0.  1.
        1   -1    0    0  501    0  0.00000000000E+00  0.00000000000E+00 -0.16425508240E+04  0.16425508240E+04  0.50400001928E-02 0. -1.
    10030    2    1    2    0    0  0.00000000000E+00  0.00000000000E+00 -0.17135413609E+03  0.31137475119E+04  0.31090290009E+04 0.  0.
        4    1    3    3  502    0  0.24559725725E+03  0.36436245100E+02 -0.16225639874E+04  0.16414509188E+04  0.12699999809E+01 0. -1.
       -4    1    3    3    0  502 -0.24559725725E+03 -0.36436245100E+02  0.14512098513E+04  0.14722965931E+04  0.12699999809E+01 0.  1.
</event>
<event>
 5   0  0.4450600E-08  0.3099931E+04  0.7818609E-02  0.8215757E-01
       -1   -1    0    0    0  501  0.00000000000E+00  0.00000000000E+00  0.33814680381E+04  0.33814680381E+04  0.50400001928E-02 0.  1.
        1   -1    0    0  501    0  0.00000000000E+00  0.00000000000E+00 -0.71045869648E+03  0.71045869650E+03  0.50400001928E-02 0. -1.
    10030    2    1    2    0    0  0.00000000000E+00  0.00000000000E+00  0.26710093416E+04  0.40919267346E+04  0.30999312087E+04 0.  0.
        4    1    3    3  502    0 -0.76995555677E+03  0.27875323883E+03  0.30726325350E+04  0.31798753491E+04  0.12699999809E+01 0.  1.
       -4    1    3    3    0  502  0.76995555677E+03 -0.27875323883E+03 -0.40162319336E+03  0.91205138556E+03  0.12699999809E+01 0. -1.
</event>
<event>
 5   0  0.1377237E-07  0.3100869E+04  0.7818609E-02  0.8215499E-01
        2   -1    0    0  501    0  0.00000000000E+00  0.00000000000E+00  0.24200544543E+04  0.24200544543E+04  0.25500000920E-02 0.  1.
       -2   -1    0    0    0  501  0.00000000000E+00  0.00000000000E+00 -0.99330304076E+03  0.99330304076E+03  0.25500000920E-02 0. -1.
    10030    2    1    2    0    0  0.00000000000E+00  0.00000000000E+00  0.14267514135E+04  0.34133574950E+04  0.31008691996E+04 0.  0.
        2    1    3    3  502    0 -0.13006466356E+02  0.13634148336E+04 -0.99095946562E+02  0.13670732179E+04  0.25500000920E-02 0. -1.
       -2    1    3    3    0  502  0.13006466356E+02 -0.13634148336E+04  0.15258473601E+04  0.20462842771E+04  0.25500000920E-02 0.  1.
</event>
<event>
 5   0  0.1377237E-07  0.3098013E+04  0.7818609E-02  0.8216284E-01
       -2   -1    0    0    0  501  0.00000000000E+00  0.00000000000E+00  0.12115690414E+04  0.12115690414E+04  0.25500000920E-02 0. -1.
        2   -1    0    0  501    0  0.00000000000E+00  0.00000000000E+00 -0.19804240277E+04  0.19804240277E+04  0.25500000920E-02 0.  1.
    10030    2    1    2    0    0  0.00000000000E+00  0.00000000000E+00 -0.76885498638E+03  0.31919930691E+04  0.30980125505E+04 0.  0.
        2    1    3    3  502    0  0.85704915042E+02 -0.66852543684E+03 -0.18214222618E+04  0.19421252915E+04  0.25500000920E-02 0.  1.
       -2    1    3    3    0  502 -0.85704915042E+02  0.66852543684E+03  0.10525672754E+04  0.12498677776E+04  0.25500000920E-02 0. -1.
</event>
<event>
 5   0  0.1325713E-07  0.3097950E+04  0.7818609E-02  0.8216301E-01
        2   -1    0    0  501    0  0.00000000000E+00  0.00000000000E+00  0.11640990458E+04  0.11640990458E+04  0.25500000920E-02 0.  1.
       -2   -1    0    0    0  501  0.00000000000E+00  0.00000000000E+00 -0.20610996267E+04  0.20610996267E+04  0.25500000920E-02 0. -1.
    10030    2    1    2    0    0  0.00000000000E+00  0.00000000000E+00 -0.89700058090E+03  0.32251986725E+04  0.30979503603E+04 0.  0.
        4    1    3    3  502    0 -0.22364604223E+03  0.55756559725E+03  0.10378783120E+04  0.11992038821E+04  0.12699999809E+01 0.  1.
       -4    1    3    3    0  502  0.22364604223E+03 -0.55756559725E+03 -0.19348788929E+04  0.20259947904E+04  0.12699999809E+01 0. -1.
</event>
<event>
 5   0  0.1318916E-07  0.3100959E+04  0.7818609E-02  0.8215475E-01
       -2   -1    0    0    0  501  0.00000000000E+00  0.00000000000E+00  0.16259430739E+04  0.16259430739E+04  0.25500000920E-02 0.  1.
        2   -1    0    0  501    0  0.00000000000E+00  0.00000000000E+00 -0.14785187751E+04  0.14785187751E+04  0.25500000920E-02 0. -1.
    10030    2    1    2    0    0  0.00000000000E+00  0.00000000000E+00  0.14742429877E+03  0.31044618490E+04  0.31009594400E+04 0.  0.
        5    1    3    3  502    0 -0.48898701170E+03  0.55556937278E+03  0.14376751328E+04  0.16170026293E+04  0.46999998093E+01 0.  1.
       -5    1    3    3    0  502  0.48898701170E+03 -0.55556937278E+03 -0.12902508341E+04  0.14874592197E+04  0.46999998093E+01 0. -1.
</event>
<event>
 5   0  0.1377237E-07  0.3100903E+04  0.7818609E-02  0.8215490E-01
        2   -1    0    0  501    0  0.00000000000E+00  0.00000000000E+00  0.19132041003E+04  0.19132041003E+04  0.25500000920E-02 0.  1.
       -2   -1    0    0    0  501  0.00000000000E+00  0.00000000000E+00 -0.12564787169E+04  0.12564787169E+04  0.25500000920E-02 0. -1.
    10030    2    1    2    0    0  0.00000000000E+00  0.00000000000E+00  0.65672538338E+03  0.31696828171E+04  0.31009032446E+04 0.  0.
        2    1    3    3  502    0  0.33680577773E+03 -0.15049780885E+04  0.49160160167E+03  0.16186628166E+04  0.25500000920E-02 0. -1.
       -2    1    3    3    0  502 -0.33680577773E+03  0.15049780885E+04  0.16512378171E+03  0.15510200006E+04  0.25500000920E-02 0.  1.
</event>
<event>
 5   0  0.1329777E-07  0.3108167E+04  0.7818609E-02  0.8213500E-01
       -2   -1    0    0    0  501  0.00000000000E+00  0.00000000000E+00  0.10328446973E+04  0.10328446973E+04  0.25500000920E-02 0.  1.
        2   -1    0    0  501    0  0.00000000000E+00  0.00000000000E+00 -0.23383727850E+04  0.23383727850E+04  0.25500000920E-02 0. -1.
    10030    2    1    2    0    0  0.00000000000E+00  0.00000000000E+00 -0.13055280877E+04  0.33712174823E+04  0.31081672615E+04 0.  0.
        1    1    3    3  502    0 -0.61115697213E+03 -0.10836091839E+04 -0.16629601068E+04  0.20768143935E+04  0.50400001928E-02 0. -1.
       -1    1    3    3    0  502  0.61115697213E+03  0.10836091839E+04  0.35743201920E+03  0.12944030888E+04  0.50400001928E-02 0.  1.
</event>
<event>
 5   0  0.1325713E-07  0.3099738E+04  0.7818609E-02  0.8215810E-01
       -2   -1    0    0    0  501  0.00000000000E+00  0.00000000000E+00  0.99757192329E+03  0.99757192329E+03  0.25500000920E-02 0. -1.
        2   -1    0    0  501    0  0.00000000000E+00  0.00000000000E+00 -0.24079410298E+04  0.24079410298E+04  0.25500000920E-02 0.  1.
    10030    2    1    2    0    0  0.00000000000E+00  0.00000000000E+00 -0.14103691065E+04  0.34055129531E+04  0.30997382885E+04 0.  0.
        4    1    3    3  502    0  0.13778565365E+04 -0.47552391060E+02  0.72717534731E+02  0.13805938279E+04  0.12699999809E+01 0. -1.
       -4    1    3    3    0  502 -0.13778565365E+04  0.47552391060E+02 -0.14830866412E+04  0.20249191251E+04  0.12699999809E+01 0.  1.
</event>
<event>
 5   0  0.1325713E-07  0.3100296E+04  0.7818609E-02  0.8215657E-01
       -2   -1    0    0    0  501  0.00000000000E+00  0.00000000000E+00  0.10063653770E+04  0.10063653770E+04  0.25500000920E-02 0. -1.
        2   -1    0    0  501    0  0.00000000000E+00  0.00000000000E+00 -0.23877593095E+04  0.23877593095E+04  0.25500000920E-02 0.  1.
    10030    2    1    2    0    0  0.00000000000E+00  0.00000000000E+00 -0.13813939325E+04  0.33941246866E+04  0.31002956619E+04 0.  0.
        4    1    3    3  502    0  0.97790297508E+01 -0.13251951255E+04 -0.15711019010E+04  0.20553833089E+04  0.12699999809E+01 0.  1.
       -4    1    3    3    0  502 -0.97790297508E+01  0.13251951255E+04  0.18970796844E+03  0.13387413777E+04  0.12699999809E+01 0. -1.
</event>
<event>
 5   0  0.1318916E-07  0.3096938E+04  0.7818609E-02  0.8216579E-01
       -2   -1    0    0    0  501  0.00000000000E+00  0.00000000000E+00  0.13873386487E+04  0.13873386487E+04  0.25500000920E-02 0.  1.
        2   -1    0    0  501    0  0.00000000000E+00  0.00000000000E+00 -0.17283131103E+04  0.17283131103E+04  0.25500000920E-02 0. -1.
    10030    2    1    2    0    0  0.00000000000E+00  0.00000000000E+00 -0.34097446155E+03  0.31156517590E+04  0.30969375680E+04 0.  0.
        5    1    3    3  502    0 -0.30183117966E+03 -0.14222609386E+04  0.36546572382E+03  0.14991716125E+04  0.46999998093E+01 0.  1.
       -5    1    3    3    0  502  0.30183117966E+03  0.14222609386E+04 -0.70644018538E+03  0.16164801465E+04  0.46999998093E+01 0. -1.
</event>
<event>
 5   0  0.4450600E-08  0.3099981E+04  0.7818609E-02  0.8215743E-01
       -1   -1    0    0    0  501  0.00000000000E+00  0.00000000000E+00  0.10001726848E+04  0.10001726848E+04  0.50400001928E-02 0. -1.
        1   -1    0    0  501    0  0.00000000000E+00  0.00000000000E+00 -0.24020563788E+04  0.24020563788E+04  0.50400001928E-02 0.  1.
    10030    2    1    2    0    0  0.00000000000E+00  0.00000000000E+00 -0.14018836939E+04  0.34022290636E+04  0.30999814048E+04 0.  0.
        4    1    3    3  502    0  0.88375866282E+03  0.75728003160E+03  0.42257165233E+03  0.12381723768E+04  0.12699999809E+01 0. -1.
       -4    1    3    3    0  502 -0.88375866282E+03 -0.75728003160E+03 -0.18244553463E+04  0.21640566868E+04  0.12699999809E+01 0.  1.
</event>
<event>
 5   0  0.1318916E-07  0.3100446E+04  0.7818609E-02  0.8215615E-01
       -2   -1    0    0    0  501  0.00000000000E+00  0.00000000000E+00  0.10280377264E+04  0.10280377264E+04  0.25500000920E-02 0.  1.
        2   -1    0    0  501    0  0.00000000000E+00  0.00000000000E+00 -0.23376493231E+04  0.23376493231E+04  0.25500000920E-02 0. -1.
    10030    2    1    2    0    0  0.00000000000E+00  0.00000000000E+00 -0.13096115967E+04  0.33656870496E+04  0.31004462229E+04 0.  0.
        5    1    3    3  502    0 -0.13774239974E+03  0.88401306041E+03 -0.20290946530E+04  0.22175886139E+04  0.46999998093E+01 0. -1.
       -5    1    3    3    0  502  0.13774239974E+03 -0.88401306041E+03  0.71948305629E+03  0.11480984357E+04  0.46999998093E+01 0.  1.
</event>
<event>
 5   0  0.1398931E-07  0.3099648E+04  0.7818609E-02  0.8215834E-01
       -2   -1    0    0    0  501  0.00000000000E+00  0.00000000000E+00  0.13639982893E+04  0.13639982893E+04  0.25500000920E-02 0. -1.
        2   -1    0    0  501    0  0.00000000000E+00  0.00000000000E+00 -0.17609660837E+04  0.17609660837E+04  0.25500000920E-02 0.  1.
    10030    2    1    2    0    0  0.00000000000E+00  0.00000000000E+00 -0.39696779443E+03  0.31249643730E+04  0.30996481901E+04 0.  0.
        3    1    3    3  502    0  0.12344321070E+04 -0.69708299944E+03  0.43289570496E+03  0.14822773143E+04  0.10100000352E+00 0. -1.
       -3    1    3    3    0  502 -0.12344321070E+04  0.69708299944E+03 -0.82986349939E+03  0.16426870587E+04  0.10100000352E+00 0.  1.
</event>
<event>
 5   0  0.4517409E-08  0.3100336E+04  0.7818609E-02  0.8215646E-01
       -1   -1    0    0    0  501  0.00000000000E+00  0.00000000000E+00  0.20850763776E+04  0.20850763776E+04  0.50400001928E-02 0. -1.
        1   -1    0    0  501    0  0.00000000000E+00  0.00000000000E+00 -0.11524856213E+04  0.11524856214E+04  0.50400001928E-02 0.  1.
    10030    2    1    2    0    0  0.00000000000E+00  0.00000000000E+00  0.93259075622E+03  0.32375619989E+04  0.31003358170E+04 0.  0.
        2    1    3    3  502    0 -0.34462816632E+03 -0.96878670657E+03  0.16776859089E+04  0.19677261661E+04  0.25500000920E-02 0. -1.
       -2    1    3    3    0  502  0.34462816632E+03  0.96878670657E+03 -0.74509515266E+03  0.12698358328E+04  0.25500000920E-02 0.  1.
</event>
<event>
 5   0  0.4470354E-08  0.3099782E+04  0.7818609E-02  0.8215798E-01
       -1   -1    0    0    0  501  0.00000000000E+00  0.00000000000E+00  0.10986141082E+04  0.10986141082E+04  0.50400001928E-02 0. -1.
        1   -1    0    0  501    0  0.00000000000E+00  0.00000000000E+00 -0.21865388867E+04  0.21865388867E+04  0.50400001928E-02 0.  1.
    10030    2    1    2    0    0  0.00000000000E+00  0.00000000000E+00 -0.10879247784E+04  0.32851529949E+04  0.30997822305E+04 0.  0.
        1    1    3    3  502    0 -0.15532792248E+03  0.52086785043E+03 -0.20822201038E+04  0.21519922494E+04  0.50400001928E-02 0.  1.
       -1    1    3    3    0  502  0.15532792248E+03 -0.52086785043E+03  0.99429532531E+03  0.11331607455E+04  0.50400001928E-02 0. -1.
</event>
<event>
 5   0  0.4838602E-08  0.3100775E+04  0.7818609E-02  0.8215525E-01
        1   -1    0    0  501    0  0.00000000000E+00  0.00000000000E+00  0.12130148236E+04  0.12130148236E+04  0.50400001928E-02 0.  1.
       -1   -1    0    0    0  501  0.00000000000E+00  0.00000000000E+00 -0.19815930377E+04  0.19815930377E+04  0.50400001928E-02 0. -1.
    10030    2    1    2    0    0  0.00000000000E+00  0.00000000000E+00 -0.76857821413E+03  0.31946078613E+04  0.31007752121E+04 0.  0.
        5    1    3    3  502    0 -0.95202686172E+01 -0.15216921871E+04 -0.78591560057E+02  0.15237573531E+04  0.46999998093E+01 0. -1.
       -5    1    3    3    0  502  0.95202686172E+01  0.15216921871E+04 -0.68998665407E+03  0.16708505082E+04  0.46999998093E+01 0.  1.
</event>
<event>
 5   0  0.4838602E-08  0.3100856E+04  0.7818609E-02  0.8215503E-01
       -1   -1    0    0    0  501  0.00000000000E+00  0.00000000000E+00  0.14804533986E+04  0.14804533986E+04  0.50400001928E-02 0. -1.
        1   -1    0    0  501    0  0.00000000000E+00  0.00000000000E+00 -0.16237102194E+04  0.16237102194E+04  0.50400001928E-02 0.  1.
    10030    2    1    2    0    0  0.00000000000E+00  0.00000000000E+00 -0.14325682077E+03  0.31041636180E+04  0.31008562125E+04 0.  0.
        5    1    3    3  502    0 -0.44196847668E+03 -0.14405900866E+04  0.29368449911E+03  0.15352226571E+04  0.46999998093E+01 0. -1.
       -5    1    3    3    0  502  0.44196847668E+03  0.14405900866E+04 -0.43694131988E+03  0.15689409609E+04  0.46999998093E+01 0.  1.
</event>
<event>
 5   0  0.1329777E-07  0.3098825E+04  0.7818609E-02  0.8216061E-01
       -2   -1    0    0    0  501  0.00000000000E+00  0.00000000000E+00  0.10869074250E+04  0.10869074250E+04  0.25500000920E-02 0. -1.
        2   -1    0    0  501    0  0.00000000000E+00  0.00000000000E+00 -0.22087239539E+04  0.22087239539E+04  0.25500000920E-02 0.  1.
    10030    2    1    2    0    0  0.00000000000E+00  0.00000000000E+00 -0.11218165289E+04  0.32956313789E+04  0.30988245935E+04 0.  0.
        1    1    3    3  502    0 -0.33286113462E+02  0.10185025682E+04 -0.18021767880E+04  0.20703373208E+04  0.50400001928E-02 0.  1.
       -1    1    3    3    0  502  0.33286113462E+02 -0.10185025682E+04  0.68036025908E+03  0.12252940581E+04  0.50400001928E-02 0. -1.
</event>
<event>
 5   0  0.1329777E-07  0.3099790E+04  0.7818609E-02  0.8215796E-01
        2   -1    0    0  501    0  0.00000000000E+00  0.00000000000E+00  0.15905506552E+04  0.15905506552E+04  0.25500000920E-02 0. -1.
       -2   -1    0    0    0  501  0.00000000000E+00  0.00000000000E+00 -0.15102780510E+04  0.15102780510E+04  0.25500000920E-02 0.  1.
    10030    2    1    2    0    0  0.00000000000E+00  0.00000000000E+00  0.80272604235E+02  0.31008287062E+04  0.30997895048E+04 0.  0.
        1    1    3    3  502    0 -0.14056295180E+04  0.10682826430E+03  0.68453168144E+03  0.15670961179E+04  0.50400001928E-02 0. -1.
       -1    1    3    3    0  502  0.14056295180E+04 -0.10682826430E+03 -0.60425907721E+03  0.15337325883E+04  0.50400001928E-02 0.  1.
</event>
<event>
 5   0  0.4450600E-08  0.3099168E+04  0.7818609E-02  0.8215966E-01
        1   -1    0    0  501    0  0.00000000000E+00  0.00000000000E+00  0.24235785799E+04  0.24235785799E+04  0.50400001928E-02 0. -1.
       -1   -1    0    0    0  501  0.00000000000E+00  0.00000000000E+00 -0.99077085488E+03  0.99077085489E+03  0.50400001928E-02 0.  1.
    10030    2    1    2    0    0  0.00000000000E+00  0.00000000000E+00  0.14328077250E+04  0.34143494348E+04  0.30991682894E+04 0.  0.
        4    1    3    3  502    0 -0.14891418340E+04 -0.42533395838E+03  0.77425123171E+03  0.17314499590E+04  0.12699999809E+01 0.  1.
       -4    1    3    3    0  502  0.14891418340E+04  0.42533395838E+03  0.65855649330E+03  0.16828994758E+04  0.12699999809E+01 0. -1.
</event>
<event>
 5   0  0.1377237E-07  0.3098981E+04  0.7818609E-02  0.8216018E-01
       -2   -1    0    0    0  501  0.00000000000E+00  0.00000000000E+00  0.27623602011E+04  0.27623602011E+04  0.25500000920E-02 0. -1.
        2   -1    0    0  501    0  0.00000000000E+00  0.00000000000E+00 -0.86915581515E+03  0.86915581515E+03  0.25500000920E-02 0.  1.
    10030    2    1    2    0    0  0.00000000000E+00  0.00000000000E+00  0.18932043860E+04  0.36315160163E+04  0.30989814019E+04 0.  0.
        2    1    3    3  502    0  0.12053261643E+03  0.11839445557E+04 -0.21622195129E+03  0.12095473346E+04  0.25500000920E-02 0.  1.
       -2    1    3    3    0  502 -0.12053261643E+03 -0.11839445557E+04  0.21094263373E+04  0.24219686816E+04  0.25500000920E-02 0. -1.
</event>
<event>
 5   0  0.4305500E-08  0.3098913E+04  0.7818609E-02  0.8216036E-01
       -3   -1    0    0    0  501  0.00000000000E+00  0.00000000000E+00  0.14164554894E+04  0.14164554930E+04  0.10100000352E+00 0. -1.
        3   -1    0    0  501    0  0.00000000000E+00  0.00000000000E+00 -0.16949455946E+04  0.16949455976E+04  0.10100000352E+00 0.  1.
    10030    2    1    2    0    0  0.00000000000E+00  0.00000000000E+00 -0.27849010521E+03  0.31114010906E+04  0.30989127138E+04 0.  0.
        5    1    3    3  502    0 -0.45457909869E+03  0.11043429668E+04  0.85194016503E+03  0.14669831901E+04  0.46999998093E+01 0. -1.
       -5    1    3    3    0  502  0.45457909869E+03 -0.11043429668E+04 -0.11304302702E+04  0.16444179004E+04  0.46999998093E+01 0.  1.
</event>
<event>
 5   0  0.1318916E-07  0.3121033E+04  0.7818609E-02  0.8209989E-01
       -2   -1    0    0    0  501  0.00000000000E+00  0.00000000000E+00  0.13046934266E+04  0.13046934266E+04  0.25500000920E-02 0.  1.
        2   -1    0    0  501    0  0.00000000000E+00  0.00000000000E+00 -0.18665010736E+04  0.18665010736E+04  0.25500000920E-02 0. -1.
    10030    2    1    2    0    0  0.00000000000E+00  0.00000000000E+00 -0.56180764704E+03  0.31711945002E+04  0.31210329582E+04 0.  0.
        5    1    3    3  502    0 -0.71080539671E+03  0.13537940457E+04 -0.59766250498E+03  0.16417141012E+04  0.46999998093E+01 0. -1.
       -5    1    3    3    0  502  0.71080539671E+03 -0.13537940457E+04  0.35854857944E+02  0.15294803990E+04  0.46999998093E+01 0.  1.
</event>
<event>
 5   0  0.1318916E-07  0.3100026E+04  0.7818609E-02  0.8215731E-01
        2   -1    0    0  501    0  0.00000000000E+00  0.00000000000E+00  0.17183451403E+04  0.17183451403E+04  0.25500000920E-02 0. -1.
       -2   -1    0    0    0  501  0.00000000000E+00  0.00000000000E+00 -0.13981708502E+04  0.13981708502E+04  0.25500000920E-02 0.  1.
    10030    2    1    2    0    0  0.00000000000E+00  0.00000000000E+00  0.32017429008E+03  0.31165159905E+04  0.31000258617E+04 0.  0.
        5    1    3    3  502    0 -0.56309224561E+02  0.10690400896E+04 -0.96681287034E+03  0.14424862766E+04  0.46999998093E+01 0.  1.
       -5    1    3    3    0  502  0.56309224561E+02 -0.10690400896E+04  0.12869871604E+04  0.16740297139E+04  0.46999998093E+01 0. -1.
</event>
<event>
 5   0  0.4470354E-08  0.3099883E+04  0.7818609E-02  0.8215770E-01
        1   -1    0    0  501    0  0.00000000000E+00  0.00000000000E+00  0.16028092875E+04  0.16028092875E+04  0.50400001928E-02 0.  1.
       -1   -1    0    0    0  501  0.00000000000E+00  0.00000000000E+00 -0.14988175458E+04  0.14988175458E+04  0.50400001928E-02 0. -1.
    10030    2    1    2    0    0  0.00000000000E+00  0.00000000000E+00  0.10399174165E+03  0.31016268333E+04  0.30998830189E+04 0.  0.
        1    1    3    3  502    0  0.72297844646E+03 -0.77677944424E+03  0.11823368895E+04  0.15887116351E+04  0.50400001928E-02 0. -1.
       -1    1    3    3    0  502 -0.72297844646E+03  0.77677944424E+03 -0.10783451479E+04  0.15129151982E+04  0.50400001928E-02 0.  1.
</event>
<event>
 5   0  0.4450600E-08  0.3102208E+04  0.7818609E-02  0.8215132E-01
        1   -1    0    0  501    0  0.00000000000E+00  0.00000000000E+00  0.73017190668E+03  0.73017190669E+03  0.50400001928E-02 0. -1.
       -1   -1    0    0    0  501  0.00000000000E+00  0.00000000000E+00 -0.32950106323E+04  0.32950106323E+04  0.50400001928E-02 0.  1.
    10030    2    1    2    0    0  0.00000000000E+00  0.00000000000E+00 -0.25648387256E+04  0.40251825390E+04  0.31022083721E+04 0.  0.
        4    1    3    3  502    0 -0.36533768590E+03  0.25490282737E+03 -0.32102219612E+04  0.32409834509E+04  0.12699999809E+01 0.  1.
       -4    1    3    3    0  502  0.36533768590E+03 -0.25490282737E+03  0.64538323555E+03  0.78419908809E+03  0.12699999809E+01 0. -1.
</event>
<event>
 5   0  0.1398931E-07  0.3095312E+04  0.7818609E-02  0.8217026E-01
       -2   -1    0    0    0  501  0.00000000000E+00  0.00000000000E+00  0.12294829156E+04  0.12294829156E+04  0.25500000920E-02 0.  1.
        2   -1    0    0  501    0  0.00000000000E+00  0.00000000000E+00 -0.19481682167E+04  0.19481682167E+04  0.25500000920E-02 0. -1.
    10030    2    1    2    0    0  0.00000000000E+00  0.00000000000E+00 -0.71868530107E+03  0.31776511323E+04  0.30953122874E+04 0.  0.
        3    1    3    3  502    0  0.62058939385E+03  0.63715728087E+03 -0.16595802877E+04  0.18828986531E+04  0.10100000352E+00 0. -1.
       -3    1    3    3    0  502 -0.62058939385E+03 -0.63715728087E+03  0.94089498661E+03  0.12947524792E+04  0.10100000352E+00 0.  1.
</event>
<event>
 5   0  0.1329777E-07  0.3100179E+04  0.7818609E-02  0.8215689E-01
       -2   -1    0    0    0  501  0.00000000000E+00  0.00000000000E+00  0.13572232374E+04  0.13572232374E+04  0.25500000920E-02 0.  1.
        2   -1    0    0  501    0  0.00000000000E+00  0.00000000000E+00 -0.17703627031E+04  0.17703627031E+04  0.25500000920E-02 0. -1.
    10030    2    1    2    0    0  0.00000000000E+00  0.00000000000E+00 -0.41313946570E+03  0.31275859404E+04  0.31001789620E+04 0.  0.
        1    1    3    3  502    0  0.52481016101E+03 -0.60308209378E+03 -0.15463325202E+04  0.17407693644E+04  0.50400001928E-02 0. -1.
       -1    1    3    3    0  502 -0.52481016101E+03  0.60308209378E+03  0.11331930545E+04  0.13868165761E+04  0.50400001928E-02 0.  1.
</event>
<event>
 5   0  0.1318916E-07  0.3101253E+04  0.7818609E-02  0.8215394E-01
       -2   -1    0    0    0  501  0.00000000000E+00  0.00000000000E+00  0.14909907491E+04  0.14909907491E+04  0.25500000920E-02 0. -1.
        2   -1    0    0  501    0  0.00000000000E+00  0.00000000000E+00 -0.16126477459E+04  0.16126477459E+04  0.25500000920E-02 0.  1.
    10030    2    1    2    0    0  0.00000000000E+00  0.00000000000E+00 -0.12165699678E+03  0.31036384950E+04  0.31012532117E+04 0.  0.
        5    1    3    3  502    0  0.36895516581E+03 -0.13588696384E+04  0.58910627687E+03  0.15263429838E+04  0.46999998093E+01 0. -1.
       -5    1    3    3    0  502 -0.36895516581E+03  0.13588696384E+04 -0.71076327365E+03  0.15772955113E+04  0.46999998093E+01 0.  1.
</event>
<event>
 5   0  0.4517409E-08  0.3100464E+04  0.7818609E-02  0.8215611E-01
       -1   -1    0    0    0  501  0.00000000000E+00  0.00000000000E+00  0.20967935253E+04  0.20967935253E+04  0.50400001928E-02 0.  1.
        1   -1    0    0  501    0  0.00000000000E+00  0.00000000000E+00 -0.11461400487E+04  0.11461400488E+04  0.50400001928E-02 0. -1.
    10030    2    1    2    0    0  0.00000000000E+00  0.00000000000E+00  0.95065347654E+03  0.32429335740E+04  0.31004638577E+04 0.  0.
        2    1    3    3  502    0  0.56024600278E+03  0.97774607189E+03  0.15888378804E+04  0.19478882860E+04  0.25500000920E-02 0.  1.
       -2    1    3    3    0  502 -0.56024600278E+03 -0.97774607189E+03 -0.63818440382E+03  0.12950452880E+04  0.25500000920E-02 0. -1.
</event>
<event>
 5   0  0.1398931E-07  0.3100852E+04  0.7818609E-02  0.8215504E-01
        2   -1    0    0  501    0  0.00000000000E+00  0.00000000000E+00  0.11309876733E+04  0.11309876733E+04  0.25500000920E-02 0.  1.
       -2   -1    0    0    0  501  0.00000000000E+00  0.00000000000E+00 -0.21254172811E+04  0.21254172811E+04  0.25500000920E-02 0. -1.
    10030    2    1    2    0    0  0.00000000000E+00  0.00000000000E+00 -0.99442960779E+03  0.32564049544E+04  0.31008519768E+04 0.  0.
        3    1    3    3  502    0  0.17753895149E+03 -0.13809431800E+04  0.21913031571E+03  0.14094474985E+04  0.10100000352E+00 0.  1.
       -3    1    3    3    0  502 -0.17753895149E+03  0.13809431800E+04 -0.12135599235E+04  0.18469574559E+04  0.10100000352E+00 0. -1.
</event>
<event>
 5   0  0.1325713E-07  0.3101207E+04  0.7818609E-02  0.8215407E-01
        2   -1    0    0  501    0  0.00000000000E+00  0.00000000000E+00  0.11539052977E+04  0.11539052977E+04  0.25500000920E-02 0.  1.
       -2   -1    0    0    0  501  0.00000000000E+00  0.00000000000E+00 -0.20836814168E+04  0.20836814168E+04  0.25500000920E-02 0. -1.
    10030    2    1    2    0    0  0.00000000000E+00  0.00000000000E+00 -0.92977611911E+03  0.32375867146E+04  0.31012068784E+04 0.  0.
        4    1    3    3  502    0 -0.64172670883E+03  0.27118461349E+03  0.98131698579E+03  0.12034695272E+04  0.12699999809E+01 0.  1.
       -4    1    3    3    0  502  0.64172670883E+03 -0.27118461349E+03 -0.19110931049E+04  0.20341171874E+04  0.12699999809E+01 0. -1.
</event>
<event>
 5   0  0.4305500E-08  0.3100389E+04  0.7818609E-02  0.8215631E-01
        3   -1    0    0  501    0  0.00000000000E+00  0.00000000000E+00  0.16411633928E+04  0.16411633959E+04  0.10100000352E+00 0.  1.
       -3   -1    0    0    0  501  0.00000000000E+00  0.00000000000E+00 -0.14642678280E+04  0.14642678315E+04  0.10100000352E+00 0. -1.
    10030    2    1    2    0    0  0.00000000000E+00  0.00000000000E+00  0.17689556482E+03  0.31054312274E+04  0.31003888574E+04 0.  0.
        4    1    3    3  502    0 -0.24750032276E+03 -0.10745056997E+04 -0.10029491660E+04  0.14905460580E+04  0.12699999809E+01 0. -1.
       -4    1    3    3    0  502  0.24750032276E+03  0.10745056997E+04  0.11798447309E+04  0.16148851694E+04  0.12699999809E+01 0.  1.
</event>
<event>
 5   0  0.1398931E-07  0.3099882E+04  0.7818609E-02  0.8215770E-01
        2   -1    0    0  501    0  0.00000000000E+00  0.00000000000E+00  0.16635648296E+04  0.16635648296E+04  0.25500000920E-02 0. -1.
       -2   -1    0    0    0  501  0.00000000000E+00  0.00000000000E+00 -0.14440776585E+04  0.14440776585E+04  0.25500000920E-02 0.  1.
    10030    2    1    2    0    0  0.00000000000E+00  0.00000000000E+00  0.21948717106E+03  0.31076424881E+04  0.30998818067E+04 0.  0.
        3    1    3    3  502    0  0.63360980376E+02 -0.31037236559E+03  0.16307668468E+04  0.16612483673E+04  0.10100000352E+00 0. -1.
       -3    1    3    3    0  502 -0.63360980376E+02  0.31037236559E+03 -0.14112796757E+04  0.14463941207E+04  0.10100000352E+00 0.  1.
</event>
<event>
 5   0  0.1325713E-07  0.3100218E+04  0.7818609E-02  0.8215678E-01
       -2   -1    0    0    0  501  0.00000000000E+00  0.00000000000E+00  0.16900180466E+04  0.16900180466E+04  0.25500000920E-02 0.  1.
        2   -1    0    0  501    0  0.00000000000E+00  0.00000000000E+00 -0.14217825499E+04  0.14217825499E+04  0.25500000920E-02 0. -1.
    10030    2    1    2    0    0  0.00000000000E+00  0.00000000000E+00  0.26823549669E+03  0.31118005966E+04  0.31002181651E+04 0.  0.
        4    1    3    3  502    0  0.64450819008E+03 -0.83466361331E+03  0.12744883708E+04  0.16541996176E+04  0.12699999809E+01 0.  1.
       -4    1    3    3    0  502 -0.64450819008E+03  0.83466361331E+03 -0.10062528741E+04  0.14576009790E+04  0.12699999809E+01 0. -1.
</event>
<event>
 5   0  0.1329777E-07  0.3099510E+04  0.7818609E-02  0.8215872E-01
       -2   -1    0    0    0  501  0.00000000000E+00  0.00000000000E+00  0.13948653103E+04  0.13948653103E+04  0.25500000920E-02 0. -1.
        2   -1    0    0  501    0  0.00000000000E+00  0.00000000000E+00 -0.17218444805E+04  0.17218444805E+04  0.25500000920E-02 0.  1.
    10030    2    1    2    0    0  0.00000000000E+00  0.00000000000E+00 -0.32697917026E+03  0.31167097908E+04  0.30995103714E+04 0.  0.
        1    1    3    3  502    0 -0.77906298292E+03 -0.17196856926E+03 -0.14994813326E+04  0.16985159955E+04  0.50400001928E-02 0.  1.
       -1    1    3    3    0  502  0.77906298292E+03  0.17196856926E+03  0.11725021624E+04  0.14181937953E+04  0.50400001928E-02 0. -1.
</event>
<event>
 5   0  0.4450600E-08  0.3101593E+04  0.7818609E-02  0.8215301E-01
        1   -1    0    0  501    0  0.00000000000E+00  0.00000000000E+00  0.15682035882E+04  0.15682035882E+04  0.50400001928E-02 0.  1.
       -1   -1    0    0    0  501  0.00000000000E+00  0.00000000000E+00 -0.15335827059E+04  0.15335827059E+04  0.50400001928E-02 0. -1.
    10030    2    1    2    0    0  0.00000000000E+00  0.00000000000E+00  0.34620882288E+02  0.31017862941E+04  0.31015930759E+04 0.  0.
        4    1    3    3  502    0  0.10278508231E+04 -0.10084759389E+04 -0.55845735494E+03  0.15444666601E+04  0.12699999809E+01 0. -1.
       -4    1    3    3    0  502 -0.10278508231E+04  0.10084759389E+04  0.59307823723E+03  0.15573196340E+04  0.12699999809E+01 0.  1.
</event>
<event>
 5   0  0.1398931E-07  0.3102141E+04  0.7818609E-02  0.8215150E-01
       -2   -1    0    0    0  501  0.00000000000E+00  0.00000000000E+00  0.12814927381E+04  0.12814927381E+04  0.25500000920E-02 0.  1.
        2   -1    0    0  501    0  0.00000000000E+00  0.00000000000E+00 -0.18773577671E+04  0.18773577671E+04  0.25500000920E-02 0. -1.
    10030    2    1    2    0    0  0.00000000000E+00  0.00000000000E+00 -0.59586502900E+03  0.31588505053E+04  0.31021414187E+04 0.  0.
        3    1    3    3  502    0 -0.55653679818E+03  0.56334160249E+03 -0.16560048631E+04  0.18356031940E+04  0.10100000352E+00 0. -1.
       -3    1    3    3    0  502  0.55653679818E+03 -0.56334160249E+03  0.10601398341E+04  0.13232473113E+04  0.10100000352E+00 0.  1.
</event>
<event>
 5   0  0.1318916E-07  0.3099659E+04  0.7818609E-02  0.8215832E-01
       -2   -1    0    0    0  501  0.00000000000E+00  0.00000000000E+00  0.13268705699E+04  0.13268705699E+04  0.25500000920E-02 0.  1.
        2   -1    0    0  501    0  0.00000000000E+00  0.00000000000E+00 -0.18102524897E+04  0.18102524897E+04  0.25500000920E-02 0. -1.
    10030    2    1    2    0    0  0.00000000000E+00  0.00000000000E+00 -0.48338191973E+03  0.31371230596E+04  0.30996585313E+04 0.  0.
        5    1    3    3  502    0  0.13197481877E+04 -0.35190215042E+03 -0.98292146723E+03  0.16827736340E+04  0.46999998093E+01 0.  1.
       -5    1    3    3    0  502 -0.13197481877E+04  0.35190215042E+03  0.49953954750E+03  0.14543494257E+04  0.46999998093E+01 0. -1.
</event>
<event>
 5   0  0.4436241E-08  0.3099604E+04  0.7818609E-02  0.8215847E-01
       -1   -1    0    0    0  501  0.00000000000E+00  0.00000000000E+00  0.11289115185E+04  0.11289115185E+04  0.50400001928E-02 0. -1.
        1   -1    0    0  501    0  0.00000000000E+00  0.00000000000E+00 -0.21276120241E+04  0.21276120241E+04  0.50400001928E-02 0.  1.
    10030    2    1    2    0    0  0.00000000000E+00  0.00000000000E+00 -0.99870050562E+03  0.32565235427E+04  0.30996036656E+04 0.  0.
        3    1    3    3  502    0  0.17543907870E+03 -0.14592250562E+04 -0.10159431511E+04  0.17866888737E+04  0.10100000352E+00 0.  1.
       -3    1    3    3    0  502 -0.17543907870E+03  0.14592250562E+04  0.17242645527E+02  0.14698346689E+04  0.10100000352E+00 0. -1.
</event>
<event>
 5   0  0.4450600E-08  0.3101721E+04  0.7818609E-02  0.8215266E-01
       -1   -1    0    0    0  501  0.00000000000E+00  0.00000000000E+00  0.17029644737E+04  0.17029644737E+04  0.50400001928E-02 0.  1.
        1   -1    0    0  501    0  0.00000000000E+00  0.00000000000E+00 -0.14123424291E+04  0.14123424291E+04  0.50400001928E-02 0. -1.
    10030    2    1    2    0    0  0.00000000000E+00  0.00000000000E+00  0.29062204457E+03  0.31153069028E+04  0.31017214456E+04 0.  0.
        4    1    3    3  502    0 -0.10359272598E+04 -0.78808039054E+03  0.99218345316E+03  0.16366568386E+04  0.12699999809E+01 0.  1.
       -4    1    3    3    0  502  0.10359272598E+04  0.78808039054E+03 -0.70156140860E+03  0.14786500643E+04  0.12699999809E+01 0. -1.
</event>
<event>
 5   0  0.1325713E-07  0.3102316E+04  0.7818609E-02  0.8215103E-01
        2   -1    0    0  501    0  0.00000000000E+00  0.00000000000E+00  0.11198660995E+04  0.11198660995E+04  0.25500000920E-02 0.  1.
       -2   -1    0    0    0  501  0.00000000000E+00  0.00000000000E+00 -0.21485522608E+04  0.21485522608E+04  0.25500000920E-02 0. -1.
    10030    2    1    2    0    0  0.00000000000E+00  0.00000000000E+00 -0.10286861613E+04  0.32684183603E+04  0.31023158059E+04 0.  0.
        4    1    3    3  502    0 -0.84011604354E+03  0.77645278760E+03  0.58932160644E+03  0.12868471031E+04  0.12699999809E+01 0.  1.
       -4    1    3    3    0  502  0.84011604354E+03 -0.77645278760E+03 -0.16180077677E+04  0.19815712572E+04  0.12699999809E+01 0. -1.
</event>
<event>
 5   0  0.4436241E-08  0.3100879E+04  0.7818609E-02  0.8215497E-01
        1   -1    0    0  501    0  0.00000000000E+00  0.00000000000E+00  0.15690097438E+04  0.15690097438E+04  0.50400001928E-02 0. -1.
       -1   -1    0    0    0  501  0.00000000000E+00  0.00000000000E+00 -0.15320891211E+04  0.15320891212E+04  0.50400001928E-02 0.  1.
    10030    2    1    2    0    0  0.00000000000E+00  0.00000000000E+00  0.36920622625E+02  0.31010988649E+04  0.31008790750E+04 0.  0.
        3    1    3    3  502    0 -0.58649699615E+03  0.11505527286E+04  0.87649107777E+03  0.15607648534E+04  0.10100000352E+00 0. -1.
       -3    1    3    3    0  502  0.58649699615E+03 -0.11505527286E+04 -0.83957045515E+03  0.15403340116E+04  0.10100000352E+00 0.  1.
</event>
<event>
 5   0  0.1318916E-07  0.3099968E+04  0.7818609E-02  0.8215747E-01
        2   -1    0    0  501    0  0.00000000000E+00  0.00000000000E+00  0.16747819610E+04  0.16747819610E+04  0.25500000920E-02 0. -1.
       -2   -1    0    0    0  501  0.00000000000E+00  0.00000000000E+00 -0.14344858276E+04  0.14344858276E+04  0.25500000920E-02 0.  1.
    10030    2    1    2    0    0  0.00000000000E+00  0.00000000000E+00  0.24029613345E+03  0.31092677886E+04  0.30999683787E+04 0.  0.
        5    1    3    3  502    0 -0.46980105335E+03 -0.66325318630E+03  0.14438840914E+04  0.16569372885E+04  0.46999998093E+01 0. -1.
       -5    1    3    3    0  502  0.46980105335E+03  0.66325318630E+03 -0.12035879579E+04  0.14523305000E+04  0.46999998093E+01 0.  1.
</event>
<event>
 5   0  0.1377237E-07  0.3098255E+04  0.7818609E-02  0.8216217E-01
       -2   -1    0    0    0  501  0.00000000000E+00  0.00000000000E+00  0.21915934534E+04  0.21915934534E+04  0.25500000920E-02 0.  1.
        2   -1    0    0  501    0  0.00000000000E+00  0.00000000000E+00 -0.10950006538E+04  0.10950006538E+04  0.25500000920E-02 0. -1.
    10030    2    1    2    0    0  0.00000000000E+00  0.00000000000E+00  0.10965927996E+04  0.32865941071E+04  0.30982551633E+04 0.  0.
        2    1    3    3  502    0 -0.12482555550E+04 -0.20876734935E+03 -0.39935700312E+03  0.13271065341E+04  0.25500000920E-02 0. -1.
       -2    1    3    3    0  502  0.12482555550E+04  0.20876734935E+03  0.14959498027E+04  0.19594875731E+04  0.25500000920E-02 0.  1.
</event>
<event>
 5   0  0.1318916E-07  0.3098913E+04  0.7818609E-02  0.8216036E-01
        2   -1    0    0  501    0  0.00000000000E+00  0.00000000000E+00  0.12259817059E+04  0.12259817059E+04  0.25500000920E-02 0.  1.
       -2   -1    0    0    0  501  0.00000000000E+00  0.00000000000E+00 -0.19582803086E+04  0.19582803086E+04  0.25500000920E-02 0. -1.
    10030    2    1    2    0    0  0.00000000000E+00  0.00000000000E+00 -0.73229860271E+03  0.31842620146E+04  0.30989132504E+04 0.  0.
        5    1    3    3  502    0 -0.51925679462E+03 -0.20686532926E+03 -0.18510704666E+04  0.19336247944E+04  0.46999998093E+01 0. -1.
       -5    1    3    3    0  502  0.51925679462E+03  0.20686532926E+03  0.11187718638E+04  0.12506372202E+04  0.46999998093E+01 0.  1.
</event>
<event>
 5   0  0.4838602E-08  0.3102138E+04  0.7818609E-02  0.8215151E-01
        1   -1    0    0  501    0  0.00000000000E+00  0.00000000000E+00  0.19642986617E+04  0.19642986617E+04  0.50400001928E-02 0. -1.
       -1   -1    0    0    0  501  0.00000000000E+00  0.00000000000E+00 -0.12247707258E+04  0.12247707258E+04  0.50400001928E-02 0.  1.
    10030    2    1    2    0    0  0.00000000000E+00  0.00000000000E+00  0.73952793587E+03  0.31890693875E+04  0.31021382933E+04 0.  0.
        5    1    3    3  502    0  0.14253933225E+04  0.39571815452E+03 -0.10962379046E+03  0.14833672664E+04  0.46999998093E+01 0. -1.
       -5    1    3    3    0  502 -0.14253933225E+04 -0.39571815452E+03  0.84915172634E+03  0.17057021211E+04  0.46999998093E+01 0.  1.
</event>
<event>
 5   0  0.4450600E-08  0.3099672E+04  0.7818609E-02  0.8215828E-01
        1   -1    0    0  501    0  0.00000000000E+00  0.00000000000E+00  0.10787036127E+04  0.10787036127E+04  0.50400001928E-02 0.  1.
       -1   -1    0    0    0  501  0.00000000000E+00  0.00000000000E+00 -0.22267385637E+04  0.22267385637E+04  0.50400001928E-02 0. -1.
    10030    2    1    2    0    0  0.00000000000E+00  0.00000000000E+00 -0.11480349510E+04  0.33054421765E+04  0.30996715525E+04 0.  0.
        4    1    3    3  502    0  0.89962425736E+03  0.12613785811E+04 -0.61653388670E+03  0.16674877438E+04  0.12699999809E+01 0. -1.
       -4    1    3    3    0  502 -0.89962425736E+03 -0.12613785811E+04 -0.53150106430E+03  0.16379544327E+04  0.12699999809E+01 0.  1.
</event>
<event>
 5   0  0.1398931E-07  0.3098848E+04  0.7818609E-02  0.8216054E-01
       -2   -1    0    0    0  501  0.00000000000E+00  0.00000000000E+00  0.17654078059E+04  0.17654078059E+04  0.25500000920E-02 0.  1.
        2   -1    0    0  501    0  0.00000000000E+00  0.00000000000E+00 -0.13598642495E+04  0.13598642495E+04  0.25500000920E-02 0. -1.
    10030    2    1    2    0    0  0.00000000000E+00  0.00000000000E+00  0.40554355639E+03  0.31252720554E+04  0.30988481479E+04 0.  0.
        3    1    3    3  502    0 -0.67987515346E+03  0.13629991305E+04 -0.83760128514E+02  0.15254548907E+04  0.10100000352E+00 0. -1.
       -3    1    3    3    0  502  0.67987515346E+03 -0.13629991305E+04  0.48930368490E+03  0.15998171647E+04  0.10100000352E+00 0.  1.
</event>
<event>
 5   0  0.4517409E-08  0.3102840E+04  0.7818609E-02  0.8214959E-01
        1   -1    0    0  501    0  0.00000000000E+00  0.00000000000E+00  0.18761272551E+04  0.18761272551E+04  0.50400001928E-02 0. -1.
       -1   -1    0    0    0  501  0.00000000000E+00  0.00000000000E+00 -0.12829106139E+04  0.12829106139E+04  0.50400001928E-02 0.  1.
    10030    2    1    2    0    0  0.00000000000E+00  0.00000000000E+00  0.59321664124E+03  0.31590378691E+04  0.31028397114E+04 0.  0.
        2    1    3    3  502    0 -0.67997123917E+03  0.59565920896E+03  0.15802906323E+04  0.18205738826E+04  0.25500000920E-02 0. -1.
       -2    1    3    3    0  502  0.67997123917E+03 -0.59565920896E+03 -0.98707399107E+03  0.13384639865E+04  0.25500000920E-02 0.  1.
</event>
<event>
 5   0  0.1325713E-07  0.3099517E+04  0.7818609E-02  0.8215871E-01
       -2   -1    0    0    0  501  0.00000000000E+00  0.00000000000E+00  0.15494379409E+04  0.15494379409E+04  0.25500000920E-02 0.  1.
        2   -1    0    0  501    0  0.00000000000E+00  0.00000000000E+00 -0.15500788403E+04  0.15500788403E+04  0.25500000920E-02 0. -1.
    10030    2    1    2    0    0  0.00000000000E+00  0.00000000000E+00 -0.64089943516E+00  0.30995167812E+04  0.30995167149E+04 0.  0.
        4    1    3    3  502    0 -0.13673042741E+04  0.63365671050E+03 -0.36185544720E+03  0.15498331466E+04  0.12699999809E+01 0. -1.
       -4    1    3    3    0  502  0.13673042741E+04 -0.63365671050E+03  0.36121454777E+03  0.15496836346E+04  0.12699999809E+01 0.  1.
</event>
<event>
 5   0  0.4450600E-08  0.3100148E+04  0.7818609E-02  0.8215697E-01
       -1   -1    0    0    0  501  0.00000000000E+00  0.00000000000E+00  0.19999895598E+04  0.19999895598E+04  0.50400001928E-02 0. -1.
        1   -1    0    0  501    0  0.00000000000E+00  0.00000000000E+00 -0.12013708786E+04  0.12013708786E+04  0.50400001928E-02 0.  1.
    10030    2    1    2    0    0  0.00000000000E+00  0.00000000000E+00  0.79861868119E+03  0.32013604383E+04  0.31001478768E+04 0.  0.
        4    1    3    3  502    0 -0.14276049778E+04 -0.42842793861E+03 -0.40168238766E+02  0.14910471392E+04  0.12699999809E+01 0.  1.
       -4    1    3    3    0  502  0.14276049778E+04  0.42842793861E+03  0.83878691995E+03  0.17103132991E+04  0.12699999809E+01 0. -1.
</event>
<event>
 5   0  0.4470354E-08  0.3101647E+04  0.7818609E-02  0.8215286E-01
        1   -1    0    0  501    0  0.00000000000E+00  0.00000000000E+00  0.17262674923E+04  0.17262674923E+04  0.50400001928E-02 0.  1.
       -1   -1    0    0    0  501  0.00000000000E+00  0.00000000000E+00 -0.13932104140E+04  0.13932104140E+04  0.50400001928E-02 0. -1.
    10030    2    1    2    0    0  0.00000000000E+00  0.00000000000E+00  0.33305707830E+03  0.31194779064E+04  0.31016472061E+04 0.  0.
        1    1    3    3  502    0 -0.58512927594E+03  0.13621535452E+04 -0.29129742964E+03  0.15108582802E+04  0.50400001928E-02 0. -1.
       -1    1    3    3    0  502  0.58512927594E+03 -0.13621535452E+04  0.62435450794E+03  0.16086196262E+04  0.50400001928E-02 0.  1.
</event>
<event>
 5   0  0.4838602E-08  0.3100994E+04  0.7818609E-02  0.8215465E-01
        1   -1    0    0  501    0  0.00000000000E+00  0.00000000000E+00  0.13602276342E+04  0.13602276343E+04  0.50400001928E-02 0.  1.
       -1   -1    0    0    0  501  0.00000000000E+00  0.00000000000E+00 -0.17673816771E+04  0.17673816771E+04  0.50400001928E-02 0. -1.
    10030    2    1    2    0    0  0.00000000000E+00  0.00000000000E+00 -0.40715404289E+03  0.31276093114E+04  0.31009942906E+04 0.  0.
        5    1    3    3  502    0  0.19120608386E+02 -0.89404028240E+03 -0.14810758361E+04  0.17301102122E+04  0.46999998093E+01 0. -1.
       -5    1    3    3    0  502 -0.19120608386E+02  0.89404028240E+03  0.10739217932E+04  0.13974990992E+04  0.46999998093E+01 0.  1.
</event>
<event>
 5   0  0.4436241E-08  0.3087060E+04  0.7818609E-02  0.8219298E-01
        1   -1    0    0  501    0  0.00000000000E+00  0.00000000000E+00  0.22458111167E+04  0.22458111167E+04  0.50400001928E-02 0. -1.
       -1   -1    0    0    0  501  0.00000000000E+00  0.00000000000E+00 -0.10608572423E+04  0.10608572423E+04  0.50400001928E-02 0.  1.
    10030    2    1    2    0    0  0.00000000000E+00  0.00000000000E+00  0.11849538744E+04  0.33066683590E+04  0.30870600824E+04 0.  0.
        3    1    3    3  502    0  0.19037999646E+03  0.81576418522E+03  0.19811486911E+04  0.21509685947E+04  0.10100000352E+00 0. -1.
       -3    1    3    3    0  502 -0.19037999646E+03 -0.81576418522E+03 -0.79619481671E+03  0.11556997643E+04  0.10100000352E+00 0.  1.
</event>
<event>
 5   0  0.1377237E-07  0.3102342E+04  0.7818609E-02  0.8215095E-01
        2   -1    0    0  501    0  0.00000000000E+00  0.00000000000E+00  0.33333805382E+04  0.33333805382E+04  0.25500000920E-02 0. -1.
       -2   -1    0    0    0  501  0.00000000000E+00  0.00000000000E+00 -0.72182938229E+03  0.72182938229E+03  0.25500000920E-02 0.  1.
    10030    2    1    2    0    0  0.00000000000E+00  0.00000000000E+00  0.26115511559E+04  0.40552099205E+04  0.31023423504E+04 0.  0.
        2    1    3    3  502    0 -0.49024513348E+03  0.13540176809E+04  0.20594301106E+04  0.25129577298E+04  0.25500000920E-02 0. -1.
       -2    1    3    3    0  502  0.49024513348E+03 -0.13540176809E+04  0.55212104530E+03  0.15422521907E+04  0.25500000920E-02 0.  1.
</event>
<event>
 5   0  0.4450600E-08  0.3100099E+04  0.7818609E-02  0.8215711E-01
       -1   -1    0    0    0  501  0.00000000000E+00  0.00000000000E+00  0.14120299612E+04  0.14120299612E+04  0.50400001928E-02 0.  1.
        1   -1    0    0  501    0  0.00000000000E+00  0.00000000000E+00 -0.17015599538E+04  0.17015599538E+04  0.50400001928E-02 0. -1.
    10030    2    1    2    0    0  0.00000000000E+00  0.00000000000E+00 -0.28952999258E+03  0.31135899151E+04  0.31000991182E+04 0.  0.
        4    1    3    3  502    0  0.13833390828E+02  0.48821013723E+03  0.13327287487E+04  0.14194041114E+04  0.12699999809E+01 0.  1.
       -4    1    3    3    0  502 -0.13833390828E+02 -0.48821013723E+03 -0.16222587413E+04  0.16941858037E+04  0.12699999809E+01 0. -1.
</event>
<event>
 5   0  0.1318916E-07  0.3099489E+04  0.7818609E-02  0.8215878E-01
        2   -1    0    0  501    0  0.00000000000E+00  0.00000000000E+00  0.27085243896E+04  0.27085243896E+04  0.25500000920E-02 0.  1.
       -2   -1    0    0    0  501  0.00000000000E+00  0.00000000000E+00 -0.88672175036E+03  0.88672175037E+03  0.25500000920E-02 0. -1.
    10030    2    1    2    0    0  0.00000000000E+00  0.00000000000E+00  0.18218026393E+04  0.35952461400E+04  0.30994886596E+04 0.  0.
        5    1    3    3  502    0  0.23153084511E+03 -0.12035899908E+04  0.20109884651E+04  0.23550651997E+04  0.46999998093E+01 0.  1.
       -5    1    3    3    0  502 -0.23153084511E+03  0.12035899908E+04 -0.18918582579E+03  0.12401809403E+04  0.46999998093E+01 0. -1.
</event>
<event>
 5   0  0.1325713E-07  0.3100365E+04  0.7818609E-02  0.8215638E-01
        2   -1    0    0  501    0  0.00000000000E+00  0.00000000000E+00  0.20257004178E+04  0.20257004178E+04  0.25500000920E-02 0. -1.
       -2   -1    0    0    0  501  0.00000000000E+00  0.00000000000E+00 -0.11862889289E+04  0.11862889289E+04  0.25500000920E-02 0.  1.
    10030    2    1    2    0    0  0.00000000000E+00  0.00000000000E+00  0.83941148890E+03  0.32119893467E+04  0.31003651262E+04 0.  0.
        4    1    3    3  502    0  0.11683068877E+04 -0.88083731440E+03 -0.11083431266E+03  0.14673449547E+04  0.12699999809E+01 0.  1.
       -4    1    3    3    0  502 -0.11683068877E+04  0.88083731440E+03  0.95024580156E+03  0.17446443920E+04  0.12699999809E+01 0. -1.
</event>
<event>
 5   0  0.4470354E-08  0.3099278E+04  0.7818609E-02  0.8215936E-01
       -1   -1    0    0    0  501  0.00000000000E+00  0.00000000000E+00  0.19626278940E+04  0.19626278940E+04  0.50400001928E-02 0.  1.
        1   -1    0    0  501    0  0.00000000000E+00  0.00000000000E+00 -0.12235538083E+04  0.12235538083E+04  0.50400001928E-02 0. -1.
    10030    2    1    2    0    0  0.00000000000E+00  0.00000000000E+00  0.73907408576E+03  0.31861817023E+04  0.30992778733E+04 0.  0.
        1    1    3    3  502    0 -0.72568606987E+03  0.51381655416E+03 -0.93520456714E+03  0.12904399660E+04  0.50400001928E-02 0. -1.
       -1    1    3    3    0  502  0.72568606987E+03 -0.51381655416E+03  0.16742786529E+04  0.18957417363E+04  0.50400001928E-02 0.  1.
</event>
<event>
 5   0  0.1318916E-07  0.3099962E+04  0.7818609E-02  0.8215748E-01
       -2   -1    0    0    0  501  0.00000000000E+00  0.00000000000E+00  0.11774935924E+04  0.11774935924E+04  0.25500000920E-02 0.  1.
        2   -1    0    0  501    0  0.00000000000E+00  0.00000000000E+00 -0.20403014401E+04  0.20403014401E+04  0.25500000920E-02 0. -1.
    10030    2    1    2    0    0  0.00000000000E+00  0.00000000000E+00 -0.86280784769E+03  0.32177950325E+04  0.30999624980E+04 0.  0.
        5    1    3    3  502    0  0.85847294769E+02  0.75029867338E+03  0.97359746145E+03  0.12321655588E+04  0.46999998093E+01 0.  1.
       -5    1    3    3    0  502 -0.85847294769E+02 -0.75029867338E+03 -0.18364053091E+04  0.19856294737E+04  0.46999998093E+01 0. -1.
</event>
<event>
 5   0  0.1329777E-07  0.3100887E+04  0.7818609E-02  0.8215495E-01
       -2   -1    0    0    0  501  0.00000000000E+00  0.00000000000E+00  0.87743978156E+03  0.87743978156E+03  0.25500000920E-02 0.  1.
        2   -1    0    0  501    0  0.00000000000E+00  0.00000000000E+00 -0.27396461543E+04  0.27396461543E+04  0.25500000920E-02 0. -1.
    10030    2    1    2    0    0  0.00000000000E+00  0.00000000000E+00 -0.18622063728E+04  0.36170859359E+04  0.31008866624E+04 0.  0.
        1    1    3    3  502    0 -0.18804701304E+03  0.14970786762E+04 -0.51496935630E+03  0.15943022548E+04  0.50400001928E-02 0.  1.
       -1    1    3    3    0  502  0.18804701304E+03 -0.14970786762E+04 -0.13472370165E+04  0.20227836811E+04  0.50400001928E-02 0. -1.
</event>
<event>
 5   0  0.1398931E-07  0.3099537E+04  0.7818609E-02  0.8215865E-01
        2   -1    0    0  501    0  0.00000000000E+00  0.00000000000E+00  0.12381741283E+04  0.12381741283E+04  0.25500000920E-02 0.  1.
       -2   -1    0    0    0  501  0.00000000000E+00  0.00000000000E+00 -0.19397780718E+04  0.19397780718E+04  0.25500000920E-02 0. -1.
    10030    2    1    2    0    0  0.00000000000E+00  0.00000000000E+00 -0.70160394344E+03  0.31779522001E+04  0.30995373998E+04 0.  0.
        3    1    3    3  502    0 -0.15363781844E+04 -0.17981625895E+03 -0.44802280110E+03  0.16104397701E+04  0.10100000352E+00 0. -1.
       -3    1    3    3    0  502  0.15363781844E+04  0.17981625895E+03 -0.25358114234E+03  0.15675124301E+04  0.10100000352E+00 0.  1.
</event>
<event>
 5   0  0.4470354E-08  0.3100352E+04  0.7818609E-02  0.8215641E-01
        1   -1    0    0  501    0  0.00000000000E+00  0.00000000000E+00  0.17428027267E+04  0.17428027267E+04  0.50400001928E-02 0.  1.
       -1   -1    0    0    0  501  0.00000000000E+00  0.00000000000E+00 -0.13788397404E+04  0.13788397404E+04  0.50400001928E-02 0. -1.
    10030    2    1    2    0    0  0.00000000000E+00  0.00000000000E+00  0.36396298632E+03  0.31216424671E+04  0.31003520183E+04 0.  0.
        1    1    3    3  502    0  0.43261394764E+03 -0.83789982955E+03 -0.10568393774E+04  0.14163828655E+04  0.50400001928E-02 0. -1.
       -1    1    3    3    0  502 -0.43261394764E+03  0.83789982955E+03  0.14208023638E+04  0.17052596016E+04  0.50400001928E-02 0.  1.
</event>
<event>
 5   0  0.4517409E-08  0.3098925E+04  0.7818609E-02  0.8216033E-01
        1   -1    0    0  501    0  0.00000000000E+00  0.00000000000E+00  0.20177431399E+04  0.20177431399E+04  0.50400001928E-02 0.  1.
       -1   -1    0    0    0  501  0.00000000000E+00  0.00000000000E+00 -0.11898611538E+04  0.11898611538E+04  0.50400001928E-02 0. -1.
    10030    2    1    2    0    0  0.00000000000E+00  0.00000000000E+00  0.82788198612E+03  0.32076042937E+04  0.30989250914E+04 0.  0.
        2    1    3    3  502    0 -0.17694411747E+03 -0.57300441389E+03  0.18927480680E+04  0.19854819384E+04  0.25500000920E-02 0.  1.
       -2    1    3    3    0  502  0.17694411747E+03  0.57300441389E+03 -0.10648660818E+04  0.12221223553E+04  0.25500000920E-02 0. -1.
</event>
<event>
 5   0  0.1329777E-07  0.3094656E+04  0.7818609E-02  0.8217206E-01
       -2   -1    0    0    0  501  0.00000000000E+00  0.00000000000E+00  0.14581708519E+04  0.14581708519E+04  0.25500000920E-02 0.  1.
        2   -1    0    0  501    0  0.00000000000E+00  0.00000000000E+00 -0.16419361358E+04  0.16419361358E+04  0.25500000920E-02 0. -1.
    10030    2    1    2    0    0  0.00000000000E+00  0.00000000000E+00 -0.18376528392E+03  0.31001069877E+04  0.30946556602E+04 0.  0.
        1    1    3    3  502    0 -0.12237987272E+04 -0.35823724731E+03 -0.96990028594E+03  0.16020998143E+04  0.50400001928E-02 0.  1.
       -1    1    3    3    0  502  0.12237987272E+04  0.35823724731E+03  0.78613500202E+03  0.14980071734E+04  0.50400001928E-02 0. -1.
</event>
<event>
 5   0  0.1398931E-07  0.3099053E+04  0.7818609E-02  0.8215998E-01
       -2   -1    0    0    0  501  0.00000000000E+00  0.00000000000E+00  0.19373366967E+04  0.19373366967E+04  0.25500000920E-02 0. -1.
        2   -1    0    0  501    0  0.00000000000E+00  0.00000000000E+00 -0.12393471855E+04  0.12393471855E+04  0.25500000920E-02 0.  1.
    10030    2    1    2    0    0  0.00000000000E+00  0.00000000000E+00  0.69798951121E+03  0.31766838822E+04  0.30990532634E+04 0.  0.
        3    1    3    3  502    0 -0.10871627164E+04 -0.19016116027E+02 -0.78262881823E+03  0.13396985713E+04  0.10100000352E+00 0.  1.
       -3    1    3    3    0  502  0.10871627164E+04  0.19016116027E+02  0.14806183294E+04  0.18369853109E+04  0.10100000352E+00 0. -1.
</event>
<event>
 5   0  0.4838602E-08  0.3095833E+04  0.7818609E-02  0.8216882E-01
        1   -1    0    0  501    0  0.00000000000E+00  0.00000000000E+00  0.14860993038E+04  0.14860993038E+04  0.50400001928E-02 0. -1.
       -1   -1    0    0    0  501  0.00000000000E+00  0.00000000000E+00 -0.16123050107E+04  0.16123050107E+04  0.50400001928E-02 0.  1.
    10030    2    1    2    0    0  0.00000000000E+00  0.00000000000E+00 -0.12620570691E+03  0.30984043145E+04  0.30958329114E+04 0.  0.
        5    1    3    3  502    0 -0.53958530015E+03 -0.12411158429E+03  0.13835967535E+04  0.14902744874E+04  0.46999998093E+01 0. -1.
       -5    1    3    3    0  502  0.53958530015E+03  0.12411158429E+03 -0.15098024604E+04  0.16081298271E+04  0.46999998093E+01 0.  1.
</event>
<event>
 5   0  0.1398931E-07  0.3100005E+04  0.7818609E-02  0.8215737E-01
       -2   -1    0    0    0  501  0.00000000000E+00  0.00000000000E+00  0.12735194818E+04  0.12735194818E+04  0.25500000920E-02 0.  1.
        2   -1    0    0  501    0  0.00000000000E+00  0.00000000000E+00 -0.18865104549E+04  0.18865104549E+04  0.25500000920E-02 0. -1.
    10030    2    1    2    0    0  0.00000000000E+00  0.00000000000E+00 -0.61299097317E+03  0.31600299367E+04  0.31000050432E+04 0.  0.
        3    1    3    3  502    0 -0.30571187796E+03 -0.66469621187E+03  0.10864283037E+04  0.13098119238E+04  0.10100000352E+00 0.  1.
       -3    1    3    3    0  502  0.30571187796E+03  0.66469621187E+03 -0.16994192769E+04  0.18502180129E+04  0.10100000352E+00 0. -1.
</event>
<event>
 5   0  0.4450600E-08  0.3096797E+04  0.7818609E-02  0.8216617E-01
       -1   -1    0    0    0  501  0.00000000000E+00  0.00000000000E+00  0.26841691058E+04  0.26841691058E+04  0.50400001928E-02 0.  1.
        1   -1    0    0  501    0  0.00000000000E+00  0.00000000000E+00 -0.89321434121E+03  0.89321434122E+03  0.50400001928E-02 0. -1.
    10030    2    1    2    0    0  0.00000000000E+00  0.00000000000E+00  0.17909547645E+04  0.35773834470E+04  0.30967972743E+04 0.  0.
        4    1    3    3  502    0 -0.11891256018E+04  0.65295384195E+03  0.33202132371E+02  0.13570086260E+04  0.12699999809E+01 0. -1.
       -4    1    3    3    0  502  0.11891256018E+04 -0.65295384195E+03  0.17577526322E+04  0.22203748209E+04  0.12699999809E+01 0.  1.
</event>
<event>
 5   0  0.4450600E-08  0.3100059E+04  0.7818609E-02  0.8215722E-01
       -1   -1    0    0    0  501  0.00000000000E+00  0.00000000000E+00  0.10617127778E+04  0.10617127778E+04  0.50400001928E-02 0.  1.
        1   -1    0    0  501    0  0.00000000000E+00  0.00000000000E+00 -0.22629386983E+04  0.22629386983E+04  0.50400001928E-02 0. -1.
    10030    2    1    2    0    0  0.00000000000E+00  0.00000000000E+00 -0.12012259205E+04  0.33246514761E+04  0.31000586649E+04 0.  0.
        4    1    3    3  502    0 -0.13825657105E+04  0.34496996144E+03 -0.12548036444E+04  0.18986906059E+04  0.12699999809E+01 0. -1.
       -4    1    3    3    0  502  0.13825657105E+04 -0.34496996144E+03  0.53577723900E+02  0.14259608703E+04  0.12699999809E+01 0.  1.
</event>
<event>
 5   0  0.1398931E-07  0.3099245E+04  0.7818609E-02  0.8215945E-01
        2   -1    0    0  501    0  0.00000000000E+00  0.00000000000E+00  0.16442855750E+04  0.16442855750E+04  0.25500000920E-02 0. -1.
       -2   -1    0    0    0  501  0.00000000000E+00  0.00000000000E+00 -0.14604088604E+04  0.14604088605E+04  0.25500000920E-02 0.  1.
    10030    2    1    2    0    0  0.00000000000E+00  0.00000000000E+00  0.18387671451E+03  0.31046944354E+04  0.30992445678E+04 0.  0.
        3    1    3    3  502    0  0.13361357538E+04  0.68073832095E+03  0.48335013657E+03  0.15755287299E+04  0.10100000352E+00 0. -1.
       -3    1    3    3    0  502 -0.13361357538E+04 -0.68073832095E+03 -0.29947342206E+03  0.15291657055E+04  0.10100000352E+00 0.  1.
</event>
<event>
 5   0  0.4436241E-08  0.3099951E+04  0.7818609E-02  0.8215751E-01
       -1   -1    0    0    0  501  0.00000000000E+00  0.00000000000E+00  0.15936644140E+04  0.15936644140E+04  0.50400001928E-02 0. -1.
        1   -1    0    0  501    0  0.00000000000E+00  0.00000000000E+00 -0.15074840396E+04  0.15074840396E+04  0.50400001928E-02 0.  1.
    10030    2    1    2    0    0  0.00000000000E+00  0.00000000000E+00  0.86180374423E+02  0.31011484535E+04  0.30999507535E+04 0.  0.
        3    1    3    3  502    0  0.16528670157E+03  0.45048708825E+02  0.15841640529E+04  0.15934004006E+04  0.10100000352E+00 0. -1.
       -3    1    3    3    0  502 -0.16528670157E+03 -0.45048708825E+02 -0.14979836785E+04  0.15077480529E+04  0.10100000352E+00 0.  1.
</event>
<event>
 5   0  0.4470354E-08  0.3100601E+04  0.7818609E-02  0.8215573E-01
        1   -1    0    0  501    0  0.00000000000E+00  0.00000000000E+00  0.19925420153E+04  0.19925420153E+04  0.50400001928E-02 0. -1.
       -1   -1    0    0    0  501  0.00000000000E+00  0.00000000000E+00 -0.12062136290E+04  0.12062136290E+04  0.50400001928E-02 0.  1.
    10030    2    1    2    0    0  0.00000000000E+00  0.00000000000E+00  0.78632838627E+03  0.31987556443E+04  0.31006008032E+04 0.  0.
        1    1    3    3  502    0  0.29341457011E+03 -0.12362366163E+04  0.13095740325E+04  0.18246526322E+04  0.50400001928E-02 0. -1.
       -1    1    3    3    0  502 -0.29341457011E+03  0.12362366163E+04 -0.52324564620E+03  0.13741030121E+04  0.50400001928E-02 0.  1.
</event>
<event>
 5   0  0.4450600E-08  0.3098756E+04  0.7818609E-02  0.8216079E-01
       -1   -1    0    0    0  501  0.00000000000E+00  0.00000000000E+00  0.14500115809E+04  0.14500115810E+04  0.50400001928E-02 0.  1.
        1   -1    0    0  501    0  0.00000000000E+00  0.00000000000E+00 -0.16555536605E+04  0.16555536605E+04  0.50400001928E-02 0. -1.
    10030    2    1    2    0    0  0.00000000000E+00  0.00000000000E+00 -0.20554207952E+03  0.31055652414E+04  0.30987558668E+04 0.  0.
        4    1    3    3  502    0  0.13242535168E+04  0.80424771447E+03 -0.11321529736E+03  0.15534738747E+04  0.12699999809E+01 0.  1.
       -4    1    3    3    0  502 -0.13242535168E+04 -0.80424771447E+03 -0.92326782161E+02  0.15520913667E+04  0.12699999809E+01 0. -1.
</event>
<event>
 5   0  0.1377237E-07  0.3100323E+04  0.7818609E-02  0.8215649E-01
        2   -1    0    0  501    0  0.00000000000E+00  0.00000000000E+00  0.12233225112E+04  0.12233225112E+04  0.25500000920E-02 0.  1.
       -2   -1    0    0    0  501  0.00000000000E+00  0.00000000000E+00 -0.19643234629E+04  0.19643234629E+04  0.25500000920E-02 0. -1.
    10030    2    1    2    0    0  0.00000000000E+00  0.00000000000E+00 -0.74100095171E+03  0.31876459741E+04  0.31003232808E+04 0.  0.
        2    1    3    3  502    0  0.11766479438E+04  0.84054616685E+03 -0.94478679997E+03  0.17273217244E+04  0.25500000920E-02 0.  1.
       -2    1    3    3    0  502 -0.11766479438E+04 -0.84054616685E+03  0.20378584826E+03  0.14603242497E+04  0.25500000920E-02 0. -1.
</event>
<event>
 5   0  0.1377237E-07  0.3105141E+04  0.7818609E-02  0.8214328E-01
       -2   -1    0    0    0  501  0.00000000000E+00  0.00000000000E+00  0.12166120296E+04  0.12166120296E+04  0.25500000920E-02 0. -1.
        2   -1    0    0  501    0  0.00000000000E+00  0.00000000000E+00 -0.19813014388E+04  0.19813014388E+04  0.25500000920E-02 0.  1.
    10030    2    1    2    0    0  0.00000000000E+00  0.00000000000E+00 -0.76468940926E+03  0.31979134684E+04  0.31051410047E+04 0.  0.
        2    1    3    3  502    0  0.99063482508E+02 -0.41988807583E+03 -0.19183315281E+04  0.19662439883E+04  0.25500000920E-02 0.  1.
       -2    1    3    3    0  502 -0.99063482508E+02  0.41988807583E+03  0.11536421189E+04  0.12316694801E+04  0.25500000920E-02 0. -1.
</event>
<event>
 5   0  0.1377237E-07  0.3100310E+04  0.7818609E-02  0.8215653E-01
       -2   -1    0    0    0  501  0.00000000000E+00  0.00000000000E+00  0.10435732442E+04  0.10435732442E+04  0.25500000920E-02 0.  1.
        2   -1    0    0  501    0  0.00000000000E+00  0.00000000000E+00 -0.23026460660E+04  0.23026460660E+04  0.25500000920E-02 0. -1.
    10030    2    1    2    0    0  0.00000000000E+00  0.00000000000E+00 -0.12590728218E+04  0.33462193102E+04  0.31003095493E+04 0.  0.
        2    1    3    3  502    0  0.77257129956E+03 -0.82717458918E+02 -0.20773000383E+04  0.22178557302E+04  0.25500000920E-02 0. -1.
       -2    1    3    3    0  502 -0.77257129956E+03  0.82717458918E+02  0.81822721651E+03  0.11283635800E+04  0.25500000920E-02 0.  1.
</event>
<event>
 5   0  0.4517409E-08  0.3096965E+04  0.7818609E-02  0.8216571E-01
        1   -1    0    0  501    0  0.00000000000E+00  0.00000000000E+00  0.13175465756E+04  0.13175465756E+04  0.50400001928E-02 0.  1.
       -1   -1    0    0    0  501  0.00000000000E+00  0.00000000000E+00 -0.18198958354E+04  0.18198958354E+04  0.50400001928E-02 0. -1.
    10030    2    1    2    0    0  0.00000000000E+00  0.00000000000E+00 -0.50234925975E+03  0.31374424110E+04  0.30969646597E+04 0.  0.
        2    1    3    3  502    0 -0.99284310343E+03 -0.71959763860E+03 -0.12091765916E+04  0.17221109776E+04  0.25500000920E-02 0. -1.
       -2    1    3    3    0  502  0.99284310343E+03  0.71959763860E+03  0.70682733181E+03  0.14153314334E+04  0.25500000920E-02 0.  1.
</event>
<event>
 5   0  0.4450600E-08  0.3099749E+04  0.7818609E-02  0.8215807E-01
        1   -1    0    0  501    0  0.00000000000E+00  0.00000000000E+00  0.19429399929E+04  0.19429399929E+04  0.50400001928E-02 0. -1.
       -1   -1    0    0    0  501  0.00000000000E+00  0.00000000000E+00 -0.12363278072E+04  0.12363278072E+04  0.50400001928E-02 0.  1.
    10030    2    1    2    0    0  0.00000000000E+00  0.00000000000E+00  0.70661218564E+03  0.31792678001E+04  0.30997488549E+04 0.  0.
        4    1    3    3  502    0 -0.69052673456E+03 -0.10399224614E+04 -0.58886871720E+03  0.13802296461E+04  0.12699999809E+01 0.  1.
       -4    1    3    3    0  502  0.69052673456E+03  0.10399224614E+04  0.12954809028E+04  0.17990381540E+04  0.12699999809E+01 0. -1.
</event>
<event>
 5   0  0.4436241E-08  0.3099151E+04  0.7818609E-02  0.8215971E-01
        1   -1    0    0  501    0  0.00000000000E+00  0.00000000000E+00  0.15242784067E+04  0.15242784067E+04  0.50400001928E-02 0.  1.
       -1   -1    0    0    0  501  0.00000000000E+00  0.00000000000E+00 -0.15752927490E+04  0.15752927490E+04  0.50400001928E-02 0. -1.
    10030    2    1    2    0    0  0.00000000000E+00  0.00000000000E+00 -0.51014342307E+02  0.30995711557E+04  0.30991513171E+04 0.  0.
        3    1    3    3  502    0  0.37391661411E+03  0.17394477835E+03  0.14683866756E+04  0.15251983017E+04  0.10100000352E+00 0.  1.
       -3    1    3    3    0  502 -0.37391661411E+03 -0.17394477835E+03 -0.15194010179E+04  0.15743728541E+04  0.10100000352E+00 0. -1.
</event>
<event>
 5   0  0.1318916E-07  0.3093095E+04  0.7818609E-02  0.8217635E-01
        2   -1    0    0  501    0  0.00000000000E+00  0.00000000000E+00  0.19010929836E+04  0.19010929836E+04  0.25500000920E-02 0. -1.
       -2   -1    0    0    0  501  0.00000000000E+00  0.00000000000E+00 -0.12581233482E+04  0.12581233482E+04  0.25500000920E-02 0.  1.
    10030    2    1    2    0    0  0.00000000000E+00  0.00000000000E+00  0.64296963536E+03  0.31592163318E+04  0.30930951940E+04 0.  0.
        5    1    3    3  502    0 -0.19878229647E+03 -0.51717727060E+03 -0.11532649841E+04  0.12794643192E+04  0.46999998093E+01 0.  1.
       -5    1    3    3    0  502  0.19878229647E+03  0.51717727060E+03  0.17962346195E+04  0.18797520126E+04  0.46999998093E+01 0. -1.
</event>
<event>
 5   0  0.4450600E-08  0.3104597E+04  0.7818609E-02  0.8214477E-01
       -1   -1    0    0    0  501  0.00000000000E+00  0.00000000000E+00  0.11837813568E+04  0.11837813568E+04  0.50400001928E-02 0. -1.
        1   -1    0    0  501    0  0.00000000000E+00  0.00000000000E+00 -0.20355369192E+04  0.20355369192E+04  0.50400001928E-02 0.  1.
    10030    2    1    2    0    0  0.00000000000E+00  0.00000000000E+00 -0.85175556231E+03  0.32193182760E+04  0.31045970148E+04 0.  0.
        4    1    3    3  502    0  0.91290617146E+02 -0.14454617048E+04 -0.10050278325E+04  0.17628885597E+04  0.12699999809E+01 0. -1.
       -4    1    3    3    0  502 -0.91290617146E+02  0.14454617048E+04  0.15327227023E+03  0.14564297163E+04  0.12699999809E+01 0.  1.
</event>
<event>
 5   0  0.1318916E-07  0.3099467E+04  0.7818609E-02  0.8215884E-01
       -2   -1    0    0    0  501  0.00000000000E+00  0.00000000000E+00  0.84633578407E+03  0.84633578408E+03  0.25500000920E-02 0. -1.
        2   -1    0    0  501    0  0.00000000000E+00  0.00000000000E+00 -0.28377311662E+04  0.28377311662E+04  0.25500000920E-02 0.  1.
    10030    2    1    2    0    0  0.00000000000E+00  0.00000000000E+00 -0.19913953821E+04  0.36840669503E+04  0.30994666841E+04 0.  0.
        5    1    3    3  502    0  0.13387108446E+04  0.26885882383E+03 -0.12450054225E+03  0.13711142431E+04  0.46999998093E+01 0. -1.
       -5    1    3    3    0  502 -0.13387108446E+04 -0.26885882383E+03 -0.18668948399E+04  0.23129527072E+04  0.46999998093E+01 0.  1.
</event>
<event>
 5   0  0.4450600E-08  0.3100702E+04  0.7818609E-02  0.8215545E-01
        1   -1    0    0  501    0  0.00000000000E+00  0.00000000000E+00  0.18170063179E+04  0.18170063179E+04  0.50400001928E-02 0. -1.
       -1   -1    0    0    0  501  0.00000000000E+00  0.00000000000E+00 -0.13228285520E+04  0.13228285520E+04  0.50400001928E-02 0.  1.
    10030    2    1    2    0    0  0.00000000000E+00  0.00000000000E+00  0.49417776582E+03  0.31398348699E+04  0.31007017506E+04 0.  0.
        4    1    3    3  502    0 -0.12123758973E+04 -0.94418275530E+03  0.38947082539E+02  0.15371580530E+04  0.12699999809E+01 0. -1.
       -4    1    3    3    0  502  0.12123758973E+04  0.94418275530E+03  0.45523068328E+03  0.16026768169E+04  0.12699999809E+01 0.  1.
</event>
<event>
 5   0  0.4838602E-08  0.3099698E+04  0.7818609E-02  0.8215821E-01
       -1   -1    0    0    0  501  0.00000000000E+00  0.00000000000E+00  0.26829581513E+04  0.26829581513E+04  0.50400001928E-02 0. -1.
        1   -1    0    0  501    0  0.00000000000E+00  0.00000000000E+00 -0.89529255341E+03  0.89529255342E+03  0.50400001928E-02 0.  1.
    10030    2    1    2    0    0  0.00000000000E+00  0.00000000000E+00  0.17876655979E+04  0.35782507048E+04  0.30996983428E+04 0.  0.
        5    1    3    3  502    0  0.12254790553E+04 -0.37646918550E+03 -0.11153295736E+03  0.12868526152E+04  0.46999998093E+01 0.  1.
       -5    1    3    3    0  502 -0.12254790553E+04  0.37646918550E+03  0.18991985553E+04  0.22913980896E+04  0.46999998093E+01 0. -1.
</event>
<event>
 5   0  0.4436241E-08  0.3100635E+04  0.7818609E-02  0.8215564E-01
       -1   -1    0    0    0  501  0.00000000000E+00  0.00000000000E+00  0.26561544392E+04  0.26561544392E+04  0.50400001928E-02 0. -1.
        1   -1    0    0  501    0  0.00000000000E+00  0.00000000000E+00 -0.90487390651E+03  0.90487390652E+03  0.50400001928E-02 0.  1.
    10030    2    1    2    0    0  0.00000000000E+00  0.00000000000E+00  0.17512805327E+04  0.35610283457E+04  0.31006353179E+04 0.  0.
        3    1    3    3  502    0  0.97720567046E+03 -0.11512204115E+04  0.47244981985E+03  0.15822288712E+04  0.10100000352E+00 0.  1.
       -3    1    3    3    0  502 -0.97720567046E+03  0.11512204115E+04  0.12788307129E+04  0.19787994746E+04  0.10100000352E+00 0. -1.
</event>
<event>
 5   0  0.4436241E-08  0.3103897E+04  0.7818609E-02  0.8214669E-01
       -1   -1    0    0    0  501  0.00000000000E+00  0.00000000000E+00  0.13000893908E+04  0.13000893908E+04  0.50400001928E-02 0. -1.
        1   -1    0    0  501    0  0.00000000000E+00  0.00000000000E+00 -0.18525986668E+04  0.18525986668E+04  0.50400001928E-02 0.  1.
    10030    2    1    2    0    0  0.00000000000E+00  0.00000000000E+00 -0.55250927604E+03  0.31526880576E+04  0.31038968231E+04 0.  0.
        3    1    3    3  502    0  0.99907354477E+03  0.98317405937E+03  0.40037356075E+03  0.14577647880E+04  0.10100000352E+00 0. -1.
       -3    1    3    3    0  502 -0.99907354477E+03 -0.98317405937E+03 -0.95288283679E+03  0.16949232696E+04  0.10100000352E+00 0.  1.
</event>
<event>
 5   0  0.1325713E-07  0.3099635E+04  0.7818609E-02  0.8215838E-01
        2   -1    0    0  501    0  0.00000000000E+00  0.00000000000E+00  0.14644806200E+04  0.14644806200E+04  0.25500000920E-02 0. -1.
       -2   -1    0    0    0  501  0.00000000000E+00  0.00000000000E+00 -0.16401268908E+04  0.16401268908E+04  0.25500000920E-02 0.  1.
    10030    2    1    2    0    0  0.00000000000E+00  0.00000000000E+00 -0.17564627078E+03  0.31046075108E+04  0.30996348468E+04 0.  0.
        4    1    3    3  502    0 -0.14971480220E+04  0.28659232362E+03 -0.36817407428E+03  0.15681648898E+04  0.12699999809E+01 0.  1.
       -4    1    3    3    0  502  0.14971480220E+04 -0.28659232362E+03  0.19252780350E+03  0.15364426210E+04  0.12699999809E+01 0. -1.
</event>
<event>
 5   0  0.1377237E-07  0.3095369E+04  0.7818609E-02  0.8217010E-01
       -2   -1    0    0    0  501  0.00000000000E+00  0.00000000000E+00  0.13623505594E+04  0.13623505594E+04  0.25500000920E-02 0.  1.
        2   -1    0    0  501    0  0.00000000000E+00  0.00000000000E+00 -0.17582316652E+04  0.17582316652E+04  0.25500000920E-02 0. -1.
    10030    2    1    2    0    0  0.00000000000E+00  0.00000000000E+00 -0.39588110583E+03  0.31205822247E+04  0.30953693755E+04 0.  0.
        2    1    3    3  502    0 -0.10783701526E+04  0.17962222277E+03 -0.13023919895E+04  0.17004032531E+04  0.25500000920E-02 0. -1.
       -2    1    3    3    0  502  0.10783701526E+04 -0.17962222277E+03  0.90651088367E+03  0.14201789715E+04  0.25500000920E-02 0.  1.
</event>
<event>
 5   0  0.4436241E-08  0.3098230E+04  0.7818609E-02  0.8216224E-01
       -1   -1    0    0    0  501  0.00000000000E+00  0.00000000000E+00  0.10407349095E+04  0.10407349095E+04  0.50400001928E-02 0.  1.
        1   -1    0    0  501    0  0.00000000000E+00  0.00000000000E+00 -0.23058296230E+04  0.23058296230E+04  0.50400001928E-02 0. -1.
    10030    2    1    2    0    0  0.00000000000E+00  0.00000000000E+00 -0.12650947135E+04  0.33465645325E+04  0.30982300650E+04 0.  0.
        3    1    3    3  502    0  0.10335095578E+04  0.18939332751E+03  0.59700039646E+03  0.12084789291E+04  0.10100000352E+00 0.  1.
       -3    1    3    3    0  502 -0.10335095578E+04 -0.18939332751E+03 -0.18620951099E+04  0.21380856033E+04  0.10100000352E+00 0. -1.
</event>
<event>
 5   0  0.1398931E-07  0.3102416E+04  0.7818609E-02  0.8215075E-01
        2   -1    0    0  501    0  0.00000000000E+00  0.00000000000E+00  0.90255926623E+03  0.90255926623E+03  0.25500000920E-02 0.  1.
       -2   -1    0    0    0  501  0.00000000000E+00  0.00000000000E+00 -0.26660257957E+04  0.26660257957E+04  0.25500000920E-02 0. -1.
    10030    2    1    2    0    0  0.00000000000E+00  0.00000000000E+00 -0.17634665294E+04  0.35685850619E+04  0.31024160172E+04 0.  0.
        3    1    3    3  502    0  0.13127932104E+04  0.81604303384E+03 -0.73222588061E+03  0.17104113531E+04  0.10100000352E+00 0. -1.
       -3    1    3    3    0  502 -0.13127932104E+04 -0.81604303384E+03 -0.10312406488E+04  0.18581737088E+04  0.10100000352E+00 0.  1.
</event>
<event>
 5   0  0.4470354E-08  0.3099007E+04  0.7818609E-02  0.8216010E-01
       -1   -1    0    0    0  501  0.00000000000E+00  0.00000000000E+00  0.27148909048E+04  0.27148909048E+04  0.50400001928E-02 0. -1.
        1   -1    0    0  501    0  0.00000000000E+00  0.00000000000E+00 -0.88436754170E+03  0.88436754171E+03  0.50400001928E-02 0.  1.
    10030    2    1    2    0    0  0.00000000000E+00  0.00000000000E+00  0.18305233631E+04  0.35992584465E+04  0.30990071929E+04 0.  0.
        1    1    3    3  502    0 -0.31073027967E+03  0.37405553140E+03  0.26239714219E+04  0.26686507583E+04  0.50400001928E-02 0. -1.
       -1    1    3    3    0  502  0.31073027967E+03 -0.37405553140E+03 -0.79344805876E+03  0.93060768816E+03  0.50400001928E-02 0.  1.
</event>
<event>
 5   0  0.4450600E-08  0.3101004E+04  0.7818609E-02  0.8215462E-01
       -1   -1    0    0    0  501  0.00000000000E+00  0.00000000000E+00  0.15502464725E+04  0.15502464725E+04  0.50400001928E-02 0.  1.
        1   -1    0    0  501    0  0.00000000000E+00  0.00000000000E+00 -0.15507573237E+04  0.15507573237E+04  0.50400001928E-02 0. -1.
    10030    2    1    2    0    0  0.00000000000E+00  0.00000000000E+00 -0.51085122507E+00  0.31010037962E+04  0.31010037541E+04 0.  0.
        4    1    3    3  502    0  0.15264360048E+03 -0.46210136571E+03  0.14718915697E+04  0.15502593805E+04  0.12699999809E+01 0.  1.
       -4    1    3    3    0  502 -0.15264360048E+03  0.46210136571E+03 -0.14724024209E+04  0.15507444157E+04  0.12699999809E+01 0. -1.
</event>
<event>
 5   0  0.4838602E-08  0.3099889E+04  0.7818609E-02  0.8215768E-01
       -1   -1    0    0    0  501  0.00000000000E+00  0.00000000000E+00  0.96065580421E+03  0.96065580422E+03  0.50400001928E-02 0. -1.
        1   -1    0    0  501    0  0.00000000000E+00  0.00000000000E+00 -0.25007160020E+04  0.25007160020E+04  0.50400001928E-02 0.  1.
    10030    2    1    2    0    0  0.00000000000E+00  0.00000000000E+00 -0.15400601978E+04  0.34613718063E+04  0.30998886058E+04 0.  0.
        5    1    3    3  502    0 -0.15129368115E+04 -0.32822795060E+03 -0.85354391095E+03  0.17678435115E+04  0.46999998093E+01 0.  1.
       -5    1    3    3    0  502  0.15129368115E+04  0.32822795060E+03 -0.68651628688E+03  0.16935282948E+04  0.46999998093E+01 0. -1.
</event>
<event>
 5   0  0.1398931E-07  0.3099678E+04  0.7818609E-02  0.8215826E-01
        2   -1    0    0  501    0  0.00000000000E+00  0.00000000000E+00  0.15221614091E+04  0.15221614091E+04  0.25500000920E-02 0.  1.
       -2   -1    0    0    0  501  0.00000000000E+00  0.00000000000E+00 -0.15780197477E+04  0.15780197477E+04  0.25500000920E-02 0. -1.
    10030    2    1    2    0    0  0.00000000000E+00  0.00000000000E+00 -0.55858338596E+02  0.31001811568E+04  0.30996778947E+04 0.  0.
        3    1    3    3  502    0  0.80105684428E+03 -0.27776821286E+03  0.12696455303E+04  0.15267111811E+04  0.10100000352E+00 0.  1.
       -3    1    3    3    0  502 -0.80105684428E+03  0.27776821286E+03 -0.13255038689E+04  0.15734699757E+04  0.10100000352E+00 0. -1.
</event>
<event>
 5   0  0.4470354E-08  0.3099905E+04  0.7818609E-02  0.8215764E-01
       -1   -1    0    0    0  501  0.00000000000E+00  0.00000000000E+00  0.11828889778E+04  0.11828889778E+04  0.50400001928E-02 0. -1.
        1   -1    0    0  501    0  0.00000000000E+00  0.00000000000E+00 -0.20309198341E+04  0.20309198341E+04  0.50400001928E-02 0.  1.
    10030    2    1    2    0    0  0.00000000000E+00  0.00000000000E+00 -0.84803085630E+03  0.32138088118E+04  0.30999049575E+04 0.  0.
        1    1    3    3  502    0  0.50406201082E+03 -0.34299751372E+03  0.10533458913E+04  0.12170716380E+04  0.50400001928E-02 0. -1.
       -1    1    3    3    0  502 -0.50406201082E+03  0.34299751372E+03 -0.19013767476E+04  0.19967371739E+04  0.50400001928E-02 0.  1.
</event>
<event>
 5   0  0.1329777E-07  0.3101892E+04  0.7818609E-02  0.8215219E-01
        2   -1    0    0  501    0  0.00000000000E+00  0.00000000000E+00  0.21663959195E+04  0.21663959195E+04  0.25500000920E-02 0. -1.
       -2   -1    0    0    0  501  0.00000000000E+00  0.00000000000E+00 -0.11103387892E+04  0.11103387892E+04  0.25500000920E-02 0.  1.
    10030    2    1    2    0    0  0.00000000000E+00  0.00000000000E+00  0.10560571302E+04  0.32767347087E+04  0.31018919531E+04 0.  0.
        1    1    3    3  502    0 -0.12099119721E+04 -0.80028089985E+03 -0.51624016129E+02  0.14515514245E+04  0.50400001928E-02 0.  1.
       -1    1    3    3    0  502  0.12099119721E+04  0.80028089985E+03  0.11076811463E+04  0.18251832842E+04  0.50400001928E-02 0. -1.
</event>
<event>
 5   0  0.4450600E-08  0.3100215E+04  0.7818609E-02  0.8215679E-01
       -1   -1    0    0    0  501  0.00000000000E+00  0.00000000000E+00  0.24706216074E+04  0.24706216074E+04  0.50400001928E-02 0. -1.
        1   -1    0    0  501    0  0.00000000000E+00  0.00000000000E+00 -0.97256194074E+03  0.97256194075E+03  0.50400001928E-02 0.  1.
    10030    2    1    2    0    0  0.00000000000E+00  0.00000000000E+00  0.14980596667E+04  0.34431835482E+04  0.31002145380E+04 0.  0.
        4    1    3    3  502    0  0.97214643141E+03 -0.17417759705E+03  0.20759505853E+04  0.22989082115E+04  0.12699999809E+01 0. -1.
       -4    1    3    3    0  502 -0.97214643141E+03  0.17417759705E+03 -0.57789091861E+03  0.11442753367E+04  0.12699999809E+01 0.  1.
</event>
<event>
 5   0  0.4838602E-08  0.3099948E+04  0.7818609E-02  0.8215752E-01
       -1   -1    0    0    0  501  0.00000000000E+00  0.00000000000E+00  0.88990460585E+03  0.88990460587E+03  0.50400001928E-02 0.  1.
        1   -1    0    0  501    0  0.00000000000E+00  0.00000000000E+00 -0.26996375623E+04  0.26996375623E+04  0.50400001928E-02 0. -1.
    10030    2    1    2    0    0  0.00000000000E+00  0.00000000000E+00 -0.18097329564E+04  0.35895421681E+04  0.30999483227E+04 0.  0.
        5    1    3    3  502    0  0.10939657251E+04 -0.82561512844E+03 -0.66664303681E+02  0.13721762159E+04  0.46999998093E+01 0.  1.
       -5    1    3    3    0  502 -0.10939657251E+04  0.82561512844E+03 -0.17430686527E+04  0.22173659522E+04  0.46999998093E+01 0. -1.
</event>
<event>
 5   0  0.4517409E-08  0.3100346E+04  0.7818609E-02  0.8215643E-01
        1   -1    0    0  501    0  0.00000000000E+00  0.00000000000E+00  0.72353408247E+03  0.72353408249E+03  0.50400001928E-02 0.  1.
       -1   -1    0    0    0  501  0.00000000000E+00  0.00000000000E+00 -0.33212476661E+04  0.33212476661E+04  0.50400001928E-02 0. -1.
    10030    2    1    2    0    0  0.00000000000E+00  0.00000000000E+00 -0.25977135836E+04  0.40447817486E+04  0.31003457115E+04 0.  0.
        2    1    3    3  502    0 -0.10063632294E+04  0.24165014037E+02 -0.28368101036E+04  0.30101233299E+04  0.25500000920E-02 0. -1.
       -2    1    3    3    0  502  0.10063632294E+04 -0.24165014037E+02  0.23909652002E+03  0.10346584186E+04  0.25500000920E-02 0.  1.
</event>
<event>
 5   0  0.4450600E-08  0.3099857E+04  0.7818609E-02  0.8215777E-01
       -1   -1    0    0    0  501  0.00000000000E+00  0.00000000000E+00  0.27789733618E+04  0.27789733618E+04  0.50400001928E-02 0. -1.
        1   -1    0    0  501    0  0.00000000000E+00  0.00000000000E+00 -0.86444802742E+03  0.86444802744E+03  0.50400001928E-02 0.  1.
    10030    2    1    2    0    0  0.00000000000E+00  0.00000000000E+00  0.19145253344E+04  0.36434213893E+04  0.30998567973E+04 0.  0.
        4    1    3    3  502    0  0.73826344708E+03 -0.96164378856E+03  0.20922437882E+04  0.24181144256E+04  0.12699999809E+01 0. -1.
       -4    1    3    3    0  502 -0.73826344708E+03  0.96164378856E+03 -0.17771845379E+03  0.12253069636E+04  0.12699999809E+01 0.  1.
</event>
<event>
 5   0  0.4838602E-08  0.3100096E+04  0.7818609E-02  0.8215712E-01
       -1   -1    0    0    0  501  0.00000000000E+00  0.00000000000E+00  0.12550435137E+04  0.12550435137E+04  0.50400001928E-02 0.  1.
        1   -1    0    0  501    0  0.00000000000E+00  0.00000000000E+00 -0.19143947026E+04  0.19143947026E+04  0.50400001928E-02 0. -1.
    10030    2    1    2    0    0  0.00000000000E+00  0.00000000000E+00 -0.65935118891E+03  0.31694382163E+04  0.31000959044E+04 0.  0.
        5    1    3    3  502    0 -0.13312811744E+04 -0.67476989604E+03  0.98014699309E+02  0.14957449479E+04  0.46999998093E+01 0.  1.
       -5    1    3    3    0  502  0.13312811744E+04  0.67476989604E+03 -0.75736588822E+03  0.16736932684E+04  0.46999998093E+01 0. -1.
</event>
<event>
 5   0  0.1377237E-07  0.3100064E+04  0.7818609E-02  0.8215720E-01
        2   -1    0    0  501    0  0.00000000000E+00  0.00000000000E+00  0.18410480376E+04  0.18410480376E+04  0.25500000920E-02 0.  1.
       -2   -1    0    0    0  501  0.00000000000E+00  0.00000000000E+00 -0.13050169440E+04  0.13050169440E+04  0.25500000920E-02 0. -1.
    10030    2    1    2    0    0  0.00000000000E+00  0.00000000000E+00  0.53603109362E+03  0.31460649816E+04  0.31000637953E+04 0.  0.
        2    1    3    3  502    0 -0.56878424647E+03 -0.11184343888E+04  0.11915678455E+04  0.17303886648E+04  0.25500000920E-02 0.  1.
       -2    1    3    3    0  502  0.56878424647E+03  0.11184343888E+04 -0.65553675183E+03  0.14156763168E+04  0.25500000920E-02 0. -1.
</event>
<event>
 5   0  0.4470354E-08  0.3098812E+04  0.7818609E-02  0.8216064E-01
       -1   -1    0    0    0  501  0.00000000000E+00  0.00000000000E+00  0.10256296796E+04  0.10256296796E+04  0.50400001928E-02 0. -1.
        1   -1    0    0  501    0  0.00000000000E+00  0.00000000000E+00 -0.23406676832E+04  0.23406676832E+04  0.50400001928E-02 0.  1.
    10030    2    1    2    0    0  0.00000000000E+00  0.00000000000E+00 -0.13150380036E+04  0.33662973627E+04  0.30988115437E+04 0.  0.
        1    1    3    3  502    0 -0.79310413731E+03  0.34779279063E+03  0.73817211776E+03  0.11379244585E+04  0.50400001928E-02 0. -1.
       -1    1    3    3    0  502  0.79310413731E+03 -0.34779279063E+03 -0.20532101213E+04  0.22283729042E+04  0.50400001928E-02 0.  1.
</event>
<event>
 5   0  0.4470354E-08  0.3100983E+04  0.7818609E-02  0.8215468E-01
       -1   -1    0    0    0  501  0.00000000000E+00  0.00000000000E+00  0.15183811922E+04  0.15183811922E+04  0.50400001928E-02 0.  1.
        1   -1    0    0  501    0  0.00000000000E+00  0.00000000000E+00 -0.15832805897E+04  0.15832805897E+04  0.50400001928E-02 0. -1.
    10030    2    1    2    0    0  0.00000000000E+00  0.00000000000E+00 -0.64899397534E+02  0.31016617820E+04  0.31009827278E+04 0.  0.
        1    1    3    3  502    0  0.76637656997E+03  0.42024284324E+03  0.12484893111E+04  0.15240284296E+04  0.50400001928E-02 0.  1.
       -1    1    3    3    0  502 -0.76637656997E+03 -0.42024284324E+03 -0.13133887087E+04  0.15776333523E+04  0.50400001928E-02 0. -1.
</event>
<event>
 5   0  0.4470354E-08  0.3100623E+04  0.7818609E-02  0.8215567E-01
       -1   -1    0    0    0  501  0.00000000000E+00  0.00000000000E+00  0.15371850644E+04  0.15371850644E+04  0.50400001928E-02 0. -1.
        1   -1    0    0  501    0  0.00000000000E+00  0.00000000000E+00 -0.15635505186E+04  0.15635505186E+04  0.50400001928E-02 0.  1.
    10030    2    1    2    0    0  0.00000000000E+00  0.00000000000E+00 -0.26365454209E+02  0.31007355830E+04  0.31006234887E+04 0.  0.
        1    1    3    3  502    0 -0.70727475769E+03  0.43540256489E+02  0.13657555039E+04  0.15386427244E+04  0.50400001928E-02 0. -1.
       -1    1    3    3    0  502  0.70727475769E+03 -0.43540256489E+02 -0.13921209582E+04  0.15620928586E+04  0.50400001928E-02 0.  1.
</event>
<event>
 5   0  0.1325713E-07  0.3100296E+04  0.7818609E-02  0.8215657E-01
        2   -1    0    0  501    0  0.00000000000E+00  0.00000000000E+00  0.21189438144E+04  0.21189438144E+04  0.25500000920E-02 0.  1.
       -2   -1    0    0    0  501  0.00000000000E+00  0.00000000000E+00 -0.11340362347E+04  0.11340362347E+04  0.25500000920E-02 0. -1.
    10030    2    1    2    0    0  0.00000000000E+00  0.00000000000E+00  0.98490757967E+03  0.32529800491E+04  0.31002961567E+04 0.  0.
        4    1    3    3  502    0 -0.78284242950E+03  0.55917165437E+03 -0.78290821341E+03  0.12403475690E+04  0.12699999809E+01 0. -1.
       -4    1    3    3    0  502  0.78284242950E+03 -0.55917165437E+03  0.17678157931E+04  0.20126324800E+04  0.12699999809E+01 0.  1.
</event>
<event>
 5   0  0.4436241E-08  0.3099328E+04  0.7818609E-02  0.8215922E-01
        1   -1    0    0  501    0  0.00000000000E+00  0.00000000000E+00  0.15967724016E+04  0.15967724016E+04  0.50400001928E-02 0.  1.
       -1   -1    0    0    0  501  0.00000000000E+00  0.00000000000E+00 -0.15039457284E+04  0.15039457284E+04  0.50400001928E-02 0. -1.
    10030    2    1    2    0    0  0.00000000000E+00  0.00000000000E+00  0.92826673195E+02  0.31007181301E+04  0.30993283355E+04 0.  0.
        3    1    3    3  502    0  0.12322382764E+04 -0.57051101533E+03 -0.70062427337E+03  0.15279948858E+04  0.10100000352E+00 0. -1.
       -3    1    3    3    0  502 -0.12322382764E+04  0.57051101533E+03  0.79345094656E+03  0.15727232443E+04  0.10100000352E+00 0.  1.
</event>
<event>
 5   0  0.1325713E-07  0.3099441E+04  0.7818609E-02  0.8215891E-01
       -2   -1    0    0    0  501  0.00000000000E+00  0.00000000000E+00  0.98667671505E+03  0.98667671505E+03  0.25500000920E-02 0.  1.
        2   -1    0    0  501    0  0.00000000000E+00  0.00000000000E+00 -0.24340631462E+04  0.24340631462E+04  0.25500000920E-02 0. -1.
    10030    2    1    2    0    0  0.00000000000E+00  0.00000000000E+00 -0.14473864311E+04  0.34207398612E+04  0.30994408717E+04 0.  0.
        4    1    3    3  502    0 -0.79644843388E+03  0.11312833469E+04 -0.14942841013E+04  0.20364230177E+04  0.12699999809E+01 0. -1.
       -4    1    3    3    0  502  0.79644843388E+03 -0.11312833469E+04  0.46897670222E+02  0.13843168435E+04  0.12699999809E+01 0.  1.
</event>
<event>
 5   0  0.1398931E-07  0.3098207E+04  0.7818609E-02  0.8216230E-01
        2   -1    0    0  501    0  0.00000000000E+00  0.00000000000E+00  0.14352955322E+04  0.14352955322E+04  0.25500000920E-02 0.  1.
       -2   -1    0    0    0  501  0.00000000000E+00  0.00000000000E+00 -0.16719357438E+04  0.16719357438E+04  0.25500000920E-02 0. -1.
    10030    2    1    2    0    0  0.00000000000E+00  0.00000000000E+00 -0.23664021157E+03  0.31072312760E+04  0.30982071611E+04 0.  0.
        3    1    3    3  502    0  0.37036572105E+03 -0.95035215990E+03 -0.12876414238E+04  0.16426686951E+04  0.10100000352E+00 0. -1.
       -3    1    3    3    0  502 -0.37036572105E+03  0.95035215990E+03  0.10510012123E+04  0.14645625810E+04  0.10100000352E+00 0.  1.
</event>
<event>
 5   0  0.1329777E-07  0.3100251E+04  0.7818609E-02  0.8215669E-01
        2   -1    0    0  501    0  0.00000000000E+00  0.00000000000E+00  0.14911541774E+04  0.14911541774E+04  0.25500000920E-02 0. -1.
       -2   -1    0    0    0  501  0.00000000000E+00  0.00000000000E+00 -0.16114290743E+04  0.16114290743E+04  0.25500000920E-02 0.  1.
    10030    2    1    2    0    0  0.00000000000E+00  0.00000000000E+00 -0.12027489685E+03  0.31025832517E+04  0.31002510838E+04 0.  0.
        1    1    3    3  502    0 -0.84031429723E+03  0.11425968747E+04  0.56581965275E+03  0.15270257417E+04  0.50400001928E-02 0. -1.
       -1    1    3    3    0  502  0.84031429723E+03 -0.11425968747E+04 -0.68609454959E+03  0.15755575100E+04  0.50400001928E-02 0.  1.
</event>
<event>
 5   0  0.1325713E-07  0.3089515E+04  0.7818609E-02  0.8218621E-01
        2   -1    0    0  501    0  0.00000000000E+00  0.00000000000E+00  0.17185523551E+04  0.17185523551E+04  0.25500000920E-02 0. -1.
       -2   -1    0    0    0  501  0.00000000000E+00  0.00000000000E+00 -0.13885385024E+04  0.13885385024E+04  0.25500000920E-02 0.  1.
    10030    2    1    2    0    0  0.00000000000E+00  0.00000000000E+00  0.33001385269E+03  0.31070908575E+04  0.30895152458E+04 0.  0.
        4    1    3    3  502    0  0.10832059599E+04  0.10579963228E+04  0.47266080421E+03  0.15862223108E+04  0.12699999809E+01 0. -1.
       -4    1    3    3    0  502 -0.10832059599E+04 -0.10579963228E+04 -0.14264695152E+03  0.15208685467E+04  0.12699999809E+01 0.  1.
</event>
<event>
 5   0  0.4436241E-08  0.3099835E+04  0.7818609E-02  0.8215783E-01
        1   -1    0    0  501    0  0.00000000000E+00  0.00000000000E+00  0.28243161228E+04  0.28243161228E+04  0.50400001928E-02 0. -1.
       -1   -1    0    0    0  501  0.00000000000E+00  0.00000000000E+00 -0.85055804383E+03  0.85055804385E+03  0.50400001928E-02 0.  1.
    10030    2    1    2    0    0  0.00000000000E+00  0.00000000000E+00  0.19737580790E+04  0.36748741666E+04  0.30998353483E+04 0.  0.
        3    1    3    3  502    0 -0.75838088681E+03 -0.37396267914E+03 -0.55302701055E+03  0.10103605987E+04  0.10100000352E+00 0.  1.
       -3    1    3    3    0  502  0.75838088681E+03  0.37396267914E+03  0.25267850895E+04  0.26645135679E+04  0.10100000352E+00 0. -1.
</event>
<event>
 5   0  0.1398931E-07  0.3098035E+04  0.7818609E-02  0.8216277E-01
        2   -1    0    0  501    0  0.00000000000E+00  0.00000000000E+00  0.25174887985E+04  0.25174887985E+04  0.25500000920E-02 0. -1.
       -2   -1    0    0    0  501  0.00000000000E+00  0.00000000000E+00 -0.95311447901E+03  0.95311447901E+03  0.25500000920E-02 0.  1.
    10030    2    1    2    0    0  0.00000000000E+00  0.00000000000E+00  0.15643743195E+04  0.34706032775E+04  0.30980348769E+04 0.  0.
        3    1    3    3  502    0  0.12797864216E+04  0.87223932807E+03  0.75049580980E+03  0.17210167637E+04  0.10100000352E+00 0. -1.
       -3    1    3    3    0  502 -0.12797864216E+04 -0.87223932807E+03  0.81387850966E+03  0.17495865137E+04  0.10100000352E+00 0.  1.
</event>
<event>
 5   0  0.4436241E-08  0.3099130E+04  0.7818609E-02  0.8215977E-01
       -1   -1    0    0    0  501  0.00000000000E+00  0.00000000000E+00  0.17364881971E+04  0.17364881971E+04  0.50400001928E-02 0. -1.
        1   -1    0    0  501    0  0.00000000000E+00  0.00000000000E+00 -0.13827626303E+04  0.13827626303E+04  0.50400001928E-02 0.  1.
    10030    2    1    2    0    0  0.00000000000E+00  0.00000000000E+00  0.35372556673E+03  0.31192508274E+04  0.30991295468E+04 0.  0.
        3    1    3    3  502    0 -0.47850563654E+03 -0.12574962367E+04  0.95054500901E+03  0.16473616039E+04  0.10100000352E+00 0. -1.
       -3    1    3    3    0  502  0.47850563654E+03  0.12574962367E+04 -0.59681944227E+03  0.14718892236E+04  0.10100000352E+00 0.  1.
</event>
<event>
 5   0  0.1325713E-07  0.3100340E+04  0.7818609E-02  0.8215645E-01
       -2   -1    0    0    0  501  0.00000000000E+00  0.00000000000E+00  0.22678401951E+04  0.22678401951E+04  0.25500000920E-02 0. -1.
        2   -1    0    0  501    0  0.00000000000E+00  0.00000000000E+00 -0.10596106503E+04  0.10596106503E+04  0.25500000920E-02 0.  1.
    10030    2    1    2    0    0  0.00000000000E+00  0.00000000000E+00  0.12082295448E+04  0.33274508455E+04  0.31003403839E+04 0.  0.
        4    1    3    3  502    0  0.49655397306E+03  0.14558138952E+04  0.39748613347E+03  0.15886965679E+04  0.12699999809E+01 0. -1.
       -4    1    3    3    0  502 -0.49655397306E+03 -0.14558138952E+04  0.81074341135E+03  0.17387542775E+04  0.12699999809E+01 0.  1.
</event>
<event>
 5   0  0.1377237E-07  0.3099331E+04  0.7818609E-02  0.8215922E-01
        2   -1    0    0  501    0  0.00000000000E+00  0.00000000000E+00  0.24758475226E+04  0.24758475226E+04  0.25500000920E-02 0.  1.
       -2   -1    0    0    0  501  0.00000000000E+00  0.00000000000E+00 -0.96995578331E+03  0.96995578331E+03  0.25500000920E-02 0. -1.
    10030    2    1    2    0    0  0.00000000000E+00  0.00000000000E+00  0.15058917393E+04  0.34458033059E+04  0.30993306524E+04 0.  0.
        2    1    3    3  502    0  0.27762522358E+03 -0.50242554031E+03  0.23532877728E+04  0.24222862197E+04  0.25500000920E-02 0.  1.
       -2    1    3    3    0  502 -0.27762522358E+03  0.50242554031E+03 -0.84739603349E+03  0.10235170863E+04  0.25500000920E-02 0. -1.
</event>
<event>
 5   0  0.1329777E-07  0.3102103E+04  0.7818609E-02  0.8215161E-01
        2   -1    0    0  501    0  0.00000000000E+00  0.00000000000E+00  0.27236915770E+04  0.27236915770E+04  0.25500000920E-02 0. -1.
       -2   -1    0    0    0  501  0.00000000000E+00  0.00000000000E+00 -0.88327198742E+03  0.88327198742E+03  0.25500000920E-02 0.  1.
    10030    2    1    2    0    0  0.00000000000E+00  0.00000000000E+00  0.18404195896E+04  0.36069635644E+04  0.31021028173E+04 0.  0.
        1    1    3    3  502    0 -0.81305334639E+03  0.70026321335E+03  0.22224543143E+04  0.24679399286E+04  0.50400001928E-02 0. -1.
       -1    1    3    3    0  502  0.81305334639E+03 -0.70026321335E+03 -0.38203472470E+03  0.11390236358E+04  0.50400001928E-02 0.  1.
</event>
<event>
 5   0  0.1398931E-07  0.3096821E+04  0.7818609E-02  0.8216611E-01
        2   -1    0    0  501    0  0.00000000000E+00  0.00000000000E+00  0.13985313443E+04  0.13985313443E+04  0.25500000920E-02 0. -1.
       -2   -1    0    0    0  501  0.00000000000E+00  0.00000000000E+00 -0.17143515161E+04  0.17143515161E+04  0.25500000920E-02 0.  1.
    10030    2    1    2    0    0  0.00000000000E+00  0.00000000000E+00 -0.31582017185E+03  0.31128828604E+04  0.30968205182E+04 0.  0.
        3    1    3    3  502    0  0.64788751117E+03 -0.11228223950E+04  0.69329136044E+03  0.14700820652E+04  0.10100000352E+00 0.  1.
       -3    1    3    3    0  502 -0.64788751117E+03  0.11228223950E+04 -0.10091115323E+04  0.16428007952E+04  0.10100000352E+00 0. -1.
</event>
<event>
 5   0  0.1377237E-07  0.3100028E+04  0.7818609E-02  0.8215730E-01
        2   -1    0    0  501    0  0.00000000000E+00  0.00000000000E+00  0.23819902897E+04  0.23819902897E+04  0.25500000920E-02 0.  1.
       -2   -1    0    0    0  501  0.00000000000E+00  0.00000000000E+00 -0.10086283493E+04  0.10086283494E+04  0.25500000920E-02 0. -1.
    10030    2    1    2    0    0  0.00000000000E+00  0.00000000000E+00  0.13733619404E+04  0.33906186391E+04  0.31000276993E+04 0.  0.
        2    1    3    3  502    0 -0.10180850454E+04  0.53591948575E+03 -0.44935243434E+03  0.12351617162E+04  0.25500000920E-02 0. -1.
       -2    1    3    3    0  502  0.10180850454E+04 -0.53591948575E+03  0.18227143747E+04  0.21554569229E+04  0.25500000920E-02 0.  1.
</event>
<event>
 5   0  0.4450600E-08  0.3107943E+04  0.7818609E-02  0.8213561E-01
       -1   -1    0    0    0  501  0.00000000000E+00  0.00000000000E+00  0.17263931664E+04  0.17263931664E+04  0.50400001928E-02 0.  1.
        1   -1    0    0  501    0  0.00000000000E+00  0.00000000000E+00 -0.13987703588E+04  0.13987703588E+04  0.50400001928E-02 0. -1.
    10030    2    1    2    0    0  0.00000000000E+00  0.00000000000E+00  0.32762280764E+03  0.31251635252E+04  0.31079431068E+04 0.  0.
        4    1    3    3  502    0  0.59971661500E+03 -0.14294580265E+04  0.54509037812E+02  0.15511231788E+04  0.12699999809E+01 0.  1.
       -4    1    3    3    0  502 -0.59971661500E+03  0.14294580265E+04  0.27311376983E+03  0.15740403464E+04  0.12699999809E+01 0. -1.
</event>
<event>
 5   0  0.4517409E-08  0.3099691E+04  0.7818609E-02  0.8215823E-01
        1   -1    0    0  501    0  0.00000000000E+00  0.00000000000E+00  0.15860296509E+04  0.15860296509E+04  0.50400001928E-02 0. -1.
       -1   -1    0    0    0  501  0.00000000000E+00  0.00000000000E+00 -0.15144870024E+04  0.15144870024E+04  0.50400001928E-02 0.  1.
    10030    2    1    2    0    0  0.00000000000E+00  0.00000000000E+00  0.71542648529E+02  0.31005166534E+04  0.30996911406E+04 0.  0.
        2    1    3    3  502    0  0.60113601855E+03 -0.13014739619E+03 -0.13871821167E+04  0.15174244898E+04  0.25500000920E-02 0.  1.
       -2    1    3    3    0  502 -0.60113601855E+03  0.13014739619E+03  0.14587247652E+04  0.15830921635E+04  0.25500000920E-02 0. -1.
</event>
<event>
 5   0  0.4450600E-08  0.3099715E+04  0.7818609E-02  0.8215816E-01
       -1   -1    0    0    0  501  0.00000000000E+00  0.00000000000E+00  0.29119065382E+04  0.29119065382E+04  0.50400001928E-02 0.  1.
        1   -1    0    0  501    0  0.00000000000E+00  0.00000000000E+00 -0.82490921280E+03  0.82490921282E+03  0.50400001928E-02 0. -1.
    10030    2    1    2    0    0  0.00000000000E+00  0.00000000000E+00  0.20869973254E+04  0.37368157510E+04  0.30997151677E+04 0.  0.
        4    1    3    3  502    0  0.14983900909E+04 -0.38939036177E+03  0.95607284551E+03  0.18195808905E+04  0.12699999809E+01 0. -1.
       -4    1    3    3    0  502 -0.14983900909E+04  0.38939036177E+03  0.11309244799E+04  0.19172348605E+04  0.12699999809E+01 0.  1.
</event>
<event>
 5   0  0.4838602E-08  0.3099976E+04  0.7818609E-02  0.8215744E-01
        1   -1    0    0  501    0  0.00000000000E+00  0.00000000000E+00  0.16169312690E+04  0.16169312691E+04  0.50400001928E-02 0. -1.
       -1   -1    0    0    0  501  0.00000000000E+00  0.00000000000E+00 -0.14858166112E+04  0.14858166112E+04  0.50400001928E-02 0.  1.
    10030    2    1    2    0    0  0.00000000000E+00  0.00000000000E+00  0.13111465787E+03  0.31027478802E+04  0.30999763475E+04 0.  0.
        5    1    3    3  502    0 -0.10547785729E+04  0.33117636096E+03  0.11529012933E+04  0.15973224791E+04  0.46999998093E+01 0. -1.
       -5    1    3    3    0  502  0.10547785729E+04 -0.33117636096E+03 -0.10217866355E+04  0.15054254011E+04  0.46999998093E+01 0.  1.
</event>
<event>
 5   0  0.4838602E-08  0.3100715E+04  0.7818609E-02  0.8215542E-01
       -1   -1    0    0    0  501  0.00000000000E+00  0.00000000000E+00  0.16879257240E+04  0.16879257240E+04  0.50400001928E-02 0.  1.
        1   -1    0    0  501    0  0.00000000000E+00  0.00000000000E+00 -0.14240008748E+04  0.14240008749E+04  0.50400001928E-02 0. -1.
    10030    2    1    2    0    0  0.00000000000E+00  0.00000000000E+00  0.26392484912E+03  0.31119265988E+04  0.31007145677E+04 0.  0.
        5    1    3    3  502    0  0.57998409951E+03  0.10266197433E+04  0.11422084244E+04  0.16416430269E+04  0.46999998093E+01 0.  1.
       -5    1    3    3    0  502 -0.57998409951E+03 -0.10266197433E+04 -0.87828357531E+03  0.14702835719E+04  0.46999998093E+01 0. -1.
</event>
<event>
 5   0  0.1398931E-07  0.3099974E+04  0.7818609E-02  0.8215745E-01
       -2   -1    0    0    0  501  0.00000000000E+00  0.00000000000E+00  0.11483572405E+04  0.11483572405E+04  0.25500000920E-02 0. -1.
        2   -1    0    0  501    0  0.00000000000E+00  0.00000000000E+00 -0.20920841000E+04  0.20920841000E+04  0.25500000920E-02 0.  1.
    10030    2    1    2    0    0  0.00000000000E+00  0.00000000000E+00 -0.94372685952E+03  0.32404413405E+04  0.30999741444E+04 0.  0.
        3    1    3    3  502    0 -0.53537690686E+03  0.24131073071E+03  0.10275680791E+04  0.11835351573E+04  0.10100000352E+00 0. -1.
       -3    1    3    3    0  502  0.53537690686E+03 -0.24131073071E+03 -0.19712949387E+04  0.20569061832E+04  0.10100000352E+00 0.  1.
</event>
<event>
 5   0  0.1398931E-07  0.3100128E+04  0.7818609E-02  0.8215703E-01
       -2   -1    0    0    0  501  0.00000000000E+00  0.00000000000E+00  0.16266701106E+04  0.16266701106E+04  0.25500000920E-02 0. -1.
        2   -1    0    0  501    0  0.00000000000E+00  0.00000000000E+00 -0.14770654064E+04  0.14770654064E+04  0.25500000920E-02 0.  1.
    10030    2    1    2    0    0  0.00000000000E+00  0.00000000000E+00  0.14960470421E+03  0.31037355170E+04  0.31001278348E+04 0.  0.
        3    1    3    3  502    0 -0.13460464745E+04  0.74090173585E+03 -0.13018367436E+03  0.15419871248E+04  0.10100000352E+00 0. -1.
       -3    1    3    3    0  502  0.13460464745E+04 -0.74090173585E+03  0.27978837857E+03  0.15617483922E+04  0.10100000352E+00 0.  1.
</event>
<event>
 5   0  0.4838602E-08  0.3114785E+04  0.7818609E-02  0.8211692E-01
       -1   -1    0    0    0  501  0.00000000000E+00  0.00000000000E+00  0.12589453190E+04  0.12589453190E+04  0.50400001928E-02 0. -1.
        1   -1    0    0  501    0  0.00000000000E+00  0.00000000000E+00 -0.19265895752E+04  0.19265895752E+04  0.50400001928E-02 0.  1.
    10030    2    1    2    0    0  0.00000000000E+00  0.00000000000E+00 -0.66764425626E+03  0.31855348942E+04  0.31147846971E+04 0.  0.
        5    1    3    3  502    0 -0.48777575156E+03  0.82473770686E+03  0.92179925450E+03  0.13296064924E+04  0.46999998093E+01 0. -1.
       -5    1    3    3    0  502  0.48777575156E+03 -0.82473770686E+03 -0.15894435108E+04  0.18559284019E+04  0.46999998093E+01 0.  1.
</event>
<event>
 5   0  0.1329777E-07  0.3100662E+04  0.7818609E-02  0.8215556E-01
        2   -1    0    0  501    0  0.00000000000E+00  0.00000000000E+00  0.26356699092E+04  0.26356699092E+04  0.25500000920E-02 0.  1.
       -2   -1    0    0    0  501  0.00000000000E+00  0.00000000000E+00 -0.91192252632E+03  0.91192252632E+03  0.25500000920E-02 0. -1.
    10030    2    1    2    0    0  0.00000000000E+00  0.00000000000E+00  0.17237473829E+04  0.35475924355E+04  0.31006623564E+04 0.  0.
        1    1    3    3  502    0 -0.85202799842E+03 -0.25745910377E+03 -0.59045889117E+03  0.10681191892E+04  0.50400001928E-02 0. -1.
       -1    1    3    3    0  502  0.85202799842E+03  0.25745910377E+03  0.23142062741E+04  0.24794732463E+04  0.50400001928E-02 0.  1.
</event>
<event>
 5   0  0.4517409E-08  0.3095438E+04  0.7818609E-02  0.8216991E-01
        1   -1    0    0  501    0  0.00000000000E+00  0.00000000000E+00  0.15424452430E+04  0.15424452430E+04  0.50400001928E-02 0.  1.
       -1   -1    0    0    0  501  0.00000000000E+00  0.00000000000E+00 -0.15530109160E+04  0.15530109160E+04  0.50400001928E-02 0. -1.
    10030    2    1    2    0    0  0.00000000000E+00  0.00000000000E+00 -0.10565673064E+02  0.30954561590E+04  0.30954381271E+04 0.  0.
        2    1    3    3  502    0  0.23137555735E+03  0.14558901582E+04 -0.47675509248E+03  0.15493373485E+04  0.25500000920E-02 0.  1.
       -2    1    3    3    0  502 -0.23137555735E+03 -0.14558901582E+04  0.46618941942E+03  0.15461188105E+04  0.25500000920E-02 0. -1.
</event>
<event>
 5   0  0.1398931E-07  0.3100225E+04  0.7818609E-02  0.8215676E-01
        2   -1    0    0  501    0  0.00000000000E+00  0.00000000000E+00  0.32494628787E+04  0.32494628787E+04  0.25500000920E-02 0. -1.
       -2   -1    0    0    0  501  0.00000000000E+00  0.00000000000E+00 -0.73946016440E+03  0.73946016440E+03  0.25500000920E-02 0.  1.
    10030    2    1    2    0    0  0.00000000000E+00  0.00000000000E+00  0.25100027143E+04  0.39889230431E+04  0.31002247367E+04 0.  0.
        3    1    3    3  502    0  0.85146938302E+02 -0.15451666536E+04  0.11395003677E+04  0.19217833089E+04  0.10100000352E+00 0.  1.
       -3    1    3    3    0  502 -0.85146938302E+02  0.15451666536E+04  0.13705023466E+04  0.20671397342E+04  0.10100000352E+00 0. -1.
</event>
<event>
 5   0  0.1325713E-07  0.3099356E+04  0.7818609E-02  0.8215915E-01
       -2   -1    0    0    0  501  0.00000000000E+00  0.00000000000E+00  0.15830067216E+04  0.15830067216E+04  0.25500000920E-02 0. -1.
        2   -1    0    0  501    0  0.00000000000E+00  0.00000000000E+00 -0.15170505189E+04  0.15170505189E+04  0.25500000920E-02 0.  1.
    10030    2    1    2    0    0  0.00000000000E+00  0.00000000000E+00  0.65956202646E+02  0.31000572405E+04  0.30993555255E+04 0.  0.
        4    1    3    3  502    0  0.94651209017E+03 -0.41810513375E+03  0.11868434268E+04  0.15745780299E+04  0.12699999809E+01 0. -1.
       -4    1    3    3    0  502 -0.94651209017E+03  0.41810513375E+03 -0.11208872241E+04  0.15254792106E+04  0.12699999809E+01 0.  1.
</event>
<event>
 5   0  0.1318916E-07  0.3103516E+04  0.7818609E-02  0.8214774E-01
       -2   -1    0    0    0  501  0.00000000000E+00  0.00000000000E+00  0.14510732370E+04  0.14510732370E+04  0.25500000920E-02 0. -1.
        2   -1    0    0  501    0  0.00000000000E+00  0.00000000000E+00 -0.16594284407E+04  0.16594284407E+04  0.25500000920E-02 0.  1.
    10030    2    1    2    0    0  0.00000000000E+00  0.00000000000E+00 -0.20835520372E+03  0.31105016777E+04  0.31035155543E+04 0.  0.
        5    1    3    3  502    0  0.31613389523E+03  0.19411282486E+03 -0.16143240449E+04  0.16564071481E+04  0.46999998093E+01 0.  1.
       -5    1    3    3    0  502 -0.31613389523E+03 -0.19411282486E+03  0.14059688412E+04  0.14540945295E+04  0.46999998093E+01 0. -1.
</event>
<event>
 5   0  0.4470354E-08  0.3100154E+04  0.7818609E-02  0.8215696E-01
       -1   -1    0    0    0  501  0.00000000000E+00  0.00000000000E+00  0.17622783381E+04  0.17622783381E+04  0.50400001928E-02 0.  1.
        1   -1    0    0  501    0  0.00000000000E+00  0.00000000000E+00 -0.13634271157E+04  0.13634271157E+04  0.50400001928E-02 0. -1.
    10030    2    1    2    0    0  0.00000000000E+00  0.00000000000E+00  0.39885122242E+03  0.31257054538E+04  0.31001535907E+04 0.  0.
        1    1    3    3  502    0 -0.24182889602E+03  0.13897724595E+04  0.84720793197E+03  0.16455120735E+04  0.50400001928E-02 0.  1.
       -1    1    3    3    0  502  0.24182889602E+03 -0.13897724595E+04 -0.44835670956E+03  0.14801933803E+04  0.50400001928E-02 0. -1.
</event>
<event>
 5   0  0.4436241E-08  0.3096042E+04  0.7818609E-02  0.8216825E-01
        1   -1    0    0  501    0  0.00000000000E+00  0.00000000000E+00  0.14799589460E+04  0.14799589460E+04  0.50400001928E-02 0.  1.
       -1   -1    0    0    0  501  0.00000000000E+00  0.00000000000E+00 -0.16192133097E+04  0.16192133097E+04  0.50400001928E-02 0. -1.
    10030    2    1    2    0    0  0.00000000000E+00  0.00000000000E+00 -0.13925436365E+03  0.30991722557E+04  0.30960421335E+04 0.  0.
        3    1    3    3  502    0  0.11567328759E+04 -0.47420881823E+03  0.84423844992E+03  0.15085236226E+04  0.10100000352E+00 0.  1.
       -3    1    3    3    0  502 -0.11567328759E+04  0.47420881823E+03 -0.98349281357E+03  0.15906486331E+04  0.10100000352E+00 0. -1.
</event>
<event>
 5   0  0.4450600E-08  0.3100747E+04  0.7818609E-02  0.8215533E-01
        1   -1    0    0  501    0  0.00000000000E+00  0.00000000000E+00  0.24884284561E+04  0.24884284562E+04  0.50400001928E-02 0.  1.
       -1   -1    0    0    0  501  0.00000000000E+00  0.00000000000E+00 -0.96593426871E+03  0.96593426872E+03  0.50400001928E-02 0. -1.
    10030    2    1    2    0    0  0.00000000000E+00  0.00000000000E+00  0.15224941874E+04  0.34543627249E+04  0.31007472139E+04 0.  0.
        4    1    3    3  502    0 -0.21562032487E+03  0.43636847938E+03 -0.87860882584E+03  0.10044225486E+04  0.12699999809E+01 0. -1.
       -4    1    3    3    0  502  0.21562032487E+03 -0.43636847938E+03  0.24011030133E+04  0.24499401763E+04  0.12699999809E+01 0.  1.
</event>
<event>
 5   0  0.4838602E-08  0.3100648E+04  0.7818609E-02  0.8215560E-01
       -1   -1    0    0    0  501  0.00000000000E+00  0.00000000000E+00  0.27691196787E+04  0.27691196787E+04  0.50400001928E-02 0. -1.
        1   -1    0    0  501    0  0.00000000000E+00  0.00000000000E+00 -0.86796720034E+03  0.86796720035E+03  0.50400001928E-02 0.  1.
    10030    2    1    2    0    0  0.00000000000E+00  0.00000000000E+00  0.19011524784E+04  0.36370868791E+04  0.31006483547E+04 0.  0.
        5    1    3    3  502    0 -0.46872392432E+03 -0.34945583179E+03  0.26348389624E+04  0.26989294069E+04  0.46999998093E+01 0. -1.
       -5    1    3    3    0  502  0.46872392432E+03  0.34945583179E+03 -0.73368648407E+03  0.93815747213E+03  0.46999998093E+01 0.  1.
</event>
<event>
 5   0  0.1398931E-07  0.3098189E+04  0.7818609E-02  0.8216235E-01
        2   -1    0    0  501    0  0.00000000000E+00  0.00000000000E+00  0.12128757861E+04  0.12128757861E+04  0.25500000920E-02 0.  1.
       -2   -1    0    0    0  501  0.00000000000E+00  0.00000000000E+00 -0.19785160022E+04  0.19785160022E+04  0.25500000920E-02 0. -1.
    10030    2    1    2    0    0  0.00000000000E+00  0.00000000000E+00 -0.76564021604E+03  0.31913917883E+04  0.30981892463E+04 0.  0.
        3    1    3    3  502    0 -0.95658943455E+03  0.71637340645E+03  0.63244662987E+03  0.13521253469E+04  0.10100000352E+00 0.  1.
       -3    1    3    3    0  502  0.95658943455E+03 -0.71637340645E+03 -0.13980868459E+04  0.18392664415E+04  0.10100000352E+00 0. -1.
</event>
<event>
 5   0  0.4517409E-08  0.3099767E+04  0.7818609E-02  0.8215802E-01
        1   -1    0    0  501    0  0.00000000000E+00  0.00000000000E+00  0.22506202173E+04  0.22506202173E+04  0.50400001928E-02 0.  1.
       -1   -1    0    0    0  501  0.00000000000E+00  0.00000000000E+00 -0.10673229379E+04  0.10673229380E+04  0.50400001928E-02 0. -1.
    10030    2    1    2    0    0  0.00000000000E+00  0.00000000000E+00  0.11832972793E+04  0.33179431552E+04  0.30997668187E+04 0.  0.
        2    1    3    3  502    0  0.42100411570E+03  0.85991559501E+03  0.18962185850E+04  0.21242279111E+04  0.25500000920E-02 0.  1.
       -2    1    3    3    0  502 -0.42100411570E+03 -0.85991559501E+03 -0.71292130571E+03  0.11937152441E+04  0.25500000920E-02 0. -1.
</event>
<event>
 5   0  0.4450600E-08  0.3100652E+04  0.7818609E-02  0.8215559E-01
        1   -1    0    0  501    0  0.00000000000E+00  0.00000000000E+00  0.19301393117E+04  0.19301393117E+04  0.50400001928E-02 0. -1.
       -1   -1    0    0    0  501  0.00000000000E+00  0.00000000000E+00 -0.12452521192E+04  0.12452521192E+04  0.50400001928E-02 0.  1.
    10030    2    1    2    0    0  0.00000000000E+00  0.00000000000E+00  0.68488719250E+03  0.31753914309E+04  0.31006515885E+04 0.  0.
        4    1    3    3  502    0 -0.65457737089E+03  0.10262240781E+04  0.13257445438E+04  0.17997798758E+04  0.12699999809E+01 0. -1.
       -4    1    3    3    0  502  0.65457737089E+03 -0.10262240781E+04 -0.64085735130E+03  0.13756115551E+04  0.12699999809E+01 0.  1.
</event>
<event>
 5   0  0.4436241E-08  0.3100519E+04  0.7818609E-02  0.8215595E-01
       -1   -1    0    0    0  501  0.00000000000E+00  0.00000000000E+00  0.10173104940E+04  0.10173104940E+04  0.50400001928E-02 0.  1.
        1   -1    0    0  501    0  0.00000000000E+00  0.00000000000E+00 -0.23624105344E+04  0.23624105344E+04  0.50400001928E-02 0. -1.
    10030    2    1    2    0    0  0.00000000000E+00  0.00000000000E+00 -0.13451000405E+04  0.33797210285E+04  0.31005193293E+04 0.  0.
        3    1    3    3  502    0  0.64925111639E+03  0.60468432707E+03  0.71320101311E+03  0.11383434644E+04  0.10100000352E+00 0.  1.
       -3    1    3    3    0  502 -0.64925111639E+03 -0.60468432707E+03 -0.20583010536E+04  0.22413775641E+04  0.10100000352E+00 0. -1.
</event>
<event>
 5   0  0.4450600E-08  0.3099644E+04  0.7818609E-02  0.8215836E-01
       -1   -1    0    0    0  501  0.00000000000E+00  0.00000000000E+00  0.13878926742E+04  0.13878926742E+04  0.50400001928E-02 0.  1.
        1   -1    0    0  501    0  0.00000000000E+00  0.00000000000E+00 -0.17306444002E+04  0.17306444002E+04  0.50400001928E-02 0. -1.
    10030    2    1    2    0    0  0.00000000000E+00  0.00000000000E+00 -0.34275172593E+03  0.31185370744E+04  0.30996442923E+04 0.  0.
        4    1    3    3  502    0 -0.86185378302E+03 -0.11449927351E+04  0.42226014430E+03  0.14940232760E+04  0.12699999809E+01 0.  1.
       -4    1    3    3    0  502  0.86185378302E+03  0.11449927351E+04 -0.76501187023E+03  0.16245137984E+04  0.12699999809E+01 0. -1.
</event>
<event>
 5   0  0.1377237E-07  0.3090473E+04  0.7818609E-02  0.8218357E-01
        2   -1    0    0  501    0  0.00000000000E+00  0.00000000000E+00  0.17187465223E+04  0.17187465223E+04  0.25500000920E-02 0. -1.
       -2   -1    0    0    0  501  0.00000000000E+00  0.00000000000E+00 -0.13892428902E+04  0.13892428902E+04  0.25500000920E-02 0.  1.
    10030    2    1    2    0    0  0.00000000000E+00  0.00000000000E+00  0.32950363219E+03  0.31079894125E+04  0.30904733528E+04 0.  0.
        2    1    3    3  502    0 -0.86850693740E+03  0.10371342076E+03 -0.11163187658E+04  0.14181778312E+04  0.25500000920E-02 0.  1.
       -2    1    3    3    0  502  0.86850693740E+03 -0.10371342076E+03  0.14458223980E+04  0.16898115813E+04  0.25500000920E-02 0. -1.
</event>
<event>
 5   0  0.1318916E-07  0.3100036E+04  0.7818609E-02  0.8215728E-01
        2   -1    0    0  501    0  0.00000000000E+00  0.00000000000E+00  0.13998870886E+04  0.13998870886E+04  0.25500000920E-02 0.  1.
       -2   -1    0    0    0  501  0.00000000000E+00  0.00000000000E+00 -0.17162499830E+04  0.17162499830E+04  0.25500000920E-02 0. -1.
    10030    2    1    2    0    0  0.00000000000E+00  0.00000000000E+00 -0.31636289437E+03  0.31161370716E+04  0.31000362527E+04 0.  0.
        5    1    3    3  502    0  0.89893202815E+03 -0.12226142594E+04 -0.47552619857E+03  0.15902866641E+04  0.46999998093E+01 0.  1.
       -5    1    3    3    0  502 -0.89893202815E+03  0.12226142594E+04  0.15916330420E+03  0.15258504075E+04  0.46999998093E+01 0. -1.
</event>
<event>
 5   0  0.1398931E-07  0.3100362E+04  0.7818609E-02  0.8215639E-01
        2   -1    0    0  501    0  0.00000000000E+00  0.00000000000E+00  0.25422667148E+04  0.25422667148E+04  0.25500000920E-02 0.  1.
       -2   -1    0    0    0  501  0.00000000000E+00  0.00000000000E+00 -0.94524355285E+03  0.94524355285E+03  0.25500000920E-02 0. -1.
    10030    2    1    2    0    0  0.00000000000E+00  0.00000000000E+00  0.15970231620E+04  0.34875102677E+04  0.31003620574E+04 0.  0.
        3    1    3    3  502    0  0.46223094921E+03 -0.11385887634E+04 -0.26448905842E+03  0.12569790351E+04  0.10100000352E+00 0. -1.
       -3    1    3    3    0  502 -0.46223094921E+03  0.11385887634E+04  0.18615122204E+04  0.22305312325E+04  0.10100000352E+00 0.  1.
</event>
<event>
 5   0  0.1318916E-07  0.3100688E+04  0.7818609E-02  0.8215549E-01
        2   -1    0    0  501    0  0.00000000000E+00  0.00000000000E+00  0.17194167023E+04  0.17194167023E+04  0.25500000920E-02 0.  1.
       -2   -1    0    0    0  501  0.00000000000E+00  0.00000000000E+00 -0.13978967360E+04  0.13978967360E+04  0.25500000920E-02 0. -1.
    10030    2    1    2    0    0  0.00000000000E+00  0.00000000000E+00  0.32151996628E+03  0.31173134383E+04  0.31006883081E+04 0.  0.
        5    1    3    3  502    0  0.93349917237E+03 -0.41542146807E+03  0.13330088597E+04  0.16795625654E+04  0.46999998093E+01 0.  1.
       -5    1    3    3    0  502 -0.93349917237E+03  0.41542146807E+03 -0.10114888934E+04  0.14377508729E+04  0.46999998093E+01 0. -1.
</event>
<event>
 5   0  0.4450600E-08  0.3104830E+04  0.7818609E-02  0.8214414E-01
       -1   -1    0    0    0  501  0.00000000000E+00  0.00000000000E+00  0.11136639733E+04  0.11136639733E+04  0.50400001928E-02 0. -1.
        1   -1    0    0  501    0  0.00000000000E+00  0.00000000000E+00 -0.21640210645E+04  0.21640210645E+04  0.50400001928E-02 0.  1.
    10030    2    1    2    0    0  0.00000000000E+00  0.00000000000E+00 -0.10503570912E+04  0.32776850379E+04  0.31048299774E+04 0.  0.
        4    1    3    3  502    0 -0.12128752251E+04  0.55289550620E+03  0.31488174490E+03  0.13696393243E+04  0.12699999809E+01 0. -1.
       -4    1    3    3    0  502  0.12128752251E+04 -0.55289550620E+03 -0.13652388361E+04  0.19080457136E+04  0.12699999809E+01 0.  1.
</event>
<event>
 5   0  0.4838602E-08  0.3100533E+04  0.7818609E-02  0.8215592E-01
       -1   -1    0    0    0  501  0.00000000000E+00  0.00000000000E+00  0.12009364226E+04  0.12009364226E+04  0.50400001928E-02 0.  1.
        1   -1    0    0  501    0  0.00000000000E+00  0.00000000000E+00 -0.20012100467E+04  0.20012100467E+04  0.50400001928E-02 0. -1.
    10030    2    1    2    0    0  0.00000000000E+00  0.00000000000E+00 -0.80027362417E+03  0.32021464693E+04  0.31005328796E+04 0.  0.
        5    1    3    3  502    0 -0.47711922552E+03 -0.34059909718E+03  0.10820465303E+04  0.12306491312E+04  0.46999998093E+01 0.  1.
       -5    1    3    3    0  502  0.47711922552E+03  0.34059909718E+03 -0.18823201545E+04  0.19714973381E+04  0.46999998093E+01 0. -1.
</event>
<event>
 5   0  0.4436241E-08  0.3104030E+04  0.7818609E-02  0.8214633E-01
       -1   -1    0    0    0  501  0.00000000000E+00  0.00000000000E+00  0.16211139330E+04  0.16211139330E+04  0.50400001928E-02 0. -1.
        1   -1    0    0  501    0  0.00000000000E+00  0.00000000000E+00 -0.14858616592E+04  0.14858616592E+04  0.50400001928E-02 0.  1.
    10030    2    1    2    0    0  0.00000000000E+00  0.00000000000E+00  0.13525227383E+03  0.31069755923E+04  0.31040303081E+04 0.  0.
        3    1    3    3  502    0  0.13777349218E+04  0.61056248514E+03  0.43920737323E+03  0.15696634002E+04  0.10100000352E+00 0. -1.
       -3    1    3    3    0  502 -0.13777349218E+04 -0.61056248514E+03 -0.30395509940E+03  0.15373121920E+04  0.10100000352E+00 0.  1.
</event>
<event>
 5   0  0.4838602E-08  0.3099366E+04  0.7818609E-02  0.8215912E-01
       -1   -1    0    0    0  501  0.00000000000E+00  0.00000000000E+00  0.13624395582E+04  0.13624395582E+04  0.50400001928E-02 0.  1.
        1   -1    0    0  501    0  0.00000000000E+00  0.00000000000E+00 -0.17626597628E+04  0.17626597628E+04  0.50400001928E-02 0. -1.
    10030    2    1    2    0    0  0.00000000000E+00  0.00000000000E+00 -0.40022020466E+03  0.31250993210E+04  0.30993659922E+04 0.  0.
        5    1    3    3  502    0 -0.12319647895E+04  0.57967040763E+03 -0.94634971441E+03  0.16581178776E+04  0.46999998093E+01 0. -1.
       -5    1    3    3    0  502  0.12319647895E+04 -0.57967040763E+03  0.54612950974E+03  0.14669814434E+04  0.46999998093E+01 0.  1.
</event>
<event>
 5   0  0.1377237E-07  0.3099450E+04  0.7818609E-02  0.8215889E-01
       -2   -1    0    0    0  501  0.00000000000E+00  0.00000000000E+00  0.18887419298E+04  0.18887419298E+04  0.25500000920E-02 0. -1.
        2   -1    0    0  501    0  0.00000000000E+00  0.00000000000E+00 -0.12715592311E+04  0.12715592311E+04  0.25500000920E-02 0.  1.
    10030    2    1    2    0    0  0.00000000000E+00  0.00000000000E+00  0.61718269862E+03  0.31603011609E+04  0.30994497808E+04 0.  0.
        2    1    3    3  502    0 -0.51555585723E+03 -0.32734548951E+03 -0.11436947275E+04  0.12965301929E+04  0.25500000920E-02 0.  1.
       -2    1    3    3    0  502  0.51555585723E+03  0.32734548951E+03  0.17608774261E+04  0.18637709680E+04  0.25500000920E-02 0. -1.
</event>
<event>
 5   0  0.1398931E-07  0.3099717E+04  0.7818609E-02  0.8215816E-01
        2   -1    0    0  501    0  0.00000000000E+00  0.00000000000E+00  0.18570358512E+04  0.18570358512E+04  0.25500000920E-02 0. -1.
       -2   -1    0    0    0  501  0.00000000000E+00  0.00000000000E+00 -0.12934919182E+04  0.12934919182E+04  0.25500000920E-02 0.  1.
    10030    2    1    2    0    0  0.00000000000E+00  0.00000000000E+00  0.56354393292E+03  0.31505277694E+04  0.30997166744E+04 0.  0.
        3    1    3    3  502    0  0.33032133335E+03  0.12093449972E+04  0.12079910041E+04  0.17409393389E+04  0.10100000352E+00 0. -1.
       -3    1    3    3    0  502 -0.33032133335E+03 -0.12093449972E+04 -0.64444707122E+03  0.14095884305E+04  0.10100000352E+00 0.  1.
</event>
<event>
 5   0  0.1398931E-07  0.3101143E+04  0.7818609E-02  0.8215424E-01
        2   -1    0    0  501    0  0.00000000000E+00  0.00000000000E+00  0.16459533409E+04  0.16459533409E+04  0.25500000920E-02 0. -1.
       -2   -1    0    0    0  501  0.00000000000E+00  0.00000000000E+00 -0.14607168539E+04  0.14607168539E+04  0.25500000920E-02 0.  1.
    10030    2    1    2    0    0  0.00000000000E+00  0.00000000000E+00  0.18523648698E+03  0.31066701948E+04  0.31011428769E+04 0.  0.
        3    1    3    3  502    0  0.12268365970E+04  0.69125846405E+03  0.74285561595E+03  0.15921057679E+04  0.10100000352E+00 0. -1.
       -3    1    3    3    0  502 -0.12268365970E+04 -0.69125846405E+03 -0.55761912897E+03  0.15145644268E+04  0.10100000352E+00 0.  1.
</event>
<event>
 5   0  0.4517409E-08  0.3093240E+04  0.7818609E-02  0.8217596E-01
       -1   -1    0    0    0  501  0.00000000000E+00  0.00000000000E+00  0.13132681497E+04  0.13132681497E+04  0.50400001928E-02 0. -1.
        1   -1    0    0  501    0  0.00000000000E+00  0.00000000000E+00 -0.18214354793E+04  0.18214354793E+04  0.50400001928E-02 0.  1.
    10030    2    1    2    0    0  0.00000000000E+00  0.00000000000E+00 -0.50816732959E+03  0.31347036289E+04  0.30932398560E+04 0.  0.
        2    1    3    3  502    0 -0.76162284494E+03 -0.13337252719E+04 -0.69597412406E+02  0.15374447172E+04  0.25500000920E-02 0.  1.
       -2    1    3    3    0  502  0.76162284494E+03  0.13337252719E+04 -0.43856991718E+03  0.15972589117E+04  0.25500000920E-02 0. -1.
</event>
<event>
 5   0  0.1325713E-07  0.3099750E+04  0.7818609E-02  0.8215806E-01
        2   -1    0    0  501    0  0.00000000000E+00  0.00000000000E+00  0.25120150531E+04  0.25120150531E+04  0.25500000920E-02 0. -1.
       -2   -1    0    0    0  501  0.00000000000E+00  0.00000000000E+00 -0.95624950720E+03  0.95624950720E+03  0.25500000920E-02 0.  1.
    10030    2    1    2    0    0  0.00000000000E+00  0.00000000000E+00  0.15557655459E+04  0.34682645603E+04  0.30997504136E+04 0.  0.
        4    1    3    3  502    0 -0.14392005998E+03  0.10933296163E+04  0.19964040844E+04  0.22807265322E+04  0.12699999809E+01 0. -1.
       -4    1    3    3    0  502  0.14392005998E+03 -0.10933296163E+04 -0.44063853854E+03  0.11875380281E+04  0.12699999809E+01 0.  1.
</event>
<event>
 5   0  0.1398931E-07  0.3100222E+04  0.7818609E-02  0.8215677E-01
       -2   -1    0    0    0  501  0.00000000000E+00  0.00000000000E+00  0.16315500038E+04  0.16315500038E+04  0.25500000920E-02 0.  1.
        2   -1    0    0  501    0  0.00000000000E+00  0.00000000000E+00 -0.14727372198E+04  0.14727372198E+04  0.25500000920E-02 0. -1.
    10030    2    1    2    0    0  0.00000000000E+00  0.00000000000E+00  0.15881278400E+03  0.31042872235E+04  0.31002221962E+04 0.  0.
        3    1    3    3  502    0 -0.62941211258E+03  0.36449909791E+03 -0.12912658396E+04  0.14820211465E+04  0.10100000352E+00 0. -1.
       -3    1    3    3    0  502  0.62941211258E+03 -0.36449909791E+03  0.14500786236E+04  0.16222660770E+04  0.10100000352E+00 0.  1.
</event>
<event>
 5   0  0.1398931E-07  0.3099669E+04  0.7818609E-02  0.8215829E-01
       -2   -1    0    0    0  501  0.00000000000E+00  0.00000000000E+00  0.10826855568E+04  0.10826855568E+04  0.25500000920E-02 0. -1.
        2   -1    0    0  501    0  0.00000000000E+00  0.00000000000E+00 -0.22185455946E+04  0.22185455946E+04  0.25500000920E-02 0.  1.
    10030    2    1    2    0    0  0.00000000000E+00  0.00000000000E+00 -0.11358600377E+04  0.33012311514E+04  0.30996691904E+04 0.  0.
        3    1    3    3  502    0 -0.68754973825E+03 -0.64498183565E+03 -0.18780694421E+04  0.21013974042E+04  0.10100000352E+00 0.  1.
       -3    1    3    3    0  502  0.68754973825E+03  0.64498183565E+03  0.74220940434E+03  0.11998337472E+04  0.10100000352E+00 0. -1.
</event>
<event>
 5   0  0.1398931E-07  0.3100108E+04  0.7818609E-02  0.8215708E-01
        2   -1    0    0  501    0  0.00000000000E+00  0.00000000000E+00  0.19697319969E+04  0.19697319969E+04  0.25500000920E-02 0.  1.
       -2   -1    0    0    0  501  0.00000000000E+00  0.00000000000E+00 -0.12197943612E+04  0.12197943612E+04  0.25500000920E-02 0. -1.
    10030    2    1    2    0    0  0.00000000000E+00  0.00000000000E+00  0.74993763568E+03  0.31895263581E+04  0.31001083741E+04 0.  0.
        3    1    3    3  502    0 -0.12651735342E+04  0.64648533045E+03  0.10125701383E+04  0.17446792396E+04  0.10100000352E+00 0.  1.
       -3    1    3    3    0  502  0.12651735342E+04 -0.64648533045E+03 -0.26263250260E+03  0.14448471184E+04  0.10100000352E+00 0. -1.
</event>
<event>
 5   0  0.1318916E-07  0.3100572E+04  0.7818609E-02  0.8215581E-01
       -2   -1    0    0    0  501  0.00000000000E+00  0.00000000000E+00  0.15327246015E+04  0.15327246015E+04  0.25500000920E-02 0.  1.
        2   -1    0    0  501    0  0.00000000000E+00  0.00000000000E+00 -0.15680484801E+04  0.15680484801E+04  0.25500000920E-02 0. -1.
    10030    2    1    2    0    0  0.00000000000E+00  0.00000000000E+00 -0.35323878626E+02  0.31007730815E+04  0.31005718709E+04 0.  0.
        5    1    3    3  502    0 -0.14159026989E+04 -0.62598033577E+03  0.64395553285E+02  0.15494517452E+04  0.46999998093E+01 0.  1.
       -5    1    3    3    0  502  0.14159026989E+04  0.62598033577E+03 -0.99719431911E+02  0.15513213363E+04  0.46999998093E+01 0. -1.
</event>
<event>
 5   0  0.4436241E-08  0.3096460E+04  0.7818609E-02  0.8216710E-01
       -1   -1    0    0    0  501  0.00000000000E+00  0.00000000000E+00  0.11754656056E+04  0.11754656056E+04  0.50400001928E-02 0.  1.
        1   -1    0    0  501    0  0.00000000000E+00  0.00000000000E+00 -0.20392058357E+04  0.20392058357E+04  0.50400001928E-02 0. -1.
    10030    2    1    2    0    0  0.00000000000E+00  0.00000000000E+00 -0.86374023018E+03  0.32146714413E+04  0.30964601225E+04 0.  0.
        3    1    3    3  502    0  0.62420132492E+03  0.13664964668E+04 -0.43314110585E+02  0.15029357971E+04  0.10100000352E+00 0.  1.
       -3    1    3    3    0  502 -0.62420132492E+03 -0.13664964668E+04 -0.82042611959E+03  0.17117356442E+04  0.10100000352E+00 0. -1.
</event>
<event>
 5   0  0.4517409E-08  0.3099306E+04  0.7818609E-02  0.8215928E-01
        1   -1    0    0  501    0  0.00000000000E+00  0.00000000000E+00  0.27524643004E+04  0.27524643004E+04  0.50400001928E-02 0.  1.
       -1   -1    0    0    0  501  0.00000000000E+00  0.00000000000E+00 -0.87246333795E+03  0.87246333797E+03  0.50400001928E-02 0. -1.
    10030    2    1    2    0    0  0.00000000000E+00  0.00000000000E+00  0.18800009625E+04  0.36249276384E+04  0.30993058521E+04 0.  0.
        2    1    3    3  502    0  0.31752388654E+03  0.52400839727E+03  0.26047793397E+04  0.26758702561E+04  0.25500000920E-02 0.  1.
       -2    1    3    3    0  502 -0.31752388654E+03 -0.52400839727E+03 -0.72477837719E+03  0.94905738234E+03  0.25500000920E-02 0. -1.
</event>
<event>
 5   0  0.4450600E-08  0.3098240E+04  0.7818609E-02  0.8216221E-01
        1   -1    0    0  501    0  0.00000000000E+00  0.00000000000E+00  0.16265125260E+04  0.16265125260E+04  0.50400001928E-02 0. -1.
       -1   -1    0    0    0  501  0.00000000000E+00  0.00000000000E+00 -0.14754094825E+04  0.14754094825E+04  0.50400001928E-02 0.  1.
    10030    2    1    2    0    0  0.00000000000E+00  0.00000000000E+00  0.15110304351E+03  0.31019220085E+04  0.30982395029E+04 0.  0.
        4    1    3    3  502    0 -0.44390981957E+03  0.18109747862E+03  0.15503665864E+04  0.16228032505E+04  0.12699999809E+01 0. -1.
       -4    1    3    3    0  502  0.44390981957E+03 -0.18109747862E+03 -0.13992635429E+04  0.14791187580E+04  0.12699999809E+01 0.  1.
</event>
<event>
 5   0  0.1398931E-07  0.3098812E+04  0.7818609E-02  0.8216064E-01
        2   -1    0    0  501    0  0.00000000000E+00  0.00000000000E+00  0.24524105934E+04  0.24524105934E+04  0.25500000920E-02 0.  1.
       -2   -1    0    0    0  501  0.00000000000E+00  0.00000000000E+00 -0.97889749842E+03  0.97889749843E+03  0.25500000920E-02 0. -1.
    10030    2    1    2    0    0  0.00000000000E+00  0.00000000000E+00  0.14735130950E+04  0.34313080918E+04  0.30988117691E+04 0.  0.
        3    1    3    3  502    0 -0.13374238833E+04  0.68310939909E+02 -0.12614733706E+03  0.13450956059E+04  0.10100000352E+00 0. -1.
       -3    1    3    3    0  502  0.13374238833E+04 -0.68310939909E+02  0.15996604321E+04  0.20862124859E+04  0.10100000352E+00 0.  1.
</event>
<event>
 5   0  0.1398931E-07  0.3100599E+04  0.7818609E-02  0.8215574E-01
        2   -1    0    0  501    0  0.00000000000E+00  0.00000000000E+00  0.20644910270E+04  0.20644910270E+04  0.25500000920E-02 0. -1.
       -2   -1    0    0    0  501  0.00000000000E+00  0.00000000000E+00 -0.11641746227E+04  0.11641746227E+04  0.25500000920E-02 0.  1.
    10030    2    1    2    0    0  0.00000000000E+00  0.00000000000E+00  0.90031640429E+03  0.32286656497E+04  0.31005986921E+04 0.  0.
        3    1    3    3  502    0  0.10287498416E+04  0.11447794468E+04  0.64380107772E+03  0.16683303199E+04  0.10100000352E+00 0. -1.
       -3    1    3    3    0  502 -0.10287498416E+04 -0.11447794468E+04  0.25651532657E+03  0.15603353298E+04  0.10100000352E+00 0.  1.
</event>
<event>
 5   0  0.1329777E-07  0.3099273E+04  0.7818609E-02  0.8215937E-01
       -2   -1    0    0    0  501  0.00000000000E+00  0.00000000000E+00  0.10165213323E+04  0.10165213323E+04  0.25500000920E-02 0. -1.
        2   -1    0    0  501    0  0.00000000000E+00  0.00000000000E+00 -0.23623448274E+04  0.23623448275E+04  0.25500000920E-02 0.  1.
    10030    2    1    2    0    0  0.00000000000E+00  0.00000000000E+00 -0.13458234952E+04  0.33788661597E+04  0.30992734060E+04 0.  0.
        1    1    3    3  502    0 -0.22415360175E+03 -0.14364434905E+04 -0.12577364221E+04  0.19223724004E+04  0.50400001928E-02 0.  1.
       -1    1    3    3    0  502  0.22415360175E+03  0.14364434905E+04 -0.88087073070E+02  0.14564937593E+04  0.50400001928E-02 0. -1.
</event>
<event>
 5   0  0.4470354E-08  0.3099870E+04  0.7818609E-02  0.8215774E-01
       -1   -1    0    0    0  501  0.00000000000E+00  0.00000000000E+00  0.14593173470E+04  0.14593173471E+04  0.50400001928E-02 0. -1.
        1   -1    0    0  501    0  0.00000000000E+00  0.00000000000E+00 -0.16461792231E+04  0.16461792231E+04  0.50400001928E-02 0.  1.
    10030    2    1    2    0    0  0.00000000000E+00  0.00000000000E+00 -0.18686187609E+03  0.31054965702E+04  0.30998696080E+04 0.  0.
        1    1    3    3  502    0  0.42559719826E+03  0.14304170604E+04 -0.51260646438E+03  0.15779706363E+04  0.50400001928E-02 0.  1.
       -1    1    3    3    0  502 -0.42559719826E+03 -0.14304170604E+04  0.32574458829E+03  0.15275259339E+04  0.50400001928E-02 0. -1.
</event>
<event>
 5   0  0.1377237E-07  0.3100119E+04  0.7818609E-02  0.8215705E-01
        2   -1    0    0  501    0  0.00000000000E+00  0.00000000000E+00  0.18861810453E+04  0.18861810453E+04  0.25500000920E-02 0.  1.
       -2   -1    0    0    0  501  0.00000000000E+00  0.00000000000E+00 -0.12738352343E+04  0.12738352343E+04  0.25500000920E-02 0. -1.
    10030    2    1    2    0    0  0.00000000000E+00  0.00000000000E+00  0.61234581102E+03  0.31600162795E+04  0.31001186259E+04 0.  0.
        2    1    3    3  502    0  0.21608730699E+03 -0.51053342534E+03  0.17816716949E+04  0.18659292943E+04  0.25500000920E-02 0.  1.
       -2    1    3    3    0  502 -0.21608730699E+03  0.51053342534E+03 -0.11693258839E+04  0.12940869853E+04  0.25500000920E-02 0. -1.
</event>
<event>
 5   0  0.1398931E-07  0.3097990E+04  0.7818609E-02  0.8216290E-01
        2   -1    0    0  501    0  0.00000000000E+00  0.00000000000E+00  0.17038044582E+04  0.17038044582E+04  0.25500000920E-02 0. -1.
       -2   -1    0    0    0  501  0.00000000000E+00  0.00000000000E+00 -0.14082512870E+04  0.14082512870E+04  0.25500000920E-02 0.  1.
    10030    2    1    2    0    0  0.00000000000E+00  0.00000000000E+00  0.29555317117E+03  0.31120557453E+04  0.30979895553E+04 0.  0.
        3    1    3    3  502    0  0.10389229206E+04  0.56064510777E+03 -0.85962323222E+03  0.14603547115E+04  0.10100000352E+00 0.  1.
       -3    1    3    3    0  502 -0.10389229206E+04 -0.56064510777E+03  0.11551764034E+04  0.16517010338E+04  0.10100000352E+00 0. -1.
</event>
<event>
 5   0  0.4470354E-08  0.3099802E+04  0.7818609E-02  0.8215792E-01
       -1   -1    0    0    0  501  0.00000000000E+00  0.00000000000E+00  0.18965469541E+04  0.18965469541E+04  0.50400001928E-02 0. -1.
        1   -1    0    0  501    0  0.00000000000E+00  0.00000000000E+00 -0.12666139366E+04  0.12666139366E+04  0.50400001928E-02 0.  1.
    10030    2    1    2    0    0  0.00000000000E+00  0.00000000000E+00  0.62993301750E+03  0.31631608907E+04  0.30998018024E+04 0.  0.
        1    1    3    3  502    0  0.18639286988E+03  0.11981010009E+04  0.13001028924E+04  0.17777670942E+04  0.50400001928E-02 0. -1.
       -1    1    3    3    0  502 -0.18639286988E+03 -0.11981010009E+04 -0.67016987491E+03  0.13853937965E+04  0.50400001928E-02 0.  1.
</event>
<event>
 5   0  0.1325713E-07  0.3100129E+04  0.7818609E-02  0.8215703E-01
       -2   -1    0    0    0  501  0.00000000000E+00  0.00000000000E+00  0.19667140693E+04  0.19667140693E+04  0.25500000920E-02 0.  1.
        2   -1    0    0  501    0  0.00000000000E+00  0.00000000000E+00 -0.12216824108E+04  0.12216824108E+04  0.25500000920E-02 0. -1.
    10030    2    1    2    0    0  0.00000000000E+00  0.00000000000E+00  0.74503165849E+03  0.31883964802E+04  0.31001290203E+04 0.  0.
        4    1    3    3  502    0 -0.19185661515E+03  0.12148120447E+04  0.13428405644E+04  0.18209337327E+04  0.12699999809E+01 0.  1.
       -4    1    3    3    0  502  0.19185661515E+03 -0.12148120447E+04 -0.59780890593E+03  0.13674627474E+04  0.12699999809E+01 0. -1.
</event>
<event>
 5   0  0.4305500E-08  0.3099787E+04  0.7818609E-02  0.8215796E-01
       -3   -1    0    0    0  501  0.00000000000E+00  0.00000000000E+00  0.13802976722E+04  0.13802976759E+04  0.10100000352E+00 0.  1.
        3   -1    0    0  501    0  0.00000000000E+00  0.00000000000E+00 -0.17403271635E+04  0.17403271664E+04  0.10100000352E+00 0. -1.
    10030    2    1    2    0    0  0.00000000000E+00  0.00000000000E+00 -0.36002949121E+03  0.31206248423E+04  0.30997867946E+04 0.  0.
        4    1    3    3  502    0  0.98222887191E+03  0.11966415441E+04 -0.25429004093E+03  0.15688816335E+04  0.12699999809E+01 0. -1.
       -4    1    3    3    0  502 -0.98222887191E+03 -0.11966415441E+04 -0.10573945028E+03  0.15517432089E+04  0.12699999809E+01 0.  1.
</event>
<event>
 5   0  0.1318916E-07  0.3110729E+04  0.7818609E-02  0.8212799E-01
        2   -1    0    0  501    0  0.00000000000E+00  0.00000000000E+00  0.30780686489E+04  0.30780686489E+04  0.25500000920E-02 0. -1.
       -2   -1    0    0    0  501  0.00000000000E+00  0.00000000000E+00 -0.78593420036E+03  0.78593420036E+03  0.25500000920E-02 0.  1.
    10030    2    1    2    0    0  0.00000000000E+00  0.00000000000E+00  0.22921344486E+04  0.38640028493E+04  0.31107294464E+04 0.  0.
        5    1    3    3  502    0  0.27431461830E+03 -0.56842109338E+03 -0.61970788381E+03  0.88453999370E+03  0.46999998093E+01 0.  1.
       -5    1    3    3    0  502 -0.27431461830E+03  0.56842109338E+03  0.29118423324E+04  0.29794628556E+04  0.46999998093E+01 0. -1.
</event>
<event>
 5   0  0.1325713E-07  0.3100217E+04  0.7818609E-02  0.8215678E-01
        2   -1    0    0  501    0  0.00000000000E+00  0.00000000000E+00  0.21339714837E+04  0.21339714837E+04  0.25500000920E-02 0.  1.
       -2   -1    0    0    0  501  0.00000000000E+00  0.00000000000E+00 -0.11259929461E+04  0.11259929461E+04  0.25500000920E-02 0. -1.
    10030    2    1    2    0    0  0.00000000000E+00  0.00000000000E+00  0.10079785376E+04  0.32599644298E+04  0.31002173071E+04 0.  0.
        4    1    3    3  502    0 -0.10915593460E+04 -0.48460648710E+02 -0.65220597506E+03  0.12724875194E+04  0.12699999809E+01 0. -1.
       -4    1    3    3    0  502  0.10915593460E+04  0.48460648710E+02  0.16601845126E+04  0.19874769103E+04  0.12699999809E+01 0.  1.
</event>
<event>
 5   0  0.1398931E-07  0.3114933E+04  0.7818609E-02  0.8211652E-01
        2   -1    0    0  501    0  0.00000000000E+00  0.00000000000E+00  0.18932204767E+04  0.18932204767E+04  0.25500000920E-02 0. -1.
       -2   -1    0    0    0  501  0.00000000000E+00  0.00000000000E+00 -0.12812571478E+04  0.12812571478E+04  0.25500000920E-02 0.  1.
    10030    2    1    2    0    0  0.00000000000E+00  0.00000000000E+00  0.61196332888E+03  0.31744776245E+04  0.31149332372E+04 0.  0.
        3    1    3    3  502    0  0.11384965762E+04 -0.86967694166E+03  0.92855199823E+03  0.17072554761E+04  0.10100000352E+00 0.  1.
       -3    1    3    3    0  502 -0.11384965762E+04  0.86967694166E+03 -0.31658866935E+03  0.14672221484E+04  0.10100000352E+00 0. -1.
</event>
<event>
 5   0  0.1318916E-07  0.3098544E+04  0.7818609E-02  0.8216138E-01
        2   -1    0    0  501    0  0.00000000000E+00  0.00000000000E+00  0.10059766987E+04  0.10059766987E+04  0.25500000920E-02 0.  1.
       -2   -1    0    0    0  501  0.00000000000E+00  0.00000000000E+00 -0.23859835291E+04  0.23859835291E+04  0.25500000920E-02 0. -1.
    10030    2    1    2    0    0  0.00000000000E+00  0.00000000000E+00 -0.13800068304E+04  0.33919602278E+04  0.30985440670E+04 0.  0.
        5    1    3    3  502    0 -0.86136490818E+03 -0.28418174917E+03  0.68492327920E+03  0.11365961288E+04  0.46999998093E+01 0.  1.
       -5    1    3    3    0  502  0.86136490818E+03  0.28418174917E+03 -0.20649301096E+04  0.22553640990E+04  0.46999998093E+01 0. -1.
</event>
<event>
 5   0  0.1325713E-07  0.3095435E+04  0.7818609E-02  0.8216992E-01
       -2   -1    0    0    0  501  0.00000000000E+00  0.00000000000E+00  0.14006099868E+04  0.14006099869E+04  0.25500000920E-02 0.  1.
        2   -1    0    0  501    0  0.00000000000E+00  0.00000000000E+00 -0.17102761276E+04  0.17102761276E+04  0.25500000920E-02 0. -1.
    10030    2    1    2    0    0  0.00000000000E+00  0.00000000000E+00 -0.30966614075E+03  0.31108861144E+04  0.30954352357E+04 0.  0.
        4    1    3    3  502    0  0.97017262443E+03  0.12007722838E+04 -0.26646954650E+03  0.15665556584E+04  0.12699999809E+01 0.  1.
       -4    1    3    3    0  502 -0.97017262443E+03 -0.12007722838E+04 -0.43196594245E+02  0.15443304560E+04  0.12699999809E+01 0. -1.
</event>
<event>
 5   0  0.1398931E-07  0.3101009E+04  0.7818609E-02  0.8215461E-01
        2   -1    0    0  501    0  0.00000000000E+00  0.00000000000E+00  0.24388726233E+04  0.24388726233E+04  0.25500000920E-02 0. -1.
       -2   -1    0    0    0  501  0.00000000000E+00  0.00000000000E+00 -0.98572762170E+03  0.98572762170E+03  0.25500000920E-02 0.  1.
    10030    2    1    2    0    0  0.00000000000E+00  0.00000000000E+00  0.14531450016E+04  0.34246002450E+04  0.31010089394E+04 0.  0.
        3    1    3    3  502    0 -0.14952413519E+04 -0.15554219607E+03  0.30732058410E+03  0.15344008690E+04  0.10100000352E+00 0.  1.
       -3    1    3    3    0  502  0.14952413519E+04  0.15554219607E+03  0.11458244175E+04  0.18901993760E+04  0.10100000352E+00 0. -1.
</event>
<event>
 5   0  0.4838602E-08  0.3097698E+04  0.7818609E-02  0.8216370E-01
        1   -1    0    0  501    0  0.00000000000E+00  0.00000000000E+00  0.21637650705E+04  0.21637650706E+04  0.50400001928E-02 0.  1.
       -1   -1    0    0    0  501  0.00000000000E+00  0.00000000000E+00 -0.11086849148E+04  0.11086849148E+04  0.50400001928E-02 0. -1.
    10030    2    1    2    0    0  0.00000000000E+00  0.00000000000E+00  0.10550801558E+04  0.32724499853E+04  0.30976983022E+04 0.  0.
        5    1    3    3  502    0  0.46825450353E+03 -0.10879637924E+04  0.15818301202E+04  0.19761417239E+04  0.46999998093E+01 0.  1.
       -5    1    3    3    0  502 -0.46825450353E+03  0.10879637924E+04 -0.52674996439E+03  0.12963082615E+04  0.46999998093E+01 0. -1.
</event>
<event>
 5   0  0.1329777E-07  0.3100119E+04  0.7818609E-02  0.8215705E-01
       -2   -1    0    0    0  501  0.00000000000E+00  0.00000000000E+00  0.10421280548E+04  0.10421280548E+04  0.25500000920E-02 0. -1.
        2   -1    0    0  501    0  0.00000000000E+00  0.00000000000E+00 -0.23055560716E+04  0.23055560716E+04  0.25500000920E-02 0.  1.
    10030    2    1    2    0    0  0.00000000000E+00  0.00000000000E+00 -0.12634280168E+04  0.33476841264E+04  0.31001191359E+04 0.  0.
        1    1    3    3  502    0  0.23467217537E+03  0.76198698038E+03  0.80371946875E+03  0.11321043117E+04  0.50400001928E-02 0. -1.
       -1    1    3    3    0  502 -0.23467217537E+03 -0.76198698038E+03 -0.20671474856E+04  0.22155798147E+04  0.50400001928E-02 0.  1.
</event>
<event>
 5   0  0.4436241E-08  0.3099258E+04  0.7818609E-02  0.8215942E-01
       -1   -1    0    0    0  501  0.00000000000E+00  0.00000000000E+00  0.15426931375E+04  0.15426931375E+04  0.50400001928E-02 0. -1.
        1   -1    0    0  501    0  0.00000000000E+00  0.00000000000E+00 -0.15565961632E+04  0.15565961632E+04  0.50400001928E-02 0.  1.
    10030    2    1    2    0    0  0.00000000000E+00  0.00000000000E+00 -0.13903025751E+02  0.30992893007E+04  0.30992581169E+04 0.  0.
        3    1    3    3  502    0 -0.72589720828E+02 -0.25258921134E+03 -0.15341471667E+04  0.15564954598E+04  0.10100000352E+00 0.  1.
       -3    1    3    3    0  502  0.72589720828E+02  0.25258921134E+03  0.15202441409E+04  0.15427938409E+04  0.10100000352E+00 0. -1.
</event>
<event>
 5   0  0.1325713E-07  0.3100466E+04  0.7818609E-02  0.8215610E-01
       -2   -1    0    0    0  501  0.00000000000E+00  0.00000000000E+00  0.20422490812E+04  0.20422490812E+04  0.25500000920E-02 0. -1.
        2   -1    0    0  501    0  0.00000000000E+00  0.00000000000E+00 -0.11767530337E+04  0.11767530337E+04  0.25500000920E-02 0.  1.
    10030    2    1    2    0    0  0.00000000000E+00  0.00000000000E+00  0.86549604744E+03  0.32190021149E+04  0.31004662888E+04 0.  0.
        4    1    3    3  502    0  0.10126328087E+03  0.68012814106E+03  0.18752521891E+04  0.19973484738E+04  0.12699999809E+01 0. -1.
       -4    1    3    3    0  502 -0.10126328087E+03 -0.68012814106E+03 -0.10097561416E+04  0.12216536411E+04  0.12699999809E+01 0.  1.
</event>
<event>
 5   0  0.1325713E-07  0.3101816E+04  0.7818609E-02  0.8215240E-01
        2   -1    0    0  501    0  0.00000000000E+00  0.00000000000E+00  0.12155135139E+04  0.12155135139E+04  0.25500000920E-02 0.  1.
       -2   -1    0    0    0  501  0.00000000000E+00  0.00000000000E+00 -0.19788472534E+04  0.19788472534E+04  0.25500000920E-02 0. -1.
    10030    2    1    2    0    0  0.00000000000E+00  0.00000000000E+00 -0.76333373946E+03  0.31943607673E+04  0.31018159703E+04 0.  0.
        4    1    3    3  502    0 -0.85592721262E+03 -0.98045496247E+01  0.95021227413E+03  0.12789106698E+04  0.12699999809E+01 0.  1.
       -4    1    3    3    0  502  0.85592721262E+03  0.98045496247E+01 -0.17135460136E+04  0.19154500975E+04  0.12699999809E+01 0. -1.
</event>
<event>
 5   0  0.1325713E-07  0.3097838E+04  0.7818609E-02  0.8216332E-01
        2   -1    0    0  501    0  0.00000000000E+00  0.00000000000E+00  0.20367657700E+04  0.20367657700E+04  0.25500000920E-02 0.  1.
       -2   -1    0    0    0  501  0.00000000000E+00  0.00000000000E+00 -0.11779211173E+04  0.11779211173E+04  0.25500000920E-02 0. -1.
    10030    2    1    2    0    0  0.00000000000E+00  0.00000000000E+00  0.85884465273E+03  0.32146868874E+04  0.30978375758E+04 0.  0.
        4    1    3    3  502    0  0.14738375761E+03  0.80989083219E+03 -0.93212858532E+03  0.12435877309E+04  0.12699999809E+01 0. -1.
       -4    1    3    3    0  502 -0.14738375761E+03 -0.80989083219E+03  0.17909732381E+04  0.19710991564E+04  0.12699999809E+01 0.  1.
</event>
<event>
 5   0  0.1329777E-07  0.3099518E+04  0.7818609E-02  0.8215870E-01
        2   -1    0    0  501    0  0.00000000000E+00  0.00000000000E+00  0.16238138123E+04  0.16238138123E+04  0.25500000920E-02 0. -1.
       -2   -1    0    0    0  501  0.00000000000E+00  0.00000000000E+00 -0.14790811219E+04  0.14790811219E+04  0.25500000920E-02 0.  1.
    10030    2    1    2    0    0  0.00000000000E+00  0.00000000000E+00  0.14473269037E+03  0.31028949342E+04  0.30995176111E+04 0.  0.
        1    1    3    3  502    0 -0.94311167183E+03 -0.63930261214E+03  0.11240275100E+04  0.16005015772E+04  0.50400001928E-02 0. -1.
       -1    1    3    3    0  502  0.94311167183E+03  0.63930261214E+03 -0.97929481962E+03  0.15023933570E+04  0.50400001928E-02 0.  1.
</event>
<event>
 5   0  0.4450600E-08  0.3101697E+04  0.7818609E-02  0.8215272E-01
       -1   -1    0    0    0  501  0.00000000000E+00  0.00000000000E+00  0.16432708862E+04  0.16432708862E+04  0.50400001928E-02 0. -1.
        1   -1    0    0  501    0  0.00000000000E+00  0.00000000000E+00 -0.14636242981E+04  0.14636242981E+04  0.50400001928E-02 0.  1.
    10030    2    1    2    0    0  0.00000000000E+00  0.00000000000E+00  0.17964658808E+03  0.31068951843E+04  0.31016970822E+04 0.  0.
        4    1    3    3  502    0 -0.99598637728E+03 -0.10172188650E+04 -0.52635516983E+03  0.15178189816E+04  0.12699999809E+01 0.  1.
       -4    1    3    3    0  502  0.99598637728E+03  0.10172188650E+04  0.70600175791E+03  0.15890762028E+04  0.12699999809E+01 0. -1.
</event>
<event>
 5   0  0.4838602E-08  0.3098704E+04  0.7818609E-02  0.8216094E-01
        1   -1    0    0  501    0  0.00000000000E+00  0.00000000000E+00  0.14742821928E+04  0.14742821929E+04  0.50400001928E-02 0. -1.
       -1   -1    0    0    0  501  0.00000000000E+00  0.00000000000E+00 -0.16282443239E+04  0.16282443239E+04  0.50400001928E-02 0.  1.
    10030    2    1    2    0    0  0.00000000000E+00  0.00000000000E+00 -0.15396213105E+03  0.31025265167E+04  0.30987039951E+04 0.  0.
        5    1    3    3  502    0  0.11419228549E+04 -0.85609955235E+03 -0.68069691683E+03  0.15812225121E+04  0.46999998093E+01 0.  1.
       -5    1    3    3    0  502 -0.11419228549E+04  0.85609955235E+03  0.52673478579E+03  0.15213040047E+04  0.46999998093E+01 0. -1.
</event>
<event>
 5   0  0.1325713E-07  0.3100886E+04  0.7818609E-02  0.8215495E-01
       -2   -1    0    0    0  501  0.00000000000E+00  0.00000000000E+00  0.16371076140E+04  0.16371076140E+04  0.25500000920E-02 0. -1.
        2   -1    0    0  501    0  0.00000000000E+00  0.00000000000E+00 -0.14683666168E+04  0.14683666168E+04  0.25500000920E-02 0.  1.
    10030    2    1    2    0    0  0.00000000000E+00  0.00000000000E+00  0.16874099728E+03  0.31054742308E+04  0.31008864336E+04 0.  0.
        4    1    3    3  502    0 -0.91882196237E+03  0.92290642392E+03 -0.75823182742E+03  0.15069529465E+04  0.12699999809E+01 0.  1.
       -4    1    3    3    0  502  0.91882196237E+03 -0.92290642392E+03  0.92697282469E+03  0.15985212843E+04  0.12699999809E+01 0. -1.
</event>
<event>
 5   0  0.1329777E-07  0.3099097E+04  0.7818609E-02  0.8215986E-01
       -2   -1    0    0    0  501  0.00000000000E+00  0.00000000000E+00  0.12730701454E+04  0.12730701454E+04  0.25500000920E-02 0.  1.
        2   -1    0    0  501    0  0.00000000000E+00  0.00000000000E+00 -0.18860706704E+04  0.18860706704E+04  0.25500000920E-02 0. -1.
    10030    2    1    2    0    0  0.00000000000E+00  0.00000000000E+00 -0.61300052498E+03  0.31591408158E+04  0.30990968120E+04 0.  0.
        1    1    3    3  502    0  0.12358786105E+04  0.75312561751E+03 -0.87085661969E+03  0.16890782657E+04  0.50400001928E-02 0. -1.
       -1    1    3    3    0  502 -0.12358786105E+04 -0.75312561751E+03  0.25785609471E+03  0.14700625501E+04  0.50400001928E-02 0.  1.
</event>
<event>
 5   0  0.1325713E-07  0.3100156E+04  0.7818609E-02  0.8215695E-01
       -2   -1    0    0    0  501  0.00000000000E+00  0.00000000000E+00  0.11458802907E+04  0.11458802907E+04  0.25500000920E-02 0. -1.
        2   -1    0    0  501    0  0.00000000000E+00  0.00000000000E+00 -0.20968527446E+04  0.20968527446E+04  0.25500000920E-02 0.  1.
    10030    2    1    2    0    0  0.00000000000E+00  0.00000000000E+00 -0.95097245387E+03  0.32427330354E+04  0.31001562752E+04 0.  0.
        4    1    3    3  502    0 -0.57798027971E+03  0.80813258414E+03 -0.17199952839E+04  0.19863345304E+04  0.12699999809E+01 0.  1.
       -4    1    3    3    0  502  0.57798027971E+03 -0.80813258414E+03  0.76902283000E+03  0.12563985049E+04  0.12699999809E+01 0. -1.
</event>
<event>
 5   0  0.1318916E-07  0.3110059E+04  0.7818609E-02  0.8212983E-01
        2   -1    0    0  501    0  0.00000000000E+00  0.00000000000E+00  0.17874437977E+04  0.17874437977E+04  0.25500000920E-02 0. -1.
       -2   -1    0    0    0  501  0.00000000000E+00  0.00000000000E+00 -0.13528349202E+04  0.13528349202E+04  0.25500000920E-02 0.  1.
    10030    2    1    2    0    0  0.00000000000E+00  0.00000000000E+00  0.43460887746E+03  0.31402787179E+04  0.31100587695E+04 0.  0.
        5    1    3    3  502    0  0.90698724736E+03  0.50192456537E+03 -0.95307026542E+03  0.14081616232E+04  0.46999998093E+01 0.  1.
       -5    1    3    3    0  502 -0.90698724736E+03 -0.50192456537E+03  0.13876791429E+04  0.17321170947E+04  0.46999998093E+01 0. -1.
</event>
<event>
 5   0  0.1377237E-07  0.3098519E+04  0.7818609E-02  0.8216144E-01
       -2   -1    0    0    0  501  0.00000000000E+00  0.00000000000E+00  0.13636617931E+04  0.13636617931E+04  0.25500000920E-02 0.  1.
        2   -1    0    0  501    0  0.00000000000E+00  0.00000000000E+00 -0.17601178779E+04  0.17601178779E+04  0.25500000920E-02 0. -1.
    10030    2    1    2    0    0  0.00000000000E+00  0.00000000000E+00 -0.39645608477E+03  0.31237796709E+04  0.30985193247E+04 0.  0.
        2    1    3    3  502    0  0.19179793007E+01  0.90267896408E+03  0.10711525291E+04  0.14007857550E+04  0.25500000920E-02 0.  1.
       -2    1    3    3    0  502 -0.19179793007E+01 -0.90267896408E+03 -0.14676086139E+04  0.17229939159E+04  0.25500000920E-02 0. -1.
</event>
<event>
 5   0  0.4436241E-08  0.3099853E+04  0.7818609E-02  0.8215778E-01
       -1   -1    0    0    0  501  0.00000000000E+00  0.00000000000E+00  0.16825391666E+04  0.16825391666E+04  0.50400001928E-02 0. -1.
        1   -1    0    0  501    0  0.00000000000E+00  0.00000000000E+00 -0.14277657495E+04  0.14277657496E+04  0.50400001928E-02 0.  1.
    10030    2    1    2    0    0  0.00000000000E+00  0.00000000000E+00  0.25477341704E+03  0.31103049162E+04  0.30998527671E+04 0.  0.
        3    1    3    3  502    0 -0.30205233640E+03 -0.19112886318E+02 -0.13978278587E+04  0.14302180425E+04  0.10100000352E+00 0.  1.
       -3    1    3    3    0  502  0.30205233640E+03  0.19112886318E+02  0.16526012757E+04  0.16800868737E+04  0.10100000352E+00 0. -1.
</event>
<event>
 5   0  0.1329777E-07  0.3095487E+04  0.7818609E-02  0.8216978E-01
       -2   -1    0    0    0  501  0.00000000000E+00  0.00000000000E+00  0.11776990991E+04  0.11776990991E+04  0.25500000920E-02 0. -1.
        2   -1    0    0  501    0  0.00000000000E+00  0.00000000000E+00 -0.20340589354E+04  0.20340589354E+04  0.25500000920E-02 0.  1.
    10030    2    1    2    0    0  0.00000000000E+00  0.00000000000E+00 -0.85635983633E+03  0.32117580344E+04  0.30954866342E+04 0.  0.
        1    1    3    3  502    0 -0.46371420472E+03 -0.10838691406E+04  0.61233772701E+03  0.13284429493E+04  0.50400001928E-02 0. -1.
       -1    1    3    3    0  502  0.46371420472E+03  0.10838691406E+04 -0.14686975633E+04  0.18833150852E+04  0.50400001928E-02 0.  1.
</event>
<event>
 5   0  0.4450600E-08  0.3099638E+04  0.7818609E-02  0.8215837E-01
        1   -1    0    0  501    0  0.00000000000E+00  0.00000000000E+00  0.21297067822E+04  0.21297067822E+04  0.50400001928E-02 0.  1.
       -1   -1    0    0    0  501  0.00000000000E+00  0.00000000000E+00 -0.11278257748E+04  0.11278257748E+04  0.50400001928E-02 0. -1.
    10030    2    1    2    0    0  0.00000000000E+00  0.00000000000E+00  0.10018810074E+04  0.32575325570E+04  0.30996375283E+04 0.  0.
        4    1    3    3  502    0  0.11201983815E+04 -0.22776834390E+02  0.16262676197E+04  0.19748699152E+04  0.12699999809E+01 0. -1.
       -4    1    3    3    0  502 -0.11201983815E+04  0.22776834390E+02 -0.62438661232E+03  0.12826626418E+04  0.12699999809E+01 0.  1.
</event>
<event>
 5   0  0.4450600E-08  0.3100936E+04  0.7818609E-02  0.8215481E-01
       -1   -1    0    0    0  501  0.00000000000E+00  0.00000000000E+00  0.19454522413E+04  0.19454522413E+04  0.50400001928E-02 0. -1.
        1   -1    0    0  501    0  0.00000000000E+00  0.00000000000E+00 -0.12356774799E+04  0.12356774799E+04  0.50400001928E-02 0.  1.
    10030    2    1    2    0    0  0.00000000000E+00  0.00000000000E+00  0.70977476140E+03  0.31811297212E+04  0.31009363249E+04 0.  0.
        4    1    3    3  502    0  0.36177172275E+03 -0.77161539912E+03  0.16836371398E+04  0.18870359655E+04  0.12699999809E+01 0. -1.
       -4    1    3    3    0  502 -0.36177172275E+03  0.77161539912E+03 -0.97386237843E+03  0.12940937557E+04  0.12699999809E+01 0.  1.
</event>
<event>
 5   0  0.1398931E-07  0.3100300E+04  0.7818609E-02  0.8215656E-01
        2   -1    0    0  501    0  0.00000000000E+00  0.00000000000E+00  0.12268339926E+04  0.12268339926E+04  0.25500000920E-02 0. -1.
       -2   -1    0    0    0  501  0.00000000000E+00  0.00000000000E+00 -0.19586720581E+04  0.19586720581E+04  0.25500000920E-02 0.  1.
    10030    2    1    2    0    0  0.00000000000E+00  0.00000000000E+00 -0.73183806549E+03  0.31855060507E+04  0.31003002830E+04 0.  0.
        3    1    3    3  502    0 -0.18986957252E+02  0.10531846683E+04 -0.15344555211E+04  0.18612125635E+04  0.10100000352E+00 0.  1.
       -3    1    3    3    0  502  0.18986957252E+02 -0.10531846683E+04  0.80261745558E+03  0.13242934872E+04  0.10100000352E+00 0. -1.
</event>
<event>
 5   0  0.1318916E-07  0.3099851E+04  0.7818609E-02  0.8215779E-01
        2   -1    0    0  501    0  0.00000000000E+00  0.00000000000E+00  0.16131440413E+04  0.16131440414E+04  0.25500000920E-02 0.  1.
       -2   -1    0    0    0  501  0.00000000000E+00  0.00000000000E+00 -0.14891840462E+04  0.14891840462E+04  0.25500000920E-02 0. -1.
    10030    2    1    2    0    0  0.00000000000E+00  0.00000000000E+00  0.12395999519E+03  0.31023280875E+04  0.30998505580E+04 0.  0.
        5    1    3    3  502    0  0.68439335473E+03 -0.13573678730E+03  0.14470758583E+04  0.16065084404E+04  0.46999998093E+01 0.  1.
       -5    1    3    3    0  502 -0.68439335473E+03  0.13573678730E+03 -0.13231158631E+04  0.14958196471E+04  0.46999998093E+01 0. -1.
</event>
<event>
 5   0  0.1318916E-07  0.3094836E+04  0.7818609E-02  0.8217157E-01
        2   -1    0    0  501    0  0.00000000000E+00  0.00000000000E+00  0.86129151862E+03  0.86129151862E+03  0.25500000920E-02 0.  1.
       -2   -1    0    0    0  501  0.00000000000E+00  0.00000000000E+00 -0.27801304032E+04  0.27801304032E+04  0.25500000920E-02 0. -1.
    10030    2    1    2    0    0  0.00000000000E+00  0.00000000000E+00 -0.19188388846E+04  0.36414219218E+04  0.30948361746E+04 0.  0.
        5    1    3    3  502    0 -0.30884769035E+03  0.34187265798E+03 -0.26975495761E+04  0.27366146268E+04  0.46999998093E+01 0. -1.
       -5    1    3    3    0  502  0.30884769035E+03 -0.34187265798E+03  0.77871069150E+03  0.90480729504E+03  0.46999998093E+01 0.  1.
</event>
<event>
 5   0  0.1329777E-07  0.3099765E+04  0.7818609E-02  0.8215802E-01
       -2   -1    0    0    0  501  0.00000000000E+00  0.00000000000E+00  0.14532572273E+04  0.14532572273E+04  0.25500000920E-02 0. -1.
        2   -1    0    0  501    0  0.00000000000E+00  0.00000000000E+00 -0.16529320769E+04  0.16529320769E+04  0.25500000920E-02 0.  1.
    10030    2    1    2    0    0  0.00000000000E+00  0.00000000000E+00 -0.19967484955E+03  0.31061893042E+04  0.30997648214E+04 0.  0.
        1    1    3    3  502    0 -0.84233466299E+03 -0.82407332336E+02  0.12012436741E+04  0.14694573888E+04  0.50400001928E-02 0. -1.
       -1    1    3    3    0  502  0.84233466299E+03  0.82407332336E+02 -0.14009185237E+04  0.16367319154E+04  0.50400001928E-02 0.  1.
</event>
<event>
 5   0  0.4450600E-08  0.3102757E+04  0.7818609E-02  0.8214982E-01
        1   -1    0    0  501    0  0.00000000000E+00  0.00000000000E+00  0.16129761542E+04  0.16129761542E+04  0.50400001928E-02 0. -1.
       -1   -1    0    0    0  501  0.00000000000E+00  0.00000000000E+00 -0.14921329971E+04  0.14921329971E+04  0.50400001928E-02 0.  1.
    10030    2    1    2    0    0  0.00000000000E+00  0.00000000000E+00  0.12084315710E+03  0.31051091513E+04  0.31027568021E+04 0.  0.
        4    1    3    3  502    0 -0.24143424946E+03  0.14134576038E+04  0.65300261246E+03  0.15756163617E+04  0.12699999809E+01 0. -1.
       -4    1    3    3    0  502  0.24143424946E+03 -0.14134576038E+04 -0.53215945536E+03  0.15294927896E+04  0.12699999809E+01 0.  1.
</event>
<event>
 5   0  0.4305500E-08  0.3096680E+04  0.7818609E-02  0.8216650E-01
       -3   -1    0    0    0  501  0.00000000000E+00  0.00000000000E+00  0.13803620275E+04  0.13803620312E+04  0.10100000352E+00 0.  1.
        3   -1    0    0  501    0  0.00000000000E+00  0.00000000000E+00 -0.17367599348E+04  0.17367599377E+04  0.10100000352E+00 0. -1.
    10030    2    1    2    0    0  0.00000000000E+00  0.00000000000E+00 -0.35639790730E+03  0.31171219689E+04  0.30966804647E+04 0.  0.
        2    1    3    3  502    0 -0.11477912485E+04  0.26329172168E+02  0.86752322146E+03  0.14389977468E+04  0.25500000920E-02 0.  1.
       -2    1    3    3    0  502  0.11477912485E+04 -0.26329172168E+02 -0.12239211288E+04  0.16781242221E+04  0.25500000920E-02 0. -1.
</event>
<event>
 5   0  0.1318916E-07  0.3100330E+04  0.7818609E-02  0.8215647E-01
       -2   -1    0    0    0  501  0.00000000000E+00  0.00000000000E+00  0.15584670593E+04  0.15584670593E+04  0.25500000920E-02 0. -1.
        2   -1    0    0  501    0  0.00000000000E+00  0.00000000000E+00 -0.15419072299E+04  0.15419072299E+04  0.25500000920E-02 0.  1.
    10030    2    1    2    0    0  0.00000000000E+00  0.00000000000E+00  0.16559829413E+02  0.31003742892E+04  0.31003300639E+04 0.  0.
        5    1    3    3  502    0  0.47015574754E+03  0.34758699336E+03 -0.14274029174E+04  0.15425188244E+04  0.46999998093E+01 0.  1.
       -5    1    3    3    0  502 -0.47015574754E+03 -0.34758699336E+03  0.14439627469E+04  0.15578554648E+04  0.46999998093E+01 0. -1.
</event>
<event>
 5   0  0.1377237E-07  0.3100926E+04  0.7818609E-02  0.8215484E-01
       -2   -1    0    0    0  501  0.00000000000E+00  0.00000000000E+00  0.81920475057E+03  0.81920475058E+03  0.25500000920E-02 0.  1.
        2   -1    0    0  501    0  0.00000000000E+00  0.00000000000E+00 -0.29344748142E+04  0.29344748142E+04  0.25500000920E-02 0. -1.
    10030    2    1    2    0    0  0.00000000000E+00  0.00000000000E+00 -0.21152700636E+04  0.37536795648E+04  0.31009261250E+04 0.  0.
        2    1    3    3  502    0  0.71942724430E+03 -0.25275720466E+03 -0.26918020463E+04  0.27977240787E+04  0.25500000920E-02 0. -1.
       -2    1    3    3    0  502 -0.71942724430E+03  0.25275720466E+03  0.57653198263E+03  0.95595548607E+03  0.25500000920E-02 0.  1.
</event>
<event>
 5   0  0.1398931E-07  0.3098211E+04  0.7818609E-02  0.8216229E-01
       -2   -1    0    0    0  501  0.00000000000E+00  0.00000000000E+00  0.13629343928E+04  0.13629343928E+04  0.25500000920E-02 0.  1.
        2   -1    0    0  501    0  0.00000000000E+00  0.00000000000E+00 -0.17607070849E+04  0.17607070849E+04  0.25500000920E-02 0. -1.
    10030    2    1    2    0    0  0.00000000000E+00  0.00000000000E+00 -0.39777269205E+03  0.31236414777E+04  0.30982112528E+04 0.  0.
        3    1    3    3  502    0  0.29813765684E+03  0.34949031191E+02 -0.17311040953E+04  0.17569373626E+04  0.10100000352E+00 0. -1.
       -3    1    3    3    0  502 -0.29813765684E+03 -0.34949031191E+02  0.13333314032E+04  0.13667041151E+04  0.10100000352E+00 0.  1.
</event>
<event>
 5   0  0.4470354E-08  0.3099397E+04  0.7818609E-02  0.8215903E-01
        1   -1    0    0  501    0  0.00000000000E+00  0.00000000000E+00  0.26130704489E+04  0.26130704489E+04  0.50400001928E-02 0.  1.
       -1   -1    0    0    0  501  0.00000000000E+00  0.00000000000E+00 -0.91905902317E+03  0.91905902318E+03  0.50400001928E-02 0. -1.
    10030    2    1    2    0    0  0.00000000000E+00  0.00000000000E+00  0.16940114258E+04  0.35321294721E+04  0.30993973442E+04 0.  0.
        1    1    3    3  502    0 -0.84243372059E+02  0.38375481908E+03  0.25553694471E+04  0.25853970137E+04  0.50400001928E-02 0.  1.
       -1    1    3    3    0  502  0.84243372059E+02 -0.38375481908E+03 -0.86135802136E+03  0.94673245846E+03  0.50400001928E-02 0. -1.
</event>
<event>
 5   0  0.1398931E-07  0.3099526E+04  0.7818609E-02  0.8215868E-01
       -2   -1    0    0    0  501  0.00000000000E+00  0.00000000000E+00  0.16643179379E+04  0.16643179379E+04  0.25500000920E-02 0. -1.
        2   -1    0    0  501    0  0.00000000000E+00  0.00000000000E+00 -0.14430931826E+04  0.14430931826E+04  0.25500000920E-02 0.  1.
    10030    2    1    2    0    0  0.00000000000E+00  0.00000000000E+00  0.22122475531E+03  0.31074111204E+04  0.30995263314E+04 0.  0.
        3    1    3    3  502    0  0.13929392264E+04 -0.54864379583E+02  0.78944346421E+03  0.16020333273E+04  0.10100000352E+00 0. -1.
       -3    1    3    3    0  502 -0.13929392264E+04  0.54864379583E+02 -0.56821870889E+03  0.15053777931E+04  0.10100000352E+00 0.  1.
</event>
<event>
 5   0  0.1318916E-07  0.3082250E+04  0.7818609E-02  0.8220626E-01
       -2   -1    0    0    0  501  0.00000000000E+00  0.00000000000E+00  0.12064528197E+04  0.12064528197E+04  0.25500000920E-02 0.  1.
        2   -1    0    0  501    0  0.00000000000E+00  0.00000000000E+00 -0.19686354032E+04  0.19686354032E+04  0.25500000920E-02 0. -1.
    10030    2    1    2    0    0  0.00000000000E+00  0.00000000000E+00 -0.76218258343E+03  0.31750882229E+04  0.30822496545E+04 0.  0.
        5    1    3    3  502    0  0.80453036830E+02  0.70589947564E+03 -0.17898640253E+04  0.19257211844E+04  0.46999998093E+01 0. -1.
       -5    1    3    3    0  502 -0.80453036830E+02 -0.70589947564E+03  0.10276814419E+04  0.12493670385E+04  0.46999998093E+01 0.  1.
</event>
<event>
 5   0  0.4470354E-08  0.3103310E+04  0.7818609E-02  0.8214830E-01
        1   -1    0    0  501    0  0.00000000000E+00  0.00000000000E+00  0.20998342390E+04  0.20998342390E+04  0.50400001928E-02 0.  1.
       -1   -1    0    0    0  501  0.00000000000E+00  0.00000000000E+00 -0.11465826762E+04  0.11465826762E+04  0.50400001928E-02 0. -1.
    10030    2    1    2    0    0  0.00000000000E+00  0.00000000000E+00  0.95325156280E+03  0.32464169152E+04  0.31033102077E+04 0.  0.
        1    1    3    3  502    0 -0.29804689333E+02  0.10983057506E+04 -0.66955918447E+03  0.12866519898E+04  0.50400001928E-02 0. -1.
       -1    1    3    3    0  502  0.29804689333E+02 -0.10983057506E+04  0.16228107473E+04  0.19597649254E+04  0.50400001928E-02 0.  1.
</event>
<event>
 5   0  0.4517409E-08  0.3099840E+04  0.7818609E-02  0.8215782E-01
        1   -1    0    0  501    0  0.00000000000E+00  0.00000000000E+00  0.16925150757E+04  0.16925150757E+04  0.50400001928E-02 0.  1.
       -1   -1    0    0    0  501  0.00000000000E+00  0.00000000000E+00 -0.14193387210E+04  0.14193387210E+04  0.50400001928E-02 0. -1.
    10030    2    1    2    0    0  0.00000000000E+00  0.00000000000E+00  0.27317635474E+03  0.31118537967E+04  0.30998401139E+04 0.  0.
        2    1    3    3  502    0 -0.11640608083E+04 -0.91863159829E+03 -0.31608135632E+03  0.15161889733E+04  0.25500000920E-02 0. -1.
       -2    1    3    3    0  502  0.11640608083E+04  0.91863159829E+03  0.58925771106E+03  0.15956648235E+04  0.25500000920E-02 0.  1.
</event>
<event>
 5   0  0.1325713E-07  0.3098952E+04  0.7818609E-02  0.8216026E-01
       -2   -1    0    0    0  501  0.00000000000E+00  0.00000000000E+00  0.16754170256E+04  0.16754170256E+04  0.25500000920E-02 0. -1.
        2   -1    0    0  501    0  0.00000000000E+00  0.00000000000E+00 -0.14330016990E+04  0.14330016990E+04  0.25500000920E-02 0.  1.
    10030    2    1    2    0    0  0.00000000000E+00  0.00000000000E+00  0.24241532666E+03  0.31084187246E+04  0.30989517222E+04 0.  0.
        4    1    3    3  502    0  0.12997692820E+04  0.23418304561E+03  0.93401143423E+03  0.16175972482E+04  0.12699999809E+01 0. -1.
       -4    1    3    3    0  502 -0.12997692820E+04 -0.23418304561E+03 -0.69159610757E+03  0.14908214763E+04  0.12699999809E+01 0.  1.
</event>
<event>
 5   0  0.1325713E-07  0.3099327E+04  0.7818609E-02  0.8215923E-01
        2   -1    0    0  501    0  0.00000000000E+00  0.00000000000E+00  0.17027318955E+04  0.17027318955E+04  0.25500000920E-02 0. -1.
       -2   -1    0    0    0  501  0.00000000000E+00  0.00000000000E+00 -0.14103552993E+04  0.14103552993E+04  0.25500000920E-02 0.  1.
    10030    2    1    2    0    0  0.00000000000E+00  0.00000000000E+00  0.29237659628E+03  0.31130871948E+04  0.30993269928E+04 0.  0.
        4    1    3    3  502    0  0.77049623884E+03  0.10522212157E+04  0.98693579910E+03  0.16355053730E+04  0.12699999809E+01 0. -1.
       -4    1    3    3    0  502 -0.77049623884E+03 -0.10522212157E+04 -0.69455920282E+03  0.14775818217E+04  0.12699999809E+01 0.  1.
</event>
<event>
 5   0  0.1377237E-07  0.3097883E+04  0.7818609E-02  0.8216319E-01
       -2   -1    0    0    0  501  0.00000000000E+00  0.00000000000E+00  0.20853509221E+04  0.20853509221E+04  0.25500000920E-02 0. -1.
        2   -1    0    0  501    0  0.00000000000E+00  0.00000000000E+00 -0.11505115688E+04  0.11505115688E+04  0.25500000920E-02 0.  1.
    10030    2    1    2    0    0  0.00000000000E+00  0.00000000000E+00  0.93483935333E+03  0.32358624909E+04  0.30978833812E+04 0.  0.
        2    1    3    3  502    0 -0.91445464224E+03  0.36836433780E+03  0.17153281827E+04  0.19784515037E+04  0.25500000920E-02 0. -1.
       -2    1    3    3    0  502  0.91445464224E+03 -0.36836433780E+03 -0.78048882936E+03  0.12574109872E+04  0.25500000920E-02 0.  1.
</event>
<event>
 5   0  0.1329777E-07  0.3097945E+04  0.7818609E-02  0.8216302E-01
        2   -1    0    0  501    0  0.00000000000E+00  0.00000000000E+00  0.16932218005E+04  0.16932218005E+04  0.25500000920E-02 0.  1.
       -2   -1    0    0    0  501  0.00000000000E+00  0.00000000000E+00 -0.14170122421E+04  0.14170122421E+04  0.25500000920E-02 0. -1.
    10030    2    1    2    0    0  0.00000000000E+00  0.00000000000E+00  0.27620955847E+03  0.31102340426E+04  0.30979451383E+04 0.  0.
        1    1    3    3  502    0 -0.13640723901E+04 -0.32567452324E+03 -0.52219605083E+03  0.14964778970E+04  0.50400001928E-02 0. -1.
       -1    1    3    3    0  502  0.13640723901E+04  0.32567452324E+03  0.79840560930E+03  0.16137561456E+04  0.50400001928E-02 0.  1.
</event>
<event>
 5   0  0.1325713E-07  0.3100158E+04  0.7818609E-02  0.8215695E-01
        2   -1    0    0  501    0  0.00000000000E+00  0.00000000000E+00  0.32985476837E+04  0.32985476837E+04  0.25500000920E-02 0.  1.
       -2   -1    0    0    0  501  0.00000000000E+00  0.00000000000E+00 -0.72842496637E+03  0.72842496637E+03  0.25500000920E-02 0. -1.
    10030    2    1    2    0    0  0.00000000000E+00  0.00000000000E+00  0.25701227173E+04  0.40269726500E+04  0.31001577286E+04 0.  0.
        4    1    3    3  502    0  0.13906358853E+04 -0.68283124915E+03  0.13515013731E+04  0.20558901369E+04  0.12699999809E+01 0. -1.
       -4    1    3    3    0  502 -0.13906358853E+04  0.68283124915E+03  0.12186213442E+04  0.19710825132E+04  0.12699999809E+01 0.  1.
</event>
<event>
 5   0  0.1318916E-07  0.3100532E+04  0.7818609E-02  0.8215592E-01
       -2   -1    0    0    0  501  0.00000000000E+00  0.00000000000E+00  0.14515442963E+04  0.14515442963E+04  0.25500000920E-02 0. -1.
        2   -1    0    0  501    0  0.00000000000E+00  0.00000000000E+00 -0.16557022806E+04  0.16557022806E+04  0.25500000920E-02 0.  1.
    10030    2    1    2    0    0  0.00000000000E+00  0.00000000000E+00 -0.20415798428E+03  0.31072465768E+04  0.31005323425E+04 0.  0.
        5    1    3    3  502    0  0.49467525769E+03 -0.12497037089E+04  0.67214827856E+03  0.15027535956E+04  0.46999998093E+01 0. -1.
       -5    1    3    3    0  502 -0.49467525769E+03  0.12497037089E+04 -0.87630626284E+03  0.16044929813E+04  0.46999998093E+01 0.  1.
</event>
<event>
 5   0  0.4436241E-08  0.3100480E+04  0.7818609E-02  0.8215606E-01
       -1   -1    0    0    0  501  0.00000000000E+00  0.00000000000E+00  0.26013170492E+04  0.26013170493E+04  0.50400001928E-02 0.  1.
        1   -1    0    0  501    0  0.00000000000E+00  0.00000000000E+00 -0.92385690070E+03  0.92385690071E+03  0.50400001928E-02 0. -1.
    10030    2    1    2    0    0  0.00000000000E+00  0.00000000000E+00  0.16774601485E+04  0.35251739500E+04  0.31004804188E+04 0.  0.
        3    1    3    3  502    0  0.21353288706E+03 -0.10990674986E+02  0.25844716416E+04  0.25933011327E+04  0.10100000352E+00 0.  1.
       -3    1    3    3    0  502 -0.21353288706E+03  0.10990674986E+02 -0.90701149303E+03  0.93187281722E+03  0.10100000352E+00 0. -1.
</event>
<event>
 5   0  0.4436241E-08  0.3100180E+04  0.7818609E-02  0.8215688E-01
       -1   -1    0    0    0  501  0.00000000000E+00  0.00000000000E+00  0.14575456311E+04  0.14575456311E+04  0.50400001928E-02 0.  1.
        1   -1    0    0  501    0  0.00000000000E+00  0.00000000000E+00 -0.16485104301E+04  0.16485104301E+04  0.50400001928E-02 0. -1.
    10030    2    1    2    0    0  0.00000000000E+00  0.00000000000E+00 -0.19096479901E+03  0.31060560612E+04  0.31001801078E+04 0.  0.
        3    1    3    3  502    0  0.18294351408E+03 -0.11795211287E+04 -0.10863162566E+04  0.16139459228E+04  0.10100000352E+00 0. -1.
       -3    1    3    3    0  502 -0.18294351408E+03  0.11795211287E+04  0.89535145754E+03  0.14921101384E+04  0.10100000352E+00 0.  1.
</event>
<event>
 5   0  0.4450600E-08  0.3096203E+04  0.7818609E-02  0.8216781E-01
        1   -1    0    0  501    0  0.00000000000E+00  0.00000000000E+00  0.13071175615E+04  0.13071175616E+04  0.50400001928E-02 0. -1.
       -1   -1    0    0    0  501  0.00000000000E+00  0.00000000000E+00 -0.18335133794E+04  0.18335133794E+04  0.50400001928E-02 0.  1.
    10030    2    1    2    0    0  0.00000000000E+00  0.00000000000E+00 -0.52639581784E+03  0.31406309409E+04  0.30962025370E+04 0.  0.
        4    1    3    3  502    0  0.33125402252E+03  0.14656589164E+04  0.11461233960E+03  0.15069913364E+04  0.12699999809E+01 0. -1.
       -4    1    3    3    0  502 -0.33125402252E+03 -0.14656589164E+04 -0.64100815744E+03  0.16336396045E+04  0.12699999809E+01 0.  1.
</event>
<event>
 5   0  0.4470354E-08  0.3094476E+04  0.7818609E-02  0.8217256E-01
        1   -1    0    0  501    0  0.00000000000E+00  0.00000000000E+00  0.16864953857E+04  0.16864953857E+04  0.50400001928E-02 0. -1.
       -1   -1    0    0    0  501  0.00000000000E+00  0.00000000000E+00 -0.14194795584E+04  0.14194795585E+04  0.50400001928E-02 0.  1.
    10030    2    1    2    0    0  0.00000000000E+00  0.00000000000E+00  0.26701582721E+03  0.31059749441E+04  0.30944761918E+04 0.  0.
        1    1    3    3  502    0  0.22765056681E+02 -0.44525762186E+03 -0.13536092672E+04  0.14251423248E+04  0.50400001928E-02 0.  1.
       -1    1    3    3    0  502 -0.22765056681E+02  0.44525762186E+03  0.16206250944E+04  0.16808326193E+04  0.50400001928E-02 0. -1.
</event>
<event>
 5   0  0.1329777E-07  0.3098804E+04  0.7818609E-02  0.8216066E-01
        2   -1    0    0  501    0  0.00000000000E+00  0.00000000000E+00  0.26652787083E+04  0.26652787083E+04  0.25500000920E-02 0. -1.
       -2   -1    0    0    0  501  0.00000000000E+00  0.00000000000E+00 -0.90071107661E+03  0.90071107661E+03  0.25500000920E-02 0.  1.
    10030    2    1    2    0    0  0.00000000000E+00  0.00000000000E+00  0.17645676317E+04  0.35659897849E+04  0.30988036755E+04 0.  0.
        1    1    3    3  502    0 -0.47441033917E+03 -0.11621452210E+04 -0.16294852977E+03  0.12657799603E+04  0.50400001928E-02 0.  1.
       -1    1    3    3    0  502  0.47441033917E+03  0.11621452210E+04  0.19275161614E+04  0.23002098246E+04  0.50400001928E-02 0. -1.
</event>
<event>
 5   0  0.1325713E-07  0.3099992E+04  0.7818609E-02  0.8215740E-01
       -2   -1    0    0    0  501  0.00000000000E+00  0.00000000000E+00  0.20716745654E+04  0.20716745654E+04  0.25500000920E-02 0.  1.
        2   -1    0    0  501    0  0.00000000000E+00  0.00000000000E+00 -0.11596835932E+04  0.11596835932E+04  0.25500000920E-02 0. -1.
    10030    2    1    2    0    0  0.00000000000E+00  0.00000000000E+00  0.91199097227E+03  0.32313581586E+04  0.30999916154E+04 0.  0.
        4    1    3    3  502    0 -0.69365159900E+03 -0.10836189180E+04  0.13569747306E+04  0.18699637784E+04  0.12699999809E+01 0.  1.
       -4    1    3    3    0  502  0.69365159900E+03  0.10836189180E+04 -0.44498375837E+03  0.13613943801E+04  0.12699999809E+01 0. -1.
</event>
<event>
 5   0  0.1377237E-07  0.3099962E+04  0.7818609E-02  0.8215748E-01
        2   -1    0    0  501    0  0.00000000000E+00  0.00000000000E+00  0.15005665487E+04  0.15005665487E+04  0.25500000920E-02 0. -1.
       -2   -1    0    0    0  501  0.00000000000E+00  0.00000000000E+00 -0.16010225735E+04  0.16010225735E+04  0.25500000920E-02 0.  1.
    10030    2    1    2    0    0  0.00000000000E+00  0.00000000000E+00 -0.10045602471E+03  0.31015891222E+04  0.30999618820E+04 0.  0.
        2    1    3    3  502    0  0.28287122430E+02  0.33948546476E+03 -0.15631032093E+04  0.15997944196E+04  0.25500000920E-02 0.  1.
       -2    1    3    3    0  502 -0.28287122430E+02 -0.33948546476E+03  0.14626471846E+04  0.15017947026E+04  0.25500000920E-02 0. -1.
</event>
<event>
 5   0  0.4838602E-08  0.3098334E+04  0.7818609E-02  0.8216195E-01
        1   -1    0    0  501    0  0.00000000000E+00  0.00000000000E+00  0.17165713410E+04  0.17165713410E+04  0.50400001928E-02 0.  1.
       -1   -1    0    0    0  501  0.00000000000E+00  0.00000000000E+00 -0.13980887820E+04  0.13980887820E+04  0.50400001928E-02 0. -1.
    10030    2    1    2    0    0  0.00000000000E+00  0.00000000000E+00  0.31848255899E+03  0.31146601229E+04  0.30983344786E+04 0.  0.
        5    1    3    3  502    0 -0.92469432954E+03 -0.16350517715E+03  0.13978469198E+04  0.16839808928E+04  0.46999998093E+01 0.  1.
       -5    1    3    3    0  502  0.92469432954E+03  0.16350517715E+03 -0.10793643609E+04  0.14306792301E+04  0.46999998093E+01 0. -1.
</event>
<event>
 5   0  0.4436241E-08  0.3101653E+04  0.7818609E-02  0.8215284E-01
        1   -1    0    0  501    0  0.00000000000E+00  0.00000000000E+00  0.20432236471E+04  0.20432236471E+04  0.50400001928E-02 0.  1.
       -1   -1    0    0    0  501  0.00000000000E+00  0.00000000000E+00 -0.11770921656E+04  0.11770921656E+04  0.50400001928E-02 0. -1.
    10030    2    1    2    0    0  0.00000000000E+00  0.00000000000E+00  0.86613148146E+03  0.32203158127E+04  0.31016528159E+04 0.  0.
        3    1    3    3  502    0 -0.29455191014E+03  0.14433900220E+04 -0.70170263206E+02  0.14748082789E+04  0.10100000352E+00 0. -1.
       -3    1    3    3    0  502  0.29455191014E+03 -0.14433900220E+04  0.93630174467E+03  0.17455075338E+04  0.10100000352E+00 0.  1.
</event>
<event>
 5   0  0.1329777E-07  0.3100629E+04  0.7818609E-02  0.8215565E-01
       -2   -1    0    0    0  501  0.00000000000E+00  0.00000000000E+00  0.12689565006E+04  0.12689565006E+04  0.25500000920E-02 0.  1.
        2   -1    0    0  501    0  0.00000000000E+00  0.00000000000E+00 -0.18940563680E+04  0.18940563680E+04  0.25500000920E-02 0. -1.
    10030    2    1    2    0    0  0.00000000000E+00  0.00000000000E+00 -0.62509986737E+03  0.31630128686E+04  0.31006290592E+04 0.  0.
        1    1    3    3  502    0 -0.93121187584E+02 -0.43349883442E+03  0.12028970098E+04  0.12820117048E+04  0.50400001928E-02 0.  1.
       -1    1    3    3    0  502  0.93121187584E+02  0.43349883442E+03 -0.18279968772E+04  0.18810011638E+04  0.50400001928E-02 0. -1.
</event>
<event>
 5   0  0.4450600E-08  0.3100225E+04  0.7818609E-02  0.8215676E-01
       -1   -1    0    0    0  501  0.00000000000E+00  0.00000000000E+00  0.12742554407E+04  0.12742554407E+04  0.50400001928E-02 0.  1.
        1   -1    0    0  501    0  0.00000000000E+00  0.00000000000E+00 -0.18856885232E+04  0.18856885232E+04  0.50400001928E-02 0. -1.
    10030    2    1    2    0    0  0.00000000000E+00  0.00000000000E+00 -0.61143308255E+03  0.31599439639E+04  0.31002250629E+04 0.  0.
        4    1    3    3  502    0  0.12855945879E+04  0.53514292673E+03 -0.99980069437E+03  0.17142737348E+04  0.12699999809E+01 0. -1.
       -4    1    3    3    0  502 -0.12855945879E+04 -0.53514292673E+03  0.38836761182E+03  0.14456702291E+04  0.12699999809E+01 0.  1.
</event>
<event>
 5   0  0.4436241E-08  0.3098271E+04  0.7818609E-02  0.8216213E-01
        1   -1    0    0  501    0  0.00000000000E+00  0.00000000000E+00  0.18059932607E+04  0.18059932607E+04  0.50400001928E-02 0. -1.
       -1   -1    0    0    0  501  0.00000000000E+00  0.00000000000E+00 -0.13288091829E+04  0.13288091830E+04  0.50400001928E-02 0.  1.
    10030    2    1    2    0    0  0.00000000000E+00  0.00000000000E+00  0.47718407780E+03  0.31348024437E+04  0.30982707624E+04 0.  0.
        3    1    3    3  502    0  0.13810131416E+04  0.23530227172E+03 -0.43045812002E+03  0.14655574569E+04  0.10100000352E+00 0.  1.
       -3    1    3    3    0  502 -0.13810131416E+04 -0.23530227172E+03  0.90764219782E+03  0.16692449867E+04  0.10100000352E+00 0. -1.
</event>
<event>
 5   0  0.4470354E-08  0.3099921E+04  0.7818609E-02  0.8215760E-01
        1   -1    0    0  501    0  0.00000000000E+00  0.00000000000E+00  0.19324438356E+04  0.19324438356E+04  0.50400001928E-02 0. -1.
       -1   -1    0    0    0  501  0.00000000000E+00  0.00000000000E+00 -0.12431809205E+04  0.12431809206E+04  0.50400001928E-02 0.  1.
    10030    2    1    2    0    0  0.00000000000E+00  0.00000000000E+00  0.68926291509E+03  0.31756247562E+04  0.30999208419E+04 0.  0.
        1    1    3    3  502    0 -0.14946812084E+03  0.31789176737E+03 -0.12018651310E+04  0.12521484289E+04  0.50400001928E-02 0.  1.
       -1    1    3    3    0  502  0.14946812084E+03 -0.31789176737E+03  0.18911280461E+04  0.19234763273E+04  0.50400001928E-02 0. -1.
</event>
<event>
 5   0  0.4838602E-08  0.3102033E+04  0.7818609E-02  0.8215180E-01
       -1   -1    0    0    0  501  0.00000000000E+00  0.00000000000E+00  0.17539378624E+04  0.17539378624E+04  0.50400001928E-02 0. -1.
        1   -1    0    0  501    0  0.00000000000E+00  0.00000000000E+00 -0.13715722816E+04  0.13715722816E+04  0.50400001928E-02 0.  1.
    10030    2    1    2    0    0  0.00000000000E+00  0.00000000000E+00  0.38236558079E+03  0.31255101439E+04  0.31020332401E+04 0.  0.
        5    1    3    3  502    0 -0.10070437652E+04 -0.18012605654E+03  0.13657878070E+04  0.17064527433E+04  0.46999998093E+01 0. -1.
       -5    1    3    3    0  502  0.10070437652E+04  0.18012605654E+03 -0.98342222623E+03  0.14190574006E+04  0.46999998093E+01 0.  1.
</event>
<event>
 5   0  0.4436241E-08  0.3098818E+04  0.7818609E-02  0.8216062E-01
       -1   -1    0    0    0  501  0.00000000000E+00  0.00000000000E+00  0.12469606031E+04  0.12469606031E+04  0.50400001928E-02 0.  1.
        1   -1    0    0  501    0  0.00000000000E+00  0.00000000000E+00 -0.19252157839E+04  0.19252157840E+04  0.50400001928E-02 0. -1.
    10030    2    1    2    0    0  0.00000000000E+00  0.00000000000E+00 -0.67825518089E+03  0.31721763870E+04  0.30988179908E+04 0.  0.
        3    1    3    3  502    0  0.62824218757E+03  0.48524558578E+03  0.10229795609E+04  0.12948508474E+04  0.10100000352E+00 0.  1.
       -3    1    3    3    0  502 -0.62824218757E+03 -0.48524558578E+03 -0.17012347418E+04  0.18773255396E+04  0.10100000352E+00 0. -1.
</event>
<event>
 5   0  0.1325713E-07  0.3100182E+04  0.7818609E-02  0.8215688E-01
       -2   -1    0    0    0  501  0.00000000000E+00  0.00000000000E+00  0.10378440796E+04  0.10378440796E+04  0.25500000920E-02 0. -1.
        2   -1    0    0  501    0  0.00000000000E+00  0.00000000000E+00 -0.23151665638E+04  0.23151665638E+04  0.25500000920E-02 0.  1.
    10030    2    1    2    0    0  0.00000000000E+00  0.00000000000E+00 -0.12773224842E+04  0.33530106435E+04  0.31001818731E+04 0.  0.
        4    1    3    3  502    0 -0.12727393429E+04  0.10553627982E+02  0.31825545939E+03  0.13119698793E+04  0.12699999809E+01 0. -1.
       -4    1    3    3    0  502  0.12727393429E+04 -0.10553627982E+02 -0.15955779436E+04  0.20410407641E+04  0.12699999809E+01 0.  1.
</event>
<event>
 5   0  0.1329777E-07  0.3100156E+04  0.7818609E-02  0.8215695E-01
        2   -1    0    0  501    0  0.00000000000E+00  0.00000000000E+00  0.19684022243E+04  0.19684022243E+04  0.25500000920E-02 0.  1.
       -2   -1    0    0    0  501  0.00000000000E+00  0.00000000000E+00 -0.12206555173E+04  0.12206555173E+04  0.25500000920E-02 0. -1.
    10030    2    1    2    0    0  0.00000000000E+00  0.00000000000E+00  0.74774670700E+03  0.31890577415E+04  0.31001555027E+04 0.  0.
        1    1    3    3  502    0 -0.37624694978E+03  0.86002972335E+03  0.16427485240E+04  0.18920453497E+04  0.50400001928E-02 0.  1.
       -1    1    3    3    0  502  0.37624694978E+03 -0.86002972335E+03 -0.89500181696E+03  0.12970123919E+04  0.50400001928E-02 0. -1.
</event>
<event>
 5   0  0.4450600E-08  0.3101992E+04  0.7818609E-02  0.8215191E-01
       -1   -1    0    0    0  501  0.00000000000E+00  0.00000000000E+00  0.12547437657E+04  0.12547437657E+04  0.50400001928E-02 0.  1.
        1   -1    0    0  501    0  0.00000000000E+00  0.00000000000E+00 -0.19171956520E+04  0.19171956520E+04  0.50400001928E-02 0. -1.
    10030    2    1    2    0    0  0.00000000000E+00  0.00000000000E+00 -0.66245188634E+03  0.31719394177E+04  0.31019924513E+04 0.  0.
        4    1    3    3  502    0 -0.33899837391E+03 -0.12924900708E+04  0.47401906044E+03  0.14177962347E+04  0.12699999809E+01 0.  1.
       -4    1    3    3    0  502  0.33899837391E+03  0.12924900708E+04 -0.11364709468E+04  0.17541431830E+04  0.12699999809E+01 0. -1.
</event>
<event>
 5   0  0.1318916E-07  0.3099497E+04  0.7818609E-02  0.8215876E-01
        2   -1    0    0  501    0  0.00000000000E+00  0.00000000000E+00  0.26967154873E+04  0.26967154873E+04  0.25500000920E-02 0. -1.
       -2   -1    0    0    0  501  0.00000000000E+00  0.00000000000E+00 -0.89060958119E+03  0.89060958119E+03  0.25500000920E-02 0.  1.
    10030    2    1    2    0    0  0.00000000000E+00  0.00000000000E+00  0.18061059061E+04  0.35873250685E+04  0.30994971532E+04 0.  0.
        5    1    3    3  502    0 -0.10992084583E+04  0.13369041680E+03  0.21579353744E+04  0.24254565616E+04  0.46999998093E+01 0. -1.
       -5    1    3    3    0  502  0.10992084583E+04 -0.13369041680E+03 -0.35182946832E+03  0.11618685068E+04  0.46999998093E+01 0.  1.
</event>
<event>
 5   0  0.4450600E-08  0.3098869E+04  0.7818609E-02  0.8216048E-01
        1   -1    0    0  501    0  0.00000000000E+00  0.00000000000E+00  0.12611688280E+04  0.12611688280E+04  0.50400001928E-02 0. -1.
       -1   -1    0    0    0  501  0.00000000000E+00  0.00000000000E+00 -0.19035892993E+04  0.19035892993E+04  0.50400001928E-02 0.  1.
    10030    2    1    2    0    0  0.00000000000E+00  0.00000000000E+00 -0.64242047129E+03  0.31647581273E+04  0.30988691393E+04 0.  0.
        4    1    3    3  502    0 -0.15205329600E+04 -0.40952024033E+02 -0.62252297128E+03  0.16435431280E+04  0.12699999809E+01 0.  1.
       -4    1    3    3    0  502  0.15205329600E+04  0.40952024033E+02 -0.19897500015E+02  0.15212149993E+04  0.12699999809E+01 0. -1.
</event>
<event>
 5   0  0.4470354E-08  0.3100149E+04  0.7818609E-02  0.8215697E-01
        1   -1    0    0  501    0  0.00000000000E+00  0.00000000000E+00  0.16725491272E+04  0.16725491272E+04  0.50400001928E-02 0.  1.
       -1   -1    0    0    0  501  0.00000000000E+00  0.00000000000E+00 -0.14365686554E+04  0.14365686554E+04  0.50400001928E-02 0. -1.
    10030    2    1    2    0    0  0.00000000000E+00  0.00000000000E+00  0.23598047173E+03  0.31091177826E+04  0.31001494485E+04 0.  0.
        1    1    3    3  502    0  0.47545940773E+03  0.57758663442E+02  0.15964781387E+04  0.16667753775E+04  0.50400001928E-02 0.  1.
       -1    1    3    3    0  502 -0.47545940773E+03 -0.57758663442E+02 -0.13604976670E+04  0.14423424051E+04  0.50400001928E-02 0. -1.
</event>
<event>
 5   0  0.4470354E-08  0.3106022E+04  0.7818609E-02  0.8214087E-01
       -1   -1    0    0    0  501  0.00000000000E+00  0.00000000000E+00  0.10022172898E+04  0.10022172898E+04  0.50400001928E-02 0.  1.
        1   -1    0    0  501    0  0.00000000000E+00  0.00000000000E+00 -0.24065069413E+04  0.24065069413E+04  0.50400001928E-02 0. -1.
    10030    2    1    2    0    0  0.00000000000E+00  0.00000000000E+00 -0.14042896515E+04  0.34087242311E+04  0.31060218059E+04 0.  0.
        1    1    3    3  502    0 -0.32283233638E+03 -0.10002511002E+04 -0.19568597913E+04  0.22212661307E+04  0.50400001928E-02 0. -1.
       -1    1    3    3    0  502  0.32283233638E+03  0.10002511002E+04  0.55257013981E+03  0.11874581004E+04  0.50400001928E-02 0.  1.
</event>
<event>
 5   0  0.4436241E-08  0.3099560E+04  0.7818609E-02  0.8215859E-01
        1   -1    0    0  501    0  0.00000000000E+00  0.00000000000E+00  0.19149535835E+04  0.19149535835E+04  0.50400001928E-02 0. -1.
       -1   -1    0    0    0  501  0.00000000000E+00  0.00000000000E+00 -0.12542437787E+04  0.12542437787E+04  0.50400001928E-02 0.  1.
    10030    2    1    2    0    0  0.00000000000E+00  0.00000000000E+00  0.66070980477E+03  0.31691973622E+04  0.30995603679E+04 0.  0.
        3    1    3    3  502    0  0.33251914143E+03 -0.77356679134E+01  0.18780297303E+04  0.19072557505E+04  0.10100000352E+00 0. -1.
       -3    1    3    3    0  502 -0.33251914143E+03  0.77356679134E+01 -0.12173199255E+04  0.12619416117E+04  0.10100000352E+00 0.  1.
</event>
<event>
 5   0  0.1318916E-07  0.3098231E+04  0.7818609E-02  0.8216224E-01
       -2   -1    0    0    0  501  0.00000000000E+00  0.00000000000E+00  0.96048296953E+03  0.96048296954E+03  0.25500000920E-02 0. -1.
        2   -1    0    0  501    0  0.00000000000E+00  0.00000000000E+00 -0.24984917700E+04  0.24984917700E+04  0.25500000920E-02 0.  1.
    10030    2    1    2    0    0  0.00000000000E+00  0.00000000000E+00 -0.15380088004E+04  0.34589747395E+04  0.30982309756E+04 0.  0.
        5    1    3    3  502    0 -0.61385871834E+02 -0.10777107473E+04 -0.20094580962E+04  0.22810463849E+04  0.46999998093E+01 0.  1.
       -5    1    3    3    0  502  0.61385871834E+02  0.10777107473E+04  0.47144929571E+03  0.11779283546E+04  0.46999998093E+01 0. -1.
</event>
<event>
 5   0  0.1329777E-07  0.3089330E+04  0.7818609E-02  0.8218672E-01
        2   -1    0    0  501    0  0.00000000000E+00  0.00000000000E+00  0.22768091808E+04  0.22768091808E+04  0.25500000920E-02 0.  1.
       -2   -1    0    0    0  501  0.00000000000E+00  0.00000000000E+00 -0.10479536089E+04  0.10479536089E+04  0.25500000920E-02 0. -1.
    10030    2    1    2    0    0  0.00000000000E+00  0.00000000000E+00  0.12288555719E+04  0.33247627897E+04  0.30893302819E+04 0.  0.
        1    1    3    3  502    0  0.10909921218E+04  0.68051656323E+03  0.15355915251E+04  0.20028499531E+04  0.50400001928E-02 0.  1.
       -1    1    3    3    0  502 -0.10909921218E+04 -0.68051656323E+03 -0.30673595315E+03  0.13219128366E+04  0.50400001928E-02 0. -1.
</event>
<event>
 5   0  0.4450600E-08  0.3100196E+04  0.7818609E-02  0.8215684E-01
       -1   -1    0    0    0  501  0.00000000000E+00  0.00000000000E+00  0.95230268330E+03  0.95230268332E+03  0.50400001928E-02 0. -1.
        1   -1    0    0  501    0  0.00000000000E+00  0.00000000000E+00 -0.25231513080E+04  0.25231513080E+04  0.50400001928E-02 0.  1.
    10030    2    1    2    0    0  0.00000000000E+00  0.00000000000E+00 -0.15708486247E+04  0.34754539913E+04  0.31001959687E+04 0.  0.
        4    1    3    3  502    0  0.15096847188E+04 -0.11022126165E+03 -0.41108064946E+03  0.15685297542E+04  0.12699999809E+01 0. -1.
       -4    1    3    3    0  502 -0.15096847188E+04  0.11022126165E+03 -0.11597679752E+04  0.19069242371E+04  0.12699999809E+01 0.  1.
</event>
<event>
 5   0  0.4436241E-08  0.3100320E+04  0.7818609E-02  0.8215650E-01
        1   -1    0    0  501    0  0.00000000000E+00  0.00000000000E+00  0.18505709807E+04  0.18505709807E+04  0.50400001928E-02 0.  1.
       -1   -1    0    0    0  501  0.00000000000E+00  0.00000000000E+00 -0.12985163563E+04  0.12985163563E+04  0.50400001928E-02 0. -1.
    10030    2    1    2    0    0  0.00000000000E+00  0.00000000000E+00  0.55205462437E+03  0.31490873370E+04  0.31003204266E+04 0.  0.
        3    1    3    3  502    0  0.68445953087E+02  0.32983089503E+03  0.18129452097E+04  0.18439749487E+04  0.10100000352E+00 0.  1.
       -3    1    3    3    0  502 -0.68445953087E+02 -0.32983089503E+03 -0.12608905853E+04  0.13051123883E+04  0.10100000352E+00 0. -1.
</event>
<event>
 5   0  0.1318916E-07  0.3100149E+04  0.7818609E-02  0.8215697E-01
        2   -1    0    0  501    0  0.00000000000E+00  0.00000000000E+00  0.22043595560E+04  0.22043595560E+04  0.25500000920E-02 0.  1.
       -2   -1    0    0    0  501  0.00000000000E+00  0.00000000000E+00 -0.10899902936E+04  0.10899902936E+04  0.25500000920E-02 0. -1.
    10030    2    1    2    0    0  0.00000000000E+00  0.00000000000E+00  0.11143692625E+04  0.32943498496E+04  0.31001487187E+04 0.  0.
        5    1    3    3  502    0  0.13420116624E+04 -0.16318932018E+03  0.13630309347E+04  0.19197659949E+04  0.46999998093E+01 0.  1.
       -5    1    3    3    0  502 -0.13420116624E+04  0.16318932018E+03 -0.24866167224E+03  0.13745838547E+04  0.46999998093E+01 0. -1.
</event>
<event>
 5   0  0.4436241E-08  0.3100202E+04  0.7818609E-02  0.8215683E-01
       -1   -1    0    0    0  501  0.00000000000E+00  0.00000000000E+00  0.19694681279E+04  0.19694681279E+04  0.50400001928E-02 0.  1.
        1   -1    0    0  501    0  0.00000000000E+00  0.00000000000E+00 -0.12200313255E+04  0.12200313255E+04  0.50400001928E-02 0. -1.
    10030    2    1    2    0    0  0.00000000000E+00  0.00000000000E+00  0.74943680242E+03  0.31894994534E+04  0.31002018068E+04 0.  0.
        3    1    3    3  502    0  0.75679698321E+03  0.79132666569E+03  0.15035338555E+04  0.18599875350E+04  0.10100000352E+00 0.  1.
       -3    1    3    3    0  502 -0.75679698321E+03 -0.79132666569E+03 -0.75409705306E+03  0.13295119184E+04  0.10100000352E+00 0. -1.
</event>
<event>
 5   0  0.4436241E-08  0.3099178E+04  0.7818609E-02  0.8215964E-01
       -1   -1    0    0    0  501  0.00000000000E+00  0.00000000000E+00  0.87015724484E+03  0.87015724486E+03  0.50400001928E-02 0. -1.
        1   -1    0    0  501    0  0.00000000000E+00  0.00000000000E+00 -0.27595306638E+04  0.27595306638E+04  0.50400001928E-02 0.  1.
    10030    2    1    2    0    0  0.00000000000E+00  0.00000000000E+00 -0.18893734190E+04  0.36296879087E+04  0.30991776971E+04 0.  0.
        3    1    3    3  502    0 -0.12046104789E+03  0.15815652983E+03 -0.27445324527E+04  0.27517235955E+04  0.10100000352E+00 0.  1.
       -3    1    3    3    0  502  0.12046104789E+03 -0.15815652983E+03  0.85515903374E+03  0.87796431315E+03  0.10100000352E+00 0. -1.
</event>
<event>
 5   0  0.1325713E-07  0.3099153E+04  0.7818609E-02  0.8215970E-01
        2   -1    0    0  501    0  0.00000000000E+00  0.00000000000E+00  0.24254566225E+04  0.24254566225E+04  0.25500000920E-02 0.  1.
       -2   -1    0    0    0  501  0.00000000000E+00  0.00000000000E+00 -0.98999399803E+03  0.98999399803E+03  0.25500000920E-02 0. -1.
    10030    2    1    2    0    0  0.00000000000E+00  0.00000000000E+00  0.14354626245E+04  0.34154506205E+04  0.30991531093E+04 0.  0.
        4    1    3    3  502    0 -0.10284590544E+04  0.22254017701E+03  0.19713371192E+04  0.22345970123E+04  0.12699999809E+01 0.  1.
       -4    1    3    3    0  502  0.10284590544E+04 -0.22254017701E+03 -0.53587449475E+03  0.11808536082E+04  0.12699999809E+01 0. -1.
</event>
<event>
 5   0  0.1377237E-07  0.3097658E+04  0.7818609E-02  0.8216381E-01
        2   -1    0    0  501    0  0.00000000000E+00  0.00000000000E+00  0.15869385216E+04  0.15869385216E+04  0.25500000920E-02 0. -1.
       -2   -1    0    0    0  501  0.00000000000E+00  0.00000000000E+00 -0.15116344957E+04  0.15116344957E+04  0.25500000920E-02 0.  1.
    10030    2    1    2    0    0  0.00000000000E+00  0.00000000000E+00  0.75304025924E+02  0.30985730174E+04  0.30976578326E+04 0.  0.
        2    1    3    3  502    0  0.53649147543E+03 -0.14273450639E+04 -0.23396822219E+03  0.15426853742E+04  0.25500000920E-02 0.  1.
       -2    1    3    3    0  502 -0.53649147543E+03  0.14273450639E+04  0.30927224811E+03  0.15558876432E+04  0.25500000920E-02 0. -1.
</event>
<event>
 5   0  0.4517409E-08  0.3098764E+04  0.7818609E-02  0.8216077E-01
        1   -1    0    0  501    0  0.00000000000E+00  0.00000000000E+00  0.22412009041E+04  0.22412009041E+04  0.50400001928E-02 0.  1.
       -1   -1    0    0    0  501  0.00000000000E+00  0.00000000000E+00 -0.10711150818E+04  0.10711150818E+04  0.50400001928E-02 0. -1.
    10030    2    1    2    0    0  0.00000000000E+00  0.00000000000E+00  0.11700858222E+04  0.33123159859E+04  0.30987636824E+04 0.  0.
        2    1    3    3  502    0  0.32091553125E+03  0.73832546797E+03 -0.82999784326E+03  0.11562904889E+04  0.25500000920E-02 0. -1.
       -2    1    3    3    0  502 -0.32091553125E+03 -0.73832546797E+03  0.20000836655E+04  0.21560254970E+04  0.25500000920E-02 0.  1.
</event>
<event>
 5   0  0.1377237E-07  0.3099948E+04  0.7818609E-02  0.8215752E-01
       -2   -1    0    0    0  501  0.00000000000E+00  0.00000000000E+00  0.17431941932E+04  0.17431941932E+04  0.25500000920E-02 0.  1.
        2   -1    0    0  501    0  0.00000000000E+00  0.00000000000E+00 -0.13781705793E+04  0.13781705793E+04  0.25500000920E-02 0. -1.
    10030    2    1    2    0    0  0.00000000000E+00  0.00000000000E+00  0.36502361390E+03  0.31213647724E+04  0.30999477099E+04 0.  0.
        2    1    3    3  502    0  0.11991009063E+04 -0.14238783989E+03 -0.79595373385E+03  0.14462571095E+04  0.25500000920E-02 0. -1.
       -2    1    3    3    0  502 -0.11991009063E+04  0.14238783989E+03  0.11609773478E+04  0.16751076629E+04  0.25500000920E-02 0.  1.
</event>
<event>
 5   0  0.4517409E-08  0.3099851E+04  0.7818609E-02  0.8215779E-01
        1   -1    0    0  501    0  0.00000000000E+00  0.00000000000E+00  0.19567613305E+04  0.19567613305E+04  0.50400001928E-02 0. -1.
       -1   -1    0    0    0  501  0.00000000000E+00  0.00000000000E+00 -0.12276757353E+04  0.12276757353E+04  0.50400001928E-02 0.  1.
    10030    2    1    2    0    0  0.00000000000E+00  0.00000000000E+00  0.72908559524E+03  0.31844370658E+04  0.30998505804E+04 0.  0.
        2    1    3    3  502    0 -0.87587125215E+03 -0.11495075753E+04 -0.21087591005E+03  0.14604748425E+04  0.25500000920E-02 0.  1.
       -2    1    3    3    0  502  0.87587125215E+03  0.11495075753E+04  0.93996150529E+03  0.17239622233E+04  0.25500000920E-02 0. -1.
</event>
<event>
 5   0  0.4470354E-08  0.3101021E+04  0.7818609E-02  0.8215458E-01
       -1   -1    0    0    0  501  0.00000000000E+00  0.00000000000E+00  0.23243455051E+04  0.23243455051E+04  0.50400001928E-02 0.  1.
        1   -1    0    0  501    0  0.00000000000E+00  0.00000000000E+00 -0.10343051276E+04  0.10343051276E+04  0.50400001928E-02 0. -1.
    10030    2    1    2    0    0  0.00000000000E+00  0.00000000000E+00  0.12900403776E+04  0.33586506327E+04  0.31010207830E+04 0.  0.
        1    1    3    3  502    0  0.33001050666E+03 -0.81678081063E+03  0.20269733042E+04  0.22101263772E+04  0.50400001928E-02 0.  1.
       -1    1    3    3    0  502 -0.33001050666E+03  0.81678081063E+03 -0.73693292664E+03  0.11485242555E+04  0.50400001928E-02 0. -1.
</event>
<event>
 5   0  0.1377237E-07  0.3099349E+04  0.7818609E-02  0.8215917E-01
       -2   -1    0    0    0  501  0.00000000000E+00  0.00000000000E+00  0.11849736317E+04  0.11849736317E+04  0.25500000920E-02 0. -1.
        2   -1    0    0  501    0  0.00000000000E+00  0.00000000000E+00 -0.20266201077E+04  0.20266201077E+04  0.25500000920E-02 0.  1.
    10030    2    1    2    0    0  0.00000000000E+00  0.00000000000E+00 -0.84164647607E+03  0.32115937394E+04  0.30993492150E+04 0.  0.
        2    1    3    3  502    0 -0.14624574645E+04 -0.21853586832E+03 -0.90124255273E+03  0.17316979818E+04  0.25500000920E-02 0.  1.
       -2    1    3    3    0  502  0.14624574645E+04  0.21853586832E+03  0.59596076660E+02  0.14798957577E+04  0.25500000920E-02 0. -1.
</event>
<event>
 5   0  0.1325713E-07  0.3100345E+04  0.7818609E-02  0.8215643E-01
       -2   -1    0    0    0  501  0.00000000000E+00  0.00000000000E+00  0.13920881846E+04  0.13920881846E+04  0.25500000920E-02 0.  1.
        2   -1    0    0  501    0  0.00000000000E+00  0.00000000000E+00 -0.17262086534E+04  0.17262086534E+04  0.25500000920E-02 0. -1.
    10030    2    1    2    0    0  0.00000000000E+00  0.00000000000E+00 -0.33412046880E+03  0.31182968381E+04  0.31003449296E+04 0.  0.
        4    1    3    3  502    0  0.13572571402E+04  0.66943559761E+03  0.17065487242E+03  0.15229627909E+04  0.12699999809E+01 0.  1.
       -4    1    3    3    0  502 -0.13572571402E+04 -0.66943559761E+03 -0.50477534122E+03  0.15953340472E+04  0.12699999809E+01 0. -1.
</event>
<event>
 5   0  0.1329777E-07  0.3099923E+04  0.7818609E-02  0.8215759E-01
        2   -1    0    0  501    0  0.00000000000E+00  0.00000000000E+00  0.23288257734E+04  0.23288257734E+04  0.25500000920E-02 0. -1.
       -2   -1    0    0    0  501  0.00000000000E+00  0.00000000000E+00 -0.10315843049E+04  0.10315843049E+04  0.25500000920E-02 0.  1.
    10030    2    1    2    0    0  0.00000000000E+00  0.00000000000E+00  0.12972414684E+04  0.33604100783E+04  0.30999226550E+04 0.  0.
        1    1    3    3  502    0 -0.32935760370E+03  0.98261389421E+03  0.18980208498E+04  0.21625192814E+04  0.50400001928E-02 0. -1.
       -1    1    3    3    0  502  0.32935760370E+03 -0.98261389421E+03 -0.60077938134E+03  0.11978907969E+04  0.50400001928E-02 0.  1.
</event>
<event>
 5   0  0.1329777E-07  0.3078521E+04  0.7818609E-02  0.8221657E-01
        2   -1    0    0  501    0  0.00000000000E+00  0.00000000000E+00  0.12503278776E+04  0.12503278776E+04  0.25500000920E-02 0. -1.
       -2   -1    0    0    0  501  0.00000000000E+00  0.00000000000E+00 -0.18949611169E+04  0.18949611169E+04  0.25500000920E-02 0.  1.
    10030    2    1    2    0    0  0.00000000000E+00  0.00000000000E+00 -0.64463323930E+03  0.31452889945E+04  0.30785208860E+04 0.  0.
        1    1    3    3  502    0  0.36951567411E+02 -0.14002783311E+04 -0.97426099677E+03  0.17062617949E+04  0.50400001928E-02 0. -1.
       -1    1    3    3    0  502 -0.36951567411E+02  0.14002783311E+04  0.32962775747E+03  0.14390271996E+04  0.50400001928E-02 0.  1.
</event>
<event>
 5   0  0.4517409E-08  0.3099266E+04  0.7818609E-02  0.8215939E-01
       -1   -1    0    0    0  501  0.00000000000E+00  0.00000000000E+00  0.15624537250E+04  0.15624537250E+04  0.50400001928E-02 0. -1.
        1   -1    0    0  501    0  0.00000000000E+00  0.00000000000E+00 -0.15369171318E+04  0.15369171318E+04  0.50400001928E-02 0.  1.
    10030    2    1    2    0    0  0.00000000000E+00  0.00000000000E+00  0.25536593196E+02  0.30993708568E+04  0.30992656534E+04 0.  0.
        2    1    3    3  502    0 -0.13860339318E+04  0.69048815168E+03 -0.46377180523E+02  0.15491981121E+04  0.25500000920E-02 0.  1.
       -2    1    3    3    0  502  0.13860339318E+04 -0.69048815168E+03  0.71913773719E+02  0.15501727447E+04  0.25500000920E-02 0. -1.
</event>
<event>
 5   0  0.4517409E-08  0.3100012E+04  0.7818609E-02  0.8215735E-01
        1   -1    0    0  501    0  0.00000000000E+00  0.00000000000E+00  0.14375379820E+04  0.14375379820E+04  0.50400001928E-02 0. -1.
       -1   -1    0    0    0  501  0.00000000000E+00  0.00000000000E+00 -0.16712731655E+04  0.16712731655E+04  0.50400001928E-02 0.  1.
    10030    2    1    2    0    0  0.00000000000E+00  0.00000000000E+00 -0.23373518347E+03  0.31088111475E+04  0.31000120346E+04 0.  0.
        2    1    3    3  502    0 -0.11440088114E+04  0.10298467680E+04 -0.29953324619E+03  0.15681392450E+04  0.25500000920E-02 0. -1.
       -2    1    3    3    0  502  0.11440088114E+04 -0.10298467680E+04  0.65798062720E+02  0.15406719025E+04  0.25500000920E-02 0.  1.
</event>
<event>
 5   0  0.1329777E-07  0.3099108E+04  0.7818609E-02  0.8215983E-01
        2   -1    0    0  501    0  0.00000000000E+00  0.00000000000E+00  0.21756264414E+04  0.21756264414E+04  0.25500000920E-02 0.  1.
       -2   -1    0    0    0  501  0.00000000000E+00  0.00000000000E+00 -0.11036445280E+04  0.11036445280E+04  0.25500000920E-02 0. -1.
    10030    2    1    2    0    0  0.00000000000E+00  0.00000000000E+00  0.10719819133E+04  0.32792709694E+04  0.30991083989E+04 0.  0.
        1    1    3    3  502    0  0.13882879251E+04  0.53392065490E+03  0.99564450460E+03  0.17898945802E+04  0.50400001928E-02 0.  1.
       -1    1    3    3    0  502 -0.13882879251E+04 -0.53392065490E+03  0.76337408718E+02  0.14893763892E+04  0.50400001928E-02 0. -1.
</event>
<event>
 5   0  0.1318916E-07  0.3100851E+04  0.7818609E-02  0.8215504E-01
        2   -1    0    0  501    0  0.00000000000E+00  0.00000000000E+00  0.14825224439E+04  0.14825224439E+04  0.25500000920E-02 0.  1.
       -2   -1    0    0    0  501  0.00000000000E+00  0.00000000000E+00 -0.16214383019E+04  0.16214383019E+04  0.25500000920E-02 0. -1.
    10030    2    1    2    0    0  0.00000000000E+00  0.00000000000E+00 -0.13891585799E+03  0.31039607458E+04  0.31008506407E+04 0.  0.
        5    1    3    3  502    0 -0.65543682533E+03  0.70146212837E+03 -0.12881148423E+04  0.16065206150E+04  0.46999998093E+01 0. -1.
       -5    1    3    3    0  502  0.65543682533E+03 -0.70146212837E+03  0.11491989843E+04  0.14974401307E+04  0.46999998093E+01 0.  1.
</event>
<event>
 5   0  0.1325713E-07  0.3098528E+04  0.7818609E-02  0.8216142E-01
       -2   -1    0    0    0  501  0.00000000000E+00  0.00000000000E+00  0.15739080300E+04  0.15739080300E+04  0.25500000920E-02 0.  1.
        2   -1    0    0  501    0  0.00000000000E+00  0.00000000000E+00 -0.15250060750E+04  0.15250060750E+04  0.25500000920E-02 0. -1.
    10030    2    1    2    0    0  0.00000000000E+00  0.00000000000E+00  0.48901954964E+02  0.30989141050E+04  0.30985282360E+04 0.  0.
        4    1    3    3  502    0  0.97397892968E+03  0.11312776490E+04 -0.39008057780E+03  0.15429155987E+04  0.12699999809E+01 0. -1.
       -4    1    3    3    0  502 -0.97397892968E+03 -0.11312776490E+04  0.43898253276E+03  0.15559985063E+04  0.12699999809E+01 0.  1.
</event>
<event>
 5   0  0.4470354E-08  0.3099671E+04  0.7818609E-02  0.8215828E-01
       -1   -1    0    0    0  501  0.00000000000E+00  0.00000000000E+00  0.14038881186E+04  0.14038881186E+04  0.50400001928E-02 0. -1.
        1   -1    0    0  501    0  0.00000000000E+00  0.00000000000E+00 -0.17109554088E+04  0.17109554088E+04  0.50400001928E-02 0.  1.
    10030    2    1    2    0    0  0.00000000000E+00  0.00000000000E+00 -0.30706729015E+03  0.31148435274E+04  0.30996709308E+04 0.  0.
        1    1    3    3  502    0  0.83349166447E+03  0.98243184217E+02  0.11557753495E+04  0.14283475545E+04  0.50400001928E-02 0. -1.
       -1    1    3    3    0  502 -0.83349166447E+03 -0.98243184217E+02 -0.14628426397E+04  0.16864959729E+04  0.50400001928E-02 0.  1.
</event>
<event>
 5   0  0.1398931E-07  0.3097867E+04  0.7818609E-02  0.8216323E-01
        2   -1    0    0  501    0  0.00000000000E+00  0.00000000000E+00  0.23213889838E+04  0.23213889838E+04  0.25500000920E-02 0.  1.
       -2   -1    0    0    0  501  0.00000000000E+00  0.00000000000E+00 -0.10335171408E+04  0.10335171408E+04  0.25500000920E-02 0. -1.
    10030    2    1    2    0    0  0.00000000000E+00  0.00000000000E+00  0.12878718430E+04  0.33549061246E+04  0.30978672052E+04 0.  0.
        3    1    3    3  502    0 -0.30696243134E+03  0.22551726206E+03 -0.98200685087E+03  0.10532907647E+04  0.10100000352E+00 0. -1.
       -3    1    3    3    0  502  0.30696243134E+03 -0.22551726206E+03  0.22698786938E+04  0.23016153598E+04  0.10100000352E+00 0.  1.
</event>
<event>
 5   0  0.1329777E-07  0.3100683E+04  0.7818609E-02  0.8215550E-01
       -2   -1    0    0    0  501  0.00000000000E+00  0.00000000000E+00  0.27327350525E+04  0.27327350525E+04  0.25500000920E-02 0. -1.
        2   -1    0    0  501    0  0.00000000000E+00  0.00000000000E+00 -0.87954342410E+03  0.87954342410E+03  0.25500000920E-02 0.  1.
    10030    2    1    2    0    0  0.00000000000E+00  0.00000000000E+00  0.18531916284E+04  0.36122784766E+04  0.31006832442E+04 0.  0.
        1    1    3    3  502    0 -0.45622496722E+03  0.49626732540E+03  0.25530617301E+04  0.26405580238E+04  0.50400001928E-02 0. -1.
       -1    1    3    3    0  502  0.45622496722E+03 -0.49626732540E+03 -0.69987010178E+03  0.97172045279E+03  0.50400001928E-02 0.  1.
</event>
<event>
 5   0  0.4450600E-08  0.3098822E+04  0.7818609E-02  0.8216061E-01
        1   -1    0    0  501    0  0.00000000000E+00  0.00000000000E+00  0.25216498247E+04  0.25216498247E+04  0.50400001928E-02 0. -1.
       -1   -1    0    0    0  501  0.00000000000E+00  0.00000000000E+00 -0.95202507413E+03  0.95202507415E+03  0.50400001928E-02 0.  1.
    10030    2    1    2    0    0  0.00000000000E+00  0.00000000000E+00  0.15696247506E+04  0.34736748988E+04  0.30988216220E+04 0.  0.
        4    1    3    3  502    0 -0.75983957944E+03 -0.12818342455E+04  0.12606847630E+04  0.19518665179E+04  0.12699999809E+01 0. -1.
       -4    1    3    3    0  502  0.75983957944E+03  0.12818342455E+04  0.30893998758E+03  0.15218083809E+04  0.12699999809E+01 0.  1.
</event>
<event>
 5   0  0.1398931E-07  0.3082086E+04  0.7818609E-02  0.8220672E-01
       -2   -1    0    0    0  501  0.00000000000E+00  0.00000000000E+00  0.96358874718E+03  0.96358874718E+03  0.25500000920E-02 0.  1.
        2   -1    0    0  501    0  0.00000000000E+00  0.00000000000E+00 -0.24645504418E+04  0.24645504418E+04  0.25500000920E-02 0. -1.
    10030    2    1    2    0    0  0.00000000000E+00  0.00000000000E+00 -0.15009616946E+04  0.34281391890E+04  0.30820857046E+04 0.  0.
        3    1    3    3  502    0  0.13098720889E+04 -0.77728350092E+03 -0.48991650731E+03  0.15999852263E+04  0.10100000352E+00 0.  1.
       -3    1    3    3    0  502 -0.13098720889E+04  0.77728350092E+03 -0.10110451873E+04  0.18281539627E+04  0.10100000352E+00 0. -1.
</event>
<event>
 5   0  0.1329777E-07  0.3095331E+04  0.7818609E-02  0.8217021E-01
       -2   -1    0    0    0  501  0.00000000000E+00  0.00000000000E+00  0.12934350979E+04  0.12934350979E+04  0.25500000920E-02 0. -1.
        2   -1    0    0  501    0  0.00000000000E+00  0.00000000000E+00 -0.18518655189E+04  0.18518655189E+04  0.25500000920E-02 0.  1.
    10030    2    1    2    0    0  0.00000000000E+00  0.00000000000E+00 -0.55843042106E+03  0.31453006168E+04  0.30953305857E+04 0.  0.
        1    1    3    3  502    0  0.10274592101E+04 -0.11566446334E+04 -0.32194912418E+03  0.15802374742E+04  0.50400001928E-02 0. -1.
       -1    1    3    3    0  502 -0.10274592101E+04  0.11566446334E+04 -0.23648129688E+03  0.15650631425E+04  0.50400001928E-02 0.  1.
</event>
<event>
 5   0  0.4517409E-08  0.3100850E+04  0.7818609E-02  0.8215505E-01
        1   -1    0    0  501    0  0.00000000000E+00  0.00000000000E+00  0.12787721543E+04  0.12787721543E+04  0.50400001928E-02 0. -1.
       -1   -1    0    0    0  501  0.00000000000E+00  0.00000000000E+00 -0.18797856492E+04  0.18797856492E+04  0.50400001928E-02 0.  1.
    10030    2    1    2    0    0  0.00000000000E+00  0.00000000000E+00 -0.60101349489E+03  0.31585578035E+04  0.31008499120E+04 0.  0.
        2    1    3    3  502    0  0.56797454109E+03  0.46132254610E+03 -0.16928408943E+04  0.18442136168E+04  0.25500000920E-02 0.  1.
       -2    1    3    3    0  502 -0.56797454109E+03 -0.46132254610E+03  0.10918273994E+04  0.13143441867E+04  0.25500000920E-02 0. -1.
</event>
<event>
 5   0  0.1318916E-07  0.3100770E+04  0.7818609E-02  0.8215527E-01
        2   -1    0    0  501    0  0.00000000000E+00  0.00000000000E+00  0.20508744647E+04  0.20508744647E+04  0.25500000920E-02 0.  1.
       -2   -1    0    0    0  501  0.00000000000E+00  0.00000000000E+00 -0.11720338336E+04  0.11720338336E+04  0.25500000920E-02 0. -1.
    10030    2    1    2    0    0  0.00000000000E+00  0.00000000000E+00  0.87884063104E+03  0.32229082983E+04  0.31007703953E+04 0.  0.
        5    1    3    3  502    0 -0.96445678050E+03  0.22831061669E+03  0.16785930346E+04  0.19493586856E+04  0.46999998093E+01 0. -1.
       -5    1    3    3    0  502  0.96445678050E+03 -0.22831061669E+03 -0.79975240357E+03  0.12735496128E+04  0.46999998093E+01 0.  1.
</event>
<event>
 5   0  0.4470354E-08  0.3101073E+04  0.7818609E-02  0.8215443E-01
       -1   -1    0    0    0  501  0.00000000000E+00  0.00000000000E+00  0.96374721242E+03  0.96374721244E+03  0.50400001928E-02 0.  1.
        1   -1    0    0  501    0  0.00000000000E+00  0.00000000000E+00 -0.24946002188E+04  0.24946002189E+04  0.50400001928E-02 0. -1.
    10030    2    1    2    0    0  0.00000000000E+00  0.00000000000E+00 -0.15308530064E+04  0.34583474313E+04  0.31010733671E+04 0.  0.
        1    1    3    3  502    0 -0.12302137798E+04 -0.64110856459E+03 -0.15378394221E+04  0.20710857596E+04  0.50400001928E-02 0. -1.
       -1    1    3    3    0  502  0.12302137798E+04  0.64110856459E+03  0.69864156804E+01  0.13872616716E+04  0.50400001928E-02 0.  1.
</event>
<event>
 5   0  0.1329777E-07  0.3100091E+04  0.7818609E-02  0.8215713E-01
        2   -1    0    0  501    0  0.00000000000E+00  0.00000000000E+00  0.19385371115E+04  0.19385371115E+04  0.25500000920E-02 0.  1.
       -2   -1    0    0    0  501  0.00000000000E+00  0.00000000000E+00 -0.12394097174E+04  0.12394097174E+04  0.25500000920E-02 0. -1.
    10030    2    1    2    0    0  0.00000000000E+00  0.00000000000E+00  0.69912739406E+03  0.31779468289E+04  0.31000914397E+04 0.  0.
        1    1    3    3  502    0 -0.74656524583E+03 -0.13387745264E+04  0.58548433475E+03  0.16408744026E+04  0.50400001928E-02 0. -1.
       -1    1    3    3    0  502  0.74656524583E+03  0.13387745264E+04  0.11364305930E+03  0.15370724263E+04  0.50400001928E-02 0.  1.
</event>
<event>
 5   0  0.1377237E-07  0.3100409E+04  0.7818609E-02  0.8215626E-01
       -2   -1    0    0    0  501  0.00000000000E+00  0.00000000000E+00  0.10531732104E+04  0.10531732104E+04  0.25500000920E-02 0. -1.
        2   -1    0    0  501    0  0.00000000000E+00  0.00000000000E+00 -0.22818027638E+04  0.22818027638E+04  0.25500000920E-02 0.  1.
    10030    2    1    2    0    0  0.00000000000E+00  0.00000000000E+00 -0.12286295533E+04  0.33349759742E+04  0.31004087101E+04 0.  0.
        2    1    3    3  502    0 -0.11883996889E+04  0.89177865278E+03 -0.10900063921E+04  0.18427362592E+04  0.25500000920E-02 0.  1.
       -2    1    3    3    0  502  0.11883996889E+04 -0.89177865278E+03 -0.13862316124E+03  0.14922397150E+04  0.25500000920E-02 0. -1.
</event>
<event>
 5   0  0.4838602E-08  0.3099767E+04  0.7818609E-02  0.8215802E-01
       -1   -1    0    0    0  501  0.00000000000E+00  0.00000000000E+00  0.10002324017E+04  0.10002324017E+04  0.50400001928E-02 0. -1.
        1   -1    0    0  501    0  0.00000000000E+00  0.00000000000E+00 -0.24015801139E+04  0.24015801139E+04  0.50400001928E-02 0.  1.
    10030    2    1    2    0    0  0.00000000000E+00  0.00000000000E+00 -0.14013477123E+04  0.34018125156E+04  0.30997666010E+04 0.  0.
        5    1    3    3  502    0  0.52355618537E+03  0.24875198562E+02  0.90000629338E+03  0.10415196939E+04  0.46999998093E+01 0. -1.
       -5    1    3    3    0  502 -0.52355618537E+03 -0.24875198562E+02 -0.23013540056E+04  0.23602928217E+04  0.46999998093E+01 0.  1.
</event>
<event>
 5   0  0.4436241E-08  0.3094163E+04  0.7818609E-02  0.8217342E-01
        1   -1    0    0  501    0  0.00000000000E+00  0.00000000000E+00  0.20168232163E+04  0.20168232163E+04  0.50400001928E-02 0. -1.
       -1   -1    0    0    0  501  0.00000000000E+00  0.00000000000E+00 -0.11867478134E+04  0.11867478134E+04  0.50400001928E-02 0.  1.
    10030    2    1    2    0    0  0.00000000000E+00  0.00000000000E+00  0.83007540283E+03  0.32035710297E+04  0.30941625956E+04 0.  0.
        3    1    3    3  502    0 -0.14334884504E+04 -0.36523167795E+03 -0.53943885551E+02  0.14802679721E+04  0.10100000352E+00 0.  1.
       -3    1    3    3    0  502  0.14334884504E+04  0.36523167795E+03  0.88401928838E+03  0.17233030577E+04  0.10100000352E+00 0. -1.
</event>
<event>
 5   0  0.1398931E-07  0.3100734E+04  0.7818609E-02  0.8215537E-01
       -2   -1    0    0    0  501  0.00000000000E+00  0.00000000000E+00  0.15456801561E+04  0.15456801561E+04  0.25500000920E-02 0. -1.
        2   -1    0    0  501    0  0.00000000000E+00  0.00000000000E+00 -0.15550676676E+04  0.15550676676E+04  0.25500000920E-02 0.  1.
    10030    2    1    2    0    0  0.00000000000E+00  0.00000000000E+00 -0.93875114937E+01  0.31007478237E+04  0.31007336133E+04 0.  0.
        3    1    3    3  502    0  0.11109073287E+04 -0.55392573771E+03 -0.93350822399E+03  0.15531858969E+04  0.10100000352E+00 0.  1.
       -3    1    3    3    0  502 -0.11109073287E+04  0.55392573771E+03  0.92412071250E+03  0.15475619268E+04  0.10100000352E+00 0. -1.
</event>
<event>
 5   0  0.1318916E-07  0.3099045E+04  0.7818609E-02  0.8216000E-01
        2   -1    0    0  501    0  0.00000000000E+00  0.00000000000E+00  0.11635685866E+04  0.11635685867E+04  0.25500000920E-02 0. -1.
       -2   -1    0    0    0  501  0.00000000000E+00  0.00000000000E+00 -0.20634972640E+04  0.20634972640E+04  0.25500000920E-02 0.  1.
    10030    2    1    2    0    0  0.00000000000E+00  0.00000000000E+00 -0.89992867736E+03  0.32270658507E+04  0.30990453982E+04 0.  0.
        5    1    3    3  502    0 -0.33586223223E+02  0.15385414022E+04 -0.26148779898E+03  0.15609726582E+04  0.46999998093E+01 0. -1.
       -5    1    3    3    0  502  0.33586223223E+02 -0.15385414022E+04 -0.63844087838E+03  0.16660931924E+04  0.46999998093E+01 0.  1.
</event>
<event>
 5   0  0.4838602E-08  0.3099845E+04  0.7818609E-02  0.8215781E-01
       -1   -1    0    0    0  501  0.00000000000E+00  0.00000000000E+00  0.26967330873E+04  0.26967330873E+04  0.50400001928E-02 0. -1.
        1   -1    0    0  501    0  0.00000000000E+00  0.00000000000E+00 -0.89080346964E+03  0.89080346965E+03  0.50400001928E-02 0.  1.
    10030    2    1    2    0    0  0.00000000000E+00  0.00000000000E+00  0.18059296177E+04  0.35875365570E+04  0.30998446354E+04 0.  0.
        5    1    3    3  502    0 -0.14434263997E+04  0.14235187386E+03  0.15352655373E+04  0.21120620700E+04  0.46999998093E+01 0. -1.
       -5    1    3    3    0  502  0.14434263997E+04 -0.14235187386E+03  0.27066408035E+03  0.14754744870E+04  0.46999998093E+01 0.  1.
</event>
<event>
 5   0  0.1329777E-07  0.3100371E+04  0.7818609E-02  0.8215636E-01
        2   -1    0    0  501    0  0.00000000000E+00  0.00000000000E+00  0.14424182032E+04  0.14424182032E+04  0.25500000920E-02 0.  1.
       -2   -1    0    0    0  501  0.00000000000E+00  0.00000000000E+00 -0.16660043928E+04  0.16660043928E+04  0.25500000920E-02 0. -1.
    10030    2    1    2    0    0  0.00000000000E+00  0.00000000000E+00 -0.22358618959E+03  0.31084225961E+04  0.31003709861E+04 0.  0.
        1    1    3    3  502    0 -0.12087865809E+04 -0.86724537181E+03  0.32499358212E+03  0.15227936044E+04  0.50400001928E-02 0. -1.
       -1    1    3    3    0  502  0.12087865809E+04  0.86724537181E+03 -0.54857977171E+03  0.15856289916E+04  0.50400001928E-02 0.  1.
</event>
<event>
 5   0  0.4470354E-08  0.3080838E+04  0.7818609E-02  0.8221016E-01
        1   -1    0    0  501    0  0.00000000000E+00  0.00000000000E+00  0.12763827479E+04  0.12763827479E+04  0.50400001928E-02 0.  1.
       -1   -1    0    0    0  501  0.00000000000E+00  0.00000000000E+00 -0.18590750612E+04  0.18590750612E+04  0.50400001928E-02 0. -1.
    10030    2    1    2    0    0  0.00000000000E+00  0.00000000000E+00 -0.58269231327E+03  0.31354578092E+04  0.30808384153E+04 0.  0.
        1    1    3    3  502    0  0.54784702467E+03 -0.52302480999E+03 -0.16564690946E+04  0.18214228437E+04  0.50400001928E-02 0. -1.
       -1    1    3    3    0  502 -0.54784702467E+03  0.52302480999E+03  0.10737767813E+04  0.13140349654E+04  0.50400001928E-02 0.  1.
</event>
<event>
 5   0  0.1398931E-07  0.3100436E+04  0.7818609E-02  0.8215618E-01
        2   -1    0    0  501    0  0.00000000000E+00  0.00000000000E+00  0.22297051212E+04  0.22297051212E+04  0.25500000920E-02 0. -1.
       -2   -1    0    0    0  501  0.00000000000E+00  0.00000000000E+00 -0.10777995174E+04  0.10777995174E+04  0.25500000920E-02 0.  1.
    10030    2    1    2    0    0  0.00000000000E+00  0.00000000000E+00  0.11519056037E+04  0.33075046386E+04  0.31004355201E+04 0.  0.
        3    1    3    3  502    0  0.98161031653E+03  0.50529302046E+03 -0.58498178682E+03  0.12494332920E+04  0.10100000352E+00 0.  1.
       -3    1    3    3    0  502 -0.98161031653E+03 -0.50529302046E+03  0.17368873906E+04  0.20580713466E+04  0.10100000352E+00 0. -1.
</event>
<event>
 5   0  0.1325713E-07  0.3099516E+04  0.7818609E-02  0.8215871E-01
       -2   -1    0    0    0  501  0.00000000000E+00  0.00000000000E+00  0.15873770042E+04  0.15873770042E+04  0.25500000920E-02 0. -1.
        2   -1    0    0  501    0  0.00000000000E+00  0.00000000000E+00 -0.15130306357E+04  0.15130306357E+04  0.25500000920E-02 0.  1.
    10030    2    1    2    0    0  0.00000000000E+00  0.00000000000E+00  0.74346368557E+02  0.31004076399E+04  0.30995161156E+04 0.  0.
        4    1    3    3  502    0 -0.81990088811E+03  0.55239907995E+03  0.12309846113E+04  0.15788308763E+04  0.12699999809E+01 0. -1.
       -4    1    3    3    0  502  0.81990088811E+03 -0.55239907995E+03 -0.11566382428E+04  0.15215767636E+04  0.12699999809E+01 0.  1.
</event>
<event>
 5   0  0.1377237E-07  0.3101304E+04  0.7818609E-02  0.8215380E-01
        2   -1    0    0  501    0  0.00000000000E+00  0.00000000000E+00  0.20248935872E+04  0.20248935872E+04  0.25500000920E-02 0.  1.
       -2   -1    0    0    0  501  0.00000000000E+00  0.00000000000E+00 -0.11874805855E+04  0.11874805855E+04  0.25500000920E-02 0. -1.
    10030    2    1    2    0    0  0.00000000000E+00  0.00000000000E+00  0.83741300175E+03  0.32123741727E+04  0.31013041273E+04 0.  0.
        2    1    3    3  502    0  0.14357677229E+02 -0.96318578342E+03 -0.83996256073E+03  0.12780728069E+04  0.25500000920E-02 0. -1.
       -2    1    3    3    0  502 -0.14357677229E+02  0.96318578342E+03  0.16773755625E+04  0.19343013658E+04  0.25500000920E-02 0.  1.
</event>
<event>
 5   0  0.1325713E-07  0.3097492E+04  0.7818609E-02  0.8216427E-01
        2   -1    0    0  501    0  0.00000000000E+00  0.00000000000E+00  0.28207920093E+04  0.28207920093E+04  0.25500000920E-02 0.  1.
       -2   -1    0    0    0  501  0.00000000000E+00  0.00000000000E+00 -0.85033358821E+03  0.85033358821E+03  0.25500000920E-02 0. -1.
    10030    2    1    2    0    0  0.00000000000E+00  0.00000000000E+00  0.19704584211E+04  0.36711255975E+04  0.30974920119E+04 0.  0.
        4    1    3    3  502    0  0.12986462238E+04  0.74154308146E+03  0.50783853187E+03  0.15793257243E+04  0.12699999809E+01 0. -1.
       -4    1    3    3    0  502 -0.12986462238E+04 -0.74154308146E+03  0.14626198893E+04  0.20917998732E+04  0.12699999809E+01 0.  1.
</event>
<event>
 5   0  0.1329777E-07  0.3100478E+04  0.7818609E-02  0.8215607E-01
       -2   -1    0    0    0  501  0.00000000000E+00  0.00000000000E+00  0.13865898066E+04  0.13865898066E+04  0.25500000920E-02 0. -1.
        2   -1    0    0  501    0  0.00000000000E+00  0.00000000000E+00 -0.17332023759E+04  0.17332023759E+04  0.25500000920E-02 0.  1.
    10030    2    1    2    0    0  0.00000000000E+00  0.00000000000E+00 -0.34661256936E+03  0.31197921825E+04  0.31004778646E+04 0.  0.
        1    1    3    3  502    0 -0.83201551574E+03  0.12201380313E+04 -0.64768143852E+03  0.16125997270E+04  0.50400001928E-02 0. -1.
       -1    1    3    3    0  502  0.83201551574E+03 -0.12201380313E+04  0.30106886916E+03  0.15071924555E+04  0.50400001928E-02 0.  1.
</event>
<event>
 5   0  0.4838602E-08  0.3099595E+04  0.7818609E-02  0.8215849E-01
        1   -1    0    0  501    0  0.00000000000E+00  0.00000000000E+00  0.11761204714E+04  0.11761204714E+04  0.50400001928E-02 0.  1.
       -1   -1    0    0    0  501  0.00000000000E+00  0.00000000000E+00 -0.20421992405E+04  0.20421992405E+04  0.50400001928E-02 0. -1.
    10030    2    1    2    0    0  0.00000000000E+00  0.00000000000E+00 -0.86607876907E+03  0.32183197119E+04  0.30995950273E+04 0.  0.
        5    1    3    3  502    0  0.12313472389E+04  0.12544043889E+03 -0.14014479561E+04  0.18697673091E+04  0.46999998093E+01 0. -1.
       -5    1    3    3    0  502 -0.12313472389E+04 -0.12544043889E+03  0.53536918707E+03  0.13485524027E+04  0.46999998093E+01 0.  1.
</event>
<event>
 5   0  0.4470354E-08  0.3101065E+04  0.7818609E-02  0.8215446E-01
        1   -1    0    0  501    0  0.00000000000E+00  0.00000000000E+00  0.22363205180E+04  0.22363205180E+04  0.50400001928E-02 0.  1.
       -1   -1    0    0    0  501  0.00000000000E+00  0.00000000000E+00 -0.10750473607E+04  0.10750473607E+04  0.50400001928E-02 0. -1.
    10030    2    1    2    0    0  0.00000000000E+00  0.00000000000E+00  0.11612731573E+04  0.33113678788E+04  0.31010646370E+04 0.  0.
        1    1    3    3  502    0  0.87922122009E+03  0.10603233169E+04 -0.17956698945E+03  0.13890859563E+04  0.50400001928E-02 0. -1.
       -1    1    3    3    0  502 -0.87922122009E+03 -0.10603233169E+04  0.13408401467E+04  0.19222819224E+04  0.50400001928E-02 0.  1.
</event>
<event>
 5   0  0.1329777E-07  0.3100249E+04  0.7818609E-02  0.8215670E-01
        2   -1    0    0  501    0  0.00000000000E+00  0.00000000000E+00  0.23010001219E+04  0.23010001219E+04  0.25500000920E-02 0.  1.
       -2   -1    0    0    0  501  0.00000000000E+00  0.00000000000E+00 -0.10442790718E+04  0.10442790718E+04  0.25500000920E-02 0. -1.
    10030    2    1    2    0    0  0.00000000000E+00  0.00000000000E+00  0.12567210501E+04  0.33452791937E+04  0.31002491974E+04 0.  0.
        1    1    3    3  502    0  0.15175184754E+04 -0.15853713866E+03  0.33307139496E+03  0.15617083280E+04  0.50400001928E-02 0. -1.
       -1    1    3    3    0  502 -0.15175184754E+04  0.15853713866E+03  0.92364965511E+03  0.17835708657E+04  0.50400001928E-02 0.  1.
</event>
<event>
 5   0  0.4517409E-08  0.3099202E+04  0.7818609E-02  0.8215957E-01
       -1   -1    0    0    0  501  0.00000000000E+00  0.00000000000E+00  0.14877253533E+04  0.14877253533E+04  0.50400001928E-02 0.  1.
        1   -1    0    0  501    0  0.00000000000E+00  0.00000000000E+00 -0.16140503323E+04  0.16140503323E+04  0.50400001928E-02 0. -1.
    10030    2    1    2    0    0  0.00000000000E+00  0.00000000000E+00 -0.12632497902E+03  0.31017756855E+04  0.30992022204E+04 0.  0.
        2    1    3    3  502    0  0.87255861258E+03 -0.50683119733E+03 -0.12401607863E+04  0.15988230580E+04  0.25500000920E-02 0. -1.
       -2    1    3    3    0  502 -0.87255861258E+03  0.50683119733E+03  0.11138358073E+04  0.15029526275E+04  0.25500000920E-02 0.  1.
</event>
<event>
 5   0  0.4436241E-08  0.3100977E+04  0.7818609E-02  0.8215470E-01
        1   -1    0    0  501    0  0.00000000000E+00  0.00000000000E+00  0.81834206557E+03  0.81834206559E+03  0.50400001928E-02 0.  1.
       -1   -1    0    0    0  501  0.00000000000E+00  0.00000000000E+00 -0.29376652035E+04  0.29376652035E+04  0.50400001928E-02 0. -1.
    10030    2    1    2    0    0  0.00000000000E+00  0.00000000000E+00 -0.21193231379E+04  0.37560072691E+04  0.31009772722E+04 0.  0.
        3    1    3    3  502    0  0.14870363882E+04  0.41718429887E+03 -0.12252732846E+04  0.19714498703E+04  0.10100000352E+00 0.  1.
       -3    1    3    3    0  502 -0.14870363882E+04 -0.41718429887E+03 -0.89404985330E+03  0.17845573988E+04  0.10100000352E+00 0. -1.
</event>
<event>
 5   0  0.4450600E-08  0.3098250E+04  0.7818609E-02  0.8216218E-01
        1   -1    0    0  501    0  0.00000000000E+00  0.00000000000E+00  0.16802465337E+04  0.16802465337E+04  0.50400001928E-02 0.  1.
       -1   -1    0    0    0  501  0.00000000000E+00  0.00000000000E+00 -0.14282361116E+04  0.14282361116E+04  0.50400001928E-02 0. -1.
    10030    2    1    2    0    0  0.00000000000E+00  0.00000000000E+00  0.25201042211E+03  0.31084826453E+04  0.30982503293E+04 0.  0.
        4    1    3    3  502    0  0.38435736386E+03 -0.73523680866E+03 -0.11865521442E+04  0.14478298766E+04  0.12699999809E+01 0. -1.
       -4    1    3    3    0  502 -0.38435736386E+03  0.73523680866E+03  0.14385625663E+04  0.16606527686E+04  0.12699999809E+01 0.  1.
</event>
<event>
 5   0  0.1329777E-07  0.3099348E+04  0.7818609E-02  0.8215917E-01
        2   -1    0    0  501    0  0.00000000000E+00  0.00000000000E+00  0.13963492162E+04  0.13963492162E+04  0.25500000920E-02 0.  1.
       -2   -1    0    0    0  501  0.00000000000E+00  0.00000000000E+00 -0.17198342384E+04  0.17198342384E+04  0.25500000920E-02 0. -1.
    10030    2    1    2    0    0  0.00000000000E+00  0.00000000000E+00 -0.32348502226E+03  0.31161834546E+04  0.30993477964E+04 0.  0.
        1    1    3    3  502    0 -0.12006498309E+04  0.95750037721E+03 -0.37052937391E+03  0.15797654907E+04  0.50400001928E-02 0. -1.
       -1    1    3    3    0  502  0.12006498309E+04 -0.95750037721E+03  0.47044351647E+02  0.15364179639E+04  0.50400001928E-02 0.  1.
</event>
<event>
 5   0  0.4517409E-08  0.3099613E+04  0.7818609E-02  0.8215844E-01
        1   -1    0    0  501    0  0.00000000000E+00  0.00000000000E+00  0.16233861263E+04  0.16233861263E+04  0.50400001928E-02 0.  1.
       -1   -1    0    0    0  501  0.00000000000E+00  0.00000000000E+00 -0.14795619158E+04  0.14795619158E+04  0.50400001928E-02 0. -1.
    10030    2    1    2    0    0  0.00000000000E+00  0.00000000000E+00  0.14382421047E+03  0.31029480421E+04  0.30996130643E+04 0.  0.
        2    1    3    3  502    0  0.11424271813E+04  0.60614143395E+02 -0.97472049032E+03  0.15029617338E+04  0.25500000920E-02 0. -1.
       -2    1    3    3    0  502 -0.11424271813E+04 -0.60614143395E+02  0.11185447008E+04  0.15999863083E+04  0.25500000920E-02 0.  1.
</event>
<event>
 5   0  0.4838602E-08  0.3093153E+04  0.7818609E-02  0.8217619E-01
       -1   -1    0    0    0  501  0.00000000000E+00  0.00000000000E+00  0.12388155007E+04  0.12388155007E+04  0.50400001928E-02 0.  1.
        1   -1    0    0  501    0  0.00000000000E+00  0.00000000000E+00 -0.19307952361E+04  0.19307952361E+04  0.50400001928E-02 0. -1.
    10030    2    1    2    0    0  0.00000000000E+00  0.00000000000E+00 -0.69197973542E+03  0.31696107368E+04  0.30931531272E+04 0.  0.
        5    1    3    3  502    0 -0.85574190200E+03  0.68823331122E+03 -0.14619065792E+04  0.18284288966E+04  0.46999998093E+01 0. -1.
       -5    1    3    3    0  502  0.85574190200E+03 -0.68823331122E+03  0.76992684382E+03  0.13411818402E+04  0.46999998093E+01 0.  1.
</event>
<event>
 5   0  0.4838602E-08  0.3100052E+04  0.7818609E-02  0.8215724E-01
       -1   -1    0    0    0  501  0.00000000000E+00  0.00000000000E+00  0.14845828452E+04  0.14845828452E+04  0.50400001928E-02 0. -1.
        1   -1    0    0  501    0  0.00000000000E+00  0.00000000000E+00 -0.16183542412E+04  0.16183542412E+04  0.50400001928E-02 0.  1.
    10030    2    1    2    0    0  0.00000000000E+00  0.00000000000E+00 -0.13377139604E+03  0.31029370864E+04  0.31000522214E+04 0.  0.
        5    1    3    3  502    0 -0.59336244087E+02 -0.10238096417E+04 -0.12302288197E+04  0.16016216817E+04  0.46999998093E+01 0.  1.
       -5    1    3    3    0  502  0.59336244087E+02  0.10238096417E+04  0.10964574237E+04  0.15013154047E+04  0.46999998093E+01 0. -1.
</event>
<event>
 5   0  0.1329777E-07  0.3099022E+04  0.7818609E-02  0.8216006E-01
        2   -1    0    0  501    0  0.00000000000E+00  0.00000000000E+00  0.12201362192E+04  0.12201362192E+04  0.25500000920E-02 0.  1.
       -2   -1    0    0    0  501  0.00000000000E+00  0.00000000000E+00 -0.19678005199E+04  0.19678005199E+04  0.25500000920E-02 0. -1.
    10030    2    1    2    0    0  0.00000000000E+00  0.00000000000E+00 -0.74766430074E+03  0.31879367391E+04  0.30990222241E+04 0.  0.
        1    1    3    3  502    0 -0.10392702024E+04  0.47074674406E+03  0.70472471114E+03  0.13410152755E+04  0.50400001928E-02 0.  1.
       -1    1    3    3    0  502  0.10392702024E+04 -0.47074674406E+03 -0.14523890119E+04  0.18469214635E+04  0.50400001928E-02 0. -1.
</event>
<event>
 5   0  0.4838602E-08  0.3099738E+04  0.7818609E-02  0.8215810E-01
       -1   -1    0    0    0  501  0.00000000000E+00  0.00000000000E+00  0.10342662700E+04  0.10342662700E+04  0.50400001928E-02 0. -1.
        1   -1    0    0  501    0  0.00000000000E+00  0.00000000000E+00 -0.23225095176E+04  0.23225095176E+04  0.50400001928E-02 0.  1.
    10030    2    1    2    0    0  0.00000000000E+00  0.00000000000E+00 -0.12882432476E+04  0.33567757876E+04  0.30997375733E+04 0.  0.
        5    1    3    3  502    0  0.70729384983E+03 -0.12178462786E+04 -0.13448127122E+04  0.19472949107E+04  0.46999998093E+01 0.  1.
       -5    1    3    3    0  502 -0.70729384983E+03  0.12178462786E+04  0.56569464649E+02  0.14094808770E+04  0.46999998093E+01 0. -1.
</event>
<event>
 5   0  0.1377237E-07  0.3102368E+04  0.7818609E-02  0.8215088E-01
       -2   -1    0    0    0  501  0.00000000000E+00  0.00000000000E+00  0.12152103181E+04  0.12152103181E+04  0.25500000920E-02 0. -1.
        2   -1    0    0  501    0  0.00000000000E+00  0.00000000000E+00 -0.19800457542E+04  0.19800457542E+04  0.25500000920E-02 0.  1.
    10030    2    1    2    0    0  0.00000000000E+00  0.00000000000E+00 -0.76483543605E+03  0.31952560723E+04  0.31023681476E+04 0.  0.
        2    1    3    3  502    0  0.14187816349E+04  0.47412012855E+03  0.40285926942E+02  0.14964471858E+04  0.25500000920E-02 0. -1.
       -2    1    3    3    0  502 -0.14187816349E+04 -0.47412012855E+03 -0.80512136299E+03  0.16988088865E+04  0.25500000920E-02 0.  1.
</event>
<event>
 5   0  0.4517409E-08  0.3104822E+04  0.7818609E-02  0.8214416E-01
        1   -1    0    0  501    0  0.00000000000E+00  0.00000000000E+00  0.17120121768E+04  0.17120121768E+04  0.50400001928E-02 0. -1.
       -1   -1    0    0    0  501  0.00000000000E+00  0.00000000000E+00 -0.14076889689E+04  0.14076889689E+04  0.50400001928E-02 0.  1.
    10030    2    1    2    0    0  0.00000000000E+00  0.00000000000E+00  0.30432320785E+03  0.31197011457E+04  0.31048224786E+04 0.  0.
        2    1    3    3  502    0  0.10187627076E+04  0.11620234337E+04  0.30053351363E+03  0.15743240796E+04  0.25500000920E-02 0.  1.
       -2    1    3    3    0  502 -0.10187627076E+04 -0.11620234337E+04  0.37896942180E+01  0.15453770661E+04  0.25500000920E-02 0. -1.
</event>
<event>
 5   0  0.1318916E-07  0.3099011E+04  0.7818609E-02  0.8216009E-01
        2   -1    0    0  501    0  0.00000000000E+00  0.00000000000E+00  0.19808091604E+04  0.19808091604E+04  0.25500000920E-02 0.  1.
       -2   -1    0    0    0  501  0.00000000000E+00  0.00000000000E+00 -0.12121147263E+04  0.12121147263E+04  0.25500000920E-02 0. -1.
    10030    2    1    2    0    0  0.00000000000E+00  0.00000000000E+00  0.76869443412E+03  0.31929238867E+04  0.30990114251E+04 0.  0.
        5    1    3    3  502    0  0.38290422408E+03 -0.13071580302E+04  0.11454261003E+04  0.17796912098E+04  0.46999998093E+01 0.  1.
       -5    1    3    3    0  502 -0.38290422408E+03  0.13071580302E+04 -0.37673166622E+03  0.14132326769E+04  0.46999998093E+01 0. -1.
</event>
<event>
 5   0  0.1325713E-07  0.3099911E+04  0.7818609E-02  0.8215762E-01
       -2   -1    0    0    0  501  0.00000000000E+00  0.00000000000E+00  0.17150678359E+04  0.17150678359E+04  0.25500000920E-02 0. -1.
        2   -1    0    0  501    0  0.00000000000E+00  0.00000000000E+00 -0.14007390067E+04  0.14007390067E+04  0.25500000920E-02 0.  1.
    10030    2    1    2    0    0  0.00000000000E+00  0.00000000000E+00  0.31432882927E+03  0.31158068426E+04  0.30999112354E+04 0.  0.
        4    1    3    3  502    0  0.14625072318E+04 -0.15335523048E+03 -0.33515899777E+03  0.15082368503E+04  0.12699999809E+01 0.  1.
       -4    1    3    3    0  502 -0.14625072318E+04  0.15335523048E+03  0.64948782705E+03  0.16075699923E+04  0.12699999809E+01 0. -1.
</event>
<event>
 5   0  0.1325713E-07  0.3103064E+04  0.7818609E-02  0.8214898E-01
        2   -1    0    0  501    0  0.00000000000E+00  0.00000000000E+00  0.22109118204E+04  0.22109118204E+04  0.25500000920E-02 0. -1.
       -2   -1    0    0    0  501  0.00000000000E+00  0.00000000000E+00 -0.10888048859E+04  0.10888048859E+04  0.25500000920E-02 0.  1.
    10030    2    1    2    0    0  0.00000000000E+00  0.00000000000E+00  0.11221069345E+04  0.32997167062E+04  0.31030640291E+04 0.  0.
        4    1    3    3  502    0 -0.12221041448E+03  0.54441513539E+02  0.22047660105E+04  0.22088218664E+04  0.12699999809E+01 0. -1.
       -4    1    3    3    0  502  0.12221041448E+03 -0.54441513539E+02 -0.10826590760E+04  0.10908948398E+04  0.12699999809E+01 0.  1.
</event>
<event>
 5   0  0.4838602E-08  0.3098491E+04  0.7818609E-02  0.8216152E-01
       -1   -1    0    0    0  501  0.00000000000E+00  0.00000000000E+00  0.14754631192E+04  0.14754631193E+04  0.50400001928E-02 0. -1.
        1   -1    0    0  501    0  0.00000000000E+00  0.00000000000E+00 -0.16267171929E+04  0.16267171929E+04  0.50400001928E-02 0.  1.
    10030    2    1    2    0    0  0.00000000000E+00  0.00000000000E+00 -0.15125407364E+03  0.31021803121E+04  0.30984907446E+04 0.  0.
        5    1    3    3  502    0 -0.10869394584E+04  0.52357488116E+03 -0.10486748007E+04  0.15985333809E+04  0.46999998093E+01 0.  1.
       -5    1    3    3    0  502  0.10869394584E+04 -0.52357488116E+03  0.89742072703E+03  0.15036469312E+04  0.46999998093E+01 0. -1.
</event>
<event>
 5   0  0.4305500E-08  0.3105130E+04  0.7818609E-02  0.8214331E-01
        3   -1    0    0  501    0  0.00000000000E+00  0.00000000000E+00  0.16899225885E+04  0.16899225915E+04  0.10100000352E+00 0.  1.
       -3   -1    0    0    0  501  0.00000000000E+00  0.00000000000E+00 -0.14263717963E+04  0.14263717999E+04  0.10100000352E+00 0. -1.
    10030    2    1    2    0    0  0.00000000000E+00  0.00000000000E+00  0.26355079219E+03  0.31162943914E+04  0.31051299028E+04 0.  0.
        4    1    3    3  502    0 -0.12667489244E+03  0.15465183599E+04  0.79716453251E+02  0.15537444744E+04  0.12699999809E+01 0.  1.
       -4    1    3    3    0  502  0.12667489244E+03 -0.15465183599E+04  0.18383433894E+03  0.15625499170E+04  0.12699999809E+01 0. -1.
</event>
<event>
 5   0  0.4838602E-08  0.3099774E+04  0.7818609E-02  0.8215800E-01
       -1   -1    0    0    0  501  0.00000000000E+00  0.00000000000E+00  0.14270686003E+04  0.14270686004E+04  0.50400001928E-02 0.  1.
        1   -1    0    0  501    0  0.00000000000E+00  0.00000000000E+00 -0.16832759086E+04  0.16832759086E+04  0.50400001928E-02 0. -1.
    10030    2    1    2    0    0  0.00000000000E+00  0.00000000000E+00 -0.25620730824E+03  0.31103445089E+04  0.30997743111E+04 0.  0.
        5    1    3    3  502    0 -0.63277605362E+03 -0.84470095679E+03  0.10107568993E+04  0.14613612969E+04  0.46999998093E+01 0.  1.
       -5    1    3    3    0  502  0.63277605362E+03  0.84470095679E+03 -0.12669642076E+04  0.16489832121E+04  0.46999998093E+01 0. -1.
</event>
<event>
 5   0  0.1329777E-07  0.3097046E+04  0.7818609E-02  0.8216549E-01
       -2   -1    0    0    0  501  0.00000000000E+00  0.00000000000E+00  0.12418696956E+04  0.12418696956E+04  0.25500000920E-02 0.  1.
        2   -1    0    0  501    0  0.00000000000E+00  0.00000000000E+00 -0.19308979170E+04  0.19308979170E+04  0.25500000920E-02 0. -1.
    10030    2    1    2    0    0  0.00000000000E+00  0.00000000000E+00 -0.68902822143E+03  0.31727676125E+04  0.30970460819E+04 0.  0.
        1    1    3    3  502    0 -0.42789055813E+03  0.98289818857E+03  0.80027997785E+03  0.13377694950E+04  0.50400001928E-02 0.  1.
       -1    1    3    3    0  502  0.42789055813E+03 -0.98289818857E+03 -0.14893081993E+04  0.18349981175E+04  0.50400001928E-02 0. -1.
</event>
<event>
 5   0  0.1318916E-07  0.3102071E+04  0.7818609E-02  0.8215170E-01
       -2   -1    0    0    0  501  0.00000000000E+00  0.00000000000E+00  0.85821729212E+03  0.85821729212E+03  0.25500000920E-02 0. -1.
        2   -1    0    0  501    0  0.00000000000E+00  0.00000000000E+00 -0.28031494396E+04  0.28031494396E+04  0.25500000920E-02 0.  1.
    10030    2    1    2    0    0  0.00000000000E+00  0.00000000000E+00 -0.19449321475E+04  0.36613667318E+04  0.31020711285E+04 0.  0.
        5    1    3    3  502    0 -0.63722682363E+03 -0.40747431269E+03  0.62577870001E+03  0.98168956989E+03  0.46999998093E+01 0. -1.
       -5    1    3    3    0  502  0.63722682363E+03  0.40747431269E+03 -0.25707108475E+04  0.26796771619E+04  0.46999998093E+01 0.  1.
</event>
<event>
 5   0  0.4436241E-08  0.3100116E+04  0.7818609E-02  0.8215706E-01
        1   -1    0    0  501    0  0.00000000000E+00  0.00000000000E+00  0.25081272794E+04  0.25081272794E+04  0.50400001928E-02 0. -1.
       -1   -1    0    0    0  501  0.00000000000E+00  0.00000000000E+00 -0.95795792286E+03  0.95795792287E+03  0.50400001928E-02 0.  1.
    10030    2    1    2    0    0  0.00000000000E+00  0.00000000000E+00  0.15501693565E+04  0.34660852023E+04  0.31001163842E+04 0.  0.
        3    1    3    3  502    0 -0.19864204872E+03 -0.15344469871E+04  0.67083486888E+03  0.16864179943E+04  0.10100000352E+00 0. -1.
       -3    1    3    3    0  502  0.19864204872E+03  0.15344469871E+04  0.87933448764E+03  0.17796672080E+04  0.10100000352E+00 0.  1.
</event>
<event>
 5   0  0.1325713E-07  0.3100648E+04  0.7818609E-02  0.8215560E-01
       -2   -1    0    0    0  501  0.00000000000E+00  0.00000000000E+00  0.13190163860E+04  0.13190163860E+04  0.25500000920E-02 0. -1.
        2   -1    0    0  501    0  0.00000000000E+00  0.00000000000E+00 -0.18221942708E+04  0.18221942708E+04  0.25500000920E-02 0.  1.
    10030    2    1    2    0    0  0.00000000000E+00  0.00000000000E+00 -0.50317788480E+03  0.31412106568E+04  0.31006477398E+04 0.  0.
        4    1    3    3  502    0  0.30980230802E+03  0.58204120451E+03  0.11698894263E+04  0.13429044331E+04  0.12699999809E+01 0. -1.
       -4    1    3    3    0  502 -0.30980230802E+03 -0.58204120451E+03 -0.16730673111E+04  0.17983062237E+04  0.12699999809E+01 0.  1.
</event>
<event>
 5   0  0.1329777E-07  0.3098910E+04  0.7818609E-02  0.8216037E-01
        2   -1    0    0  501    0  0.00000000000E+00  0.00000000000E+00  0.10415164262E+04  0.10415164262E+04  0.25500000920E-02 0. -1.
       -2   -1    0    0    0  501  0.00000000000E+00  0.00000000000E+00 -0.23051114216E+04  0.23051114216E+04  0.25500000920E-02 0.  1.
    10030    2    1    2    0    0  0.00000000000E+00  0.00000000000E+00 -0.12635949955E+04  0.33466278478E+04  0.30989103955E+04 0.  0.
        1    1    3    3  502    0 -0.16006809866E+03 -0.42534968610E+03 -0.22315145091E+04  0.22773232436E+04  0.50400001928E-02 0.  1.
       -1    1    3    3    0  502  0.16006809866E+03  0.42534968610E+03  0.96791951363E+03  0.10693046042E+04  0.50400001928E-02 0. -1.
</event>
<event>
 5   0  0.4436241E-08  0.3100689E+04  0.7818609E-02  0.8215549E-01
       -1   -1    0    0    0  501  0.00000000000E+00  0.00000000000E+00  0.16766711737E+04  0.16766711737E+04  0.50400001928E-02 0.  1.
        1   -1    0    0  501    0  0.00000000000E+00  0.00000000000E+00 -0.14335353873E+04  0.14335353873E+04  0.50400001928E-02 0. -1.
    10030    2    1    2    0    0  0.00000000000E+00  0.00000000000E+00  0.24313578636E+03  0.31102065610E+04  0.31006886076E+04 0.  0.
        3    1    3    3  502    0 -0.72105614799E+03 -0.49507958512E+03  0.14055525288E+04  0.16554768756E+04  0.10100000352E+00 0. -1.
       -3    1    3    3    0  502  0.72105614799E+03  0.49507958512E+03 -0.11624167425E+04  0.14547296854E+04  0.10100000352E+00 0.  1.
</event>
<event>
 5   0  0.1398931E-07  0.3099579E+04  0.7818609E-02  0.8215854E-01
       -2   -1    0    0    0  501  0.00000000000E+00  0.00000000000E+00  0.12208333935E+04  0.12208333935E+04  0.25500000920E-02 0.  1.
        2   -1    0    0  501    0  0.00000000000E+00  0.00000000000E+00 -0.19673831713E+04  0.19673831713E+04  0.25500000920E-02 0. -1.
    10030    2    1    2    0    0  0.00000000000E+00  0.00000000000E+00 -0.74654977779E+03  0.31882165648E+04  0.30995787284E+04 0.  0.
        3    1    3    3  502    0  0.10425167503E+04 -0.11291644772E+04 -0.16757232916E+03  0.15459411654E+04  0.10100000352E+00 0. -1.
       -3    1    3    3    0  502 -0.10425167503E+04  0.11291644772E+04 -0.57897744863E+03  0.16422753994E+04  0.10100000352E+00 0.  1.
</event>
<event>
 5   0  0.4436241E-08  0.3100692E+04  0.7818609E-02  0.8215548E-01
       -1   -1    0    0    0  501  0.00000000000E+00  0.00000000000E+00  0.75196041400E+03  0.75196041401E+03  0.50400001928E-02 0.  1.
        1   -1    0    0  501    0  0.00000000000E+00  0.00000000000E+00 -0.31964083778E+04  0.31964083778E+04  0.50400001928E-02 0. -1.
    10030    2    1    2    0    0  0.00000000000E+00  0.00000000000E+00 -0.24444479638E+04  0.39483687918E+04  0.31006919016E+04 0.  0.
        3    1    3    3  502    0  0.38864748664E+03  0.12493613402E+04 -0.16323004595E+03  0.13185578051E+04  0.10100000352E+00 0. -1.
       -3    1    3    3    0  502 -0.38864748664E+03 -0.12493613402E+04 -0.22812179178E+04  0.26298109867E+04  0.10100000352E+00 0.  1.
</event>
<event>
 5   0  0.4838602E-08  0.3100236E+04  0.7818609E-02  0.8215673E-01
        1   -1    0    0  501    0  0.00000000000E+00  0.00000000000E+00  0.14869909474E+04  0.14869909474E+04  0.50400001928E-02 0. -1.
       -1   -1    0    0    0  501  0.00000000000E+00  0.00000000000E+00 -0.16159248721E+04  0.16159248721E+04  0.50400001928E-02 0.  1.
    10030    2    1    2    0    0  0.00000000000E+00  0.00000000000E+00 -0.12893392470E+03  0.31029158195E+04  0.31002358984E+04 0.  0.
        5    1    3    3  502    0  0.87375065282E+03 -0.63869054966E+01  0.12170157754E+04  0.14982090921E+04  0.46999998093E+01 0. -1.
       -5    1    3    3    0  502 -0.87375065282E+03  0.63869054966E+01 -0.13459497001E+04  0.16047067275E+04  0.46999998093E+01 0.  1.
</event>
<event>
 5   0  0.4470354E-08  0.3100357E+04  0.7818609E-02  0.8215640E-01
        1   -1    0    0  501    0  0.00000000000E+00  0.00000000000E+00  0.22873256695E+04  0.22873256695E+04  0.50400001928E-02 0. -1.
       -1   -1    0    0    0  501  0.00000000000E+00  0.00000000000E+00 -0.10505953323E+04  0.10505953323E+04  0.50400001928E-02 0.  1.
    10030    2    1    2    0    0  0.00000000000E+00  0.00000000000E+00  0.12367303373E+04  0.33379210018E+04  0.31003571870E+04 0.  0.
        1    1    3    3  502    0  0.13616460997E+04 -0.71432315366E+03  0.40652438197E+03  0.15904715470E+04  0.50400001928E-02 0. -1.
       -1    1    3    3    0  502 -0.13616460997E+04  0.71432315366E+03  0.83020595528E+03  0.17474494548E+04  0.50400001928E-02 0.  1.
</event>
<event>
 5   0  0.4470354E-08  0.3101316E+04  0.7818609E-02  0.8215377E-01
        1   -1    0    0  501    0  0.00000000000E+00  0.00000000000E+00  0.11220707781E+04  0.11220707781E+04  0.50400001928E-02 0. -1.
       -1   -1    0    0    0  501  0.00000000000E+00  0.00000000000E+00 -0.21429487286E+04  0.21429487287E+04  0.50400001928E-02 0.  1.
    10030    2    1    2    0    0  0.00000000000E+00  0.00000000000E+00 -0.10208779505E+04  0.32650195068E+04  0.31013159448E+04 0.  0.
        1    1    3    3  502    0 -0.30936287477E+03 -0.33392756218E+03  0.10501449475E+04  0.11445599223E+04  0.50400001928E-02 0. -1.
       -1    1    3    3    0  502  0.30936287477E+03  0.33392756218E+03 -0.20710228980E+04  0.21204595844E+04  0.50400001928E-02 0.  1.
</event>
<event>
 5   0  0.1398931E-07  0.3098576E+04  0.7818609E-02  0.8216129E-01
       -2   -1    0    0    0  501  0.00000000000E+00  0.00000000000E+00  0.13475636262E+04  0.13475636262E+04  0.25500000920E-02 0.  1.
        2   -1    0    0  501    0  0.00000000000E+00  0.00000000000E+00 -0.17812099536E+04  0.17812099536E+04  0.25500000920E-02 0. -1.
    10030    2    1    2    0    0  0.00000000000E+00  0.00000000000E+00 -0.43364632737E+03  0.31287735798E+04  0.30985762822E+04 0.  0.
        3    1    3    3  502    0 -0.56212222113E+03 -0.10012565622E+04 -0.12670544652E+04  0.17099482808E+04  0.10100000352E+00 0. -1.
       -3    1    3    3    0  502  0.56212222113E+03  0.10012565622E+04  0.83340813782E+03  0.14188252991E+04  0.10100000352E+00 0.  1.
</event>
<event>
 5   0  0.4470354E-08  0.3097701E+04  0.7818609E-02  0.8216369E-01
        1   -1    0    0  501    0  0.00000000000E+00  0.00000000000E+00  0.25017758673E+04  0.25017758673E+04  0.50400001928E-02 0.  1.
       -1   -1    0    0    0  501  0.00000000000E+00  0.00000000000E+00 -0.95889387431E+03  0.95889387433E+03  0.50400001928E-02 0. -1.
    10030    2    1    2    0    0  0.00000000000E+00  0.00000000000E+00  0.15428819930E+04  0.34606697416E+04  0.30977007952E+04 0.  0.
        1    1    3    3  502    0 -0.89403468144E+03  0.21238692131E+03 -0.62146057776E+03  0.11093328922E+04  0.50400001928E-02 0. -1.
       -1    1    3    3    0  502  0.89403468144E+03 -0.21238692131E+03  0.21643425707E+04  0.23513368494E+04  0.50400001928E-02 0.  1.
</event>
<event>
 5   0  0.4517409E-08  0.3099169E+04  0.7818609E-02  0.8215966E-01
        1   -1    0    0  501    0  0.00000000000E+00  0.00000000000E+00  0.26218610283E+04  0.26218610283E+04  0.50400001928E-02 0.  1.
       -1   -1    0    0    0  501  0.00000000000E+00  0.00000000000E+00 -0.91584281483E+03  0.91584281484E+03  0.50400001928E-02 0. -1.
    10030    2    1    2    0    0  0.00000000000E+00  0.00000000000E+00  0.17060182134E+04  0.35377038431E+04  0.30991692979E+04 0.  0.
        2    1    3    3  502    0  0.12100196842E+04  0.72334646084E+03  0.15873364512E+04  0.21229730916E+04  0.25500000920E-02 0.  1.
       -2    1    3    3    0  502 -0.12100196842E+04 -0.72334646084E+03  0.11868176227E+03  0.14147307515E+04  0.25500000920E-02 0. -1.
</event>
<event>
 5   0  0.4838602E-08  0.3100820E+04  0.7818609E-02  0.8215513E-01
        1   -1    0    0  501    0  0.00000000000E+00  0.00000000000E+00  0.76863319326E+03  0.76863319328E+03  0.50400001928E-02 0.  1.
       -1   -1    0    0    0  501  0.00000000000E+00  0.00000000000E+00 -0.31273323145E+04  0.31273323145E+04  0.50400001928E-02 0. -1.
    10030    2    1    2    0    0  0.00000000000E+00  0.00000000000E+00 -0.23586991212E+04  0.38959655078E+04  0.31008201646E+04 0.  0.
        5    1    3    3  502    0 -0.54094416238E+03  0.81510680204E+03 -0.26905852956E+04  0.28629165214E+04  0.46999998093E+01 0. -1.
       -5    1    3    3    0  502  0.54094416238E+03 -0.81510680204E+03  0.33188617436E+03  0.10330489864E+04  0.46999998093E+01 0.  1.
</event>
<event>
 5   0  0.1329777E-07  0.3103186E+04  0.7818609E-02  0.8214864E-01
       -2   -1    0    0    0  501  0.00000000000E+00  0.00000000000E+00  0.15867742011E+04  0.15867742011E+04  0.25500000920E-02 0.  1.
        2   -1    0    0  501    0  0.00000000000E+00  0.00000000000E+00 -0.15171921675E+04  0.15171921675E+04  0.25500000920E-02 0. -1.
    10030    2    1    2    0    0  0.00000000000E+00  0.00000000000E+00  0.69582033555E+02  0.31039663686E+04  0.31031863557E+04 0.  0.
        1    1    3    3  502    0  0.14085265349E+04  0.29556794259E+03 -0.54512534181E+03  0.15389831209E+04  0.50400001928E-02 0. -1.
       -1    1    3    3    0  502 -0.14085265349E+04 -0.29556794259E+03  0.61470737537E+03  0.15649832477E+04  0.50400001928E-02 0.  1.
</event>
<event>
 5   0  0.1398931E-07  0.3100556E+04  0.7818609E-02  0.8215585E-01
        2   -1    0    0  501    0  0.00000000000E+00  0.00000000000E+00  0.18278153735E+04  0.18278153735E+04  0.25500000920E-02 0. -1.
       -2   -1    0    0    0  501  0.00000000000E+00  0.00000000000E+00 -0.13148820943E+04  0.13148820943E+04  0.25500000920E-02 0.  1.
    10030    2    1    2    0    0  0.00000000000E+00  0.00000000000E+00  0.51293327918E+03  0.31426974678E+04  0.31005558898E+04 0.  0.
        3    1    3    3  502    0  0.10931691718E+03  0.37188753399E+03 -0.12649715795E+04  0.13230282059E+04  0.10100000352E+00 0.  1.
       -3    1    3    3    0  502 -0.10931691718E+03 -0.37188753399E+03  0.17779048587E+04  0.18196692620E+04  0.10100000352E+00 0. -1.
</event>
<event>
 5   0  0.4470354E-08  0.3098819E+04  0.7818609E-02  0.8216062E-01
       -1   -1    0    0    0  501  0.00000000000E+00  0.00000000000E+00  0.14671120213E+04  0.14671120213E+04  0.50400001928E-02 0.  1.
        1   -1    0    0  501    0  0.00000000000E+00  0.00000000000E+00 -0.16363236776E+04  0.16363236776E+04  0.50400001928E-02 0. -1.
    10030    2    1    2    0    0  0.00000000000E+00  0.00000000000E+00 -0.16921165634E+03  0.31034356989E+04  0.30988192190E+04 0.  0.
        1    1    3    3  502    0  0.98516140957E+03  0.22633375466E+03 -0.12606209949E+04  0.16158388732E+04  0.50400001928E-02 0. -1.
       -1    1    3    3    0  502 -0.98516140957E+03 -0.22633375466E+03  0.10914093385E+04  0.14875968257E+04  0.50400001928E-02 0.  1.
</event>
<event>
 5   0  0.4517409E-08  0.3099729E+04  0.7818609E-02  0.8215812E-01
       -1   -1    0    0    0  501  0.00000000000E+00  0.00000000000E+00  0.14239042944E+04  0.14239042944E+04  0.50400001928E-02 0.  1.
        1   -1    0    0  501    0  0.00000000000E+00  0.00000000000E+00 -0.16869674846E+04  0.16869674846E+04  0.50400001928E-02 0. -1.
    10030    2    1    2    0    0  0.00000000000E+00  0.00000000000E+00 -0.26306319024E+03  0.31108717790E+04  0.30997291790E+04 0.  0.
        2    1    3    3  502    0 -0.22945778200E+03  0.46797025224E+03  0.13333155934E+04  0.14315647042E+04  0.25500000920E-02 0.  1.
       -2    1    3    3    0  502  0.22945778200E+03 -0.46797025224E+03 -0.15963787836E+04  0.16793070748E+04  0.25500000920E-02 0. -1.
</event>
<event>
 5   0  0.4450600E-08  0.3102334E+04  0.7818609E-02  0.8215098E-01
       -1   -1    0    0    0  501  0.00000000000E+00  0.00000000000E+00  0.11498801207E+04  0.11498801208E+04  0.50400001928E-02 0.  1.
        1   -1    0    0  501    0  0.00000000000E+00  0.00000000000E+00 -0.20924953864E+04  0.20924953864E+04  0.50400001928E-02 0. -1.
    10030    2    1    2    0    0  0.00000000000E+00  0.00000000000E+00 -0.94261526568E+03  0.32423755072E+04  0.31023338619E+04 0.  0.
        4    1    3    3  502    0 -0.27631937518E+03  0.77553979268E+03  0.90268594303E+03  0.12217437914E+04  0.12699999809E+01 0.  1.
       -4    1    3    3    0  502  0.27631937518E+03 -0.77553979268E+03 -0.18453012087E+04  0.20206317158E+04  0.12699999809E+01 0. -1.
</event>
<event>
 5   0  0.4436241E-08  0.3101179E+04  0.7818609E-02  0.8215414E-01
        1   -1    0    0  501    0  0.00000000000E+00  0.00000000000E+00  0.17075517661E+04  0.17075517661E+04  0.50400001928E-02 0.  1.
       -1   -1    0    0    0  501  0.00000000000E+00  0.00000000000E+00 -0.14080556674E+04  0.14080556674E+04  0.50400001928E-02 0. -1.
    10030    2    1    2    0    0  0.00000000000E+00  0.00000000000E+00  0.29949609865E+03  0.31156074335E+04  0.31011790930E+04 0.  0.
        3    1    3    3  502    0  0.11062822078E+04  0.48009484298E+02 -0.94073399256E+03  0.14529782135E+04  0.10100000352E+00 0. -1.
       -3    1    3    3    0  502 -0.11062822078E+04 -0.48009484298E+02  0.12402300912E+04  0.16626292200E+04  0.10100000352E+00 0.  1.
</event>
<event>
 5   0  0.4470354E-08  0.3101310E+04  0.7818609E-02  0.8215379E-01
       -1   -1    0    0    0  501  0.00000000000E+00  0.00000000000E+00  0.12709202971E+04  0.12709202971E+04  0.50400001928E-02 0. -1.
        1   -1    0    0  501    0  0.00000000000E+00  0.00000000000E+00 -0.18919601167E+04  0.18919601167E+04  0.50400001928E-02 0.  1.
    10030    2    1    2    0    0  0.00000000000E+00  0.00000000000E+00 -0.62103981960E+03  0.31628804138E+04  0.31013097321E+04 0.  0.
        1    1    3    3  502    0  0.12141733219E+04  0.19285795543E+03  0.65329226438E+03  0.13921931724E+04  0.50400001928E-02 0. -1.
       -1    1    3    3    0  502 -0.12141733219E+04 -0.19285795543E+03 -0.12743320840E+04  0.17706872414E+04  0.50400001928E-02 0.  1.
</event>
<event>
 5   0  0.1325713E-07  0.3099335E+04  0.7818609E-02  0.8215920E-01
        2   -1    0    0  501    0  0.00000000000E+00  0.00000000000E+00  0.13809391463E+04  0.13809391463E+04  0.25500000920E-02 0. -1.
       -2   -1    0    0    0  501  0.00000000000E+00  0.00000000000E+00 -0.17390120291E+04  0.17390120291E+04  0.25500000920E-02 0.  1.
    10030    2    1    2    0    0  0.00000000000E+00  0.00000000000E+00 -0.35807288280E+03  0.31199511755E+04  0.30993352752E+04 0.  0.
        4    1    3    3  502    0  0.34746757055E+03 -0.15097911071E+04 -0.14322913824E+03  0.15558660285E+04  0.12699999809E+01 0. -1.
       -4    1    3    3    0  502 -0.34746757055E+03  0.15097911071E+04 -0.21484374456E+03  0.15640851470E+04  0.12699999809E+01 0.  1.
</event>
<event>
 5   0  0.1325713E-07  0.3088267E+04  0.7818609E-02  0.8218965E-01
        2   -1    0    0  501    0  0.00000000000E+00  0.00000000000E+00  0.16399991100E+04  0.16399991100E+04  0.25500000920E-02 0.  1.
       -2   -1    0    0    0  501  0.00000000000E+00  0.00000000000E+00 -0.14538715484E+04  0.14538715484E+04  0.25500000920E-02 0. -1.
    10030    2    1    2    0    0  0.00000000000E+00  0.00000000000E+00  0.18612756155E+03  0.30938706584E+04  0.30882668573E+04 0.  0.
        4    1    3    3  502    0  0.24857275358E+03  0.15056641193E+04 -0.14301946250E+03  0.15327325382E+04  0.12699999809E+01 0. -1.
       -4    1    3    3    0  502 -0.24857275358E+03 -0.15056641193E+04  0.32914702405E+03  0.15611381202E+04  0.12699999809E+01 0.  1.
</event>
<event>
 5   0  0.4470354E-08  0.3099513E+04  0.7818609E-02  0.8215872E-01
        1   -1    0    0  501    0  0.00000000000E+00  0.00000000000E+00  0.12911851614E+04  0.12911851614E+04  0.50400001928E-02 0. -1.
       -1   -1    0    0    0  501  0.00000000000E+00  0.00000000000E+00 -0.18601086064E+04  0.18601086064E+04  0.50400001928E-02 0.  1.
    10030    2    1    2    0    0  0.00000000000E+00  0.00000000000E+00 -0.56892344500E+03  0.31512937678E+04  0.30995126269E+04 0.  0.
        1    1    3    3  502    0  0.45868747188E+03  0.97489180256E+03  0.84812181272E+03  0.13711742533E+04  0.50400001928E-02 0. -1.
       -1    1    3    3    0  502 -0.45868747188E+03 -0.97489180256E+03 -0.14170452577E+04  0.17801195145E+04  0.50400001928E-02 0.  1.
</event>
<event>
 5   0  0.4450600E-08  0.3087906E+04  0.7818609E-02  0.8219065E-01
       -1   -1    0    0    0  501  0.00000000000E+00  0.00000000000E+00  0.15693905737E+04  0.15693905737E+04  0.50400001928E-02 0. -1.
        1   -1    0    0  501    0  0.00000000000E+00  0.00000000000E+00 -0.15189274388E+04  0.15189274388E+04  0.50400001928E-02 0.  1.
    10030    2    1    2    0    0  0.00000000000E+00  0.00000000000E+00  0.50463134884E+02  0.30883180124E+04  0.30879057010E+04 0.  0.
        4    1    3    3  502    0  0.34316255440E+03 -0.14694523966E+04 -0.30151973425E+03  0.15388198880E+04  0.12699999809E+01 0.  1.
       -4    1    3    3    0  502 -0.34316255440E+03  0.14694523966E+04  0.35198286914E+03  0.15494981245E+04  0.12699999809E+01 0. -1.
</event>
<event>
 5   0  0.1325713E-07  0.3097662E+04  0.7818609E-02  0.8216380E-01
       -2   -1    0    0    0  501  0.00000000000E+00  0.00000000000E+00  0.16961140981E+04  0.16961140981E+04  0.25500000920E-02 0. -1.
        2   -1    0    0  501    0  0.00000000000E+00  0.00000000000E+00 -0.14143375468E+04  0.14143375468E+04  0.25500000920E-02 0.  1.
    10030    2    1    2    0    0  0.00000000000E+00  0.00000000000E+00  0.28177655128E+03  0.31104516448E+04  0.30976622492E+04 0.  0.
        4    1    3    3  502    0  0.75177700072E+03  0.13488257785E+04  0.26128578013E+03  0.15661326609E+04  0.12699999809E+01 0. -1.
       -4    1    3    3    0  502 -0.75177700072E+03 -0.13488257785E+04  0.20490771148E+02  0.15443189840E+04  0.12699999809E+01 0.  1.
</event>
<event>
 5   0  0.1325713E-07  0.3100331E+04  0.7818609E-02  0.8215647E-01
       -2   -1    0    0    0  501  0.00000000000E+00  0.00000000000E+00  0.15621497653E+04  0.15621497653E+04  0.25500000920E-02 0.  1.
        2   -1    0    0  501    0  0.00000000000E+00  0.00000000000E+00 -0.15382735583E+04  0.15382735583E+04  0.25500000920E-02 0. -1.
    10030    2    1    2    0    0  0.00000000000E+00  0.00000000000E+00  0.23876207010E+02  0.31004233235E+04  0.31003313874E+04 0.  0.
        4    1    3    3  502    0 -0.14641011155E+04 -0.49769726770E+03  0.12018833805E+03  0.15510452915E+04  0.12699999809E+01 0. -1.
       -4    1    3    3    0  502  0.14641011155E+04  0.49769726770E+03 -0.96312131038E+02  0.15493780321E+04  0.12699999809E+01 0.  1.
</event>
<event>
 5   0  0.1318916E-07  0.3100158E+04  0.7818609E-02  0.8215695E-01
       -2   -1    0    0    0  501  0.00000000000E+00  0.00000000000E+00  0.13926457384E+04  0.13926457384E+04  0.25500000920E-02 0.  1.
        2   -1    0    0  501    0  0.00000000000E+00  0.00000000000E+00 -0.17253093534E+04  0.17253093534E+04  0.25500000920E-02 0. -1.
    10030    2    1    2    0    0  0.00000000000E+00  0.00000000000E+00 -0.33266361502E+03  0.31179550919E+04  0.31001578789E+04 0.  0.
        5    1    3    3  502    0 -0.56332168006E+03 -0.81053563203E+03  0.10356959805E+04  0.14307297369E+04  0.46999998093E+01 0.  1.
       -5    1    3    3    0  502  0.56332168006E+03  0.81053563203E+03 -0.13683595955E+04  0.16872253550E+04  0.46999998093E+01 0. -1.
</event>
<event>
 5   0  0.1329777E-07  0.3098875E+04  0.7818609E-02  0.8216047E-01
       -2   -1    0    0    0  501  0.00000000000E+00  0.00000000000E+00  0.17350678795E+04  0.17350678795E+04  0.25500000920E-02 0. -1.
        2   -1    0    0  501    0  0.00000000000E+00  0.00000000000E+00 -0.13836676675E+04  0.13836676675E+04  0.25500000920E-02 0.  1.
    10030    2    1    2    0    0  0.00000000000E+00  0.00000000000E+00  0.35140021204E+03  0.31187355471E+04  0.30988754901E+04 0.  0.
        1    1    3    3  502    0 -0.15714737256E+03  0.15404220816E+04  0.11910950059E+03  0.15529914872E+04  0.50400001928E-02 0. -1.
       -1    1    3    3    0  502  0.15714737256E+03 -0.15404220816E+04  0.23229071145E+03  0.15657440598E+04  0.50400001928E-02 0.  1.
</event>
<event>
 5   0  0.4838602E-08  0.3100411E+04  0.7818609E-02  0.8215625E-01
       -1   -1    0    0    0  501  0.00000000000E+00  0.00000000000E+00  0.16020796652E+04  0.16020796652E+04  0.50400001928E-02 0. -1.
        1   -1    0    0  501    0  0.00000000000E+00  0.00000000000E+00 -0.15000112098E+04  0.15000112098E+04  0.50400001928E-02 0.  1.
    10030    2    1    2    0    0  0.00000000000E+00  0.00000000000E+00  0.10206845540E+03  0.31020908749E+04  0.31004112351E+04 0.  0.
        5    1    3    3  502    0 -0.64062961683E+02  0.17945498625E+03  0.15903107882E+04  0.16016924324E+04  0.46999998093E+01 0. -1.
       -5    1    3    3    0  502  0.64062961683E+02 -0.17945498625E+03 -0.14882423328E+04  0.15003984425E+04  0.46999998093E+01 0.  1.
</event>
<event>
 5   0  0.1318916E-07  0.3092139E+04  0.7818609E-02  0.8217899E-01
       -2   -1    0    0    0  501  0.00000000000E+00  0.00000000000E+00  0.17486721661E+04  0.17486721661E+04  0.25500000920E-02 0. -1.
        2   -1    0    0  501    0  0.00000000000E+00  0.00000000000E+00 -0.13669402365E+04  0.13669402365E+04  0.25500000920E-02 0.  1.
    10030    2    1    2    0    0  0.00000000000E+00  0.00000000000E+00  0.38173192953E+03  0.31156124026E+04  0.30921386414E+04 0.  0.
        5    1    3    3  502    0  0.50219414148E+03 -0.13269459553E+04  0.80979595329E+03  0.16336389135E+04  0.46999998093E+01 0. -1.
       -5    1    3    3    0  502 -0.50219414148E+03  0.13269459553E+04 -0.42806402376E+03  0.14819734891E+04  0.46999998093E+01 0.  1.
</event>
<event>
 5   0  0.4517409E-08  0.3099143E+04  0.7818609E-02  0.8215973E-01
       -1   -1    0    0    0  501  0.00000000000E+00  0.00000000000E+00  0.15398953054E+04  0.15398953054E+04  0.50400001928E-02 0.  1.
        1   -1    0    0  501    0  0.00000000000E+00  0.00000000000E+00 -0.15593086789E+04  0.15593086789E+04  0.50400001928E-02 0. -1.
    10030    2    1    2    0    0  0.00000000000E+00  0.00000000000E+00 -0.19413373410E+02  0.30992039843E+04  0.30991431812E+04 0.  0.
        2    1    3    3  502    0 -0.11720951877E+04  0.99920107852E+03  0.16047946549E+03  0.15485359483E+04  0.25500000920E-02 0.  1.
       -2    1    3    3    0  502  0.11720951877E+04 -0.99920107852E+03 -0.17989283890E+03  0.15506680360E+04  0.25500000920E-02 0. -1.
</event>
<event>
 5   0  0.1318916E-07  0.3100166E+04  0.7818609E-02  0.8215692E-01
        2   -1    0    0  501    0  0.00000000000E+00  0.00000000000E+00  0.15359152848E+04  0.15359152848E+04  0.25500000920E-02 0.  1.
       -2   -1    0    0    0  501  0.00000000000E+00  0.00000000000E+00 -0.15643812987E+04  0.15643812987E+04  0.25500000920E-02 0. -1.
    10030    2    1    2    0    0  0.00000000000E+00  0.00000000000E+00 -0.28466013862E+02  0.31002965835E+04  0.31001658975E+04 0.  0.
        5    1    3    3  502    0  0.11699689386E+04 -0.69151465191E+03 -0.75972752715E+03  0.15569932038E+04  0.46999998093E+01 0. -1.
       -5    1    3    3    0  502 -0.11699689386E+04  0.69151465191E+03  0.73126151329E+03  0.15433033797E+04  0.46999998093E+01 0.  1.
</event>
<event>
 5   0  0.4436241E-08  0.3100531E+04  0.7818609E-02  0.8215592E-01
       -1   -1    0    0    0  501  0.00000000000E+00  0.00000000000E+00  0.13919465079E+04  0.13919465079E+04  0.50400001928E-02 0.  1.
        1   -1    0    0  501    0  0.00000000000E+00  0.00000000000E+00 -0.17265918169E+04  0.17265918169E+04  0.50400001928E-02 0. -1.
    10030    2    1    2    0    0  0.00000000000E+00  0.00000000000E+00 -0.33464530902E+03  0.31185383248E+04  0.31005312126E+04 0.  0.
        3    1    3    3  502    0  0.76747786713E+03  0.81592895033E+03  0.91061100085E+03  0.14435978434E+04  0.10100000352E+00 0.  1.
       -3    1    3    3    0  502 -0.76747786713E+03 -0.81592895033E+03 -0.12452563099E+04  0.16749404813E+04  0.10100000352E+00 0. -1.
</event>
<event>
 5   0  0.4450600E-08  0.3098949E+04  0.7818609E-02  0.8216026E-01
       -1   -1    0    0    0  501  0.00000000000E+00  0.00000000000E+00  0.12518226336E+04  0.12518226337E+04  0.50400001928E-02 0.  1.
        1   -1    0    0  501    0  0.00000000000E+00  0.00000000000E+00 -0.19179006539E+04  0.19179006539E+04  0.50400001928E-02 0. -1.
    10030    2    1    2    0    0  0.00000000000E+00  0.00000000000E+00 -0.66607802021E+03  0.31697232875E+04  0.30989491429E+04 0.  0.
        4    1    3    3  502    0 -0.66575262146E+03 -0.10464402573E+04 -0.12830161538E+04  0.17844875536E+04  0.12699999809E+01 0. -1.
       -4    1    3    3    0  502  0.66575262146E+03  0.10464402573E+04  0.61693813356E+03  0.13852357340E+04  0.12699999809E+01 0.  1.
</event>
<event>
 5   0  0.4436241E-08  0.3096285E+04  0.7818609E-02  0.8216758E-01
       -1   -1    0    0    0  501  0.00000000000E+00  0.00000000000E+00  0.20713001217E+04  0.20713001217E+04  0.50400001928E-02 0. -1.
        1   -1    0    0  501    0  0.00000000000E+00  0.00000000000E+00 -0.11571215229E+04  0.11571215229E+04  0.50400001928E-02 0.  1.
    10030    2    1    2    0    0  0.00000000000E+00  0.00000000000E+00  0.91417859884E+03  0.32284216446E+04  0.30962854850E+04 0.  0.
        3    1    3    3  502    0 -0.99739697917E+03  0.10209920526E+04  0.10822778904E+04  0.17912428500E+04  0.10100000352E+00 0. -1.
       -3    1    3    3    0  502  0.99739697917E+03 -0.10209920526E+04 -0.16809929152E+03  0.14371787946E+04  0.10100000352E+00 0.  1.
</event>
<event>
 5   0  0.4436241E-08  0.3097920E+04  0.7818609E-02  0.8216309E-01
        1   -1    0    0  501    0  0.00000000000E+00  0.00000000000E+00  0.15776378923E+04  0.15776378924E+04  0.50400001928E-02 0. -1.
       -1   -1    0    0    0  501  0.00000000000E+00  0.00000000000E+00 -0.15208035350E+04  0.15208035351E+04  0.50400001928E-02 0.  1.
    10030    2    1    2    0    0  0.00000000000E+00  0.00000000000E+00  0.56834357297E+02  0.30984414274E+04  0.30979201305E+04 0.  0.
        3    1    3    3  502    0 -0.48984978954E+03 -0.18067357978E+03 -0.14301428311E+04  0.15224665140E+04  0.10100000352E+00 0.  1.
       -3    1    3    3    0  502  0.48984978954E+03  0.18067357978E+03  0.14869771884E+04  0.15759749134E+04  0.10100000352E+00 0. -1.
</event>
<event>
 5   0  0.1377237E-07  0.3103263E+04  0.7818609E-02  0.8214843E-01
        2   -1    0    0  501    0  0.00000000000E+00  0.00000000000E+00  0.20802559364E+04  0.20802559364E+04  0.25500000920E-02 0. -1.
       -2   -1    0    0    0  501  0.00000000000E+00  0.00000000000E+00 -0.11573383734E+04  0.11573383734E+04  0.25500000920E-02 0.  1.
    10030    2    1    2    0    0  0.00000000000E+00  0.00000000000E+00  0.92291756303E+03  0.32375943098E+04  0.31032628130E+04 0.  0.
        2    1    3    3  502    0  0.47742675046E+03  0.12720340145E+04 -0.32034779340E+03  0.13959332165E+04  0.25500000920E-02 0.  1.
       -2    1    3    3    0  502 -0.47742675046E+03 -0.12720340145E+04  0.12432653564E+04  0.18416610933E+04  0.25500000920E-02 0. -1.
</event>
<event>
 5   0  0.4838602E-08  0.3098638E+04  0.7818609E-02  0.8216112E-01
       -1   -1    0    0    0  501  0.00000000000E+00  0.00000000000E+00  0.10825854115E+04  0.10825854115E+04  0.50400001928E-02 0.  1.
        1   -1    0    0  501    0  0.00000000000E+00  0.00000000000E+00 -0.22172748788E+04  0.22172748788E+04  0.50400001928E-02 0. -1.
    10030    2    1    2    0    0  0.00000000000E+00  0.00000000000E+00 -0.11346894672E+04  0.32998602903E+04  0.30986380474E+04 0.  0.
        5    1    3    3  502    0  0.47094924122E+02  0.71427694428E+03 -0.20306025490E+04  0.21530857593E+04  0.46999998093E+01 0. -1.
       -5    1    3    3    0  502 -0.47094924122E+02 -0.71427694428E+03  0.89591308173E+03  0.11467745310E+04  0.46999998093E+01 0.  1.
</event>
<event>
 5   0  0.4517409E-08  0.3099896E+04  0.7818609E-02  0.8215766E-01
       -1   -1    0    0    0  501  0.00000000000E+00  0.00000000000E+00  0.16737972332E+04  0.16737972332E+04  0.50400001928E-02 0.  1.
        1   -1    0    0  501    0  0.00000000000E+00  0.00000000000E+00 -0.14352626291E+04  0.14352626291E+04  0.50400001928E-02 0. -1.
    10030    2    1    2    0    0  0.00000000000E+00  0.00000000000E+00  0.23853460411E+03  0.31090598624E+04  0.30998958806E+04 0.  0.
        2    1    3    3  502    0 -0.11802657159E+03 -0.12391895386E+04 -0.80694397168E+03  0.14834687586E+04  0.25500000920E-02 0. -1.
       -2    1    3    3    0  502  0.11802657159E+03  0.12391895386E+04  0.10454785758E+04  0.16255911038E+04  0.25500000920E-02 0.  1.
</event>
<event>
 5   0  0.4436241E-08  0.3100863E+04  0.7818609E-02  0.8215501E-01
        1   -1    0    0  501    0  0.00000000000E+00  0.00000000000E+00  0.26375045800E+04  0.26375045800E+04  0.50400001928E-02 0. -1.
       -1   -1    0    0    0  501  0.00000000000E+00  0.00000000000E+00 -0.91140615630E+03  0.91140615631E+03  0.50400001928E-02 0.  1.
    10030    2    1    2    0    0  0.00000000000E+00  0.00000000000E+00  0.17260984237E+04  0.35489107364E+04  0.31008630486E+04 0.  0.
        3    1    3    3  502    0  0.50317353270E+03 -0.13688794852E+04  0.26088661848E+03  0.14815790519E+04  0.10100000352E+00 0.  1.
       -3    1    3    3    0  502 -0.50317353270E+03  0.13688794852E+04  0.14652118053E+04  0.20673316845E+04  0.10100000352E+00 0. -1.
</event>
<event>
 5   0  0.1329777E-07  0.3098393E+04  0.7818609E-02  0.8216179E-01
       -2   -1    0    0    0  501  0.00000000000E+00  0.00000000000E+00  0.11670410207E+04  0.11670410207E+04  0.25500000920E-02 0.  1.
        2   -1    0    0  501    0  0.00000000000E+00  0.00000000000E+00 -0.20564910173E+04  0.20564910173E+04  0.25500000920E-02 0. -1.
    10030    2    1    2    0    0  0.00000000000E+00  0.00000000000E+00 -0.88944999665E+03  0.32235320380E+04  0.30983927291E+04 0.  0.
        1    1    3    3  502    0 -0.76856403405E+03  0.24102722879E+03 -0.18215110194E+04  0.19916543860E+04  0.50400001928E-02 0. -1.
       -1    1    3    3    0  502  0.76856403405E+03 -0.24102722879E+03  0.93206102273E+03  0.12318776520E+04  0.50400001928E-02 0.  1.
</event>
<event>
 5   0  0.1377237E-07  0.3098528E+04  0.7818609E-02  0.8216142E-01
        2   -1    0    0  501    0  0.00000000000E+00  0.00000000000E+00  0.22890181875E+04  0.22890181875E+04  0.25500000920E-02 0. -1.
       -2   -1    0    0    0  501  0.00000000000E+00  0.00000000000E+00 -0.10485802881E+04  0.10485802881E+04  0.25500000920E-02 0.  1.
    10030    2    1    2    0    0  0.00000000000E+00  0.00000000000E+00  0.12404378994E+04  0.33375984756E+04  0.30985282639E+04 0.  0.
        2    1    3    3  502    0 -0.10398140190E+04 -0.16320975341E+03 -0.60431786830E+03  0.12136930022E+04  0.25500000920E-02 0.  1.
       -2    1    3    3    0  502  0.10398140190E+04  0.16320975341E+03  0.18447557677E+04  0.21239054734E+04  0.25500000920E-02 0. -1.
</event>
<event>
 5   0  0.4436241E-08  0.3099632E+04  0.7818609E-02  0.8215839E-01
        1   -1    0    0  501    0  0.00000000000E+00  0.00000000000E+00  0.12774468042E+04  0.12774468042E+04  0.50400001928E-02 0.  1.
       -1   -1    0    0    0  501  0.00000000000E+00  0.00000000000E+00 -0.18802584318E+04  0.18802584318E+04  0.50400001928E-02 0. -1.
    10030    2    1    2    0    0  0.00000000000E+00  0.00000000000E+00 -0.60281162761E+03  0.31577052361E+04  0.30996323168E+04 0.  0.
        3    1    3    3  502    0 -0.10875818786E+04 -0.10562280568E+04 -0.62911269027E+03  0.16414124521E+04  0.10100000352E+00 0. -1.
       -3    1    3    3    0  502  0.10875818786E+04  0.10562280568E+04  0.26301062656E+02  0.15162927840E+04  0.10100000352E+00 0.  1.
</event>
<event>
 5   0  0.1329777E-07  0.3100393E+04  0.7818609E-02  0.8215630E-01
       -2   -1    0    0    0  501  0.00000000000E+00  0.00000000000E+00  0.21552789586E+04  0.21552789586E+04  0.25500000920E-02 0. -1.
        2   -1    0    0  501    0  0.00000000000E+00  0.00000000000E+00 -0.11149871999E+04  0.11149871999E+04  0.25500000920E-02 0.  1.
    10030    2    1    2    0    0  0.00000000000E+00  0.00000000000E+00  0.10402917587E+04  0.32702661585E+04  0.31003925243E+04 0.  0.
        1    1    3    3  502    0 -0.10842943394E+04  0.73182256357E+03  0.13974948746E+04  0.19142231854E+04  0.50400001928E-02 0. -1.
       -1    1    3    3    0  502  0.10842943394E+04 -0.73182256357E+03 -0.35720311595E+03  0.13560429731E+04  0.50400001928E-02 0.  1.
</event>
<event>
 5   0  0.4470354E-08  0.3100072E+04  0.7818609E-02  0.8215718E-01
       -1   -1    0    0    0  501  0.00000000000E+00  0.00000000000E+00  0.11525914846E+04  0.11525914847E+04  0.50400001928E-02 0.  1.
        1   -1    0    0  501    0  0.00000000000E+00  0.00000000000E+00 -0.20845296756E+04  0.20845296756E+04  0.50400001928E-02 0. -1.
    10030    2    1    2    0    0  0.00000000000E+00  0.00000000000E+00 -0.93193819099E+03  0.32371211603E+04  0.31000717112E+04 0.  0.
        1    1    3    3  502    0  0.12760853909E+04  0.75203840879E+03 -0.94295120715E+03  0.17558794583E+04  0.50400001928E-02 0. -1.
       -1    1    3    3    0  502 -0.12760853909E+04 -0.75203840879E+03  0.11013016162E+02  0.14812417020E+04  0.50400001928E-02 0.  1.
</event>
<event>
 5   0  0.4436241E-08  0.3083940E+04  0.7818609E-02  0.8220159E-01
        1   -1    0    0  501    0  0.00000000000E+00  0.00000000000E+00  0.24726638514E+04  0.24726638514E+04  0.50400001928E-02 0. -1.
       -1   -1    0    0    0  501  0.00000000000E+00  0.00000000000E+00 -0.96158292559E+03  0.96158292560E+03  0.50400001928E-02 0.  1.
    10030    2    1    2    0    0  0.00000000000E+00  0.00000000000E+00  0.15110809258E+04  0.34342467770E+04  0.30839399088E+04 0.  0.
        3    1    3    3  502    0 -0.36103645063E+03  0.12271331723E+04  0.17144372287E+04  0.21390414121E+04  0.10100000352E+00 0. -1.
       -3    1    3    3    0  502  0.36103645063E+03 -0.12271331723E+04 -0.20335630287E+03  0.12952053649E+04  0.10100000352E+00 0.  1.
</event>
<event>
 5   0  0.1325713E-07  0.3099296E+04  0.7818609E-02  0.8215931E-01
       -2   -1    0    0    0  501  0.00000000000E+00  0.00000000000E+00  0.25727147802E+04  0.25727147802E+04  0.25500000920E-02 0. -1.
        2   -1    0    0  501    0  0.00000000000E+00  0.00000000000E+00 -0.93341412697E+03  0.93341412698E+03  0.25500000920E-02 0.  1.
    10030    2    1    2    0    0  0.00000000000E+00  0.00000000000E+00  0.16393006532E+04  0.35061289072E+04  0.30992956106E+04 0.  0.
        4    1    3    3  502    0 -0.10553498311E+04  0.10737622933E+04  0.12348080996E+04  0.19471726642E+04  0.12699999809E+01 0. -1.
       -4    1    3    3    0  502  0.10553498311E+04 -0.10737622933E+04  0.40449255361E+03  0.15589562429E+04  0.12699999809E+01 0.  1.
</event>
<event>
 5   0  0.4517409E-08  0.3100611E+04  0.7818609E-02  0.8215570E-01
       -1   -1    0    0    0  501  0.00000000000E+00  0.00000000000E+00  0.91139755648E+03  0.91139755649E+03  0.50400001928E-02 0.  1.
        1   -1    0    0  501    0  0.00000000000E+00  0.00000000000E+00 -0.26371007500E+04  0.26371007500E+04  0.50400001928E-02 0. -1.
    10030    2    1    2    0    0  0.00000000000E+00  0.00000000000E+00 -0.17257031935E+04  0.35484983065E+04  0.31006110235E+04 0.  0.
        2    1    3    3  502    0 -0.93469363910E+03 -0.10993621175E+04 -0.15114616481E+04  0.20896807359E+04  0.25500000920E-02 0. -1.
       -2    1    3    3    0  502  0.93469363910E+03  0.10993621175E+04 -0.21424154540E+03  0.14588175706E+04  0.25500000920E-02 0.  1.
</event>
<event>
 5   0  0.1329777E-07  0.3100615E+04  0.7818609E-02  0.8215569E-01
        2   -1    0    0  501    0  0.00000000000E+00  0.00000000000E+00  0.15340456275E+04  0.15340456275E+04  0.25500000920E-02 0. -1.
       -2   -1    0    0    0  501  0.00000000000E+00  0.00000000000E+00 -0.15667415253E+04  0.15667415253E+04  0.25500000920E-02 0.  1.
    10030    2    1    2    0    0  0.00000000000E+00  0.00000000000E+00 -0.32695897771E+02  0.31007871528E+04  0.31006147690E+04 0.  0.
        1    1    3    3  502    0 -0.98939452627E+03 -0.98422800451E+03  0.65885378496E+03  0.15432739885E+04  0.50400001928E-02 0. -1.
       -1    1    3    3    0  502  0.98939452627E+03  0.98422800451E+03 -0.69154968273E+03  0.15575131644E+04  0.50400001928E-02 0.  1.
</event>
<event>
 5   0  0.1318916E-07  0.3099121E+04  0.7818609E-02  0.8215979E-01
        2   -1    0    0  501    0  0.00000000000E+00  0.00000000000E+00  0.13626853376E+04  0.13626853376E+04  0.25500000920E-02 0. -1.
       -2   -1    0    0    0  501  0.00000000000E+00  0.00000000000E+00 -0.17620634718E+04  0.17620634718E+04  0.25500000920E-02 0.  1.
    10030    2    1    2    0    0  0.00000000000E+00  0.00000000000E+00 -0.39937813415E+03  0.31247488094E+04  0.30991212025E+04 0.  0.
        5    1    3    3  502    0 -0.46780860944E+03 -0.11387439374E+04 -0.11484985198E+04  0.16836429520E+04  0.46999998093E+01 0.  1.
       -5    1    3    3    0  502  0.46780860944E+03  0.11387439374E+04  0.74912038561E+03  0.14411058574E+04  0.46999998093E+01 0. -1.
</event>
<event>
 5   0  0.1325713E-07  0.3098432E+04  0.7818609E-02  0.8216168E-01
        2   -1    0    0  501    0  0.00000000000E+00  0.00000000000E+00  0.27093633563E+04  0.27093633563E+04  0.25500000920E-02 0.  1.
       -2   -1    0    0    0  501  0.00000000000E+00  0.00000000000E+00 -0.88584262074E+03  0.88584262074E+03  0.25500000920E-02 0. -1.
    10030    2    1    2    0    0  0.00000000000E+00  0.00000000000E+00  0.18235207356E+04  0.35952059770E+04  0.30984315620E+04 0.  0.
        4    1    3    3  502    0  0.47209390270E+03 -0.14620396479E+04  0.11427663113E+04  0.19147712762E+04  0.12699999809E+01 0.  1.
       -4    1    3    3    0  502 -0.47209390270E+03  0.14620396479E+04  0.68075442429E+03  0.16804347009E+04  0.12699999809E+01 0. -1.
</event>
<event>
 5   0  0.4436241E-08  0.3104584E+04  0.7818609E-02  0.8214481E-01
        1   -1    0    0  501    0  0.00000000000E+00  0.00000000000E+00  0.14339049924E+04  0.14339049924E+04  0.50400001928E-02 0. -1.
       -1   -1    0    0    0  501  0.00000000000E+00  0.00000000000E+00 -0.16804532803E+04  0.16804532803E+04  0.50400001928E-02 0.  1.
    10030    2    1    2    0    0  0.00000000000E+00  0.00000000000E+00 -0.24654828790E+03  0.31143582726E+04  0.31045839322E+04 0.  0.
        3    1    3    3  502    0  0.15169923571E+03 -0.64702747100E+03  0.12839800188E+04  0.14457738084E+04  0.10100000352E+00 0. -1.
       -3    1    3    3    0  502 -0.15169923571E+03  0.64702747100E+03 -0.15305283067E+04  0.16685844642E+04  0.10100000352E+00 0.  1.
</event>
<event>
 5   0  0.4436241E-08  0.3104019E+04  0.7818609E-02  0.8214636E-01
        1   -1    0    0  501    0  0.00000000000E+00  0.00000000000E+00  0.21769339648E+04  0.21769339648E+04  0.50400001928E-02 0. -1.
       -1   -1    0    0    0  501  0.00000000000E+00  0.00000000000E+00 -0.11064800526E+04  0.11064800526E+04  0.50400001928E-02 0.  1.
    10030    2    1    2    0    0  0.00000000000E+00  0.00000000000E+00  0.10704539122E+04  0.32834140174E+04  0.31040193349E+04 0.  0.
        3    1    3    3  502    0  0.75702674528E+03 -0.97342598070E+03  0.15320747021E+04  0.19666978761E+04  0.10100000352E+00 0. -1.
       -3    1    3    3    0  502 -0.75702674528E+03  0.97342598070E+03 -0.46162078985E+03  0.13167161413E+04  0.10100000352E+00 0.  1.
</event>
<event>
 5   0  0.1398931E-07  0.3099231E+04  0.7818609E-02  0.8215949E-01
       -2   -1    0    0    0  501  0.00000000000E+00  0.00000000000E+00  0.13574774802E+04  0.13574774802E+04  0.25500000920E-02 0.  1.
        2   -1    0    0  501    0  0.00000000000E+00  0.00000000000E+00 -0.17689483915E+04  0.17689483915E+04  0.25500000920E-02 0. -1.
    10030    2    1    2    0    0  0.00000000000E+00  0.00000000000E+00 -0.41147091128E+03  0.31264258718E+04  0.30992306175E+04 0.  0.
        3    1    3    3  502    0  0.66329411018E+03 -0.10185036072E+04  0.76394797343E+03  0.14355922787E+04  0.10100000352E+00 0.  1.
       -3    1    3    3    0  502 -0.66329411018E+03  0.10185036072E+04 -0.11754188847E+04  0.16908335930E+04  0.10100000352E+00 0. -1.
</event>
<event>
 5   0  0.1325713E-07  0.3101556E+04  0.7818609E-02  0.8215311E-01
        2   -1    0    0  501    0  0.00000000000E+00  0.00000000000E+00  0.19721939630E+04  0.19721939630E+04  0.25500000920E-02 0.  1.
       -2   -1    0    0    0  501  0.00000000000E+00  0.00000000000E+00 -0.12194095078E+04  0.12194095078E+04  0.25500000920E-02 0. -1.
    10030    2    1    2    0    0  0.00000000000E+00  0.00000000000E+00  0.75278445516E+03  0.31916034708E+04  0.31015557836E+04 0.  0.
        4    1    3    3  502    0  0.13676077216E+03  0.11211248255E+04 -0.71713932412E+03  0.13378769772E+04  0.12699999809E+01 0. -1.
       -4    1    3    3    0  502 -0.13676077216E+03 -0.11211248255E+04  0.14699237793E+04  0.18537264936E+04  0.12699999809E+01 0.  1.
</event>
<event>
 5   0  0.4450600E-08  0.3103004E+04  0.7818609E-02  0.8214914E-01
       -1   -1    0    0    0  501  0.00000000000E+00  0.00000000000E+00  0.10763489688E+04  0.10763489689E+04  0.50400001928E-02 0. -1.
        1   -1    0    0  501    0  0.00000000000E+00  0.00000000000E+00 -0.22364103955E+04  0.22364103955E+04  0.50400001928E-02 0.  1.
    10030    2    1    2    0    0  0.00000000000E+00  0.00000000000E+00 -0.11600614267E+04  0.33127593644E+04  0.31030037210E+04 0.  0.
        4    1    3    3  502    0  0.10237660747E+04  0.86039444525E+03  0.25976957682E+03  0.13622985807E+04  0.12699999809E+01 0. -1.
       -4    1    3    3    0  502 -0.10237660747E+04 -0.86039444525E+03 -0.14198310035E+04  0.19504607836E+04  0.12699999809E+01 0.  1.
</event>
<event>
 5   0  0.4470354E-08  0.3099903E+04  0.7818609E-02  0.8215764E-01
       -1   -1    0    0    0  501  0.00000000000E+00  0.00000000000E+00  0.10307908960E+04  0.10307908960E+04  0.50400001928E-02 0.  1.
        1   -1    0    0  501    0  0.00000000000E+00  0.00000000000E+00 -0.23305892014E+04  0.23305892014E+04  0.50400001928E-02 0. -1.
    10030    2    1    2    0    0  0.00000000000E+00  0.00000000000E+00 -0.12997983054E+04  0.33613800974E+04  0.30999033089E+04 0.  0.
        1    1    3    3  502    0  0.38922625703E+03  0.44664227489E+03 -0.22029683738E+04  0.22812400262E+04  0.50400001928E-02 0. -1.
       -1    1    3    3    0  502 -0.38922625703E+03 -0.44664227489E+03  0.90317006843E+03  0.10801400712E+04  0.50400001928E-02 0.  1.
</event>
<event>
 5   0  0.4517409E-08  0.3102497E+04  0.7818609E-02  0.8215053E-01
       -1   -1    0    0    0  501  0.00000000000E+00  0.00000000000E+00  0.15869156067E+04  0.15869156067E+04  0.50400001928E-02 0. -1.
        1   -1    0    0  501    0  0.00000000000E+00  0.00000000000E+00 -0.15163827562E+04  0.15163827562E+04  0.50400001928E-02 0.  1.
    10030    2    1    2    0    0  0.00000000000E+00  0.00000000000E+00  0.70532850458E+02  0.31032983629E+04  0.31024967118E+04 0.  0.
        2    1    3    3  502    0 -0.73863085001E+03 -0.66129114596E+03  0.12286756898E+04  0.15787734046E+04  0.25500000920E-02 0. -1.
       -2    1    3    3    0  502  0.73863085001E+03  0.66129114596E+03 -0.11581428393E+04  0.15245249584E+04  0.25500000920E-02 0.  1.
</event>
<event>
 5   0  0.1325713E-07  0.3100129E+04  0.7818609E-02  0.8215703E-01
        2   -1    0    0  501    0  0.00000000000E+00  0.00000000000E+00  0.20742738843E+04  0.20742738843E+04  0.25500000920E-02 0.  1.
       -2   -1    0    0    0  501  0.00000000000E+00  0.00000000000E+00 -0.11583329728E+04  0.11583329728E+04  0.25500000920E-02 0. -1.
    10030    2    1    2    0    0  0.00000000000E+00  0.00000000000E+00  0.91594091146E+03  0.32326068571E+04  0.31001289230E+04 0.  0.
        4    1    3    3  502    0 -0.60512028786E+03 -0.54751292227E+03  0.18321475220E+04  0.20056687458E+04  0.12699999809E+01 0.  1.
       -4    1    3    3    0  502  0.60512028786E+03  0.54751292227E+03 -0.91620661051E+03  0.12269381113E+04  0.12699999809E+01 0. -1.
</event>
<event>
 5   0  0.1325713E-07  0.3098630E+04  0.7818609E-02  0.8216114E-01
        2   -1    0    0  501    0  0.00000000000E+00  0.00000000000E+00  0.17006340527E+04  0.17006340527E+04  0.25500000920E-02 0.  1.
       -2   -1    0    0    0  501  0.00000000000E+00  0.00000000000E+00 -0.14114596517E+04  0.14114596517E+04  0.25500000920E-02 0. -1.
    10030    2    1    2    0    0  0.00000000000E+00  0.00000000000E+00  0.28917440104E+03  0.31120937044E+04  0.30986295988E+04 0.  0.
        4    1    3    3  502    0 -0.14488218302E+04 -0.14963895096E+03 -0.38581567996E+03  0.15067620459E+04  0.12699999809E+01 0. -1.
       -4    1    3    3    0  502  0.14488218302E+04  0.14963895096E+03  0.67499008101E+03  0.16053316585E+04  0.12699999809E+01 0.  1.
</event>
<event>
 5   0  0.1318916E-07  0.3094393E+04  0.7818609E-02  0.8217279E-01
       -2   -1    0    0    0  501  0.00000000000E+00  0.00000000000E+00  0.12289631900E+04  0.12289631900E+04  0.25500000920E-02 0.  1.
        2   -1    0    0  501    0  0.00000000000E+00  0.00000000000E+00 -0.19478339781E+04  0.19478339781E+04  0.25500000920E-02 0. -1.
    10030    2    1    2    0    0  0.00000000000E+00  0.00000000000E+00 -0.71887078807E+03  0.31767971681E+04  0.30943925150E+04 0.  0.
        5    1    3    3  502    0 -0.13183992647E+04  0.80907549489E+03 -0.39213307274E+03  0.15957976734E+04  0.46999998093E+01 0. -1.
       -5    1    3    3    0  502  0.13183992647E+04 -0.80907549489E+03 -0.32673771532E+03  0.15809994947E+04  0.46999998093E+01 0.  1.
</event>
<event>
 5   0  0.4436241E-08  0.3098032E+04  0.7818609E-02  0.8216278E-01
       -1   -1    0    0    0  501  0.00000000000E+00  0.00000000000E+00  0.13838556278E+04  0.13838556278E+04  0.50400001928E-02 0. -1.
        1   -1    0    0  501    0  0.00000000000E+00  0.00000000000E+00 -0.17338882487E+04  0.17338882487E+04  0.50400001928E-02 0.  1.
    10030    2    1    2    0    0  0.00000000000E+00  0.00000000000E+00 -0.35003262088E+03  0.31177438764E+04  0.30980322857E+04 0.  0.
        3    1    3    3  502    0 -0.10026472372E+04  0.40335087412E+03  0.94175494097E+03  0.14334907704E+04  0.10100000352E+00 0. -1.
       -3    1    3    3    0  502  0.10026472372E+04 -0.40335087412E+03 -0.12917875619E+04  0.16842531060E+04  0.10100000352E+00 0.  1.
</event>
<event>
 5   0  0.4517409E-08  0.3099613E+04  0.7818609E-02  0.8215844E-01
       -1   -1    0    0    0  501  0.00000000000E+00  0.00000000000E+00  0.15906681368E+04  0.15906681368E+04  0.50400001928E-02 0. -1.
        1   -1    0    0  501    0  0.00000000000E+00  0.00000000000E+00 -0.15099942493E+04  0.15099942493E+04  0.50400001928E-02 0.  1.
    10030    2    1    2    0    0  0.00000000000E+00  0.00000000000E+00  0.80673887526E+02  0.31006623861E+04  0.30996127107E+04 0.  0.
        2    1    3    3  502    0 -0.24538369206E+03  0.11188338186E+04  0.10846720316E+04  0.15775029909E+04  0.25500000920E-02 0. -1.
       -2    1    3    3    0  502  0.24538369206E+03 -0.11188338186E+04 -0.10039981441E+04  0.15231593953E+04  0.25500000920E-02 0.  1.
</event>
<event>
 5   0  0.1329777E-07  0.3097150E+04  0.7818609E-02  0.8216521E-01
        2   -1    0    0  501    0  0.00000000000E+00  0.00000000000E+00  0.21663484819E+04  0.21663484819E+04  0.25500000920E-02 0. -1.
       -2   -1    0    0    0  501  0.00000000000E+00  0.00000000000E+00 -0.11069705557E+04  0.11069705557E+04  0.25500000920E-02 0.  1.
    10030    2    1    2    0    0  0.00000000000E+00  0.00000000000E+00  0.10593779262E+04  0.32733190376E+04  0.30971496462E+04 0.  0.
        1    1    3    3  502    0  0.61721288887E+03 -0.65373799824E+03 -0.80288638204E+03  0.12053844462E+04  0.50400001928E-02 0.  1.
       -1    1    3    3    0  502 -0.61721288887E+03  0.65373799824E+03  0.18622643083E+04  0.20679345914E+04  0.50400001928E-02 0. -1.
</event>
<event>
 5   0  0.4450600E-08  0.3098892E+04  0.7818609E-02  0.8216042E-01
        1   -1    0    0  501    0  0.00000000000E+00  0.00000000000E+00  0.10385518983E+04  0.10385518983E+04  0.50400001928E-02 0.  1.
       -1   -1    0    0    0  501  0.00000000000E+00  0.00000000000E+00 -0.23116641711E+04  0.23116641711E+04  0.50400001928E-02 0. -1.
    10030    2    1    2    0    0  0.00000000000E+00  0.00000000000E+00 -0.12731122728E+04  0.33502160694E+04  0.30988921977E+04 0.  0.
        4    1    3    3  502    0 -0.46065924089E+03 -0.11363179550E+04  0.38755897707E+03  0.12859350701E+04  0.12699999809E+01 0.  1.
       -4    1    3    3    0  502  0.46065924089E+03  0.11363179550E+04 -0.16606712499E+04  0.20642809993E+04  0.12699999809E+01 0. -1.
</event>
<event>
 5   0  0.1329777E-07  0.3101086E+04  0.7818609E-02  0.8215440E-01
        2   -1    0    0  501    0  0.00000000000E+00  0.00000000000E+00  0.18993667794E+04  0.18993667794E+04  0.25500000920E-02 0. -1.
       -2   -1    0    0    0  501  0.00000000000E+00  0.00000000000E+00 -0.12657815139E+04  0.12657815139E+04  0.25500000920E-02 0.  1.
    10030    2    1    2    0    0  0.00000000000E+00  0.00000000000E+00  0.63358526545E+03  0.31651482933E+04  0.31010858469E+04 0.  0.
        1    1    3    3  502    0 -0.10884334101E+04  0.25159149603E+03 -0.78068667486E+03  0.13628856348E+04  0.50400001928E-02 0.  1.
       -1    1    3    3    0  502  0.10884334101E+04 -0.25159149603E+03  0.14142719403E+04  0.18022626585E+04  0.50400001928E-02 0. -1.
</event>
<event>
 5   0  0.1377237E-07  0.3098450E+04  0.7818609E-02  0.8216163E-01
       -2   -1    0    0    0  501  0.00000000000E+00  0.00000000000E+00  0.10638814364E+04  0.10638814364E+04  0.25500000920E-02 0.  1.
        2   -1    0    0  501    0  0.00000000000E+00  0.00000000000E+00 -0.22559822706E+04  0.22559822706E+04  0.25500000920E-02 0. -1.
    10030    2    1    2    0    0  0.00000000000E+00  0.00000000000E+00 -0.11921008341E+04  0.33198637070E+04  0.30984497146E+04 0.  0.
        2    1    3    3  502    0  0.78580286894E+02 -0.12838624786E+04 -0.15212481442E+04  0.19921530166E+04  0.25500000920E-02 0. -1.
       -2    1    3    3    0  502 -0.78580286894E+02  0.12838624786E+04  0.32914731007E+03  0.13277106903E+04  0.25500000920E-02 0.  1.
</event>
<event>
 5   0  0.4450600E-08  0.3101205E+04  0.7818609E-02  0.8215407E-01
       -1   -1    0    0    0  501  0.00000000000E+00  0.00000000000E+00  0.12642934667E+04  0.12642934667E+04  0.50400001928E-02 0.  1.
        1   -1    0    0  501    0  0.00000000000E+00  0.00000000000E+00 -0.19017483091E+04  0.19017483091E+04  0.50400001928E-02 0. -1.
    10030    2    1    2    0    0  0.00000000000E+00  0.00000000000E+00 -0.63745484247E+03  0.31660417758E+04  0.31012049029E+04 0.  0.
        4    1    3    3  502    0 -0.75769410502E+03 -0.41028317968E+03  0.99738511846E+03  0.13180331300E+04  0.12699999809E+01 0.  1.
       -4    1    3    3    0  502  0.75769410502E+03  0.41028317968E+03 -0.16348399609E+04  0.18480086458E+04  0.12699999809E+01 0. -1.
</event>
<event>
 5   0  0.1325713E-07  0.3101851E+04  0.7818609E-02  0.8215230E-01
        2   -1    0    0  501    0  0.00000000000E+00  0.00000000000E+00  0.10408647299E+04  0.10408647299E+04  0.25500000920E-02 0.  1.
       -2   -1    0    0    0  501  0.00000000000E+00  0.00000000000E+00 -0.23109340068E+04  0.23109340069E+04  0.25500000920E-02 0. -1.
    10030    2    1    2    0    0  0.00000000000E+00  0.00000000000E+00 -0.12700692769E+04  0.33517987368E+04  0.31018508674E+04 0.  0.
        4    1    3    3  502    0  0.28737391287E+03 -0.12891968537E+04 -0.15134046690E+04  0.20087328340E+04  0.12699999809E+01 0. -1.
       -4    1    3    3    0  502 -0.28737391287E+03  0.12891968537E+04  0.24333539207E+03  0.13430659028E+04  0.12699999809E+01 0.  1.
</event>
<event>
 5   0  0.4436241E-08  0.3098625E+04  0.7818609E-02  0.8216115E-01
        1   -1    0    0  501    0  0.00000000000E+00  0.00000000000E+00  0.15362738002E+04  0.15362738002E+04  0.50400001928E-02 0. -1.
       -1   -1    0    0    0  501  0.00000000000E+00  0.00000000000E+00 -0.15624619081E+04  0.15624619081E+04  0.50400001928E-02 0.  1.
    10030    2    1    2    0    0  0.00000000000E+00  0.00000000000E+00 -0.26188107914E+02  0.30987357083E+04  0.30986250456E+04 0.  0.
        3    1    3    3  502    0 -0.68033878224E+03  0.12670676045E+04  0.56316268382E+03  0.15444977797E+04  0.10100000352E+00 0. -1.
       -3    1    3    3    0  502  0.68033878224E+03 -0.12670676045E+04 -0.58935079173E+03  0.15542379286E+04  0.10100000352E+00 0.  1.
</event>
<event>
 5   0  0.1318916E-07  0.3097674E+04  0.7818609E-02  0.8216377E-01
        2   -1    0    0  501    0  0.00000000000E+00  0.00000000000E+00  0.18558306814E+04  0.18558306814E+04  0.25500000920E-02 0.  1.
       -2   -1    0    0    0  501  0.00000000000E+00  0.00000000000E+00 -0.12926262242E+04  0.12926262243E+04  0.25500000920E-02 0. -1.
    10030    2    1    2    0    0  0.00000000000E+00  0.00000000000E+00  0.56320445712E+03  0.31484569056E+04  0.30976735829E+04 0.  0.
        5    1    3    3  502    0  0.19467311806E+02  0.76578466347E+01 -0.12924753795E+04  0.12926532078E+04  0.46999998093E+01 0. -1.
       -5    1    3    3    0  502 -0.19467311806E+02 -0.76578466347E+01  0.18556798366E+04  0.18558036979E+04  0.46999998093E+01 0.  1.
</event>
<event>
 5   0  0.1318916E-07  0.3099778E+04  0.7818609E-02  0.8215799E-01
       -2   -1    0    0    0  501  0.00000000000E+00  0.00000000000E+00  0.11260662309E+04  0.11260662309E+04  0.25500000920E-02 0.  1.
        2   -1    0    0  501    0  0.00000000000E+00  0.00000000000E+00 -0.21332285319E+04  0.21332285319E+04  0.25500000920E-02 0. -1.
    10030    2    1    2    0    0  0.00000000000E+00  0.00000000000E+00 -0.10071623009E+04  0.32592947628E+04  0.30997784518E+04 0.  0.
        5    1    3    3  502    0 -0.14985759431E+04  0.39396185589E+03 -0.53998540233E+03  0.16408967445E+04  0.46999998093E+01 0.  1.
       -5    1    3    3    0  502  0.14985759431E+04 -0.39396185589E+03 -0.46717689862E+03  0.16183980184E+04  0.46999998093E+01 0. -1.
</event>
<event>
 5   0  0.1329777E-07  0.3100186E+04  0.7818609E-02  0.8215687E-01
       -2   -1    0    0    0  501  0.00000000000E+00  0.00000000000E+00  0.25604761258E+04  0.25604761258E+04  0.25500000920E-02 0. -1.
        2   -1    0    0  501    0  0.00000000000E+00  0.00000000000E+00 -0.93841479970E+03  0.93841479971E+03  0.25500000920E-02 0.  1.
    10030    2    1    2    0    0  0.00000000000E+00  0.00000000000E+00  0.16220613261E+04  0.34988909255E+04  0.31001862465E+04 0.  0.
        1    1    3    3  502    0 -0.70485592893E+03 -0.33631272114E+03  0.23222095453E+04  0.24500174079E+04  0.50400001928E-02 0. -1.
       -1    1    3    3    0  502  0.70485592893E+03  0.33631272114E+03 -0.70014821920E+03  0.10488735176E+04  0.50400001928E-02 0.  1.
</event>
<event>
 5   0  0.4450600E-08  0.3100398E+04  0.7818609E-02  0.8215629E-01
       -1   -1    0    0    0  501  0.00000000000E+00  0.00000000000E+00  0.15791091560E+04  0.15791091560E+04  0.50400001928E-02 0.  1.
        1   -1    0    0  501    0  0.00000000000E+00  0.00000000000E+00 -0.15218178551E+04  0.15218178552E+04  0.50400001928E-02 0. -1.
    10030    2    1    2    0    0  0.00000000000E+00  0.00000000000E+00  0.57291300824E+02  0.31009270111E+04  0.31003977221E+04 0.  0.
        4    1    3    3  502    0  0.14249038116E+04 -0.41189549348E+03 -0.42210425717E+03  0.15421356576E+04  0.12699999809E+01 0. -1.
       -4    1    3    3    0  502 -0.14249038116E+04  0.41189549348E+03  0.47939555800E+03  0.15587913535E+04  0.12699999809E+01 0.  1.
</event>
<event>
 5   0  0.4436241E-08  0.3100932E+04  0.7818609E-02  0.8215482E-01
       -1   -1    0    0    0  501  0.00000000000E+00  0.00000000000E+00  0.87527386361E+03  0.87527386362E+03  0.50400001928E-02 0. -1.
        1   -1    0    0  501    0  0.00000000000E+00  0.00000000000E+00 -0.27465051496E+04  0.27465051496E+04  0.50400001928E-02 0.  1.
    10030    2    1    2    0    0  0.00000000000E+00  0.00000000000E+00 -0.18712312860E+04  0.36217790133E+04  0.31009315850E+04 0.  0.
        3    1    3    3  502    0  0.25705075033E+03 -0.54476792920E+03  0.73302025745E+03  0.94877072730E+03  0.10100000352E+00 0. -1.
       -3    1    3    3    0  502 -0.25705075033E+03  0.54476792920E+03 -0.26042515435E+04  0.26730082860E+04  0.10100000352E+00 0.  1.
</event>
<event>
 5   0  0.4436241E-08  0.3098783E+04  0.7818609E-02  0.8216072E-01
        1   -1    0    0  501    0  0.00000000000E+00  0.00000000000E+00  0.16025690159E+04  0.16025690159E+04  0.50400001928E-02 0. -1.
       -1   -1    0    0    0  501  0.00000000000E+00  0.00000000000E+00 -0.14979781338E+04  0.14979781338E+04  0.50400001928E-02 0.  1.
    10030    2    1    2    0    0  0.00000000000E+00  0.00000000000E+00  0.10459088214E+03  0.31005471497E+04  0.30987825633E+04 0.  0.
        3    1    3    3  502    0 -0.12165713803E+04  0.10360729067E+03  0.10066902410E+04  0.15824682132E+04  0.10100000352E+00 0. -1.
       -3    1    3    3    0  502  0.12165713803E+04 -0.10360729067E+03 -0.90209935888E+03  0.15180789365E+04  0.10100000352E+00 0.  1.
</event>
<event>
 5   0  0.1325713E-07  0.3098990E+04  0.7818609E-02  0.8216015E-01
        2   -1    0    0  501    0  0.00000000000E+00  0.00000000000E+00  0.10709739766E+04  0.10709739766E+04  0.25500000920E-02 0.  1.
       -2   -1    0    0    0  501  0.00000000000E+00  0.00000000000E+00 -0.22418234954E+04  0.22418234954E+04  0.25500000920E-02 0. -1.
    10030    2    1    2    0    0  0.00000000000E+00  0.00000000000E+00 -0.11708495188E+04  0.33127974720E+04  0.30989899152E+04 0.  0.
        4    1    3    3  502    0  0.12976242556E+04  0.81864134175E+03 -0.81700581757E+03  0.17382469542E+04  0.12699999809E+01 0. -1.
       -4    1    3    3    0  502 -0.12976242556E+04 -0.81864134175E+03 -0.35384370127E+03  0.15745505177E+04  0.12699999809E+01 0.  1.
</event>
<event>
 5   0  0.4838602E-08  0.3101813E+04  0.7818609E-02  0.8215241E-01
       -1   -1    0    0    0  501  0.00000000000E+00  0.00000000000E+00  0.22181299981E+04  0.22181299981E+04  0.50400001928E-02 0.  1.
        1   -1    0    0  501    0  0.00000000000E+00  0.00000000000E+00 -0.10843864953E+04  0.10843864953E+04  0.50400001928E-02 0. -1.
    10030    2    1    2    0    0  0.00000000000E+00  0.00000000000E+00  0.11337435029E+04  0.33025164934E+04  0.31018125119E+04 0.  0.
        5    1    3    3  502    0 -0.67085775558E+03 -0.10768311670E+04 -0.38285060753E+03  0.13252215543E+04  0.46999998093E+01 0. -1.
       -5    1    3    3    0  502  0.67085775558E+03  0.10768311670E+04  0.15165941104E+04  0.19772949391E+04  0.46999998093E+01 0.  1.
</event>
<event>
 5   0  0.4450600E-08  0.3097179E+04  0.7818609E-02  0.8216513E-01
       -1   -1    0    0    0  501  0.00000000000E+00  0.00000000000E+00  0.11962845236E+04  0.11962845236E+04  0.50400001928E-02 0. -1.
        1   -1    0    0  501    0  0.00000000000E+00  0.00000000000E+00 -0.20046478898E+04  0.20046478898E+04  0.50400001928E-02 0.  1.
    10030    2    1    2    0    0  0.00000000000E+00  0.00000000000E+00 -0.80836336620E+03  0.32009324134E+04  0.30971788749E+04 0.  0.
        4    1    3    3  502    0  0.13311672900E+04 -0.24764214644E+03  0.37252224498E+03  0.14043174223E+04  0.12699999809E+01 0. -1.
       -4    1    3    3    0  502 -0.13311672900E+04  0.24764214644E+03 -0.11808856112E+04  0.17966149911E+04  0.12699999809E+01 0.  1.
</event>
<event>
 5   0  0.4517409E-08  0.3098206E+04  0.7818609E-02  0.8216230E-01
        1   -1    0    0  501    0  0.00000000000E+00  0.00000000000E+00  0.15057551390E+04  0.15057551390E+04  0.50400001928E-02 0.  1.
       -1   -1    0    0    0  501  0.00000000000E+00  0.00000000000E+00 -0.15936987668E+04  0.15936987668E+04  0.50400001928E-02 0. -1.
    10030    2    1    2    0    0  0.00000000000E+00  0.00000000000E+00 -0.87943627824E+02  0.30994539057E+04  0.30982060022E+04 0.  0.
        2    1    3    3  502    0  0.42172862268E+03 -0.70848217838E+03 -0.13559565185E+04  0.15869530895E+04  0.25500000920E-02 0. -1.
       -2    1    3    3    0  502 -0.42172862268E+03  0.70848217838E+03  0.12680128907E+04  0.15125008162E+04  0.25500000920E-02 0.  1.
</event>
<event>
 5   0  0.1398931E-07  0.3100377E+04  0.7818609E-02  0.8215635E-01
        2   -1    0    0  501    0  0.00000000000E+00  0.00000000000E+00  0.15394919561E+04  0.15394919561E+04  0.25500000920E-02 0. -1.
       -2   -1    0    0    0  501  0.00000000000E+00  0.00000000000E+00 -0.15609590854E+04  0.15609590854E+04  0.25500000920E-02 0.  1.
    10030    2    1    2    0    0  0.00000000000E+00  0.00000000000E+00 -0.21467129330E+02  0.31004510415E+04  0.31003767227E+04 0.  0.
        3    1    3    3  502    0 -0.31465297785E+03 -0.13332253298E+04  0.71494743613E+03  0.15452009976E+04  0.10100000352E+00 0. -1.
       -3    1    3    3    0  502  0.31465297785E+03  0.13332253298E+04 -0.73641456546E+03  0.15552500438E+04  0.10100000352E+00 0.  1.
</event>
<event>
 5   0  0.1325713E-07  0.3109671E+04  0.7818609E-02  0.8213089E-01
        2   -1    0    0  501    0  0.00000000000E+00  0.00000000000E+00  0.25680524812E+04  0.25680524812E+04  0.25500000920E-02 0. -1.
       -2   -1    0    0    0  501  0.00000000000E+00  0.00000000000E+00 -0.94138034882E+03  0.94138034882E+03  0.25500000920E-02 0.  1.
    10030    2    1    2    0    0  0.00000000000E+00  0.00000000000E+00  0.16266721324E+04  0.35094328301E+04  0.31096714557E+04 0.  0.
        4    1    3    3  502    0  0.45733424828E+03  0.13379844699E+04  0.15431149942E+04  0.20929793488E+04  0.12699999809E+01 0. -1.
       -4    1    3    3    0  502 -0.45733424828E+03 -0.13379844699E+04  0.83557138227E+02  0.14164534813E+04  0.12699999809E+01 0.  1.
</event>
<event>
 5   0  0.1329777E-07  0.3099965E+04  0.7818609E-02  0.8215747E-01
       -2   -1    0    0    0  501  0.00000000000E+00  0.00000000000E+00  0.11925301598E+04  0.11925301598E+04  0.25500000920E-02 0. -1.
        2   -1    0    0  501    0  0.00000000000E+00  0.00000000000E+00 -0.20145789268E+04  0.20145789268E+04  0.25500000920E-02 0.  1.
    10030    2    1    2    0    0  0.00000000000E+00  0.00000000000E+00 -0.82204876702E+03  0.32071090865E+04  0.30999652446E+04 0.  0.
        1    1    3    3  502    0 -0.49887045774E+03 -0.14327168847E+04 -0.73964548017E+03  0.16877869657E+04  0.50400001928E-02 0.  1.
       -1    1    3    3    0  502  0.49887045774E+03  0.14327168847E+04 -0.82403286847E+02  0.15193221208E+04  0.50400001928E-02 0. -1.
</event>
<event>
 5   0  0.1398931E-07  0.3101221E+04  0.7818609E-02  0.8215403E-01
       -2   -1    0    0    0  501  0.00000000000E+00  0.00000000000E+00  0.10284216007E+04  0.10284216007E+04  0.25500000920E-02 0. -1.
        2   -1    0    0  501    0  0.00000000000E+00  0.00000000000E+00 -0.23379441141E+04  0.23379441141E+04  0.25500000920E-02 0.  1.
    10030    2    1    2    0    0  0.00000000000E+00  0.00000000000E+00 -0.13095225134E+04  0.33663657148E+04  0.31012205521E+04 0.  0.
        3    1    3    3  502    0  0.13363528799E+04 -0.49634321295E+03  0.74778910143E+01  0.14255705994E+04  0.10100000352E+00 0.  1.
       -3    1    3    3    0  502 -0.13363528799E+04  0.49634321295E+03 -0.13170004044E+04  0.19407951154E+04  0.10100000352E+00 0. -1.
</event>
<event>
 5   0  0.4838602E-08  0.3098957E+04  0.7818609E-02  0.8216024E-01
        1   -1    0    0  501    0  0.00000000000E+00  0.00000000000E+00  0.22485376344E+04  0.22485376345E+04  0.50400001928E-02 0.  1.
       -1   -1    0    0    0  501  0.00000000000E+00  0.00000000000E+00 -0.10677536585E+04  0.10677536585E+04  0.50400001928E-02 0. -1.
    10030    2    1    2    0    0  0.00000000000E+00  0.00000000000E+00  0.11807839760E+04  0.33162912930E+04  0.30989574282E+04 0.  0.
        5    1    3    3  502    0 -0.14742580635E+04  0.79363141555E+02  0.10936118793E+04  0.18373198901E+04  0.46999998093E+01 0.  1.
       -5    1    3    3    0  502  0.14742580635E+04 -0.79363141555E+02  0.87172096678E+02  0.14789714029E+04  0.46999998093E+01 0. -1.
</event>
<event>
 5   0  0.4450600E-08  0.3099793E+04  0.7818609E-02  0.8215795E-01
        1   -1    0    0  501    0  0.00000000000E+00  0.00000000000E+00  0.17396277854E+04  0.17396277854E+04  0.50400001928E-02 0.  1.
       -1   -1    0    0    0  501  0.00000000000E+00  0.00000000000E+00 -0.13808578646E+04  0.13808578646E+04  0.50400001928E-02 0. -1.
    10030    2    1    2    0    0  0.00000000000E+00  0.00000000000E+00  0.35876992084E+03  0.31204856501E+04  0.30997927086E+04 0.  0.
        4    1    3    3  502    0 -0.25434081700E+03 -0.77485289841E+03  0.15061707192E+04  0.17127866515E+04  0.12699999809E+01 0.  1.
       -4    1    3    3    0  502  0.25434081700E+03  0.77485289841E+03 -0.11474007984E+04  0.14076989985E+04  0.12699999809E+01 0. -1.
</event>
<event>
 5   0  0.4838602E-08  0.3105614E+04  0.7818609E-02  0.8214199E-01
       -1   -1    0    0    0  501  0.00000000000E+00  0.00000000000E+00  0.25572982432E+04  0.25572982432E+04  0.50400001928E-02 0.  1.
        1   -1    0    0  501    0  0.00000000000E+00  0.00000000000E+00 -0.94287375098E+03  0.94287375099E+03  0.50400001928E-02 0. -1.
    10030    2    1    2    0    0  0.00000000000E+00  0.00000000000E+00  0.16144244923E+04  0.35001719942E+04  0.31056138762E+04 0.  0.
        5    1    3    3  502    0  0.73717479434E+03  0.68066350731E+02  0.23455908315E+04  0.24596500045E+04  0.46999998093E+01 0.  1.
       -5    1    3    3    0  502 -0.73717479434E+03 -0.68066350731E+02 -0.73116633927E+03  0.10405219898E+04  0.46999998093E+01 0. -1.
</event>
<event>
 5   0  0.4470354E-08  0.3098639E+04  0.7818609E-02  0.8216112E-01
        1   -1    0    0  501    0  0.00000000000E+00  0.00000000000E+00  0.16082284669E+04  0.16082284669E+04  0.50400001928E-02 0.  1.
       -1   -1    0    0    0  501  0.00000000000E+00  0.00000000000E+00 -0.14925679557E+04  0.14925679557E+04  0.50400001928E-02 0. -1.
    10030    2    1    2    0    0  0.00000000000E+00  0.00000000000E+00  0.11566051113E+03  0.31007964226E+04  0.30986385882E+04 0.  0.
        1    1    3    3  502    0 -0.15146148559E+04  0.96524128748E+01 -0.26833988645E+03  0.15382319804E+04  0.50400001928E-02 0. -1.
       -1    1    3    3    0  502  0.15146148559E+04 -0.96524128748E+01  0.38400039758E+03  0.15625644422E+04  0.50400001928E-02 0.  1.
</event>
<event>
 5   0  0.1325713E-07  0.3114629E+04  0.7818609E-02  0.8211735E-01
        2   -1    0    0  501    0  0.00000000000E+00  0.00000000000E+00  0.17513141312E+04  0.17513141312E+04  0.25500000920E-02 0.  1.
       -2   -1    0    0    0  501  0.00000000000E+00  0.00000000000E+00 -0.13848046346E+04  0.13848046346E+04  0.25500000920E-02 0. -1.
    10030    2    1    2    0    0  0.00000000000E+00  0.00000000000E+00  0.36650949654E+03  0.31361187658E+04  0.31146286620E+04 0.  0.
        4    1    3    3  502    0 -0.11849239683E+04  0.69567853929E+03 -0.55475046617E+03  0.14818107616E+04  0.12699999809E+01 0. -1.
       -4    1    3    3    0  502  0.11849239683E+04 -0.69567853929E+03  0.92125996271E+03  0.16543080041E+04  0.12699999809E+01 0.  1.
</event>
<event>
 5   0  0.1329777E-07  0.3100275E+04  0.7818609E-02  0.8215663E-01
        2   -1    0    0  501    0  0.00000000000E+00  0.00000000000E+00  0.27649542000E+04  0.27649542000E+04  0.25500000920E-02 0.  1.
       -2   -1    0    0    0  501  0.00000000000E+00  0.00000000000E+00 -0.86906534612E+03  0.86906534612E+03  0.25500000920E-02 0. -1.
    10030    2    1    2    0    0  0.00000000000E+00  0.00000000000E+00  0.18958888539E+04  0.36340195462E+04  0.31002747484E+04 0.  0.
        1    1    3    3  502    0  0.34888834277E+03  0.56513255620E+03 -0.69384532285E+03  0.96047863790E+03  0.50400001928E-02 0. -1.
       -1    1    3    3    0  502 -0.34888834277E+03 -0.56513255620E+03  0.25897341768E+04  0.26735409083E+04  0.50400001928E-02 0.  1.
</event>
<event>
 5   0  0.1377237E-07  0.3098458E+04  0.7818609E-02  0.8216161E-01
        2   -1    0    0  501    0  0.00000000000E+00  0.00000000000E+00  0.20645362029E+04  0.20645362029E+04  0.25500000920E-02 0.  1.
       -2   -1    0    0    0  501  0.00000000000E+00  0.00000000000E+00 -0.11625421474E+04  0.11625421475E+04  0.25500000920E-02 0. -1.
    10030    2    1    2    0    0  0.00000000000E+00  0.00000000000E+00  0.90199405547E+03  0.32270783504E+04  0.30984579073E+04 0.  0.
        2    1    3    3  502    0  0.91605569258E+03 -0.97335750546E+03  0.12667918056E+04  0.18415603015E+04  0.25500000920E-02 0.  1.
       -2    1    3    3    0  502 -0.91605569258E+03  0.97335750546E+03 -0.36479775008E+03  0.13855180489E+04  0.25500000920E-02 0. -1.
</event>
<event>
 5   0  0.4436241E-08  0.3101631E+04  0.7818609E-02  0.8215290E-01
        1   -1    0    0  501    0  0.00000000000E+00  0.00000000000E+00  0.25736403180E+04  0.25736403180E+04  0.50400001928E-02 0.  1.
       -1   -1    0    0    0  501  0.00000000000E+00  0.00000000000E+00 -0.93448521538E+03  0.93448521539E+03  0.50400001928E-02 0. -1.
    10030    2    1    2    0    0  0.00000000000E+00  0.00000000000E+00  0.16391551026E+04  0.35081255334E+04  0.31016310722E+04 0.  0.
        3    1    3    3  502    0  0.43048026541E+03 -0.50444180098E+03 -0.76602499389E+03  0.10131974590E+04  0.10100000352E+00 0. -1.
       -3    1    3    3    0  502 -0.43048026541E+03  0.50444180098E+03  0.24051800965E+04  0.24949280744E+04  0.10100000352E+00 0.  1.
</event>
<event>
 5   0  0.1398931E-07  0.3099736E+04  0.7818609E-02  0.8215810E-01
        2   -1    0    0  501    0  0.00000000000E+00  0.00000000000E+00  0.21539035371E+04  0.21539035371E+04  0.25500000920E-02 0. -1.
       -2   -1    0    0    0  501  0.00000000000E+00  0.00000000000E+00 -0.11152264362E+04  0.11152264362E+04  0.25500000920E-02 0.  1.
    10030    2    1    2    0    0  0.00000000000E+00  0.00000000000E+00  0.10386771009E+04  0.32691299733E+04  0.30997355795E+04 0.  0.
        3    1    3    3  502    0  0.74852564792E+03  0.57027667178E+03 -0.77945695815E+03  0.12219080521E+04  0.10100000352E+00 0.  1.
       -3    1    3    3    0  502 -0.74852564792E+03 -0.57027667178E+03  0.18181340590E+04  0.20472219212E+04  0.10100000352E+00 0. -1.
</event>
<event>
 5   0  0.1318916E-07  0.3097550E+04  0.7818609E-02  0.8216411E-01
        2   -1    0    0  501    0  0.00000000000E+00  0.00000000000E+00  0.21270416311E+04  0.21270416311E+04  0.25500000920E-02 0. -1.
       -2   -1    0    0    0  501  0.00000000000E+00  0.00000000000E+00 -0.11277184608E+04  0.11277184608E+04  0.25500000920E-02 0.  1.
    10030    2    1    2    0    0  0.00000000000E+00  0.00000000000E+00  0.99932317033E+03  0.32547600919E+04  0.30975500733E+04 0.  0.
        5    1    3    3  502    0 -0.47300024126E+03  0.42395040916E+03 -0.98455033702E+03  0.11716759935E+04  0.46999998093E+01 0.  1.
       -5    1    3    3    0  502  0.47300024126E+03 -0.42395040916E+03  0.19838735073E+04  0.20830840983E+04  0.46999998093E+01 0. -1.
</event>
<event>
 5   0  0.1329777E-07  0.3100024E+04  0.7818609E-02  0.8215731E-01
        2   -1    0    0  501    0  0.00000000000E+00  0.00000000000E+00  0.14067065495E+04  0.14067065495E+04  0.25500000920E-02 0. -1.
       -2   -1    0    0    0  501  0.00000000000E+00  0.00000000000E+00 -0.17079160470E+04  0.17079160470E+04  0.25500000920E-02 0.  1.
    10030    2    1    2    0    0  0.00000000000E+00  0.00000000000E+00 -0.30120949747E+03  0.31146225965E+04  0.31000236704E+04 0.  0.
        1    1    3    3  502    0 -0.29248465092E+03 -0.15056293679E+04 -0.37542094115E+03  0.15790528641E+04  0.50400001928E-02 0. -1.
       -1    1    3    3    0  502  0.29248465092E+03  0.15056293679E+04  0.74211443678E+02  0.15355697324E+04  0.50400001928E-02 0.  1.
</event>
<event>
 5   0  0.4436241E-08  0.3100508E+04  0.7818609E-02  0.8215598E-01
        1   -1    0    0  501    0  0.00000000000E+00  0.00000000000E+00  0.13085595274E+04  0.13085595274E+04  0.50400001928E-02 0.  1.
       -1   -1    0    0    0  501  0.00000000000E+00  0.00000000000E+00 -0.18365904933E+04  0.18365904933E+04  0.50400001928E-02 0. -1.
    10030    2    1    2    0    0  0.00000000000E+00  0.00000000000E+00 -0.52803096585E+03  0.31451500207E+04  0.31005083376E+04 0.  0.
        3    1    3    3  502    0 -0.13998662643E+04 -0.28812204462E+03 -0.87320201140E+03  0.16748497346E+04  0.10100000352E+00 0. -1.
       -3    1    3    3    0  502  0.13998662643E+04  0.28812204462E+03  0.34517104556E+03  0.14703002861E+04  0.10100000352E+00 0.  1.
</event>
<event>
 5   0  0.4450600E-08  0.3099638E+04  0.7818609E-02  0.8215837E-01
       -1   -1    0    0    0  501  0.00000000000E+00  0.00000000000E+00  0.18413731225E+04  0.18413731225E+04  0.50400001928E-02 0.  1.
        1   -1    0    0  501    0  0.00000000000E+00  0.00000000000E+00 -0.13044282158E+04  0.13044282158E+04  0.50400001928E-02 0. -1.
    10030    2    1    2    0    0  0.00000000000E+00  0.00000000000E+00  0.53694490671E+03  0.31458013384E+04  0.30996380801E+04 0.  0.
        4    1    3    3  502    0  0.85418065461E+03 -0.99546291801E+03 -0.56927028532E+03  0.14299095365E+04  0.12699999809E+01 0. -1.
       -4    1    3    3    0  502 -0.85418065461E+03  0.99546291801E+03  0.11062151920E+04  0.17158918019E+04  0.12699999809E+01 0.  1.
</event>
<event>
 5   0  0.4436241E-08  0.3099887E+04  0.7818609E-02  0.8215769E-01
        1   -1    0    0  501    0  0.00000000000E+00  0.00000000000E+00  0.13667635449E+04  0.13667635449E+04  0.50400001928E-02 0. -1.
       -1   -1    0    0    0  501  0.00000000000E+00  0.00000000000E+00 -0.17576737522E+04  0.17576737522E+04  0.50400001928E-02 0.  1.
    10030    2    1    2    0    0  0.00000000000E+00  0.00000000000E+00 -0.39091020730E+03  0.31244372971E+04  0.30998867130E+04 0.  0.
        3    1    3    3  502    0 -0.42888550982E+03  0.37728011971E+03 -0.16477138085E+04  0.17439162464E+04  0.10100000352E+00 0.  1.
       -3    1    3    3    0  502  0.42888550982E+03 -0.37728011971E+03  0.12568036012E+04  0.13805210507E+04  0.10100000352E+00 0. -1.
</event>
<event>
 5   0  0.1329777E-07  0.3099908E+04  0.7818609E-02  0.8215763E-01
        2   -1    0    0  501    0  0.00000000000E+00  0.00000000000E+00  0.89437679507E+03  0.89437679507E+03  0.25500000920E-02 0.  1.
       -2   -1    0    0    0  501  0.00000000000E+00  0.00000000000E+00 -0.26860683360E+04  0.26860683360E+04  0.25500000920E-02 0. -1.
    10030    2    1    2    0    0  0.00000000000E+00  0.00000000000E+00 -0.17916915410E+04  0.35804451311E+04  0.30999078630E+04 0.  0.
        1    1    3    3  502    0  0.86188228717E+03 -0.12289551943E+04 -0.13419652329E+04  0.20134653294E+04  0.50400001928E-02 0. -1.
       -1    1    3    3    0  502 -0.86188228717E+03  0.12289551943E+04 -0.44972630810E+03  0.15669798017E+04  0.50400001928E-02 0.  1.
</event>
<event>
 5   0  0.1318916E-07  0.3100017E+04  0.7818609E-02  0.8215733E-01
        2   -1    0    0  501    0  0.00000000000E+00  0.00000000000E+00  0.16935389404E+04  0.16935389404E+04  0.25500000920E-02 0. -1.
       -2   -1    0    0    0  501  0.00000000000E+00  0.00000000000E+00 -0.14186427865E+04  0.14186427865E+04  0.25500000920E-02 0.  1.
    10030    2    1    2    0    0  0.00000000000E+00  0.00000000000E+00  0.27489615392E+03  0.31121817270E+04  0.31000172913E+04 0.  0.
        5    1    3    3  502    0 -0.35120052792E+03 -0.54742581105E+03 -0.12750154948E+04  0.14313292533E+04  0.46999998093E+01 0.  1.
       -5    1    3    3    0  502  0.35120052792E+03  0.54742581105E+03  0.15499116487E+04  0.16808524737E+04  0.46999998093E+01 0. -1.
</event>
<event>
 5   0  0.1377237E-07  0.3100506E+04  0.7818609E-02  0.8215599E-01
        2   -1    0    0  501    0  0.00000000000E+00  0.00000000000E+00  0.18534067169E+04  0.18534067169E+04  0.25500000920E-02 0.  1.
       -2   -1    0    0    0  501  0.00000000000E+00  0.00000000000E+00 -0.12966846105E+04  0.12966846105E+04  0.25500000920E-02 0. -1.
    10030    2    1    2    0    0  0.00000000000E+00  0.00000000000E+00  0.55672210636E+03  0.31500913275E+04  0.31005057438E+04 0.  0.
        2    1    3    3  502    0 -0.10685263577E+04 -0.82179064841E+03  0.10562397041E+04  0.17125217544E+04  0.25500000920E-02 0.  1.
       -2    1    3    3    0  502  0.10685263577E+04  0.82179064841E+03 -0.49951759772E+03  0.14375695730E+04  0.25500000920E-02 0. -1.
</event>
<event>
 5   0  0.1398931E-07  0.3094978E+04  0.7818609E-02  0.8217117E-01
        2   -1    0    0  501    0  0.00000000000E+00  0.00000000000E+00  0.23422156328E+04  0.23422156328E+04  0.25500000920E-02 0. -1.
       -2   -1    0    0    0  501  0.00000000000E+00  0.00000000000E+00 -0.10224175246E+04  0.10224175246E+04  0.25500000920E-02 0.  1.
    10030    2    1    2    0    0  0.00000000000E+00  0.00000000000E+00  0.13197981082E+04  0.33646331574E+04  0.30949780674E+04 0.  0.
        3    1    3    3  502    0  0.10452557212E+04  0.43235311404E+03  0.18079550205E+04  0.21326486124E+04  0.10100000352E+00 0. -1.
       -3    1    3    3    0  502 -0.10452557212E+04 -0.43235311404E+03 -0.48815691227E+03  0.12319845450E+04  0.10100000352E+00 0.  1.
</event>
<event>
 5   0  0.1377237E-07  0.3100402E+04  0.7818609E-02  0.8215628E-01
        2   -1    0    0  501    0  0.00000000000E+00  0.00000000000E+00  0.20036290256E+04  0.20036290256E+04  0.25500000920E-02 0.  1.
       -2   -1    0    0    0  501  0.00000000000E+00  0.00000000000E+00 -0.11993854151E+04  0.11993854152E+04  0.25500000920E-02 0. -1.
    10030    2    1    2    0    0  0.00000000000E+00  0.00000000000E+00  0.80424361047E+03  0.32030144408E+04  0.31004021873E+04 0.  0.
        2    1    3    3  502    0  0.81455863963E+03 -0.13189069902E+04  0.41255579381E+03  0.16041270864E+04  0.25500000920E-02 0. -1.
       -2    1    3    3    0  502 -0.81455863963E+03  0.13189069902E+04  0.39168781666E+03  0.15988873544E+04  0.25500000920E-02 0.  1.
</event>
<event>
 5   0  0.1398931E-07  0.3100101E+04  0.7818609E-02  0.8215710E-01
        2   -1    0    0  501    0  0.00000000000E+00  0.00000000000E+00  0.11398993438E+04  0.11398993438E+04  0.25500000920E-02 0. -1.
       -2   -1    0    0    0  501  0.00000000000E+00  0.00000000000E+00 -0.21077792668E+04  0.21077792668E+04  0.25500000920E-02 0.  1.
    10030    2    1    2    0    0  0.00000000000E+00  0.00000000000E+00 -0.96787992300E+03  0.32476786106E+04  0.31001007746E+04 0.  0.
        3    1    3    3  502    0 -0.73091488720E+03 -0.72943474980E+03  0.72709438224E+03  0.12629243356E+04  0.10100000352E+00 0. -1.
       -3    1    3    3    0  502  0.73091488720E+03  0.72943474980E+03 -0.16949743052E+04  0.19847542750E+04  0.10100000352E+00 0.  1.
</event>
<event>
 5   0  0.1398931E-07  0.3099124E+04  0.7818609E-02  0.8215978E-01
        2   -1    0    0  501    0  0.00000000000E+00  0.00000000000E+00  0.12820592059E+04  0.12820592060E+04  0.25500000920E-02 0. -1.
       -2   -1    0    0    0  501  0.00000000000E+00  0.00000000000E+00 -0.18728794688E+04  0.18728794688E+04  0.25500000920E-02 0.  1.
    10030    2    1    2    0    0  0.00000000000E+00  0.00000000000E+00 -0.59082026287E+03  0.31549386748E+04  0.30991239824E+04 0.  0.
        3    1    3    3  502    0 -0.33396558776E+03 -0.10072505253E+04 -0.14449301876E+04  0.17927380991E+04  0.10100000352E+00 0.  1.
       -3    1    3    3    0  502  0.33396558776E+03  0.10072505253E+04  0.85410992476E+03  0.13622005757E+04  0.10100000352E+00 0. -1.
</event>
<event>
 5   0  0.1325713E-07  0.3099624E+04  0.7818609E-02  0.8215841E-01
       -2   -1    0    0    0  501  0.00000000000E+00  0.00000000000E+00  0.19760443640E+04  0.19760443640E+04  0.25500000920E-02 0.  1.
        2   -1    0    0  501    0  0.00000000000E+00  0.00000000000E+00 -0.12155178653E+04  0.12155178653E+04  0.25500000920E-02 0. -1.
    10030    2    1    2    0    0  0.00000000000E+00  0.00000000000E+00  0.76052649874E+03  0.31915622294E+04  0.30996239947E+04 0.  0.
        4    1    3    3  502    0 -0.12833404932E+04 -0.77292372262E+03  0.78895143427E+03  0.16931685920E+04  0.12699999809E+01 0. -1.
       -4    1    3    3    0  502  0.12833404932E+04  0.77292372262E+03 -0.28424935523E+02  0.14983936373E+04  0.12699999809E+01 0.  1.
</event>
<event>
 5   0  0.4838602E-08  0.3099118E+04  0.7818609E-02  0.8215980E-01
       -1   -1    0    0    0  501  0.00000000000E+00  0.00000000000E+00  0.16066530420E+04  0.16066530420E+04  0.50400001928E-02 0. -1.
        1   -1    0    0  501    0  0.00000000000E+00  0.00000000000E+00 -0.14944942043E+04  0.14944942043E+04  0.50400001928E-02 0.  1.
    10030    2    1    2    0    0  0.00000000000E+00  0.00000000000E+00  0.11215883770E+03  0.31011472463E+04  0.30991183647E+04 0.  0.
        5    1    3    3  502    0 -0.60330373742E+02 -0.84417461553E+03  0.13549434480E+04  0.15975494899E+04  0.46999998093E+01 0. -1.
       -5    1    3    3    0  502  0.60330373742E+02  0.84417461553E+03 -0.12427846102E+04  0.15035977564E+04  0.46999998093E+01 0.  1.
</event>
<event>
 5   0  0.4517409E-08  0.3101651E+04  0.7818609E-02  0.8215285E-01
       -1   -1    0    0    0  501  0.00000000000E+00  0.00000000000E+00  0.15504185513E+04  0.15504185513E+04  0.50400001928E-02 0. -1.
        1   -1    0    0  501    0  0.00000000000E+00  0.00000000000E+00 -0.15512322465E+04  0.15512322465E+04  0.50400001928E-02 0.  1.
    10030    2    1    2    0    0  0.00000000000E+00  0.00000000000E+00 -0.81369515051E+00  0.31016507978E+04  0.31016506911E+04 0.  0.
        2    1    3    3  502    0  0.92109762230E+03  0.98258524727E+03 -0.76927920047E+03  0.15510271069E+04  0.25500000920E-02 0.  1.
       -2    1    3    3    0  502 -0.92109762230E+03 -0.98258524727E+03  0.76846550532E+03  0.15506236909E+04  0.25500000920E-02 0. -1.
</event>
<event>
 5   0  0.4517409E-08  0.3100003E+04  0.7818609E-02  0.8215737E-01
       -1   -1    0    0    0  501  0.00000000000E+00  0.00000000000E+00  0.19960528920E+04  0.19960528920E+04  0.50400001928E-02 0. -1.
        1   -1    0    0  501    0  0.00000000000E+00  0.00000000000E+00 -0.12036274471E+04  0.12036274471E+04  0.50400001928E-02 0.  1.
    10030    2    1    2    0    0  0.00000000000E+00  0.00000000000E+00  0.79242544488E+03  0.31996803391E+04  0.31000026108E+04 0.  0.
        2    1    3    3  502    0  0.53748835929E+03  0.22403726725E+03 -0.10864354268E+04  0.12326509523E+04  0.25500000920E-02 0.  1.
       -2    1    3    3    0  502 -0.53748835929E+03 -0.22403726725E+03  0.18788608717E+04  0.19670293868E+04  0.25500000920E-02 0. -1.
</event>
<event>
 5   0  0.4436241E-08  0.3103165E+04  0.7818609E-02  0.8214870E-01
        1   -1    0    0  501    0  0.00000000000E+00  0.00000000000E+00  0.19871356940E+04  0.19871356940E+04  0.50400001928E-02 0. -1.
       -1   -1    0    0    0  501  0.00000000000E+00  0.00000000000E+00 -0.12114967273E+04  0.12114967273E+04  0.50400001928E-02 0.  1.
    10030    2    1    2    0    0  0.00000000000E+00  0.00000000000E+00  0.77563896673E+03  0.31986324213E+04  0.31031650874E+04 0.  0.
        3    1    3    3  502    0  0.13735535109E+04 -0.69599698294E+03  0.19130447464E+03  0.15516631270E+04  0.10100000352E+00 0. -1.
       -3    1    3    3    0  502 -0.13735535109E+04  0.69599698294E+03  0.58433449209E+03  0.16469692943E+04  0.10100000352E+00 0.  1.
</event>
<event>
 5   0  0.1329777E-07  0.3099799E+04  0.7818609E-02  0.8215793E-01
        2   -1    0    0  501    0  0.00000000000E+00  0.00000000000E+00  0.21995169861E+04  0.21995169861E+04  0.25500000920E-02 0.  1.
       -2   -1    0    0    0  501  0.00000000000E+00  0.00000000000E+00 -0.10921436176E+04  0.10921436176E+04  0.25500000920E-02 0. -1.
    10030    2    1    2    0    0  0.00000000000E+00  0.00000000000E+00  0.11073733685E+04  0.32916606038E+04  0.30997989859E+04 0.  0.
        1    1    3    3  502    0 -0.13469236438E+04  0.27803977186E+03 -0.20516259589E+03  0.13905398620E+04  0.50400001928E-02 0.  1.
       -1    1    3    3    0  502  0.13469236438E+04 -0.27803977186E+03  0.13125359644E+04  0.19011207418E+04  0.50400001928E-02 0. -1.
</event>
<event>
 5   0  0.4436241E-08  0.3100084E+04  0.7818609E-02  0.8215715E-01
        1   -1    0    0  501    0  0.00000000000E+00  0.00000000000E+00  0.23359849693E+04  0.23359849693E+04  0.50400001928E-02 0. -1.
       -1   -1    0    0    0  501  0.00000000000E+00  0.00000000000E+00 -0.10285298710E+04  0.10285298710E+04  0.50400001928E-02 0.  1.
    10030    2    1    2    0    0  0.00000000000E+00  0.00000000000E+00  0.13074550983E+04  0.33645148403E+04  0.31000840757E+04 0.  0.
        3    1    3    3  502    0 -0.13444048949E+04  0.75899265933E+01 -0.18353474059E+03  0.13568961418E+04  0.10100000352E+00 0.  1.
       -3    1    3    3    0  502  0.13444048949E+04 -0.75899265933E+01  0.14909898389E+04  0.20076186984E+04  0.10100000352E+00 0. -1.
</event>
<event>
 5   0  0.1398931E-07  0.3098991E+04  0.7818609E-02  0.8216015E-01
        2   -1    0    0  501    0  0.00000000000E+00  0.00000000000E+00  0.15102010229E+04  0.15102010229E+04  0.25500000920E-02 0. -1.
       -2   -1    0    0    0  501  0.00000000000E+00  0.00000000000E+00 -0.15898119641E+04  0.15898119641E+04  0.25500000920E-02 0.  1.
    10030    2    1    2    0    0  0.00000000000E+00  0.00000000000E+00 -0.79610941203E+02  0.31000129869E+04  0.30989905804E+04 0.  0.
        3    1    3    3  502    0  0.79738134831E+03 -0.72512022412E+03  0.10738089903E+04  0.15214079373E+04  0.10100000352E+00 0. -1.
       -3    1    3    3    0  502 -0.79738134831E+03  0.72512022412E+03 -0.11534199315E+04  0.15786050496E+04  0.10100000352E+00 0.  1.
</event>
<event>
 5   0  0.4470354E-08  0.3097592E+04  0.7818609E-02  0.8216399E-01
       -1   -1    0    0    0  501  0.00000000000E+00  0.00000000000E+00  0.11306013524E+04  0.11306013524E+04  0.50400001928E-02 0.  1.
        1   -1    0    0  501    0  0.00000000000E+00  0.00000000000E+00 -0.21216755539E+04  0.21216755539E+04  0.50400001928E-02 0. -1.
    10030    2    1    2    0    0  0.00000000000E+00  0.00000000000E+00 -0.99107420150E+03  0.32522769064E+04  0.30975921298E+04 0.  0.
        1    1    3    3  502    0  0.10487922194E+04 -0.91629976753E+03  0.21594452240E+03  0.14093269387E+04  0.50400001928E-02 0.  1.
       -1    1    3    3    0  502 -0.10487922194E+04  0.91629976753E+03 -0.12070187239E+04  0.18429499676E+04  0.50400001928E-02 0. -1.
</event>
<event>
 5   0  0.1325713E-07  0.3096300E+04  0.7818609E-02  0.8216754E-01
       -2   -1    0    0    0  501  0.00000000000E+00  0.00000000000E+00  0.10955791094E+04  0.10955791094E+04  0.25500000920E-02 0.  1.
        2   -1    0    0  501    0  0.00000000000E+00  0.00000000000E+00 -0.21876732969E+04  0.21876732969E+04  0.25500000920E-02 0. -1.
    10030    2    1    2    0    0  0.00000000000E+00  0.00000000000E+00 -0.10920941875E+04  0.32832524063E+04  0.30963004779E+04 0.  0.
        4    1    3    3  502    0 -0.14621328784E+04  0.45459820653E+03 -0.78849036096E+03  0.17222690689E+04  0.12699999809E+01 0. -1.
       -4    1    3    3    0  502  0.14621328784E+04 -0.45459820653E+03 -0.30360382651E+03  0.15609833374E+04  0.12699999809E+01 0.  1.
</event>
<event>
 5   0  0.1325713E-07  0.3098805E+04  0.7818609E-02  0.8216066E-01
        2   -1    0    0  501    0  0.00000000000E+00  0.00000000000E+00  0.23799943045E+04  0.23799943045E+04  0.25500000920E-02 0.  1.
       -2   -1    0    0    0  501  0.00000000000E+00  0.00000000000E+00 -0.10086782152E+04  0.10086782152E+04  0.25500000920E-02 0. -1.
    10030    2    1    2    0    0  0.00000000000E+00  0.00000000000E+00  0.13713160893E+04  0.33886725197E+04  0.30988051938E+04 0.  0.
        4    1    3    3  502    0 -0.80899596198E+03 -0.72284247058E+03 -0.52401408702E+03  0.12048103918E+04  0.12699999809E+01 0. -1.
       -4    1    3    3    0  502  0.80899596198E+03  0.72284247058E+03  0.18953301763E+04  0.21838621280E+04  0.12699999809E+01 0.  1.
</event>
<event>
 5   0  0.4838602E-08  0.3100143E+04  0.7818609E-02  0.8215699E-01
        1   -1    0    0  501    0  0.00000000000E+00  0.00000000000E+00  0.20635315436E+04  0.20635315436E+04  0.50400001928E-02 0.  1.
       -1   -1    0    0    0  501  0.00000000000E+00  0.00000000000E+00 -0.11643739769E+04  0.11643739769E+04  0.50400001928E-02 0. -1.
    10030    2    1    2    0    0  0.00000000000E+00  0.00000000000E+00  0.89915756671E+03  0.32279055206E+04  0.31001434999E+04 0.  0.
        5    1    3    3  502    0 -0.31323888229E+03  0.12330354878E+04 -0.47246996866E+03  0.13571090866E+04  0.46999998093E+01 0. -1.
       -5    1    3    3    0  502  0.31323888229E+03 -0.12330354878E+04  0.13716275354E+04  0.18707964340E+04  0.46999998093E+01 0.  1.
</event>
<event>
 5   0  0.4436241E-08  0.3099395E+04  0.7818609E-02  0.8215904E-01
       -1   -1    0    0    0  501  0.00000000000E+00  0.00000000000E+00  0.11635688964E+04  0.11635688964E+04  0.50400001928E-02 0. -1.
        1   -1    0    0  501    0  0.00000000000E+00  0.00000000000E+00 -0.20639620170E+04  0.20639620170E+04  0.50400001928E-02 0.  1.
    10030    2    1    2    0    0  0.00000000000E+00  0.00000000000E+00 -0.90039312068E+03  0.32275309134E+04  0.30993947837E+04 0.  0.
        3    1    3    3  502    0 -0.62339033912E+03 -0.27888989655E+03  0.99841760331E+03  0.12096416040E+04  0.10100000352E+00 0. -1.
       -3    1    3    3    0  502  0.62339033912E+03  0.27888989655E+03 -0.18988107240E+04  0.20178893094E+04  0.10100000352E+00 0.  1.
</event>
<event>
 5   0  0.4517409E-08  0.3100348E+04  0.7818609E-02  0.8215642E-01
       -1   -1    0    0    0  501  0.00000000000E+00  0.00000000000E+00  0.13042634403E+04  0.13042634403E+04  0.50400001928E-02 0. -1.
        1   -1    0    0  501    0  0.00000000000E+00  0.00000000000E+00 -0.18424497002E+04  0.18424497002E+04  0.50400001928E-02 0.  1.
    10030    2    1    2    0    0  0.00000000000E+00  0.00000000000E+00 -0.53818625997E+03  0.31467131405E+04  0.31003482285E+04 0.  0.
        2    1    3    3  502    0 -0.68253594519E+03  0.12388034056E+04 -0.91305019378E+03  0.16834933473E+04  0.25500000920E-02 0.  1.
       -2    1    3    3    0  502  0.68253594519E+03 -0.12388034056E+04  0.37486393381E+03  0.14632197931E+04  0.25500000920E-02 0. -1.
</event>
<event>
 5   0  0.1325713E-07  0.3100268E+04  0.7818609E-02  0.8215664E-01
        2   -1    0    0  501    0  0.00000000000E+00  0.00000000000E+00  0.16100444504E+04  0.16100444504E+04  0.25500000920E-02 0. -1.
       -2   -1    0    0    0  501  0.00000000000E+00  0.00000000000E+00 -0.14924526035E+04  0.14924526035E+04  0.25500000920E-02 0.  1.
    10030    2    1    2    0    0  0.00000000000E+00  0.00000000000E+00  0.11759184695E+03  0.31024970539E+04  0.31002677508E+04 0.  0.
        4    1    3    3  502    0 -0.14256247547E+04 -0.60135083898E+03  0.15312210245E+03  0.15548237083E+04  0.12699999809E+01 0.  1.
       -4    1    3    3    0  502  0.14256247547E+04  0.60135083898E+03 -0.35530255501E+02  0.15476733456E+04  0.12699999809E+01 0. -1.
</event>
<event>
 5   0  0.4436241E-08  0.3100062E+04  0.7818609E-02  0.8215721E-01
       -1   -1    0    0    0  501  0.00000000000E+00  0.00000000000E+00  0.12639688050E+04  0.12639688050E+04  0.50400001928E-02 0. -1.
        1   -1    0    0  501    0  0.00000000000E+00  0.00000000000E+00 -0.19008350335E+04  0.19008350335E+04  0.50400001928E-02 0.  1.
    10030    2    1    2    0    0  0.00000000000E+00  0.00000000000E+00 -0.63686622844E+03  0.31648038385E+04  0.31000620547E+04 0.  0.
        3    1    3    3  502    0 -0.62566366920E+03 -0.70116983321E+03 -0.15768572794E+04  0.18356396846E+04  0.10100000352E+00 0.  1.
       -3    1    3    3    0  502  0.62566366920E+03  0.70116983321E+03  0.93999105093E+03  0.13291641539E+04  0.10100000352E+00 0. -1.
</event>
<event>
 5   0  0.1377237E-07  0.3103880E+04  0.7818609E-02  0.8214674E-01
        2   -1    0    0  501    0  0.00000000000E+00  0.00000000000E+00  0.20555411967E+04  0.20555411967E+04  0.25500000920E-02 0.  1.
       -2   -1    0    0    0  501  0.00000000000E+00  0.00000000000E+00 -0.11717193409E+04  0.11717193409E+04  0.25500000920E-02 0. -1.
    10030    2    1    2    0    0  0.00000000000E+00  0.00000000000E+00  0.88382185584E+03  0.32272605376E+04  0.31038797503E+04 0.  0.
        2    1    3    3  502    0  0.61035548095E+03  0.63916645520E+03 -0.88451481303E+03  0.12503735542E+04  0.25500000920E-02 0. -1.
       -2    1    3    3    0  502 -0.61035548095E+03 -0.63916645520E+03  0.17683366689E+04  0.19768869834E+04  0.25500000920E-02 0.  1.
</event>
<event>
 5   0  0.1325713E-07  0.3100238E+04  0.7818609E-02  0.8215673E-01
       -2   -1    0    0    0  501  0.00000000000E+00  0.00000000000E+00  0.14915746700E+04  0.14915746700E+04  0.25500000920E-02 0. -1.
        2   -1    0    0  501    0  0.00000000000E+00  0.00000000000E+00 -0.16109608805E+04  0.16109608805E+04  0.25500000920E-02 0.  1.
    10030    2    1    2    0    0  0.00000000000E+00  0.00000000000E+00 -0.11938621049E+03  0.31025355505E+04  0.31002376965E+04 0.  0.
        4    1    3    3  502    0  0.78870808438E+03  0.41474050770E+02  0.12751194426E+04  0.14999039120E+04  0.12699999809E+01 0. -1.
       -4    1    3    3    0  502 -0.78870808438E+03 -0.41474050770E+02 -0.13945056531E+04  0.16026316385E+04  0.12699999809E+01 0.  1.
</event>
<event>
 5   0  0.4838602E-08  0.3100539E+04  0.7818609E-02  0.8215590E-01
        1   -1    0    0  501    0  0.00000000000E+00  0.00000000000E+00  0.23814522232E+04  0.23814522232E+04  0.50400001928E-02 0.  1.
       -1   -1    0    0    0  501  0.00000000000E+00  0.00000000000E+00 -0.10091892504E+04  0.10091892504E+04  0.50400001928E-02 0. -1.
    10030    2    1    2    0    0  0.00000000000E+00  0.00000000000E+00  0.13722629729E+04  0.33906414736E+04  0.31005392976E+04 0.  0.
        5    1    3    3  502    0  0.72621247244E+03 -0.14776324707E+03 -0.80292325386E+03  0.10926693800E+04  0.46999998093E+01 0. -1.
       -5    1    3    3    0  502 -0.72621247244E+03  0.14776324707E+03  0.21751862267E+04  0.22979720937E+04  0.46999998093E+01 0.  1.
</event>
<event>
 5   0  0.4517409E-08  0.3099870E+04  0.7818609E-02  0.8215774E-01
        1   -1    0    0  501    0  0.00000000000E+00  0.00000000000E+00  0.18998702860E+04  0.18998702860E+04  0.50400001928E-02 0.  1.
       -1   -1    0    0    0  501  0.00000000000E+00  0.00000000000E+00 -0.12644539981E+04  0.12644539981E+04  0.50400001928E-02 0. -1.
    10030    2    1    2    0    0  0.00000000000E+00  0.00000000000E+00  0.63541628793E+03  0.31643242841E+04  0.30998700483E+04 0.  0.
        2    1    3    3  502    0 -0.24976071934E+03  0.10607813028E+04 -0.80732437008E+03  0.13562485126E+04  0.25500000920E-02 0. -1.
       -2    1    3    3    0  502  0.24976071934E+03 -0.10607813028E+04  0.14427406580E+04  0.18080757715E+04  0.25500000920E-02 0.  1.
</event>
<event>
 5   0  0.1377237E-07  0.3098431E+04  0.7818609E-02  0.8216169E-01
        2   -1    0    0  501    0  0.00000000000E+00  0.00000000000E+00  0.16803250345E+04  0.16803250345E+04  0.25500000920E-02 0.  1.
       -2   -1    0    0    0  501  0.00000000000E+00  0.00000000000E+00 -0.14283356730E+04  0.14283356730E+04  0.25500000920E-02 0. -1.
    10030    2    1    2    0    0  0.00000000000E+00  0.00000000000E+00  0.25198936147E+03  0.31086607076E+04  0.30984306925E+04 0.  0.
        2    1    3    3  502    0 -0.57215772997E+01 -0.90978514265E+02  0.16776318996E+04  0.16801067278E+04  0.25500000920E-02 0.  1.
       -2    1    3    3    0  502  0.57215772997E+01  0.90978514265E+02 -0.14256425381E+04  0.14285539797E+04  0.25500000920E-02 0. -1.
</event>
<event>
 5   0  0.1398931E-07  0.3107807E+04  0.7818609E-02  0.8213599E-01
       -2   -1    0    0    0  501  0.00000000000E+00  0.00000000000E+00  0.97326919684E+03  0.97326919684E+03  0.25500000920E-02 0. -1.
        2   -1    0    0  501    0  0.00000000000E+00  0.00000000000E+00 -0.24809329190E+04  0.24809329190E+04  0.25500000920E-02 0.  1.
    10030    2    1    2    0    0  0.00000000000E+00  0.00000000000E+00 -0.15076637221E+04  0.34542021158E+04  0.31078066796E+04 0.  0.
        3    1    3    3  502    0  0.29065089208E+03 -0.15066659183E+04 -0.10262992576E+04  0.18460255433E+04  0.10100000352E+00 0.  1.
       -3    1    3    3    0  502 -0.29065089208E+03  0.15066659183E+04 -0.48136446450E+03  0.16081765725E+04  0.10100000352E+00 0. -1.
</event>
<event>
 5   0  0.1318916E-07  0.3099355E+04  0.7818609E-02  0.8215915E-01
        2   -1    0    0  501    0  0.00000000000E+00  0.00000000000E+00  0.19153331626E+04  0.19153331626E+04  0.25500000920E-02 0.  1.
       -2   -1    0    0    0  501  0.00000000000E+00  0.00000000000E+00 -0.12538293318E+04  0.12538293318E+04  0.25500000920E-02 0. -1.
    10030    2    1    2    0    0  0.00000000000E+00  0.00000000000E+00  0.66150383079E+03  0.31691624944E+04  0.30993553520E+04 0.  0.
        5    1    3    3  502    0  0.55653448631E+03  0.68535821028E+03 -0.97152362622E+03  0.13127554064E+04  0.46999998093E+01 0. -1.
       -5    1    3    3    0  502 -0.55653448631E+03 -0.68535821028E+03  0.16330274570E+04  0.18564070880E+04  0.46999998093E+01 0.  1.
</event>
<event>
 5   0  0.4517409E-08  0.3100335E+04  0.7818609E-02  0.8215646E-01
       -1   -1    0    0    0  501  0.00000000000E+00  0.00000000000E+00  0.19932527937E+04  0.19932527937E+04  0.50400001928E-02 0. -1.
        1   -1    0    0  501    0  0.00000000000E+00  0.00000000000E+00 -0.12055765072E+04  0.12055765072E+04  0.50400001928E-02 0.  1.
    10030    2    1    2    0    0  0.00000000000E+00  0.00000000000E+00  0.78767628650E+03  0.31988293009E+04  0.31003346535E+04 0.  0.
        2    1    3    3  502    0 -0.15766626774E+03  0.13279620392E+02 -0.11972232261E+04  0.12076334101E+04  0.25500000920E-02 0.  1.
       -2    1    3    3    0  502  0.15766626774E+03 -0.13279620392E+02  0.19848995126E+04  0.19911958907E+04  0.25500000920E-02 0. -1.
</event>
<event>
 5   0  0.1377237E-07  0.3096347E+04  0.7818609E-02  0.8216741E-01
       -2   -1    0    0    0  501  0.00000000000E+00  0.00000000000E+00  0.13528516792E+04  0.13528516793E+04  0.25500000920E-02 0. -1.
        2   -1    0    0  501    0  0.00000000000E+00  0.00000000000E+00 -0.17716957431E+04  0.17716957431E+04  0.25500000920E-02 0.  1.
    10030    2    1    2    0    0  0.00000000000E+00  0.00000000000E+00 -0.41884406382E+03  0.31245474223E+04  0.30963472422E+04 0.  0.
        2    1    3    3  502    0  0.62938348626E+02 -0.10009998796E+04  0.98067459671E+03  0.14027418363E+04  0.25500000920E-02 0. -1.
       -2    1    3    3    0  502 -0.62938348626E+02  0.10009998796E+04 -0.13995186605E+04  0.17218055860E+04  0.25500000920E-02 0.  1.
</event>
<event>
 5   0  0.4517409E-08  0.3098807E+04  0.7818609E-02  0.8216065E-01
       -1   -1    0    0    0  501  0.00000000000E+00  0.00000000000E+00  0.17660743548E+04  0.17660743548E+04  0.50400001928E-02 0.  1.
        1   -1    0    0  501    0  0.00000000000E+00  0.00000000000E+00 -0.13593149242E+04  0.13593149242E+04  0.50400001928E-02 0. -1.
    10030    2    1    2    0    0  0.00000000000E+00  0.00000000000E+00  0.40675943066E+03  0.31253892790E+04  0.30988070142E+04 0.  0.
        2    1    3    3  502    0  0.87993938037E+03 -0.86703158808E+03 -0.73985078331E+03  0.14399362032E+04  0.25500000920E-02 0. -1.
       -2    1    3    3    0  502 -0.87993938037E+03  0.86703158808E+03  0.11466102140E+04  0.16854530758E+04  0.25500000920E-02 0.  1.
</event>
<event>
 5   0  0.1318916E-07  0.3101050E+04  0.7818609E-02  0.8215450E-01
       -2   -1    0    0    0  501  0.00000000000E+00  0.00000000000E+00  0.13325310890E+04  0.13325310890E+04  0.25500000920E-02 0. -1.
        2   -1    0    0  501    0  0.00000000000E+00  0.00000000000E+00 -0.18041811927E+04  0.18041811927E+04  0.25500000920E-02 0.  1.
    10030    2    1    2    0    0  0.00000000000E+00  0.00000000000E+00 -0.47165010371E+03  0.31367122818E+04  0.31010498413E+04 0.  0.
        5    1    3    3  502    0  0.53651930844E+03 -0.82311747533E+02 -0.17049318240E+04  0.17892576133E+04  0.46999998093E+01 0.  1.
       -5    1    3    3    0  502 -0.53651930844E+03  0.82311747533E+02  0.12332817203E+04  0.13474546685E+04  0.46999998093E+01 0. -1.
</event>
<event>
 5   0  0.4470354E-08  0.3101100E+04  0.7818609E-02  0.8215436E-01
        1   -1    0    0  501    0  0.00000000000E+00  0.00000000000E+00  0.19150727519E+04  0.19150727519E+04  0.50400001928E-02 0. -1.
       -1   -1    0    0    0  501  0.00000000000E+00  0.00000000000E+00 -0.12554123083E+04  0.12554123083E+04  0.50400001928E-02 0.  1.
    10030    2    1    2    0    0  0.00000000000E+00  0.00000000000E+00  0.65966044364E+03  0.31704850602E+04  0.31011003879E+04 0.  0.
        1    1    3    3  502    0  0.15279193601E+04  0.14920188933E+03  0.55243358133E+03  0.16315580396E+04  0.50400001928E-02 0. -1.
       -1    1    3    3    0  502 -0.15279193601E+04 -0.14920188933E+03  0.10722686230E+03  0.15389270206E+04  0.50400001928E-02 0.  1.
</event>
<event>
 5   0  0.4450600E-08  0.3100261E+04  0.7818609E-02  0.8215666E-01
       -1   -1    0    0    0  501  0.00000000000E+00  0.00000000000E+00  0.17286543678E+04  0.17286543678E+04  0.50400001928E-02 0.  1.
        1   -1    0    0  501    0  0.00000000000E+00  0.00000000000E+00 -0.13900434740E+04  0.13900434740E+04  0.50400001928E-02 0. -1.
    10030    2    1    2    0    0  0.00000000000E+00  0.00000000000E+00  0.33861089387E+03  0.31186978418E+04  0.31002611005E+04 0.  0.
        4    1    3    3  502    0  0.11140887431E+04  0.10732156041E+04  0.69125820950E+02  0.15484719734E+04  0.12699999809E+01 0. -1.
       -4    1    3    3    0  502 -0.11140887431E+04 -0.10732156041E+04  0.26948507292E+03  0.15702258684E+04  0.12699999809E+01 0.  1.
</event>
<event>
 5   0  0.4470354E-08  0.3100035E+04  0.7818609E-02  0.8215728E-01
       -1   -1    0    0    0  501  0.00000000000E+00  0.00000000000E+00  0.14578407574E+04  0.14578407574E+04  0.50400001928E-02 0. -1.
        1   -1    0    0  501    0  0.00000000000E+00  0.00000000000E+00 -0.16480226186E+04  0.16480226186E+04  0.50400001928E-02 0.  1.
    10030    2    1    2    0    0  0.00000000000E+00  0.00000000000E+00 -0.19018186122E+03  0.31058633761E+04  0.31000351886E+04 0.  0.
        1    1    3    3  502    0  0.96833262971E+03 -0.11894478375E+04  0.12916084948E+03  0.15392000406E+04  0.50400001928E-02 0.  1.
       -1    1    3    3    0  502 -0.96833262971E+03  0.11894478375E+04 -0.31934271070E+03  0.15666633355E+04  0.50400001928E-02 0. -1.
</event>
<event>
 5   0  0.1318916E-07  0.3099526E+04  0.7818609E-02  0.8215868E-01
       -2   -1    0    0    0  501  0.00000000000E+00  0.00000000000E+00  0.13399774692E+04  0.13399774692E+04  0.25500000920E-02 0. -1.
        2   -1    0    0  501    0  0.00000000000E+00  0.00000000000E+00 -0.17923918412E+04  0.17923918412E+04  0.25500000920E-02 0.  1.
    10030    2    1    2    0    0  0.00000000000E+00  0.00000000000E+00 -0.45241437204E+03  0.31323693105E+04  0.30995255658E+04 0.  0.
        5    1    3    3  502    0 -0.12163229230E+04  0.86815281565E+03 -0.64118201727E+03  0.16261203011E+04  0.46999998093E+01 0.  1.
       -5    1    3    3    0  502  0.12163229230E+04 -0.86815281565E+03  0.18876764523E+03  0.15062490094E+04  0.46999998093E+01 0. -1.
</event>
<event>
 5   0  0.4838602E-08  0.3100379E+04  0.7818609E-02  0.8215634E-01
        1   -1    0    0  501    0  0.00000000000E+00  0.00000000000E+00  0.85724501117E+03  0.85724501118E+03  0.50400001928E-02 0. -1.
       -1   -1    0    0    0  501  0.00000000000E+00  0.00000000000E+00 -0.28032683453E+04  0.28032683454E+04  0.50400001928E-02 0.  1.
    10030    2    1    2    0    0  0.00000000000E+00  0.00000000000E+00 -0.19460233342E+04  0.36605133565E+04  0.31003792052E+04 0.  0.
        5    1    3    3  502    0  0.79431844968E+03  0.83408772429E+03 -0.21979617150E+04  0.24814717250E+04  0.46999998093E+01 0.  1.
       -5    1    3    3    0  502 -0.79431844968E+03 -0.83408772429E+03  0.25193838078E+03  0.11790416316E+04  0.46999998093E+01 0. -1.
</event>
<event>
 5   0  0.4436241E-08  0.3100792E+04  0.7818609E-02  0.8215521E-01
        1   -1    0    0  501    0  0.00000000000E+00  0.00000000000E+00  0.15265771932E+04  0.15265771932E+04  0.50400001928E-02 0.  1.
       -1   -1    0    0    0  501  0.00000000000E+00  0.00000000000E+00 -0.15745860996E+04  0.15745860996E+04  0.50400001928E-02 0. -1.
    10030    2    1    2    0    0  0.00000000000E+00  0.00000000000E+00 -0.48008906380E+02  0.31011632928E+04  0.31007916591E+04 0.  0.
        3    1    3    3  502    0 -0.22876229916E+03 -0.14438927986E+04 -0.54036916500E+03  0.15585754548E+04  0.10100000352E+00 0. -1.
       -3    1    3    3    0  502  0.22876229916E+03  0.14438927986E+04  0.49236025862E+03  0.15425878380E+04  0.10100000352E+00 0.  1.
</event>
<event>
 5   0  0.1329777E-07  0.3099684E+04  0.7818609E-02  0.8215825E-01
        2   -1    0    0  501    0  0.00000000000E+00  0.00000000000E+00  0.11582254824E+04  0.11582254824E+04  0.25500000920E-02 0.  1.
       -2   -1    0    0    0  501  0.00000000000E+00  0.00000000000E+00 -0.20738713651E+04  0.20738713651E+04  0.25500000920E-02 0. -1.
    10030    2    1    2    0    0  0.00000000000E+00  0.00000000000E+00 -0.91564588272E+03  0.32320968476E+04  0.30996842822E+04 0.  0.
        1    1    3    3  502    0  0.32480613431E+02  0.30189648913E+03  0.11269075943E+04  0.11670977708E+04  0.50400001928E-02 0.  1.
       -1    1    3    3    0  502 -0.32480613431E+02 -0.30189648913E+03 -0.20425534771E+04  0.20649990768E+04  0.50400001928E-02 0. -1.
</event>
<event>
 5   0  0.4436241E-08  0.3099939E+04  0.7818609E-02  0.8215755E-01
       -1   -1    0    0    0  501  0.00000000000E+00  0.00000000000E+00  0.13097836838E+04  0.13097836838E+04  0.50400001928E-02 0.  1.
        1   -1    0    0  501    0  0.00000000000E+00  0.00000000000E+00 -0.18341997949E+04  0.18341997949E+04  0.50400001928E-02 0. -1.
    10030    2    1    2    0    0  0.00000000000E+00  0.00000000000E+00 -0.52441611115E+03  0.31439834787E+04  0.30999386860E+04 0.  0.
        3    1    3    3  502    0 -0.26082244889E+03  0.15892976261E+03 -0.18033768557E+04  0.18290585320E+04  0.10100000352E+00 0. -1.
       -3    1    3    3    0  502  0.26082244889E+03 -0.15892976261E+03  0.12789607446E+04  0.13149249468E+04  0.10100000352E+00 0.  1.
</event>
<event>
 5   0  0.1398931E-07  0.3100012E+04  0.7818609E-02  0.8215735E-01
       -2   -1    0    0    0  501  0.00000000000E+00  0.00000000000E+00  0.15048372092E+04  0.15048372092E+04  0.25500000920E-02 0. -1.
        2   -1    0    0  501    0  0.00000000000E+00  0.00000000000E+00 -0.15965308258E+04  0.15965308258E+04  0.25500000920E-02 0.  1.
    10030    2    1    2    0    0  0.00000000000E+00  0.00000000000E+00 -0.91693616599E+02  0.31013680349E+04  0.31000122530E+04 0.  0.
        3    1    3    3  502    0 -0.10053638681E+04  0.11779373521E+04  0.19189847573E+02  0.15487611737E+04  0.10100000352E+00 0.  1.
       -3    1    3    3    0  502  0.10053638681E+04 -0.11779373521E+04 -0.11088346417E+03  0.15526068612E+04  0.10100000352E+00 0. -1.
</event>
<event>
 5   0  0.4470354E-08  0.3100644E+04  0.7818609E-02  0.8215561E-01
       -1   -1    0    0    0  501  0.00000000000E+00  0.00000000000E+00  0.19359523674E+04  0.19359523675E+04  0.50400001928E-02 0. -1.
        1   -1    0    0  501    0  0.00000000000E+00  0.00000000000E+00 -0.12415070287E+04  0.12415070287E+04  0.50400001928E-02 0.  1.
    10030    2    1    2    0    0  0.00000000000E+00  0.00000000000E+00  0.69444533874E+03  0.31774593962E+04  0.31006441082E+04 0.  0.
        1    1    3    3  502    0  0.12206030114E+04 -0.43977359099E+03  0.12169086532E+04  0.17788027415E+04  0.50400001928E-02 0. -1.
       -1    1    3    3    0  502 -0.12206030114E+04  0.43977359099E+03 -0.52246331445E+03  0.13986566547E+04  0.50400001928E-02 0.  1.
</event>
<event>
 5   0  0.4470354E-08  0.3100263E+04  0.7818609E-02  0.8215666E-01
       -1   -1    0    0    0  501  0.00000000000E+00  0.00000000000E+00  0.11942592190E+04  0.11942592190E+04  0.50400001928E-02 0. -1.
        1   -1    0    0  501    0  0.00000000000E+00  0.00000000000E+00 -0.20120490495E+04  0.20120490495E+04  0.50400001928E-02 0.  1.
    10030    2    1    2    0    0  0.00000000000E+00  0.00000000000E+00 -0.81778983050E+03  0.32063082685E+04  0.31002632962E+04 0.  0.
        1    1    3    3  502    0 -0.28077768183E+03  0.10891666912E+04  0.69426217098E+03  0.13217867263E+04  0.50400001928E-02 0. -1.
       -1    1    3    3    0  502  0.28077768183E+03 -0.10891666912E+04 -0.15120520015E+04  0.18845215422E+04  0.50400001928E-02 0.  1.
</event>
<event>
 5   0  0.1329777E-07  0.3099112E+04  0.7818609E-02  0.8215982E-01
        2   -1    0    0  501    0  0.00000000000E+00  0.00000000000E+00  0.26915427403E+04  0.26915427403E+04  0.25500000920E-02 0.  1.
       -2   -1    0    0    0  501  0.00000000000E+00  0.00000000000E+00 -0.89209966326E+03  0.89209966327E+03  0.25500000920E-02 0. -1.
    10030    2    1    2    0    0  0.00000000000E+00  0.00000000000E+00  0.17994430770E+04  0.35836424035E+04  0.30991123712E+04 0.  0.
        1    1    3    3  502    0 -0.38373028562E+03  0.10115654119E+04  0.21824883478E+04  0.24359328610E+04  0.50400001928E-02 0.  1.
       -1    1    3    3    0  502  0.38373028562E+03 -0.10115654119E+04 -0.38304527084E+03  0.11477095426E+04  0.50400001928E-02 0. -1.
</event>
<event>
 5   0  0.4436241E-08  0.3099569E+04  0.7818609E-02  0.8215856E-01
        1   -1    0    0  501    0  0.00000000000E+00  0.00000000000E+00  0.15195397542E+04  0.15195397542E+04  0.50400001928E-02 0.  1.
       -1   -1    0    0    0  501  0.00000000000E+00  0.00000000000E+00 -0.15806317191E+04  0.15806317191E+04  0.50400001928E-02 0. -1.
    10030    2    1    2    0    0  0.00000000000E+00  0.00000000000E+00 -0.61091964953E+02  0.31001714733E+04  0.30995694759E+04 0.  0.
        3    1    3    3  502    0  0.44788859636E+03 -0.12726067521E+04 -0.79338709356E+03  0.15651182801E+04  0.10100000352E+00 0. -1.
       -3    1    3    3    0  502 -0.44788859636E+03  0.12726067521E+04  0.73229512861E+03  0.15350531932E+04  0.10100000352E+00 0.  1.
</event>
<event>
 5   0  0.4470354E-08  0.3100968E+04  0.7818609E-02  0.8215472E-01
       -1   -1    0    0    0  501  0.00000000000E+00  0.00000000000E+00  0.96592123423E+03  0.96592123424E+03  0.50400001928E-02 0.  1.
        1   -1    0    0  501    0  0.00000000000E+00  0.00000000000E+00 -0.24888170265E+04  0.24888170265E+04  0.50400001928E-02 0. -1.
    10030    2    1    2    0    0  0.00000000000E+00  0.00000000000E+00 -0.15228957923E+04  0.34547382608E+04  0.31009683740E+04 0.  0.
        1    1    3    3  502    0 -0.11659101913E+04  0.71575761629E+03  0.51410091222E+02  0.13690502317E+04  0.50400001928E-02 0.  1.
       -1    1    3    3    0  502  0.11659101913E+04 -0.71575761629E+03 -0.15743058835E+04  0.20856880290E+04  0.50400001928E-02 0. -1.
</event>
<event>
 5   0  0.1398931E-07  0.3099982E+04  0.7818609E-02  0.8215743E-01
        2   -1    0    0  501    0  0.00000000000E+00  0.00000000000E+00  0.18791082505E+04  0.18791082505E+04  0.25500000920E-02 0. -1.
       -2   -1    0    0    0  501  0.00000000000E+00  0.00000000000E+00 -0.12785173917E+04  0.12785173917E+04  0.25500000920E-02 0.  1.
    10030    2    1    2    0    0  0.00000000000E+00  0.00000000000E+00  0.60059085887E+03  0.31576256422E+04  0.30999823090E+04 0.  0.
        3    1    3    3  502    0 -0.63978626425E+03  0.94428783743E+03  0.13693185252E+04  0.17821445558E+04  0.10100000352E+00 0. -1.
       -3    1    3    3    0  502  0.63978626425E+03 -0.94428783743E+03 -0.76872766638E+03  0.13754810864E+04  0.10100000352E+00 0.  1.
</event>
<event>
 5   0  0.1318916E-07  0.3101015E+04  0.7818609E-02  0.8215459E-01
       -2   -1    0    0    0  501  0.00000000000E+00  0.00000000000E+00  0.16260368161E+04  0.16260368161E+04  0.25500000920E-02 0.  1.
        2   -1    0    0  501    0  0.00000000000E+00  0.00000000000E+00 -0.14784869361E+04  0.14784869361E+04  0.25500000920E-02 0. -1.
    10030    2    1    2    0    0  0.00000000000E+00  0.00000000000E+00  0.14754987999E+03  0.31045237522E+04  0.31010154403E+04 0.  0.
        5    1    3    3  502    0  0.15200396653E+03  0.72909634053E+03  0.14352272236E+04  0.16169681361E+04  0.46999998093E+01 0.  1.
       -5    1    3    3    0  502 -0.15200396653E+03 -0.72909634053E+03 -0.12876773437E+04  0.14875556161E+04  0.46999998093E+01 0. -1.
</event>
<event>
 5   0  0.1377237E-07  0.3099914E+04  0.7818609E-02  0.8215762E-01
       -2   -1    0    0    0  501  0.00000000000E+00  0.00000000000E+00  0.11204417273E+04  0.11204417273E+04  0.25500000920E-02 0.  1.
        2   -1    0    0  501    0  0.00000000000E+00  0.00000000000E+00 -0.21441240605E+04  0.21441240605E+04  0.25500000920E-02 0. -1.
    10030    2    1    2    0    0  0.00000000000E+00  0.00000000000E+00 -0.10236823332E+04  0.32645657878E+04  0.30999135897E+04 0.  0.
        2    1    3    3  502    0  0.26161060584E+03  0.50499840545E+03  0.10065822922E+04  0.11561450642E+04  0.25500000920E-02 0.  1.
       -2    1    3    3    0  502 -0.26161060584E+03 -0.50499840545E+03 -0.20302646253E+04  0.21084207236E+04  0.25500000920E-02 0. -1.
</event>
<event>
 5   0  0.1377237E-07  0.3104649E+04  0.7818609E-02  0.8214463E-01
       -2   -1    0    0    0  501  0.00000000000E+00  0.00000000000E+00  0.12903785209E+04  0.12903785209E+04  0.25500000920E-02 0. -1.
        2   -1    0    0  501    0  0.00000000000E+00  0.00000000000E+00 -0.18674456800E+04  0.18674456800E+04  0.25500000920E-02 0.  1.
    10030    2    1    2    0    0  0.00000000000E+00  0.00000000000E+00 -0.57706715908E+03  0.31578242009E+04  0.31046492842E+04 0.  0.
        2    1    3    3  502    0  0.12293518639E+04  0.83561653947E+03 -0.74357827265E+03  0.16620678848E+04  0.25500000920E-02 0.  1.
       -2    1    3    3    0  502 -0.12293518639E+04 -0.83561653947E+03  0.16651111357E+03  0.14957563161E+04  0.25500000920E-02 0. -1.
</event>
<event>
 5   0  0.1398931E-07  0.3100854E+04  0.7818609E-02  0.8215504E-01
       -2   -1    0    0    0  501  0.00000000000E+00  0.00000000000E+00  0.11824060564E+04  0.11824060564E+04  0.25500000920E-02 0.  1.
        2   -1    0    0  501    0  0.00000000000E+00  0.00000000000E+00 -0.20329932520E+04  0.20329932521E+04  0.25500000920E-02 0. -1.
    10030    2    1    2    0    0  0.00000000000E+00  0.00000000000E+00 -0.85058719569E+03  0.32153993084E+04  0.31008537752E+04 0.  0.
        3    1    3    3  502    0 -0.89991902398E+03  0.33600725390E+02 -0.17339925052E+04  0.19538969463E+04  0.10100000352E+00 0. -1.
       -3    1    3    3    0  502  0.89991902398E+03 -0.33600725390E+02  0.88340530953E+03  0.12615023621E+04  0.10100000352E+00 0.  1.
</event>
<event>
 5   0  0.4517409E-08  0.3100566E+04  0.7818609E-02  0.8215583E-01
       -1   -1    0    0    0  501  0.00000000000E+00  0.00000000000E+00  0.15190666319E+04  0.15190666319E+04  0.50400001928E-02 0.  1.
        1   -1    0    0  501    0  0.00000000000E+00  0.00000000000E+00 -0.15821403850E+04  0.15821403850E+04  0.50400001928E-02 0. -1.
    10030    2    1    2    0    0  0.00000000000E+00  0.00000000000E+00 -0.63073753119E+02  0.31012070170E+04  0.31005655393E+04 0.  0.
        2    1    3    3  502    0  0.81535051079E+03  0.78958199535E+03  0.10246837230E+04  0.15291216155E+04  0.25500000920E-02 0.  1.
       -2    1    3    3    0  502 -0.81535051079E+03 -0.78958199535E+03 -0.10877574761E+04  0.15720854015E+04  0.25500000920E-02 0. -1.
</event>
<event>
 5   0  0.1329777E-07  0.3097496E+04  0.7818609E-02  0.8216426E-01
        2   -1    0    0  501    0  0.00000000000E+00  0.00000000000E+00  0.23806804786E+04  0.23806804786E+04  0.25500000920E-02 0.  1.
       -2   -1    0    0    0  501  0.00000000000E+00  0.00000000000E+00 -0.10075354235E+04  0.10075354235E+04  0.25500000920E-02 0. -1.
    10030    2    1    2    0    0  0.00000000000E+00  0.00000000000E+00  0.13731450550E+04  0.33882159021E+04  0.30974957073E+04 0.  0.
        1    1    3    3  502    0  0.94787712142E+03  0.64847557135E+03 -0.45000089237E+03  0.12334879031E+04  0.50400001928E-02 0. -1.
       -1    1    3    3    0  502 -0.94787712142E+03 -0.64847557135E+03  0.18231459474E+04  0.21547279990E+04  0.50400001928E-02 0.  1.
</event>
<event>
 5   0  0.4436241E-08  0.3100098E+04  0.7818609E-02  0.8215711E-01
       -1   -1    0    0    0  501  0.00000000000E+00  0.00000000000E+00  0.30144298504E+04  0.30144298504E+04  0.50400001928E-02 0. -1.
        1   -1    0    0  501    0  0.00000000000E+00  0.00000000000E+00 -0.79705009561E+03  0.79705009563E+03  0.50400001928E-02 0.  1.
    10030    2    1    2    0    0  0.00000000000E+00  0.00000000000E+00  0.22173797548E+04  0.38114799461E+04  0.31000978053E+04 0.  0.
        3    1    3    3  502    0 -0.89088651525E+03  0.49364602861E+03  0.25452709045E+04  0.27414903196E+04  0.10100000352E+00 0. -1.
       -3    1    3    3    0  502  0.89088651525E+03 -0.49364602861E+03 -0.32789114969E+03  0.10699896265E+04  0.10100000352E+00 0.  1.
</event>
<event>
 5   0  0.4436241E-08  0.3101071E+04  0.7818609E-02  0.8215444E-01
       -1   -1    0    0    0  501  0.00000000000E+00  0.00000000000E+00  0.19550887068E+04  0.19550887068E+04  0.50400001928E-02 0. -1.
        1   -1    0    0  501    0  0.00000000000E+00  0.00000000000E+00 -0.12296935083E+04  0.12296935083E+04  0.50400001928E-02 0.  1.
    10030    2    1    2    0    0  0.00000000000E+00  0.00000000000E+00  0.72539519849E+03  0.31847822152E+04  0.31010707125E+04 0.  0.
        3    1    3    3  502    0  0.39693681229E+03 -0.12870596588E+04  0.11515994211E+04  0.17720786200E+04  0.10100000352E+00 0. -1.
       -3    1    3    3    0  502 -0.39693681229E+03  0.12870596588E+04 -0.42620422265E+03  0.14127035952E+04  0.10100000352E+00 0.  1.
</event>
<event>
 5   0  0.4450600E-08  0.3099593E+04  0.7818609E-02  0.8215850E-01
       -1   -1    0    0    0  501  0.00000000000E+00  0.00000000000E+00  0.12471713376E+04  0.12471713376E+04  0.50400001928E-02 0. -1.
        1   -1    0    0  501    0  0.00000000000E+00  0.00000000000E+00 -0.19258537310E+04  0.19258537310E+04  0.50400001928E-02 0.  1.
    10030    2    1    2    0    0  0.00000000000E+00  0.00000000000E+00 -0.67868239333E+03  0.31730250686E+04  0.30995932467E+04 0.  0.
        4    1    3    3  502    0 -0.10879700493E+04 -0.52737601140E+03  0.65319746615E+03  0.13742171693E+04  0.12699999809E+01 0. -1.
       -4    1    3    3    0  502  0.10879700493E+04  0.52737601140E+03 -0.13318798595E+04  0.17988078993E+04  0.12699999809E+01 0.  1.
</event>
<event>
 5   0  0.1325713E-07  0.3100436E+04  0.7818609E-02  0.8215618E-01
        2   -1    0    0  501    0  0.00000000000E+00  0.00000000000E+00  0.17683262556E+04  0.17683262556E+04  0.25500000920E-02 0.  1.
       -2   -1    0    0    0  501  0.00000000000E+00  0.00000000000E+00 -0.13590118731E+04  0.13590118731E+04  0.25500000920E-02 0. -1.
    10030    2    1    2    0    0  0.00000000000E+00  0.00000000000E+00  0.40931438248E+03  0.31273381286E+04  0.31004363414E+04 0.  0.
        4    1    3    3  502    0 -0.40425306981E+03  0.13833316202E+04 -0.37139161334E+03  0.14882742554E+04  0.12699999809E+01 0. -1.
       -4    1    3    3    0  502  0.40425306981E+03 -0.13833316202E+04  0.78070599583E+03  0.16390638733E+04  0.12699999809E+01 0.  1.
</event>
<event>
 5   0  0.4436241E-08  0.3099895E+04  0.7818609E-02  0.8215767E-01
        1   -1    0    0  501    0  0.00000000000E+00  0.00000000000E+00  0.30568288812E+04  0.30568288812E+04  0.50400001928E-02 0.  1.
       -1   -1    0    0    0  501  0.00000000000E+00  0.00000000000E+00 -0.78589207152E+03  0.78589207153E+03  0.50400001928E-02 0. -1.
    10030    2    1    2    0    0  0.00000000000E+00  0.00000000000E+00  0.22709368097E+04  0.38427209527E+04  0.30998952123E+04 0.  0.
        3    1    3    3  502    0 -0.72485108940E+02  0.15481644963E+04  0.11558441110E+04  0.19334019287E+04  0.10100000352E+00 0. -1.
       -3    1    3    3    0  502  0.72485108940E+02 -0.15481644963E+04  0.11150926987E+04  0.19093190240E+04  0.10100000352E+00 0.  1.
</event>
<event>
 5   0  0.1318916E-07  0.3100259E+04  0.7818609E-02  0.8215667E-01
        2   -1    0    0  501    0  0.00000000000E+00  0.00000000000E+00  0.27894891051E+04  0.27894891051E+04  0.25500000920E-02 0.  1.
       -2   -1    0    0    0  501  0.00000000000E+00  0.00000000000E+00 -0.86141264369E+03  0.86141264370E+03  0.25500000920E-02 0. -1.
    10030    2    1    2    0    0  0.00000000000E+00  0.00000000000E+00  0.19280764614E+04  0.36509017488E+04  0.31002588180E+04 0.  0.
        5    1    3    3  502    0  0.77506083440E+03 -0.17806190866E+03  0.25309498020E+04  0.26529520030E+04  0.46999998093E+01 0.  1.
       -5    1    3    3    0  502 -0.77506083440E+03  0.17806190866E+03 -0.60287334055E+03  0.99794974577E+03  0.46999998093E+01 0. -1.
</event>
<event>
 5   0  0.4436241E-08  0.3099905E+04  0.7818609E-02  0.8215764E-01
        1   -1    0    0  501    0  0.00000000000E+00  0.00000000000E+00  0.25557713584E+04  0.25557713584E+04  0.50400001928E-02 0. -1.
       -1   -1    0    0    0  501  0.00000000000E+00  0.00000000000E+00 -0.93997189374E+03  0.93997189375E+03  0.50400001928E-02 0.  1.
    10030    2    1    2    0    0  0.00000000000E+00  0.00000000000E+00  0.16157994647E+04  0.34957432522E+04  0.30999053171E+04 0.  0.
        3    1    3    3  502    0 -0.10104025360E+02 -0.87281782822E+03 -0.63644645103E+03  0.10802671650E+04  0.10100000352E+00 0.  1.
       -3    1    3    3    0  502  0.10104025360E+02  0.87281782822E+03  0.22522459157E+04  0.24154760872E+04  0.10100000352E+00 0. -1.
</event>
<event>
 5   0  0.1329777E-07  0.3099023E+04  0.7818609E-02  0.8216006E-01
       -2   -1    0    0    0  501  0.00000000000E+00  0.00000000000E+00  0.11429121313E+04  0.11429121313E+04  0.25500000920E-02 0. -1.
        2   -1    0    0  501    0  0.00000000000E+00  0.00000000000E+00 -0.21007620443E+04  0.21007620443E+04  0.25500000920E-02 0.  1.
    10030    2    1    2    0    0  0.00000000000E+00  0.00000000000E+00 -0.95784991308E+03  0.32436741756E+04  0.30990233464E+04 0.  0.
        1    1    3    3  502    0  0.43984814415E+03  0.90122294765E+03 -0.17152960835E+04  0.19869347864E+04  0.50400001928E-02 0.  1.
       -1    1    3    3    0  502 -0.43984814415E+03 -0.90122294765E+03  0.75744617043E+03  0.12567393892E+04  0.50400001928E-02 0. -1.
</event>
<event>
 5   0  0.4436241E-08  0.3101090E+04  0.7818609E-02  0.8215439E-01
       -1   -1    0    0    0  501  0.00000000000E+00  0.00000000000E+00  0.15706879975E+04  0.15706879975E+04  0.50400001928E-02 0. -1.
        1   -1    0    0  501    0  0.00000000000E+00  0.00000000000E+00 -0.15306598791E+04  0.15306598791E+04  0.50400001928E-02 0.  1.
    10030    2    1    2    0    0  0.00000000000E+00  0.00000000000E+00  0.40028118447E+02  0.31013478766E+04  0.31010895507E+04 0.  0.
        3    1    3    3  502    0 -0.13138975890E+04  0.46456253795E+03  0.69980876744E+03  0.15594478341E+04  0.10100000352E+00 0. -1.
       -3    1    3    3    0  502  0.13138975890E+04 -0.46456253795E+03 -0.65978064899E+03  0.15419000425E+04  0.10100000352E+00 0.  1.
</event>
<event>
 5   0  0.1318916E-07  0.3103008E+04  0.7818609E-02  0.8214913E-01
       -2   -1    0    0    0  501  0.00000000000E+00  0.00000000000E+00  0.12961358373E+04  0.12961358373E+04  0.25500000920E-02 0. -1.
        2   -1    0    0  501    0  0.00000000000E+00  0.00000000000E+00 -0.18571854865E+04  0.18571854865E+04  0.25500000920E-02 0.  1.
    10030    2    1    2    0    0  0.00000000000E+00  0.00000000000E+00 -0.56104964925E+03  0.31533213238E+04  0.31030080022E+04 0.  0.
        5    1    3    3  502    0  0.45930749104E+03 -0.44176050861E+03  0.11569882086E+04  0.13208934564E+04  0.46999998093E+01 0. -1.
       -5    1    3    3    0  502 -0.45930749104E+03  0.44176050861E+03 -0.17180378578E+04  0.18324278674E+04  0.46999998093E+01 0.  1.
</event>
<event>
 5   0  0.1398931E-07  0.3102341E+04  0.7818609E-02  0.8215096E-01
        2   -1    0    0  501    0  0.00000000000E+00  0.00000000000E+00  0.21862758700E+04  0.21862758700E+04  0.25500000920E-02 0.  1.
       -2   -1    0    0    0  501  0.00000000000E+00  0.00000000000E+00 -0.11005607304E+04  0.11005607304E+04  0.25500000920E-02 0. -1.
    10030    2    1    2    0    0  0.00000000000E+00  0.00000000000E+00  0.10857151396E+04  0.32868366004E+04  0.31023406443E+04 0.  0.
        3    1    3    3  502    0  0.67125750017E+03  0.55180740925E+03 -0.81848967510E+03  0.11937350656E+04  0.10100000352E+00 0. -1.
       -3    1    3    3    0  502 -0.67125750017E+03 -0.55180740925E+03  0.19042048147E+04  0.20931015348E+04  0.10100000352E+00 0.  1.
</event>
<event>
 5   0  0.1398931E-07  0.3098374E+04  0.7818609E-02  0.8216184E-01
       -2   -1    0    0    0  501  0.00000000000E+00  0.00000000000E+00  0.13953439485E+04  0.13953439485E+04  0.25500000920E-02 0.  1.
        2   -1    0    0  501    0  0.00000000000E+00  0.00000000000E+00 -0.17199918114E+04  0.17199918114E+04  0.25500000920E-02 0. -1.
    10030    2    1    2    0    0  0.00000000000E+00  0.00000000000E+00 -0.32464786294E+03  0.31153357599E+04  0.30983738738E+04 0.  0.
        3    1    3    3  502    0 -0.94394293626E+03 -0.11512290003E+04  0.26853527607E+03  0.15127682185E+04  0.10100000352E+00 0.  1.
       -3    1    3    3    0  502  0.94394293626E+03  0.11512290003E+04 -0.59318313900E+03  0.16025675414E+04  0.10100000352E+00 0. -1.
</event>
<event>
 5   0  0.4470354E-08  0.3099644E+04  0.7818609E-02  0.8215836E-01
        1   -1    0    0  501    0  0.00000000000E+00  0.00000000000E+00  0.13078450704E+04  0.13078450704E+04  0.50400001928E-02 0.  1.
       -1   -1    0    0    0  501  0.00000000000E+00  0.00000000000E+00 -0.18365696115E+04  0.18365696115E+04  0.50400001928E-02 0. -1.
    10030    2    1    2    0    0  0.00000000000E+00  0.00000000000E+00 -0.52872454109E+03  0.31444146819E+04  0.30996441814E+04 0.  0.
        1    1    3    3  502    0 -0.10455309613E+04 -0.10042082582E+04  0.29162259574E+03  0.14787200395E+04  0.50400001928E-02 0.  1.
       -1    1    3    3    0  502  0.10455309613E+04  0.10042082582E+04 -0.82034713683E+03  0.16656946424E+04  0.50400001928E-02 0. -1.
</event>
<event>
 5   0  0.4450600E-08  0.3100445E+04  0.7818609E-02  0.8215616E-01
        1   -1    0    0  501    0  0.00000000000E+00  0.00000000000E+00  0.10429910969E+04  0.10429910969E+04  0.50400001928E-02 0. -1.
       -1   -1    0    0    0  501  0.00000000000E+00  0.00000000000E+00 -0.23041318956E+04  0.23041318956E+04  0.50400001928E-02 0.  1.
    10030    2    1    2    0    0  0.00000000000E+00  0.00000000000E+00 -0.12611407987E+04  0.33471229925E+04  0.31004445186E+04 0.  0.
        4    1    3    3  502    0 -0.10351762633E+04 -0.11179103935E+04 -0.93947219735E+03  0.17899506045E+04  0.12699999809E+01 0.  1.
       -4    1    3    3    0  502  0.10351762633E+04  0.11179103935E+04 -0.32166860133E+03  0.15571723880E+04  0.12699999809E+01 0. -1.
</event>
<event>
 5   0  0.4470354E-08  0.3100481E+04  0.7818609E-02  0.8215606E-01
       -1   -1    0    0    0  501  0.00000000000E+00  0.00000000000E+00  0.29576760243E+04  0.29576760243E+04  0.50400001928E-02 0.  1.
        1   -1    0    0  501    0  0.00000000000E+00  0.00000000000E+00 -0.81254531643E+03  0.81254531645E+03  0.50400001928E-02 0. -1.
    10030    2    1    2    0    0  0.00000000000E+00  0.00000000000E+00  0.21451307078E+04  0.37702213407E+04  0.31004811247E+04 0.  0.
        1    1    3    3  502    0 -0.33207563756E+03 -0.14191118096E+04  0.43015516959E+03  0.15196006143E+04  0.50400001928E-02 0.  1.
       -1    1    3    3    0  502  0.33207563756E+03  0.14191118096E+04  0.17149755383E+04  0.22506207264E+04  0.50400001928E-02 0. -1.
</event>
<event>
 5   0  0.4305500E-08  0.3100455E+04  0.7818609E-02  0.8215613E-01
       -3   -1    0    0    0  501  0.00000000000E+00  0.00000000000E+00  0.91037704722E+03  0.91037705283E+03  0.10100000352E+00 0. -1.
        3   -1    0    0  501    0  0.00000000000E+00  0.00000000000E+00 -0.26397914717E+04  0.26397914736E+04  0.10100000352E+00 0.  1.
    10030    2    1    2    0    0  0.00000000000E+00  0.00000000000E+00 -0.17294144245E+04  0.35501685265E+04  0.31004551786E+04 0.  0.
        4    1    3    3  502    0 -0.93636401053E+03 -0.12276297081E+04 -0.10239952390E+04  0.18526791743E+04  0.12699999809E+01 0.  1.
       -4    1    3    3    0  502  0.93636401053E+03  0.12276297081E+04 -0.70541918547E+03  0.16974893522E+04  0.12699999809E+01 0. -1.
</event>
<event>
 5   0  0.4436241E-08  0.3097603E+04  0.7818609E-02  0.8216396E-01
       -1   -1    0    0    0  501  0.00000000000E+00  0.00000000000E+00  0.13718834982E+04  0.13718834982E+04  0.50400001928E-02 0.  1.
        1   -1    0    0  501    0  0.00000000000E+00  0.00000000000E+00 -0.17485353913E+04  0.17485353913E+04  0.50400001928E-02 0. -1.
    10030    2    1    2    0    0  0.00000000000E+00  0.00000000000E+00 -0.37665189313E+03  0.31204188895E+04  0.30976034926E+04 0.  0.
        3    1    3    3  502    0  0.58706385074E+03  0.13149409258E+03 -0.16260211666E+04  0.17337472438E+04  0.10100000352E+00 0. -1.
       -3    1    3    3    0  502 -0.58706385074E+03 -0.13149409258E+03  0.12493692734E+04  0.13866716456E+04  0.10100000352E+00 0.  1.
</event>
<event>
 5   0  0.4450600E-08  0.3100408E+04  0.7818609E-02  0.8215626E-01
        1   -1    0    0  501    0  0.00000000000E+00  0.00000000000E+00  0.18561316752E+04  0.18561316752E+04  0.50400001928E-02 0.  1.
       -1   -1    0    0    0  501  0.00000000000E+00  0.00000000000E+00 -0.12946993332E+04  0.12946993332E+04  0.50400001928E-02 0. -1.
    10030    2    1    2    0    0  0.00000000000E+00  0.00000000000E+00  0.56143234199E+03  0.31508310084E+04  0.31004080004E+04 0.  0.
        4    1    3    3  502    0  0.58119637877E+03 -0.60174254002E+03 -0.10455941337E+04  0.13390862633E+04  0.12699999809E+01 0. -1.
       -4    1    3    3    0  502 -0.58119637877E+03  0.60174254002E+03  0.16070264757E+04  0.18117447451E+04  0.12699999809E+01 0.  1.
</event>
<event>
 5   0  0.4517409E-08  0.3098609E+04  0.7818609E-02  0.8216120E-01
        1   -1    0    0  501    0  0.00000000000E+00  0.00000000000E+00  0.20787887715E+04  0.20787887715E+04  0.50400001928E-02 0. -1.
       -1   -1    0    0    0  501  0.00000000000E+00  0.00000000000E+00 -0.11546839126E+04  0.11546839126E+04  0.50400001928E-02 0.  1.
    10030    2    1    2    0    0  0.00000000000E+00  0.00000000000E+00  0.92410485883E+03  0.32334726841E+04  0.30986086892E+04 0.  0.
        2    1    3    3  502    0  0.17675393135E+03  0.96185785419E+03 -0.79188467268E+03  0.12583695080E+04  0.25500000920E-02 0.  1.
       -2    1    3    3    0  502 -0.17675393135E+03 -0.96185785419E+03  0.17159895315E+04  0.19751031761E+04  0.25500000920E-02 0. -1.
</event>
<event>
 5   0  0.1377237E-07  0.3099941E+04  0.7818609E-02  0.8215754E-01
       -2   -1    0    0    0  501  0.00000000000E+00  0.00000000000E+00  0.21191910736E+04  0.21191910736E+04  0.25500000920E-02 0.  1.
        2   -1    0    0  501    0  0.00000000000E+00  0.00000000000E+00 -0.11336439183E+04  0.11336439183E+04  0.25500000920E-02 0. -1.
    10030    2    1    2    0    0  0.00000000000E+00  0.00000000000E+00  0.98554715523E+03  0.32528349919E+04  0.30999406913E+04 0.  0.
        2    1    3    3  502    0  0.11484441359E+04  0.10118868627E+04  0.23666788824E+03  0.15488223415E+04  0.25500000920E-02 0.  1.
       -2    1    3    3    0  502 -0.11484441359E+04 -0.10118868627E+04  0.74887926699E+03  0.17040126504E+04  0.25500000920E-02 0. -1.
</event>
<event>
 5   0  0.4838602E-08  0.3098777E+04  0.7818609E-02  0.8216074E-01
        1   -1    0    0  501    0  0.00000000000E+00  0.00000000000E+00  0.19762081451E+04  0.19762081451E+04  0.50400001928E-02 0.  1.
       -1   -1    0    0    0  501  0.00000000000E+00  0.00000000000E+00 -0.12147531904E+04  0.12147531904E+04  0.50400001928E-02 0. -1.
    10030    2    1    2    0    0  0.00000000000E+00  0.00000000000E+00  0.76145495468E+03  0.31909613355E+04  0.30987772745E+04 0.  0.
        5    1    3    3  502    0 -0.86364911573E+03 -0.11854753258E+04 -0.13346826652E+03  0.14727788059E+04  0.46999998093E+01 0. -1.
       -5    1    3    3    0  502  0.86364911573E+03  0.11854753258E+04  0.89492322120E+03  0.17181825296E+04  0.46999998093E+01 0.  1.
</event>
<event>
 5   0  0.4436241E-08  0.3100352E+04  0.7818609E-02  0.8215641E-01
       -1   -1    0    0    0  501  0.00000000000E+00  0.00000000000E+00  0.16257032052E+04  0.16257032052E+04  0.50400001928E-02 0.  1.
        1   -1    0    0  501    0  0.00000000000E+00  0.00000000000E+00 -0.14781575545E+04  0.14781575545E+04  0.50400001928E-02 0. -1.
    10030    2    1    2    0    0  0.00000000000E+00  0.00000000000E+00  0.14754565071E+03  0.31038607598E+04  0.31003518989E+04 0.  0.
        3    1    3    3  502    0 -0.14760348572E+03 -0.15430225644E+04  0.55311761975E+02  0.15510528116E+04  0.10100000352E+00 0.  1.
       -3    1    3    3    0  502  0.14760348572E+03  0.15430225644E+04  0.92233888739E+02  0.15528079481E+04  0.10100000352E+00 0. -1.
</event>
<event>
 5   0  0.1377237E-07  0.3099449E+04  0.7818609E-02  0.8215889E-01
       -2   -1    0    0    0  501  0.00000000000E+00  0.00000000000E+00  0.22253868075E+04  0.22253868075E+04  0.25500000920E-02 0. -1.
        2   -1    0    0  501    0  0.00000000000E+00  0.00000000000E+00 -0.10792037647E+04  0.10792037647E+04  0.25500000920E-02 0.  1.
    10030    2    1    2    0    0  0.00000000000E+00  0.00000000000E+00  0.11461830428E+04  0.33045905722E+04  0.30994488676E+04 0.  0.
        2    1    3    3  502    0 -0.12462303750E+04 -0.70692572695E+03 -0.56601237119E+02  0.14338890581E+04  0.25500000920E-02 0.  1.
       -2    1    3    3    0  502  0.12462303750E+04  0.70692572695E+03  0.12027842799E+04  0.18707015141E+04  0.25500000920E-02 0. -1.
</event>
<event>
 5   0  0.4517409E-08  0.3099700E+04  0.7818609E-02  0.8215820E-01
       -1   -1    0    0    0  501  0.00000000000E+00  0.00000000000E+00  0.14405772598E+04  0.14405772599E+04  0.50400001928E-02 0. -1.
        1   -1    0    0  501    0  0.00000000000E+00  0.00000000000E+00 -0.16674111968E+04  0.16674111968E+04  0.50400001928E-02 0.  1.
    10030    2    1    2    0    0  0.00000000000E+00  0.00000000000E+00 -0.22683393694E+03  0.31079884566E+04  0.30996997615E+04 0.  0.
        2    1    3    3  502    0 -0.81997244134E+03 -0.13151398868E+04 -0.10406859546E+03  0.15533119451E+04  0.25500000920E-02 0.  1.
       -2    1    3    3    0  502  0.81997244134E+03  0.13151398868E+04 -0.12276534148E+03  0.15546765115E+04  0.25500000920E-02 0. -1.
</event>
<event>
 5   0  0.4838602E-08  0.3100372E+04  0.7818609E-02  0.8215636E-01
       -1   -1    0    0    0  501  0.00000000000E+00  0.00000000000E+00  0.12366872130E+04  0.12366872130E+04  0.50400001928E-02 0.  1.
        1   -1    0    0  501    0  0.00000000000E+00  0.00000000000E+00 -0.19431562615E+04  0.19431562615E+04  0.50400001928E-02 0. -1.
    10030    2    1    2    0    0  0.00000000000E+00  0.00000000000E+00 -0.70646904850E+03  0.31798434744E+04  0.31003719140E+04 0.  0.
        5    1    3    3  502    0 -0.77262465467E+03  0.12037987493E+04 -0.96602261708E+03  0.17260654891E+04  0.46999998093E+01 0.  1.
       -5    1    3    3    0  502  0.77262465467E+03 -0.12037987493E+04  0.25955356858E+03  0.14537779854E+04  0.46999998093E+01 0. -1.
</event>
<event>
 5   0  0.1329777E-07  0.3099553E+04  0.7818609E-02  0.8215861E-01
        2   -1    0    0  501    0  0.00000000000E+00  0.00000000000E+00  0.19466121191E+04  0.19466121191E+04  0.25500000920E-02 0. -1.
       -2   -1    0    0    0  501  0.00000000000E+00  0.00000000000E+00 -0.12338398070E+04  0.12338398070E+04  0.25500000920E-02 0.  1.
    10030    2    1    2    0    0  0.00000000000E+00  0.00000000000E+00  0.71277231209E+03  0.31804519262E+04  0.30995532075E+04 0.  0.
        1    1    3    3  502    0 -0.31992099109E+02 -0.48923827587E+03  0.18649382800E+04  0.19283081634E+04  0.50400001928E-02 0. -1.
       -1    1    3    3    0  502  0.31992099109E+02  0.48923827587E+03 -0.11521659679E+04  0.12521437627E+04  0.50400001928E-02 0.  1.
</event>
<event>
 5   0  0.1377237E-07  0.3100413E+04  0.7818609E-02  0.8215625E-01
        2   -1    0    0  501    0  0.00000000000E+00  0.00000000000E+00  0.12113540246E+04  0.12113540246E+04  0.25500000920E-02 0. -1.
       -2   -1    0    0    0  501  0.00000000000E+00  0.00000000000E+00 -0.19838457321E+04  0.19838457321E+04  0.25500000920E-02 0.  1.
    10030    2    1    2    0    0  0.00000000000E+00  0.00000000000E+00 -0.77249170748E+03  0.31951997568E+04  0.31004125608E+04 0.  0.
        2    1    3    3  502    0 -0.47752203521E+03  0.14263490310E+04  0.24033075551E+00  0.15041605333E+04  0.25500000920E-02 0. -1.
       -2    1    3    3    0  502  0.47752203521E+03 -0.14263490310E+04 -0.77273203824E+03  0.16910392234E+04  0.25500000920E-02 0.  1.
</event>
<event>
 5   0  0.1325713E-07  0.3100211E+04  0.7818609E-02  0.8215680E-01
       -2   -1    0    0    0  501  0.00000000000E+00  0.00000000000E+00  0.11584979657E+04  0.11584979657E+04  0.25500000920E-02 0. -1.
        2   -1    0    0  501    0  0.00000000000E+00  0.00000000000E+00 -0.20740881024E+04  0.20740881024E+04  0.25500000920E-02 0.  1.
    10030    2    1    2    0    0  0.00000000000E+00  0.00000000000E+00 -0.91559013665E+03  0.32325860681E+04  0.31002108621E+04 0.  0.
        4    1    3    3  502    0  0.84549863086E+03  0.30877052788E+03  0.85808006984E+03  0.12435876297E+04  0.12699999809E+01 0. -1.
       -4    1    3    3    0  502 -0.84549863086E+03 -0.30877052788E+03 -0.17736702065E+04  0.19889984384E+04  0.12699999809E+01 0.  1.
</event>
<event>
 5   0  0.1318916E-07  0.3100788E+04  0.7818609E-02  0.8215522E-01
       -2   -1    0    0    0  501  0.00000000000E+00  0.00000000000E+00  0.79800927373E+03  0.79800927373E+03  0.25500000920E-02 0.  1.
        2   -1    0    0  501    0  0.00000000000E+00  0.00000000000E+00 -0.30121480764E+04  0.30121480764E+04  0.25500000920E-02 0. -1.
    10030    2    1    2    0    0  0.00000000000E+00  0.00000000000E+00 -0.22141388027E+04  0.38101573502E+04  0.31007883506E+04 0.  0.
        5    1    3    3  502    0  0.50983988346E+03  0.22404965176E+03  0.67085797800E+03  0.87189877272E+03  0.46999998093E+01 0.  1.
       -5    1    3    3    0  502 -0.50983988346E+03 -0.22404965176E+03 -0.28849967807E+04  0.29382585774E+04  0.46999998093E+01 0. -1.
</event>
<event>
 5   0  0.1325713E-07  0.3101126E+04  0.7818609E-02  0.8215429E-01
       -2   -1    0    0    0  501  0.00000000000E+00  0.00000000000E+00  0.13912152404E+04  0.13912152404E+04  0.25500000920E-02 0. -1.
        2   -1    0    0  501    0  0.00000000000E+00  0.00000000000E+00 -0.17281626034E+04  0.17281626034E+04  0.25500000920E-02 0.  1.
    10030    2    1    2    0    0  0.00000000000E+00  0.00000000000E+00 -0.33694736298E+03  0.31193778438E+04  0.31011263449E+04 0.  0.
        4    1    3    3  502    0  0.88223306095E+03 -0.91668570835E+03  0.72308173246E+03  0.14633853445E+04  0.12699999809E+01 0. -1.
       -4    1    3    3    0  502 -0.88223306095E+03  0.91668570835E+03 -0.10600290954E+04  0.16559924993E+04  0.12699999809E+01 0.  1.
</event>
<event>
 5   0  0.1329777E-07  0.3100551E+04  0.7818609E-02  0.8215587E-01
        2   -1    0    0  501    0  0.00000000000E+00  0.00000000000E+00  0.15825963569E+04  0.15825963569E+04  0.25500000920E-02 0. -1.
       -2   -1    0    0    0  501  0.00000000000E+00  0.00000000000E+00 -0.15186148439E+04  0.15186148439E+04  0.25500000920E-02 0.  1.
    10030    2    1    2    0    0  0.00000000000E+00  0.00000000000E+00  0.63981513049E+02  0.31012112008E+04  0.31005511249E+04 0.  0.
        1    1    3    3  502    0  0.88116694385E+03  0.40755103530E+03 -0.11769026780E+04  0.15256647544E+04  0.50400001928E-02 0.  1.
       -1    1    3    3    0  502 -0.88116694385E+03 -0.40755103530E+03  0.12408841910E+04  0.15755464464E+04  0.50400001928E-02 0. -1.
</event>
<event>
 5   0  0.4450600E-08  0.3099205E+04  0.7818609E-02  0.8215956E-01
       -1   -1    0    0    0  501  0.00000000000E+00  0.00000000000E+00  0.14825638761E+04  0.14825638761E+04  0.50400001928E-02 0.  1.
        1   -1    0    0  501    0  0.00000000000E+00  0.00000000000E+00 -0.16196724999E+04  0.16196724999E+04  0.50400001928E-02 0. -1.
    10030    2    1    2    0    0  0.00000000000E+00  0.00000000000E+00 -0.13710862378E+03  0.31022363760E+04  0.30992050203E+04 0.  0.
        4    1    3    3  502    0  0.13966339545E+04 -0.23096438458E+03 -0.69951629995E+03  0.15790046284E+04  0.12699999809E+01 0.  1.
       -4    1    3    3    0  502 -0.13966339545E+04  0.23096438458E+03  0.56240767616E+03  0.15232317476E+04  0.12699999809E+01 0. -1.
</event>
<event>
 5   0  0.1377237E-07  0.3099034E+04  0.7818609E-02  0.8216003E-01
        2   -1    0    0  501    0  0.00000000000E+00  0.00000000000E+00  0.16866234286E+04  0.16866234286E+04  0.25500000920E-02 0.  1.
       -2   -1    0    0    0  501  0.00000000000E+00  0.00000000000E+00 -0.14235562173E+04  0.14235562173E+04  0.25500000920E-02 0. -1.
    10030    2    1    2    0    0  0.00000000000E+00  0.00000000000E+00  0.26306721126E+03  0.31101796459E+04  0.30990342161E+04 0.  0.
        2    1    3    3  502    0 -0.73393852713E+03  0.71671233364E+03 -0.10339616044E+04  0.14565091590E+04  0.25500000920E-02 0. -1.
       -2    1    3    3    0  502  0.73393852713E+03 -0.71671233364E+03  0.12970288156E+04  0.16536704870E+04  0.25500000920E-02 0.  1.
</event>
<event>
 5   0  0.1398931E-07  0.3097578E+04  0.7818609E-02  0.8216403E-01
        2   -1    0    0  501    0  0.00000000000E+00  0.00000000000E+00  0.28217230582E+04  0.28217230582E+04  0.25500000920E-02 0. -1.
       -2   -1    0    0    0  501  0.00000000000E+00  0.00000000000E+00 -0.85010042275E+03  0.85010042275E+03  0.25500000920E-02 0.  1.
    10030    2    1    2    0    0  0.00000000000E+00  0.00000000000E+00  0.19716226355E+04  0.36718234810E+04  0.30975783862E+04 0.  0.
        3    1    3    3  502    0 -0.10840933068E+04  0.10243518488E+04  0.49107388389E+03  0.15702574877E+04  0.10100000352E+00 0.  1.
       -3    1    3    3    0  502  0.10840933068E+04 -0.10243518488E+04  0.14805487516E+04  0.21015659933E+04  0.10100000352E+00 0. -1.
</event>
<event>
 5   0  0.4517409E-08  0.3103794E+04  0.7818609E-02  0.8214697E-01
       -1   -1    0    0    0  501  0.00000000000E+00  0.00000000000E+00  0.16741122415E+04  0.16741122415E+04  0.50400001928E-02 0. -1.
        1   -1    0    0  501    0  0.00000000000E+00  0.00000000000E+00 -0.14386040787E+04  0.14386040788E+04  0.50400001928E-02 0.  1.
    10030    2    1    2    0    0  0.00000000000E+00  0.00000000000E+00  0.23550816274E+03  0.31127163203E+04  0.31037942579E+04 0.  0.
        2    1    3    3  502    0 -0.26118339072E+03 -0.89089214780E+03  0.13649039555E+04  0.16507175380E+04  0.25500000920E-02 0. -1.
       -2    1    3    3    0  502  0.26118339072E+03  0.89089214780E+03 -0.11293957927E+04  0.14619987822E+04  0.25500000920E-02 0.  1.
</event>
<event>
 5   0  0.1329777E-07  0.3099948E+04  0.7818609E-02  0.8215752E-01
       -2   -1    0    0    0  501  0.00000000000E+00  0.00000000000E+00  0.91374970577E+03  0.91374970578E+03  0.25500000920E-02 0.  1.
        2   -1    0    0  501    0  0.00000000000E+00  0.00000000000E+00 -0.26291880322E+04  0.26291880322E+04  0.25500000920E-02 0. -1.
    10030    2    1    2    0    0  0.00000000000E+00  0.00000000000E+00 -0.17154383264E+04  0.35429377380E+04  0.30999482517E+04 0.  0.
        1    1    3    3  502    0 -0.12750933558E+04 -0.30373646361E+03  0.87717907851E+02  0.13137021491E+04  0.50400001928E-02 0.  1.
       -1    1    3    3    0  502  0.12750933558E+04  0.30373646361E+03 -0.18031562343E+04  0.22292355888E+04  0.50400001928E-02 0. -1.
</event>
<event>
 5   0  0.4470354E-08  0.3099792E+04  0.7818609E-02  0.8215795E-01
        1   -1    0    0  501    0  0.00000000000E+00  0.00000000000E+00  0.20876491910E+04  0.20876491910E+04  0.50400001928E-02 0. -1.
       -1   -1    0    0    0  501  0.00000000000E+00  0.00000000000E+00 -0.11506615221E+04  0.11506615221E+04  0.50400001928E-02 0.  1.
    10030    2    1    2    0    0  0.00000000000E+00  0.00000000000E+00  0.93698766889E+03  0.32383107132E+04  0.30997919903E+04 0.  0.
        1    1    3    3  502    0  0.79508609617E+03 -0.11948615748E+04  0.10797215814E+04  0.17960107953E+04  0.50400001928E-02 0. -1.
       -1    1    3    3    0  502 -0.79508609617E+03  0.11948615748E+04 -0.14273391253E+03  0.14422999179E+04  0.50400001928E-02 0.  1.
</event>
<event>
 5   0  0.1377237E-07  0.3099710E+04  0.7818609E-02  0.8215817E-01
       -2   -1    0    0    0  501  0.00000000000E+00  0.00000000000E+00  0.13881707706E+04  0.13881707706E+04  0.25500000920E-02 0.  1.
        2   -1    0    0  501    0  0.00000000000E+00  0.00000000000E+00 -0.17303714536E+04  0.17303714536E+04  0.25500000920E-02 0. -1.
    10030    2    1    2    0    0  0.00000000000E+00  0.00000000000E+00 -0.34220068301E+03  0.31185422242E+04  0.30997103569E+04 0.  0.
        2    1    3    3  502    0  0.39406274953E+03 -0.47456794547E+03  0.12593502230E+04  0.14023063751E+04  0.25500000920E-02 0.  1.
       -2    1    3    3    0  502 -0.39406274953E+03  0.47456794547E+03 -0.16015509060E+04  0.17162358491E+04  0.25500000920E-02 0. -1.
</event>
<event>
 5   0  0.4838602E-08  0.3099493E+04  0.7818609E-02  0.8215877E-01
       -1   -1    0    0    0  501  0.00000000000E+00  0.00000000000E+00  0.14295222197E+04  0.14295222197E+04  0.50400001928E-02 0.  1.
        1   -1    0    0  501    0  0.00000000000E+00  0.00000000000E+00 -0.16800816653E+04  0.16800816653E+04  0.50400001928E-02 0. -1.
    10030    2    1    2    0    0  0.00000000000E+00  0.00000000000E+00 -0.25055944568E+03  0.31096038850E+04  0.30994929078E+04 0.  0.
        5    1    3    3  502    0  0.37316221169E+03  0.24218942424E+03 -0.16146379049E+04  0.16748084688E+04  0.46999998093E+01 0. -1.
       -5    1    3    3    0  502 -0.37316221169E+03 -0.24218942424E+03  0.13640784592E+04  0.14347954162E+04  0.46999998093E+01 0.  1.
</event>
<event>
 5   0  0.1318916E-07  0.3094679E+04  0.7818609E-02  0.8217200E-01
       -2   -1    0    0    0  501  0.00000000000E+00  0.00000000000E+00  0.10877068675E+04  0.10877068675E+04  0.25500000920E-02 0.  1.
        2   -1    0    0  501    0  0.00000000000E+00  0.00000000000E+00 -0.22011997494E+04  0.22011997494E+04  0.25500000920E-02 0. -1.
    10030    2    1    2    0    0  0.00000000000E+00  0.00000000000E+00 -0.11134928819E+04  0.32889066169E+04  0.30946793592E+04 0.  0.
        5    1    3    3  502    0 -0.11611335409E+03  0.84468282188E+03 -0.19290127821E+04  0.21090480753E+04  0.46999998093E+01 0. -1.
       -5    1    3    3    0  502  0.11611335409E+03 -0.84468282188E+03  0.81551990015E+03  0.11798585416E+04  0.46999998093E+01 0.  1.
</event>
<event>
 5   0  0.4450600E-08  0.3101388E+04  0.7818609E-02  0.8215357E-01
        1   -1    0    0  501    0  0.00000000000E+00  0.00000000000E+00  0.24059051199E+04  0.24059051199E+04  0.50400001928E-02 0.  1.
       -1   -1    0    0    0  501  0.00000000000E+00  0.00000000000E+00 -0.99947901555E+03  0.99947901556E+03  0.50400001928E-02 0. -1.
    10030    2    1    2    0    0  0.00000000000E+00  0.00000000000E+00  0.14064261044E+04  0.34053841355E+04  0.31013878705E+04 0.  0.
        4    1    3    3  502    0 -0.13200032386E+04  0.63874207092E+03  0.14955632947E+03  0.14740314419E+04  0.12699999809E+01 0. -1.
       -4    1    3    3    0  502  0.13200032386E+04 -0.63874207092E+03  0.12568697749E+04  0.19313526936E+04  0.12699999809E+01 0.  1.
</event>
<event>
 5   0  0.1325713E-07  0.3098994E+04  0.7818609E-02  0.8216014E-01
        2   -1    0    0  501    0  0.00000000000E+00  0.00000000000E+00  0.14756901667E+04  0.14756901667E+04  0.25500000920E-02 0.  1.
       -2   -1    0    0    0  501  0.00000000000E+00  0.00000000000E+00 -0.16269951641E+04  0.16269951641E+04  0.25500000920E-02 0. -1.
    10030    2    1    2    0    0  0.00000000000E+00  0.00000000000E+00 -0.15130499740E+03  0.31026853307E+04  0.30989938785E+04 0.  0.
        4    1    3    3  502    0 -0.12918905001E+04  0.85538777834E+03 -0.59206236326E+02  0.15505406499E+04  0.12699999809E+01 0. -1.
       -4    1    3    3    0  502  0.12918905001E+04 -0.85538777834E+03 -0.92098761072E+02  0.15521446808E+04  0.12699999809E+01 0.  1.
</event>
<event>
 5   0  0.4470354E-08  0.3100124E+04  0.7818609E-02  0.8215704E-01
        1   -1    0    0  501    0  0.00000000000E+00  0.00000000000E+00  0.19500897369E+04  0.19500897369E+04  0.50400001928E-02 0.  1.
       -1   -1    0    0    0  501  0.00000000000E+00  0.00000000000E+00 -0.12320930256E+04  0.12320930256E+04  0.50400001928E-02 0. -1.
    10030    2    1    2    0    0  0.00000000000E+00  0.00000000000E+00  0.71799671128E+03  0.31821827625E+04  0.31001238453E+04 0.  0.
        1    1    3    3  502    0 -0.55586726288E+03 -0.11686272922E+04 -0.51682370807E+03  0.13934794248E+04  0.50400001928E-02 0. -1.
       -1    1    3    3    0  502  0.55586726288E+03  0.11686272922E+04  0.12348204194E+04  0.17887033377E+04  0.50400001928E-02 0.  1.
</event>
<event>
 5   0  0.1329777E-07  0.3105949E+04  0.7818609E-02  0.8214107E-01
       -2   -1    0    0    0  501  0.00000000000E+00  0.00000000000E+00  0.29670507133E+04  0.29670507133E+04  0.25500000920E-02 0.  1.
        2   -1    0    0  501    0  0.00000000000E+00  0.00000000000E+00 -0.81283750345E+03  0.81283750345E+03  0.25500000920E-02 0. -1.
    10030    2    1    2    0    0  0.00000000000E+00  0.00000000000E+00  0.21542132099E+04  0.37798882168E+04  0.31059491911E+04 0.  0.
        1    1    3    3  502    0  0.89916637137E+03 -0.10241186489E+04  0.19832574483E+04  0.24063726388E+04  0.50400001928E-02 0.  1.
       -1    1    3    3    0  502 -0.89916637137E+03  0.10241186489E+04  0.17095576160E+03  0.13735155780E+04  0.50400001928E-02 0. -1.
</event>
<event>
 5   0  0.4450600E-08  0.3102829E+04  0.7818609E-02  0.8214962E-01
       -1   -1    0    0    0  501  0.00000000000E+00  0.00000000000E+00  0.14094135764E+04  0.14094135764E+04  0.50400001928E-02 0. -1.
        1   -1    0    0  501    0  0.00000000000E+00  0.00000000000E+00 -0.17077219343E+04  0.17077219344E+04  0.50400001928E-02 0.  1.
    10030    2    1    2    0    0  0.00000000000E+00  0.00000000000E+00 -0.29830835796E+03  0.31171355107E+04  0.31028286959E+04 0.  0.
        4    1    3    3  502    0  0.76042096042E+03  0.31620311916E+03  0.11716934689E+04  0.14321632755E+04  0.12699999809E+01 0. -1.
       -4    1    3    3    0  502 -0.76042096042E+03 -0.31620311916E+03 -0.14700018269E+04  0.16849722353E+04  0.12699999809E+01 0.  1.
</event>
<event>
 5   0  0.1398931E-07  0.3107332E+04  0.7818609E-02  0.8213729E-01
       -2   -1    0    0    0  501  0.00000000000E+00  0.00000000000E+00  0.14170076277E+04  0.14170076277E+04  0.25500000920E-02 0. -1.
        2   -1    0    0  501    0  0.00000000000E+00  0.00000000000E+00 -0.17035038940E+04  0.17035038940E+04  0.25500000920E-02 0.  1.
    10030    2    1    2    0    0  0.00000000000E+00  0.00000000000E+00 -0.28649626631E+03  0.31205115216E+04  0.31073319820E+04 0.  0.
        3    1    3    3  502    0 -0.11310764586E+04  0.69952131380E+03 -0.94990719887E+03  0.16343156734E+04  0.10100000352E+00 0.  1.
       -3    1    3    3    0  502  0.11310764586E+04 -0.69952131380E+03  0.66341093256E+03  0.14861958482E+04  0.10100000352E+00 0. -1.
</event>
<event>
 5   0  0.4436241E-08  0.3100222E+04  0.7818609E-02  0.8215677E-01
        1   -1    0    0  501    0  0.00000000000E+00  0.00000000000E+00  0.18994110091E+04  0.18994110091E+04  0.50400001928E-02 0. -1.
       -1   -1    0    0    0  501  0.00000000000E+00  0.00000000000E+00 -0.12650471694E+04  0.12650471694E+04  0.50400001928E-02 0.  1.
    10030    2    1    2    0    0  0.00000000000E+00  0.00000000000E+00  0.63436383975E+03  0.31644581785E+04  0.31002222634E+04 0.  0.
        3    1    3    3  502    0 -0.88439532287E+02  0.15027224119E+04  0.69477693519E+03  0.16579237612E+04  0.10100000352E+00 0.  1.
       -3    1    3    3    0  502  0.88439532287E+02 -0.15027224119E+04 -0.60413095434E+02  0.15065344173E+04  0.10100000352E+00 0. -1.
</event>
<event>
 5   0  0.1329777E-07  0.3105916E+04  0.7818609E-02  0.8214116E-01
        2   -1    0    0  501    0  0.00000000000E+00  0.00000000000E+00  0.17808228220E+04  0.17808228220E+04  0.25500000920E-02 0.  1.
       -2   -1    0    0    0  501  0.00000000000E+00  0.00000000000E+00 -0.13542498318E+04  0.13542498318E+04  0.25500000920E-02 0. -1.
    10030    2    1    2    0    0  0.00000000000E+00  0.00000000000E+00  0.42657299021E+03  0.31350726539E+04  0.31059162946E+04 0.  0.
        1    1    3    3  502    0  0.25988610908E+03  0.58025421912E+03  0.16434296177E+04  0.17621284451E+04  0.50400001928E-02 0.  1.
       -1    1    3    3    0  502 -0.25988610908E+03 -0.58025421912E+03 -0.12168566275E+04  0.13729442088E+04  0.50400001928E-02 0. -1.
</event>
<event>
 5   0  0.4450600E-08  0.3095312E+04  0.7818609E-02  0.8217026E-01
       -1   -1    0    0    0  501  0.00000000000E+00  0.00000000000E+00  0.26332553228E+04  0.26332553228E+04  0.50400001928E-02 0.  1.
        1   -1    0    0  501    0  0.00000000000E+00  0.00000000000E+00 -0.90961128852E+03  0.90961128853E+03  0.50400001928E-02 0. -1.
    10030    2    1    2    0    0  0.00000000000E+00  0.00000000000E+00  0.17236440343E+04  0.35428666113E+04  0.30953117886E+04 0.  0.
        4    1    3    3  502    0 -0.13250240975E+04  0.44276339779E+03  0.16240792503E+04  0.21422799326E+04  0.12699999809E+01 0.  1.
       -4    1    3    3    0  502  0.13250240975E+04 -0.44276339779E+03  0.99564783914E+02  0.14005866787E+04  0.12699999809E+01 0. -1.
</event>
<event>
 5   0  0.1398931E-07  0.3101323E+04  0.7818609E-02  0.8215375E-01
        2   -1    0    0  501    0  0.00000000000E+00  0.00000000000E+00  0.21753268793E+04  0.21753268793E+04  0.25500000920E-02 0.  1.
       -2   -1    0    0    0  501  0.00000000000E+00  0.00000000000E+00 -0.11053742799E+04  0.11053742799E+04  0.25500000920E-02 0. -1.
    10030    2    1    2    0    0  0.00000000000E+00  0.00000000000E+00  0.10699525994E+04  0.32807011592E+04  0.31013225455E+04 0.  0.
        3    1    3    3  502    0 -0.13954448884E+04  0.60754436290E+03  0.22086072296E+03  0.15379063881E+04  0.10100000352E+00 0. -1.
       -3    1    3    3    0  502  0.13954448884E+04 -0.60754436290E+03  0.84909187649E+03  0.17427947711E+04  0.10100000352E+00 0.  1.
</event>
<event>
 5   0  0.4450600E-08  0.3099750E+04  0.7818609E-02  0.8215807E-01
       -1   -1    0    0    0  501  0.00000000000E+00  0.00000000000E+00  0.10675324285E+04  0.10675324286E+04  0.50400001928E-02 0.  1.
        1   -1    0    0  501    0  0.00000000000E+00  0.00000000000E+00 -0.22501540543E+04  0.22501540543E+04  0.50400001928E-02 0. -1.
    10030    2    1    2    0    0  0.00000000000E+00  0.00000000000E+00 -0.11826216257E+04  0.33176864828E+04  0.30997499397E+04 0.  0.
        4    1    3    3  502    0 -0.41103024882E+03  0.58575545379E+03 -0.20627623424E+04  0.21833564554E+04  0.12699999809E+01 0. -1.
       -4    1    3    3    0  502  0.41103024882E+03 -0.58575545379E+03  0.88014071669E+03  0.11343300274E+04  0.12699999809E+01 0.  1.
</event>
<event>
 5   0  0.4305500E-08  0.3099366E+04  0.7818609E-02  0.8215912E-01
       -3   -1    0    0    0  501  0.00000000000E+00  0.00000000000E+00  0.12518332570E+04  0.12518332611E+04  0.10100000352E+00 0. -1.
        3   -1    0    0  501    0  0.00000000000E+00  0.00000000000E+00 -0.19184003472E+04  0.19184003499E+04  0.10100000352E+00 0.  1.
    10030    2    1    2    0    0  0.00000000000E+00  0.00000000000E+00 -0.66656709021E+03  0.31702336110E+04  0.30993659775E+04 0.  0.
        1    1    3    3  502    0 -0.32982108634E+03 -0.10452356264E+04  0.78731087294E+03  0.13495028249E+04  0.50400001928E-02 0. -1.
       -1    1    3    3    0  502  0.32982108634E+03  0.10452356264E+04 -0.14538779632E+04  0.18207307861E+04  0.50400001928E-02 0.  1.
</event>
<event>
 5   0  0.4450600E-08  0.3100195E+04  0.7818609E-02  0.8215684E-01
       -1   -1    0    0    0  501  0.00000000000E+00  0.00000000000E+00  0.21298772598E+04  0.21298772598E+04  0.50400001928E-02 0.  1.
        1   -1    0    0  501    0  0.00000000000E+00  0.00000000000E+00 -0.11281412826E+04  0.11281412826E+04  0.50400001928E-02 0. -1.
    10030    2    1    2    0    0  0.00000000000E+00  0.00000000000E+00  0.10017359771E+04  0.32580185424E+04  0.31001951317E+04 0.  0.
        4    1    3    3  502    0 -0.13277171125E+04  0.46817323402E+03  0.11825676355E+04  0.18386100003E+04  0.12699999809E+01 0.  1.
       -4    1    3    3    0  502  0.13277171125E+04 -0.46817323402E+03 -0.18083165839E+03  0.14194085421E+04  0.12699999809E+01 0. -1.
</event>
<event>
 5   0  0.4838602E-08  0.3100121E+04  0.7818609E-02  0.8215705E-01
        1   -1    0    0  501    0  0.00000000000E+00  0.00000000000E+00  0.14599881125E+04  0.14599881126E+04  0.50400001928E-02 0.  1.
       -1   -1    0    0    0  501  0.00000000000E+00  0.00000000000E+00 -0.16456898511E+04  0.16456898511E+04  0.50400001928E-02 0. -1.
    10030    2    1    2    0    0  0.00000000000E+00  0.00000000000E+00 -0.18570173854E+03  0.31056779636E+04  0.31001210425E+04 0.  0.
        5    1    3    3  502    0  0.84103562597E+03  0.11787236975E+04  0.46125453714E+03  0.15197066550E+04  0.46999998093E+01 0.  1.
       -5    1    3    3    0  502 -0.84103562597E+03 -0.11787236975E+04 -0.64695627568E+03  0.15859713086E+04  0.46999998093E+01 0. -1.
</event>
<event>
 5   0  0.1377237E-07  0.3100061E+04  0.7818609E-02  0.8215721E-01
        2   -1    0    0  501    0  0.00000000000E+00  0.00000000000E+00  0.12714526741E+04  0.12714526741E+04  0.25500000920E-02 0. -1.
       -2   -1    0    0    0  501  0.00000000000E+00  0.00000000000E+00 -0.18896454265E+04  0.18896454265E+04  0.25500000920E-02 0.  1.
    10030    2    1    2    0    0  0.00000000000E+00  0.00000000000E+00 -0.61819275246E+03  0.31610981006E+04  0.31000611159E+04 0.  0.
        2    1    3    3  502    0  0.62108534154E+03  0.97292527329E+03  0.74580827094E+03  0.13742490916E+04  0.25500000920E-02 0. -1.
       -2    1    3    3    0  502 -0.62108534154E+03 -0.97292527329E+03 -0.13640010234E+04  0.17868490089E+04  0.25500000920E-02 0.  1.
</event>
<event>
 5   0  0.1325713E-07  0.3099344E+04  0.7818609E-02  0.8215918E-01
        2   -1    0    0  501    0  0.00000000000E+00  0.00000000000E+00  0.13856234145E+04  0.13856234145E+04  0.25500000920E-02 0.  1.
       -2   -1    0    0    0  501  0.00000000000E+00  0.00000000000E+00 -0.17331423308E+04  0.17331423308E+04  0.25500000920E-02 0. -1.
    10030    2    1    2    0    0  0.00000000000E+00  0.00000000000E+00 -0.34751891625E+03  0.31187657453E+04  0.30993435397E+04 0.  0.
        4    1    3    3  502    0 -0.58177336246E+03 -0.60308792905E+03  0.11379836574E+04  0.14132175037E+04  0.12699999809E+01 0.  1.
       -4    1    3    3    0  502  0.58177336246E+03  0.60308792905E+03 -0.14855025736E+04  0.17055482416E+04  0.12699999809E+01 0. -1.
</event>
<event>
 5   0  0.1318916E-07  0.3098486E+04  0.7818609E-02  0.8216154E-01
       -2   -1    0    0    0  501  0.00000000000E+00  0.00000000000E+00  0.16528651489E+04  0.16528651489E+04  0.25500000920E-02 0.  1.
        2   -1    0    0  501    0  0.00000000000E+00  0.00000000000E+00 -0.14521171011E+04  0.14521171012E+04  0.25500000920E-02 0. -1.
    10030    2    1    2    0    0  0.00000000000E+00  0.00000000000E+00  0.20074804777E+03  0.31049822501E+04  0.30984859197E+04 0.  0.
        5    1    3    3  502    0 -0.82677139625E+03  0.96343534084E+03  0.99013936106E+03  0.16100175906E+04  0.46999998093E+01 0.  1.
       -5    1    3    3    0  502  0.82677139625E+03 -0.96343534084E+03 -0.78939131330E+03  0.14949646595E+04  0.46999998093E+01 0. -1.
</event>
<event>
 5   0  0.4517409E-08  0.3100383E+04  0.7818609E-02  0.8215633E-01
        1   -1    0    0  501    0  0.00000000000E+00  0.00000000000E+00  0.12613781788E+04  0.12613781788E+04  0.50400001928E-02 0. -1.
       -1   -1    0    0    0  501  0.00000000000E+00  0.00000000000E+00 -0.19051336374E+04  0.19051336374E+04  0.50400001928E-02 0.  1.
    10030    2    1    2    0    0  0.00000000000E+00  0.00000000000E+00 -0.64375545853E+03  0.31665118162E+04  0.31003832008E+04 0.  0.
        2    1    3    3  502    0 -0.26106547718E+03 -0.12214376039E+04  0.61587209998E+03  0.13926102998E+04  0.25500000920E-02 0. -1.
       -2    1    3    3    0  502  0.26106547718E+03  0.12214376039E+04 -0.12596275585E+04  0.17739015164E+04  0.25500000920E-02 0.  1.
</event>
<event>
 5   0  0.4450600E-08  0.3100028E+04  0.7818609E-02  0.8215730E-01
       -1   -1    0    0    0  501  0.00000000000E+00  0.00000000000E+00  0.13208216383E+04  0.13208216383E+04  0.50400001928E-02 0. -1.
        1   -1    0    0  501    0  0.00000000000E+00  0.00000000000E+00 -0.18189767871E+04  0.18189767871E+04  0.50400001928E-02 0.  1.
    10030    2    1    2    0    0  0.00000000000E+00  0.00000000000E+00 -0.49815514879E+03  0.31397984253E+04  0.31000283224E+04 0.  0.
        4    1    3    3  502    0 -0.14201232060E+04 -0.20004311259E+03  0.34649264858E+03  0.14754070406E+04  0.12699999809E+01 0. -1.
       -4    1    3    3    0  502  0.14201232060E+04  0.20004311259E+03 -0.84464779737E+03  0.16643913847E+04  0.12699999809E+01 0.  1.
</event>
<event>
 5   0  0.4470354E-08  0.3100536E+04  0.7818609E-02  0.8215591E-01
       -1   -1    0    0    0  501  0.00000000000E+00  0.00000000000E+00  0.14813892040E+04  0.14813892040E+04  0.50400001928E-02 0.  1.
        1   -1    0    0  501    0  0.00000000000E+00  0.00000000000E+00 -0.16223493983E+04  0.16223493983E+04  0.50400001928E-02 0. -1.
    10030    2    1    2    0    0  0.00000000000E+00  0.00000000000E+00 -0.14096019436E+03  0.31037386023E+04  0.31005360077E+04 0.  0.
        1    1    3    3  502    0 -0.65136710886E+03 -0.39691377154E+03 -0.14215078957E+04  0.16132279288E+04  0.50400001928E-02 0. -1.
       -1    1    3    3    0  502  0.65136710886E+03  0.39691377154E+03  0.12805477014E+04  0.14905106736E+04  0.50400001928E-02 0.  1.
</event>
<event>
 5   0  0.1398931E-07  0.3100566E+04  0.7818609E-02  0.8215583E-01
       -2   -1    0    0    0  501  0.00000000000E+00  0.00000000000E+00  0.12208986624E+04  0.12208986624E+04  0.25500000920E-02 0.  1.
        2   -1    0    0  501    0  0.00000000000E+00  0.00000000000E+00 -0.19685315376E+04  0.19685315376E+04  0.25500000920E-02 0. -1.
    10030    2    1    2    0    0  0.00000000000E+00  0.00000000000E+00 -0.74763287529E+03  0.31894302000E+04  0.31005660910E+04 0.  0.
        3    1    3    3  502    0 -0.96921784725E+03  0.11685250244E+04 -0.69672993253E+03  0.16704091047E+04  0.10100000352E+00 0.  1.
       -3    1    3    3    0  502  0.96921784725E+03 -0.11685250244E+04 -0.50902942761E+02  0.15190210953E+04  0.10100000352E+00 0. -1.
</event>
<event>
 5   0  0.1329777E-07  0.3100379E+04  0.7818609E-02  0.8215634E-01
        2   -1    0    0  501    0  0.00000000000E+00  0.00000000000E+00  0.22881608626E+04  0.22881608626E+04  0.25500000920E-02 0. -1.
       -2   -1    0    0    0  501  0.00000000000E+00  0.00000000000E+00 -0.10502268628E+04  0.10502268628E+04  0.25500000920E-02 0.  1.
    10030    2    1    2    0    0  0.00000000000E+00  0.00000000000E+00  0.12379339998E+04  0.33383877254E+04  0.31003793344E+04 0.  0.
        1    1    3    3  502    0 -0.40018708738E+03  0.20173744134E+03 -0.97895028554E+03  0.10766574951E+04  0.50400001928E-02 0.  1.
       -1    1    3    3    0  502  0.40018708738E+03 -0.20173744134E+03  0.22168842853E+04  0.22617302303E+04  0.50400001928E-02 0. -1.
</event>
<event>
 5   0  0.1318916E-07  0.3101701E+04  0.7818609E-02  0.8215271E-01
       -2   -1    0    0    0  501  0.00000000000E+00  0.00000000000E+00  0.11564584813E+04  0.11564584813E+04  0.25500000920E-02 0.  1.
        2   -1    0    0  501    0  0.00000000000E+00  0.00000000000E+00 -0.20797435048E+04  0.20797435048E+04  0.25500000920E-02 0. -1.
    10030    2    1    2    0    0  0.00000000000E+00  0.00000000000E+00 -0.92328502345E+03  0.32362019861E+04  0.31017008334E+04 0.  0.
        5    1    3    3  502    0  0.57469278353E+03  0.72973708664E+03 -0.17574006104E+04  0.19877794160E+04  0.46999998093E+01 0. -1.
       -5    1    3    3    0  502 -0.57469278353E+03 -0.72973708664E+03  0.83411558698E+03  0.12484225701E+04  0.46999998093E+01 0.  1.
</event>
<event>
 5   0  0.4436241E-08  0.3100068E+04  0.7818609E-02  0.8215719E-01
       -1   -1    0    0    0  501  0.00000000000E+00  0.00000000000E+00  0.82835471908E+03  0.82835471909E+03  0.50400001928E-02 0. -1.
        1   -1    0    0  501    0  0.00000000000E+00  0.00000000000E+00 -0.29004548026E+04  0.29004548026E+04  0.50400001928E-02 0.  1.
    10030    2    1    2    0    0  0.00000000000E+00  0.00000000000E+00 -0.20721000835E+04  0.37288095217E+04  0.31000680142E+04 0.  0.
        3    1    3    3  502    0 -0.18875530016E+02  0.11813790965E+04 -0.22428237350E+04  0.25350091068E+04  0.10100000352E+00 0. -1.
       -3    1    3    3    0  502  0.18875530016E+02 -0.11813790965E+04  0.17072365148E+03  0.11938004149E+04  0.10100000352E+00 0.  1.
</event>
<event>
 5   0  0.1377237E-07  0.3099289E+04  0.7818609E-02  0.8215933E-01
        2   -1    0    0  501    0  0.00000000000E+00  0.00000000000E+00  0.20499271453E+04  0.20499271453E+04  0.25500000920E-02 0.  1.
       -2   -1    0    0    0  501  0.00000000000E+00  0.00000000000E+00 -0.11714552840E+04  0.11714552840E+04  0.25500000920E-02 0. -1.
    10030    2    1    2    0    0  0.00000000000E+00  0.00000000000E+00  0.87847186136E+03  0.32213824293E+04  0.30992889418E+04 0.  0.
        2    1    3    3  502    0  0.15787950010E+03 -0.14435244605E+04  0.10015751731E+04  0.17640412784E+04  0.25500000920E-02 0.  1.
       -2    1    3    3    0  502 -0.15787950010E+03  0.14435244605E+04 -0.12310331170E+03  0.14573411509E+04  0.25500000920E-02 0. -1.
</event>
<event>
 5   0  0.4470354E-08  0.3095515E+04  0.7818609E-02  0.8216970E-01
       -1   -1    0    0    0  501  0.00000000000E+00  0.00000000000E+00  0.83604081746E+03  0.83604081747E+03  0.50400001928E-02 0.  1.
        1   -1    0    0  501    0  0.00000000000E+00  0.00000000000E+00 -0.28653543622E+04  0.28653543622E+04  0.50400001928E-02 0. -1.
    10030    2    1    2    0    0  0.00000000000E+00  0.00000000000E+00 -0.20293135447E+04  0.37013951796E+04  0.30955149512E+04 0.  0.
        1    1    3    3  502    0 -0.35578806818E+03  0.11642840100E+04 -0.21574446364E+04  0.24772383342E+04  0.50400001928E-02 0. -1.
       -1    1    3    3    0  502  0.35578806818E+03 -0.11642840100E+04  0.12813109171E+03  0.12241568454E+04  0.50400001928E-02 0.  1.
</event>
<event>
 5   0  0.1398931E-07  0.3100785E+04  0.7818609E-02  0.8215523E-01
       -2   -1    0    0    0  501  0.00000000000E+00  0.00000000000E+00  0.12714632107E+04  0.12714632107E+04  0.25500000920E-02 0. -1.
        2   -1    0    0  501    0  0.00000000000E+00  0.00000000000E+00 -0.18905117664E+04  0.18905117664E+04  0.25500000920E-02 0.  1.
    10030    2    1    2    0    0  0.00000000000E+00  0.00000000000E+00 -0.61904855567E+03  0.31619749770E+04  0.31007845203E+04 0.  0.
        3    1    3    3  502    0  0.10459312556E+04  0.97978445984E+03  0.29355702857E+03  0.14629167845E+04  0.10100000352E+00 0. -1.
       -3    1    3    3    0  502 -0.10459312556E+04 -0.97978445984E+03 -0.91260558424E+03  0.16990581926E+04  0.10100000352E+00 0.  1.
</event>
<event>
 5   0  0.1377237E-07  0.3099779E+04  0.7818609E-02  0.8215799E-01
       -2   -1    0    0    0  501  0.00000000000E+00  0.00000000000E+00  0.15232193286E+04  0.15232193286E+04  0.25500000920E-02 0. -1.
        2   -1    0    0  501    0  0.00000000000E+00  0.00000000000E+00 -0.15770265288E+04  0.15770265288E+04  0.25500000920E-02 0.  1.
    10030    2    1    2    0    0  0.00000000000E+00  0.00000000000E+00 -0.53807200259E+02  0.31002458574E+04  0.30997788891E+04 0.  0.
        2    1    3    3  502    0  0.15302902638E+04  0.24561433703E+03 -0.33431159240E+02  0.15502362196E+04  0.25500000920E-02 0.  1.
       -2    1    3    3    0  502 -0.15302902638E+04 -0.24561433703E+03 -0.20376041019E+02  0.15500096378E+04  0.25500000920E-02 0. -1.
</event>
<event>
 5   0  0.4470354E-08  0.3101097E+04  0.7818609E-02  0.8215437E-01
        1   -1    0    0  501    0  0.00000000000E+00  0.00000000000E+00  0.13309308229E+04  0.13309308229E+04  0.50400001928E-02 0. -1.
       -1   -1    0    0    0  501  0.00000000000E+00  0.00000000000E+00 -0.18064053873E+04  0.18064053873E+04  0.50400001928E-02 0.  1.
    10030    2    1    2    0    0  0.00000000000E+00  0.00000000000E+00 -0.47547456442E+03  0.31373362102E+04  0.31010969727E+04 0.  0.
        1    1    3    3  502    0 -0.11014800610E+04  0.54563537988E+03  0.71841261704E+03  0.14237601557E+04  0.50400001928E-02 0. -1.
       -1    1    3    3    0  502  0.11014800610E+04 -0.54563537988E+03 -0.11938871815E+04  0.17135760545E+04  0.50400001928E-02 0.  1.
</event>
<event>
 5   0  0.1318916E-07  0.3099658E+04  0.7818609E-02  0.8215832E-01
        2   -1    0    0  501    0  0.00000000000E+00  0.00000000000E+00  0.15808980888E+04  0.15808980888E+04  0.25500000920E-02 0. -1.
       -2   -1    0    0    0  501  0.00000000000E+00  0.00000000000E+00 -0.15193704988E+04  0.15193704988E+04  0.25500000920E-02 0.  1.
    10030    2    1    2    0    0  0.00000000000E+00  0.00000000000E+00  0.61527589992E+02  0.31002685875E+04  0.30996579925E+04 0.  0.
        5    1    3    3  502    0  0.62074507564E+02  0.13220597991E+04  0.83730497784E+03  0.15661408215E+04  0.46999998093E+01 0. -1.
       -5    1    3    3    0  502 -0.62074507564E+02 -0.13220597991E+04 -0.77577738785E+03  0.15341277660E+04  0.46999998093E+01 0.  1.
</event>
<event>
 5   0  0.1377237E-07  0.3099757E+04  0.7818609E-02  0.8215805E-01
        2   -1    0    0  501    0  0.00000000000E+00  0.00000000000E+00  0.10209862340E+04  0.10209862340E+04  0.25500000920E-02 0. -1.
       -2   -1    0    0    0  501  0.00000000000E+00  0.00000000000E+00 -0.23527475594E+04  0.23527475594E+04  0.25500000920E-02 0.  1.
    10030    2    1    2    0    0  0.00000000000E+00  0.00000000000E+00 -0.13317613254E+04  0.33737337934E+04  0.30997566809E+04 0.  0.
        2    1    3    3  502    0 -0.32491907155E+03  0.56910117999E+03 -0.21945406620E+04  0.22902963287E+04  0.25500000920E-02 0.  1.
       -2    1    3    3    0  502  0.32491907155E+03 -0.56910117999E+03  0.86277933661E+03  0.10834374646E+04  0.25500000920E-02 0. -1.
</event>
<event>
 5   0  0.4305500E-08  0.3100054E+04  0.7818609E-02  0.8215723E-01
        4   -1    0    0  501    0  0.00000000000E+00  0.00000000000E+00  0.10126186841E+04  0.10126194805E+04  0.12699999809E+01 0.  1.
       -4   -1    0    0    0  501  0.00000000000E+00  0.00000000000E+00 -0.23726420596E+04  0.23726423994E+04  0.12699999809E+01 0. -1.
    10030    2    1    2    0    0  0.00000000000E+00  0.00000000000E+00 -0.13600233755E+04  0.33852618799E+04  0.31000539373E+04 0.  0.
        1    1    3    3  502    0  0.42279030400E+03 -0.78416059764E+03  0.70511916147E+03  0.11361569064E+04  0.50400001928E-02 0.  1.
       -1    1    3    3    0  502 -0.42279030400E+03  0.78416059764E+03 -0.20651425369E+04  0.22491049735E+04  0.50400001928E-02 0. -1.
</event>
<event>
 5   0  0.4470354E-08  0.3100919E+04  0.7818609E-02  0.8215486E-01
        1   -1    0    0  501    0  0.00000000000E+00  0.00000000000E+00  0.25982337302E+04  0.25982337302E+04  0.50400001928E-02 0.  1.
       -1   -1    0    0    0  501  0.00000000000E+00  0.00000000000E+00 -0.92521518596E+03  0.92521518597E+03  0.50400001928E-02 0. -1.
    10030    2    1    2    0    0  0.00000000000E+00  0.00000000000E+00  0.16730185443E+04  0.35234489162E+04  0.31009194146E+04 0.  0.
        1    1    3    3  502    0  0.96059837526E+03 -0.41301238052E+03 -0.46429530774E+03  0.11440710633E+04  0.50400001928E-02 0. -1.
       -1    1    3    3    0  502 -0.96059837526E+03  0.41301238052E+03  0.21373138520E+04  0.23793778529E+04  0.50400001928E-02 0.  1.
</event>
<event>
 5   0  0.1325713E-07  0.3098330E+04  0.7818609E-02  0.8216196E-01
        2   -1    0    0  501    0  0.00000000000E+00  0.00000000000E+00  0.23002623570E+04  0.23002623570E+04  0.25500000920E-02 0. -1.
       -2   -1    0    0    0  501  0.00000000000E+00  0.00000000000E+00 -0.10433212541E+04  0.10433212541E+04  0.25500000920E-02 0.  1.
    10030    2    1    2    0    0  0.00000000000E+00  0.00000000000E+00  0.12569411029E+04  0.33435836110E+04  0.30983302645E+04 0.  0.
        4    1    3    3  502    0  0.10954360849E+04  0.50366825788E+02 -0.55240195232E+03  0.12278707436E+04  0.12699999809E+01 0.  1.
       -4    1    3    3    0  502 -0.10954360849E+04 -0.50366825788E+02  0.18093430552E+04  0.21157128674E+04  0.12699999809E+01 0. -1.
</event>
<event>
 5   0  0.1398931E-07  0.3100388E+04  0.7818609E-02  0.8215631E-01
        2   -1    0    0  501    0  0.00000000000E+00  0.00000000000E+00  0.16514041374E+04  0.16514041374E+04  0.25500000920E-02 0.  1.
       -2   -1    0    0    0  501  0.00000000000E+00  0.00000000000E+00 -0.14551867582E+04  0.14551867582E+04  0.25500000920E-02 0. -1.
    10030    2    1    2    0    0  0.00000000000E+00  0.00000000000E+00  0.19621737923E+03  0.31065908956E+04  0.31003879971E+04 0.  0.
        3    1    3    3  502    0 -0.76994373882E+03  0.88116669883E+02  0.14433756860E+04  0.16382647190E+04  0.10100000352E+00 0.  1.
       -3    1    3    3    0  502  0.76994373882E+03 -0.88116669883E+02 -0.12471583068E+04  0.14683261766E+04  0.10100000352E+00 0. -1.
</event>
<event>
 5   0  0.4517409E-08  0.3100143E+04  0.7818609E-02  0.8215699E-01
        1   -1    0    0  501    0  0.00000000000E+00  0.00000000000E+00  0.20793093158E+04  0.20793093158E+04  0.50400001928E-02 0.  1.
       -1   -1    0    0    0  501  0.00000000000E+00  0.00000000000E+00 -0.11555383111E+04  0.11555383112E+04  0.50400001928E-02 0. -1.
    10030    2    1    2    0    0  0.00000000000E+00  0.00000000000E+00  0.92377100463E+03  0.32348476269E+04  0.31001429484E+04 0.  0.
        2    1    3    3  502    0 -0.98952026966E+02  0.10164670122E+04 -0.75485406671E+03  0.12699611619E+04  0.25500000920E-02 0. -1.
       -2    1    3    3    0  502  0.98952026966E+02 -0.10164670122E+04  0.16786250713E+04  0.19648864651E+04  0.25500000920E-02 0.  1.
</event>
<event>
 5   0  0.1398931E-07  0.3098741E+04  0.7818609E-02  0.8216084E-01
        2   -1    0    0  501    0  0.00000000000E+00  0.00000000000E+00  0.18357182895E+04  0.18357182895E+04  0.25500000920E-02 0. -1.
       -2   -1    0    0    0  501  0.00000000000E+00  0.00000000000E+00 -0.13076888602E+04  0.13076888602E+04  0.25500000920E-02 0.  1.
    10030    2    1    2    0    0  0.00000000000E+00  0.00000000000E+00  0.52802942933E+03  0.31434071497E+04  0.30987406201E+04 0.  0.
        3    1    3    3  502    0 -0.12994751870E+03 -0.17873763260E+03  0.18196498451E+04  0.18330191128E+04  0.10100000352E+00 0. -1.
       -3    1    3    3    0  502  0.12994751870E+03  0.17873763260E+03 -0.12916204157E+04  0.13103880370E+04  0.10100000352E+00 0.  1.
</event>
<event>
 5   0  0.4436241E-08  0.3100907E+04  0.7818609E-02  0.8215489E-01
       -1   -1    0    0    0  501  0.00000000000E+00  0.00000000000E+00  0.12339270014E+04  0.12339270014E+04  0.50400001928E-02 0.  1.
        1   -1    0    0  501    0  0.00000000000E+00  0.00000000000E+00 -0.19481756702E+04  0.19481756702E+04  0.50400001928E-02 0. -1.
    10030    2    1    2    0    0  0.00000000000E+00  0.00000000000E+00 -0.71424866881E+03  0.31821026716E+04  0.31009073272E+04 0.  0.
        3    1    3    3  502    0 -0.78197433541E+03  0.32563386101E+03  0.97548791907E+03  0.12919357426E+04  0.10100000352E+00 0.  1.
       -3    1    3    3    0  502  0.78197433541E+03 -0.32563386101E+03 -0.16897365879E+04  0.18901669290E+04  0.10100000352E+00 0. -1.
</event>
<event>
 5   0  0.4436241E-08  0.3101057E+04  0.7818609E-02  0.8215448E-01
        1   -1    0    0  501    0  0.00000000000E+00  0.00000000000E+00  0.17722447122E+04  0.17722447122E+04  0.50400001928E-02 0.  1.
       -1   -1    0    0    0  501  0.00000000000E+00  0.00000000000E+00 -0.13565503124E+04  0.13565503124E+04  0.50400001928E-02 0. -1.
    10030    2    1    2    0    0  0.00000000000E+00  0.00000000000E+00  0.41569439976E+03  0.31287950246E+04  0.31010573152E+04 0.  0.
        3    1    3    3  502    0 -0.49602996684E+03  0.13931325614E+04 -0.26244983931E+03  0.15019134429E+04  0.10100000352E+00 0. -1.
       -3    1    3    3    0  502  0.49602996684E+03 -0.13931325614E+04  0.67814423907E+03  0.16268815817E+04  0.10100000352E+00 0.  1.
</event>
<event>
 5   0  0.1325713E-07  0.3101369E+04  0.7818609E-02  0.8215362E-01
        2   -1    0    0  501    0  0.00000000000E+00  0.00000000000E+00  0.12159665857E+04  0.12159665857E+04  0.25500000920E-02 0.  1.
       -2   -1    0    0    0  501  0.00000000000E+00  0.00000000000E+00 -0.19775396151E+04  0.19775396151E+04  0.25500000920E-02 0. -1.
    10030    2    1    2    0    0  0.00000000000E+00  0.00000000000E+00 -0.76157302935E+03  0.31935062008E+04  0.31013687906E+04 0.  0.
        4    1    3    3  502    0 -0.11257499396E+04 -0.42139053690E+03  0.62797986491E+03  0.13561870206E+04  0.12699999809E+01 0.  1.
       -4    1    3    3    0  502  0.11257499396E+04  0.42139053690E+03 -0.13895528943E+04  0.18373191802E+04  0.12699999809E+01 0. -1.
</event>
<event>
 5   0  0.4838602E-08  0.3097551E+04  0.7818609E-02  0.8216410E-01
       -1   -1    0    0    0  501  0.00000000000E+00  0.00000000000E+00  0.18096789103E+04  0.18096789103E+04  0.50400001928E-02 0.  1.
        1   -1    0    0  501    0  0.00000000000E+00  0.00000000000E+00 -0.13254867895E+04  0.13254867895E+04  0.50400001928E-02 0. -1.
    10030    2    1    2    0    0  0.00000000000E+00  0.00000000000E+00  0.48419212075E+03  0.31351656998E+04  0.30975509609E+04 0.  0.
        5    1    3    3  502    0  0.27313125291E+03  0.15200109210E+04  0.12384618604E+03  0.15493204475E+04  0.46999998093E+01 0. -1.
       -5    1    3    3    0  502 -0.27313125291E+03 -0.15200109210E+04  0.36034593471E+03  0.15858452522E+04  0.46999998093E+01 0.  1.
</event>
<event>
 5   0  0.4436241E-08  0.3099841E+04  0.7818609E-02  0.8215782E-01
       -1   -1    0    0    0  501  0.00000000000E+00  0.00000000000E+00  0.15110732675E+04  0.15110732675E+04  0.50400001928E-02 0. -1.
        1   -1    0    0  501    0  0.00000000000E+00  0.00000000000E+00 -0.15897665401E+04  0.15897665401E+04  0.50400001928E-02 0.  1.
    10030    2    1    2    0    0  0.00000000000E+00  0.00000000000E+00 -0.78693272593E+02  0.31008398075E+04  0.30998411057E+04 0.  0.
        3    1    3    3  502    0  0.13773607040E+04 -0.69064735405E+03  0.12844957050E+03  0.15461615630E+04  0.10100000352E+00 0. -1.
       -3    1    3    3    0  502 -0.13773607040E+04  0.69064735405E+03 -0.20714284309E+03  0.15546782446E+04  0.10100000352E+00 0.  1.
</event>
<event>
 5   0  0.4305500E-08  0.3100516E+04  0.7818609E-02  0.8215596E-01
        3   -1    0    0  501    0  0.00000000000E+00  0.00000000000E+00  0.24463418884E+04  0.24463418905E+04  0.10100000352E+00 0.  1.
       -3   -1    0    0    0  501  0.00000000000E+00  0.00000000000E+00 -0.98240533617E+03  0.98240534136E+03  0.10100000352E+00 0. -1.
    10030    2    1    2    0    0  0.00000000000E+00  0.00000000000E+00  0.14639365523E+04  0.34287472319E+04  0.31005156589E+04 0.  0.
        3    1    3    3  502    0  0.13312653900E+04  0.20895727230E+03  0.15795018699E+04  0.20762362215E+04  0.10100000352E+00 0.  1.
       -3    1    3    3    0  502 -0.13312653900E+04 -0.20895727230E+03 -0.11556531765E+03  0.13525110104E+04  0.10100000352E+00 0. -1.
</event>
<event>
 5   0  0.4436241E-08  0.3099374E+04  0.7818609E-02  0.8215910E-01
        1   -1    0    0  501    0  0.00000000000E+00  0.00000000000E+00  0.17136506159E+04  0.17136506159E+04  0.50400001928E-02 0.  1.
       -1   -1    0    0    0  501  0.00000000000E+00  0.00000000000E+00 -0.14014112566E+04  0.14014112566E+04  0.50400001928E-02 0. -1.
    10030    2    1    2    0    0  0.00000000000E+00  0.00000000000E+00  0.31223935932E+03  0.31150618726E+04  0.30993736549E+04 0.  0.
        3    1    3    3  502    0 -0.10299938367E+04 -0.11089868837E+04  0.49065586597E+03  0.15910632925E+04  0.10100000352E+00 0.  1.
       -3    1    3    3    0  502  0.10299938367E+04  0.11089868837E+04 -0.17841650665E+03  0.15239985800E+04  0.10100000352E+00 0. -1.
</event>
<event>
 5   0  0.1329777E-07  0.3099692E+04  0.7818609E-02  0.8215822E-01
        2   -1    0    0  501    0  0.00000000000E+00  0.00000000000E+00  0.21035413774E+04  0.21035413774E+04  0.25500000920E-02 0.  1.
       -2   -1    0    0    0  501  0.00000000000E+00  0.00000000000E+00 -0.11418947155E+04  0.11418947155E+04  0.25500000920E-02 0. -1.
    10030    2    1    2    0    0  0.00000000000E+00  0.00000000000E+00  0.96164666191E+03  0.32454360928E+04  0.30996921025E+04 0.  0.
        1    1    3    3  502    0  0.42704649438E+03  0.85034344286E+03  0.17616873839E+04  0.20022475166E+04  0.50400001928E-02 0.  1.
       -1    1    3    3    0  502 -0.42704649438E+03 -0.85034344286E+03 -0.80004072198E+03  0.12431885762E+04  0.50400001928E-02 0. -1.
</event>
<event>
 5   0  0.4517409E-08  0.3100216E+04  0.7818609E-02  0.8215679E-01
        1   -1    0    0  501    0  0.00000000000E+00  0.00000000000E+00  0.17378451248E+04  0.17378451248E+04  0.50400001928E-02 0. -1.
       -1   -1    0    0    0  501  0.00000000000E+00  0.00000000000E+00 -0.13826514693E+04  0.13826514693E+04  0.50400001928E-02 0.  1.
    10030    2    1    2    0    0  0.00000000000E+00  0.00000000000E+00  0.35519365549E+03  0.31204965941E+04  0.31002155507E+04 0.  0.
        2    1    3    3  502    0  0.13174174922E+04 -0.19477760673E+03  0.97607507032E+03  0.16511358841E+04  0.25500000920E-02 0.  1.
       -2    1    3    3    0  502 -0.13174174922E+04  0.19477760673E+03 -0.62088141483E+03  0.14693607100E+04  0.25500000920E-02 0. -1.
</event>
<event>
 5   0  0.4436241E-08  0.3097592E+04  0.7818609E-02  0.8216399E-01
       -1   -1    0    0    0  501  0.00000000000E+00  0.00000000000E+00  0.17729980160E+04  0.17729980160E+04  0.50400001928E-02 0.  1.
        1   -1    0    0  501    0  0.00000000000E+00  0.00000000000E+00 -0.13529450860E+04  0.13529450861E+04  0.50400001928E-02 0. -1.
    10030    2    1    2    0    0  0.00000000000E+00  0.00000000000E+00  0.42005292995E+03  0.31259431021E+04  0.30975919378E+04 0.  0.
        3    1    3    3  502    0  0.48998300070E+03 -0.51744844951E+03  0.15977242660E+04  0.17494453633E+04  0.10100000352E+00 0.  1.
       -3    1    3    3    0  502 -0.48998300070E+03  0.51744844951E+03 -0.11776713360E+04  0.13764977388E+04  0.10100000352E+00 0. -1.
</event>
<event>
 5   0  0.4517409E-08  0.3095488E+04  0.7818609E-02  0.8216977E-01
       -1   -1    0    0    0  501  0.00000000000E+00  0.00000000000E+00  0.17194953545E+04  0.17194953545E+04  0.50400001928E-02 0. -1.
        1   -1    0    0  501    0  0.00000000000E+00  0.00000000000E+00 -0.13931481493E+04  0.13931481494E+04  0.50400001928E-02 0.  1.
    10030    2    1    2    0    0  0.00000000000E+00  0.00000000000E+00  0.32634720512E+03  0.31126435038E+04  0.30954881818E+04 0.  0.
        2    1    3    3  502    0 -0.80847405465E+01 -0.45710315351E+03 -0.13237042172E+04  0.14004290452E+04  0.25500000920E-02 0.  1.
       -2    1    3    3    0  502  0.80847405465E+01  0.45710315351E+03  0.16500514223E+04  0.17122144586E+04  0.25500000920E-02 0. -1.
</event>
<event>
 5   0  0.4436241E-08  0.3099586E+04  0.7818609E-02  0.8215852E-01
        1   -1    0    0  501    0  0.00000000000E+00  0.00000000000E+00  0.13962735887E+04  0.13962735888E+04  0.50400001928E-02 0.  1.
       -1   -1    0    0    0  501  0.00000000000E+00  0.00000000000E+00 -0.17201917257E+04  0.17201917257E+04  0.50400001928E-02 0. -1.
    10030    2    1    2    0    0  0.00000000000E+00  0.00000000000E+00 -0.32391813690E+03  0.31164653144E+04  0.30995859557E+04 0.  0.
        3    1    3    3  502    0 -0.86482615774E+03  0.11193889470E+04 -0.79857561593E+03  0.16244010965E+04  0.10100000352E+00 0. -1.
       -3    1    3    3    0  502  0.86482615774E+03 -0.11193889470E+04  0.47465747902E+03  0.14920642179E+04  0.10100000352E+00 0.  1.
</event>
<event>
 5   0  0.1318916E-07  0.3099754E+04  0.7818609E-02  0.8215805E-01
       -2   -1    0    0    0  501  0.00000000000E+00  0.00000000000E+00  0.15693384363E+04  0.15693384363E+04  0.25500000920E-02 0.  1.
        2   -1    0    0  501    0  0.00000000000E+00  0.00000000000E+00 -0.15306571356E+04  0.15306571356E+04  0.25500000920E-02 0. -1.
    10030    2    1    2    0    0  0.00000000000E+00  0.00000000000E+00  0.38681300737E+02  0.30999955719E+04  0.30997542326E+04 0.  0.
        5    1    3    3  502    0 -0.57681450627E+03 -0.12959786140E+04 -0.60506478409E+03  0.15422065444E+04  0.46999998093E+01 0. -1.
       -5    1    3    3    0  502  0.57681450627E+03  0.12959786140E+04  0.64374608483E+03  0.15577890275E+04  0.46999998093E+01 0.  1.
</event>
<event>
 5   0  0.1329777E-07  0.3100615E+04  0.7818609E-02  0.8215569E-01
       -2   -1    0    0    0  501  0.00000000000E+00  0.00000000000E+00  0.12234056534E+04  0.12234056534E+04  0.25500000920E-02 0. -1.
        2   -1    0    0  501    0  0.00000000000E+00  0.00000000000E+00 -0.19645597663E+04  0.19645597663E+04  0.25500000920E-02 0.  1.
    10030    2    1    2    0    0  0.00000000000E+00  0.00000000000E+00 -0.74115411288E+03  0.31879654197E+04  0.31006151161E+04 0.  0.
        1    1    3    3  502    0 -0.10190716909E+03 -0.54380803426E+03 -0.18595962429E+04  0.19401573225E+04  0.50400001928E-02 0.  1.
       -1    1    3    3    0  502  0.10190716909E+03  0.54380803426E+03  0.11184421300E+04  0.12478080972E+04  0.50400001928E-02 0. -1.
</event>
<event>
 5   0  0.4470354E-08  0.3100928E+04  0.7818609E-02  0.8215483E-01
       -1   -1    0    0    0  501  0.00000000000E+00  0.00000000000E+00  0.17401202499E+04  0.17401202499E+04  0.50400001928E-02 0.  1.
        1   -1    0    0  501    0  0.00000000000E+00  0.00000000000E+00 -0.13814785593E+04  0.13814785594E+04  0.50400001928E-02 0. -1.
    10030    2    1    2    0    0  0.00000000000E+00  0.00000000000E+00  0.35864169059E+03  0.31215988093E+04  0.31009281294E+04 0.  0.
        1    1    3    3  502    0 -0.72342160301E+03 -0.84764586804E+03 -0.90587089379E+03  0.14361213074E+04  0.50400001928E-02 0. -1.
       -1    1    3    3    0  502  0.72342160301E+03  0.84764586804E+03  0.12645125844E+04  0.16854775019E+04  0.50400001928E-02 0.  1.
</event>
<event>
 5   0  0.1377237E-07  0.3100540E+04  0.7818609E-02  0.8215590E-01
       -2   -1    0    0    0  501  0.00000000000E+00  0.00000000000E+00  0.13564939234E+04  0.13564939234E+04  0.25500000920E-02 0.  1.
        2   -1    0    0  501    0  0.00000000000E+00  0.00000000000E+00 -0.17717270525E+04  0.17717270525E+04  0.25500000920E-02 0. -1.
    10030    2    1    2    0    0  0.00000000000E+00  0.00000000000E+00 -0.41523312915E+03  0.31282209759E+04  0.31005399405E+04 0.  0.
        2    1    3    3  502    0 -0.66087233434E+03 -0.11472082871E+04 -0.10213516428E+04  0.16721238813E+04  0.25500000920E-02 0. -1.
       -2    1    3    3    0  502  0.66087233434E+03  0.11472082871E+04  0.60611851368E+03  0.14560970946E+04  0.25500000920E-02 0.  1.
</event>
<event>
 5   0  0.1318916E-07  0.3105224E+04  0.7818609E-02  0.8214306E-01
       -2   -1    0    0    0  501  0.00000000000E+00  0.00000000000E+00  0.13037025993E+04  0.13037025993E+04  0.25500000920E-02 0. -1.
        2   -1    0    0  501    0  0.00000000000E+00  0.00000000000E+00 -0.18490445631E+04  0.18490445631E+04  0.25500000920E-02 0.  1.
    10030    2    1    2    0    0  0.00000000000E+00  0.00000000000E+00 -0.54534196376E+03  0.31527471624E+04  0.31052241163E+04 0.  0.
        5    1    3    3  502    0 -0.60342189124E+03 -0.12017112823E+04 -0.10606635811E+04  0.17126754822E+04  0.46999998093E+01 0.  1.
       -5    1    3    3    0  502  0.60342189124E+03  0.12017112823E+04  0.51532161737E+03  0.14400716802E+04  0.46999998093E+01 0. -1.
</event>
<event>
 5   0  0.4517409E-08  0.3100751E+04  0.7818609E-02  0.8215532E-01
       -1   -1    0    0    0  501  0.00000000000E+00  0.00000000000E+00  0.16716658172E+04  0.16716658172E+04  0.50400001928E-02 0. -1.
        1   -1    0    0  501    0  0.00000000000E+00  0.00000000000E+00 -0.14378854006E+04  0.14378854006E+04  0.50400001928E-02 0.  1.
    10030    2    1    2    0    0  0.00000000000E+00  0.00000000000E+00  0.23378041657E+03  0.31095512178E+04  0.31007507950E+04 0.  0.
        2    1    3    3  502    0 -0.13267278622E+03  0.55870354225E+03  0.15610858481E+04  0.16633522602E+04  0.25500000920E-02 0. -1.
       -2    1    3    3    0  502  0.13267278622E+03 -0.55870354225E+03 -0.13273054315E+04  0.14461989576E+04  0.25500000920E-02 0.  1.
</event>
<event>
 5   0  0.1377237E-07  0.3099637E+04  0.7818609E-02  0.8215838E-01
        2   -1    0    0  501    0  0.00000000000E+00  0.00000000000E+00  0.11083519453E+04  0.11083519453E+04  0.25500000920E-02 0.  1.
       -2   -1    0    0    0  501  0.00000000000E+00  0.00000000000E+00 -0.21671247010E+04  0.21671247010E+04  0.25500000920E-02 0. -1.
    10030    2    1    2    0    0  0.00000000000E+00  0.00000000000E+00 -0.10587727557E+04  0.32754766463E+04  0.30996366743E+04 0.  0.
        2    1    3    3  502    0 -0.13139810347E+04  0.59282424791E+03  0.72068145788E+02  0.14433227519E+04  0.25500000920E-02 0.  1.
       -2    1    3    3    0  502  0.13139810347E+04 -0.59282424791E+03 -0.11308409015E+04  0.18321538945E+04  0.25500000920E-02 0. -1.
</event>
<event>
 5   0  0.1398931E-07  0.3098768E+04  0.7818609E-02  0.8216076E-01
       -2   -1    0    0    0  501  0.00000000000E+00  0.00000000000E+00  0.10352269455E+04  0.10352269456E+04  0.25500000920E-02 0. -1.
        2   -1    0    0  501    0  0.00000000000E+00  0.00000000000E+00 -0.23189033918E+04  0.23189033918E+04  0.25500000920E-02 0.  1.
    10030    2    1    2    0    0  0.00000000000E+00  0.00000000000E+00 -0.12836764463E+04  0.33541303374E+04  0.30987683201E+04 0.  0.
        3    1    3    3  502    0  0.20380016022E+03 -0.36994853009E+03  0.97170979883E+03  0.10595359190E+04  0.10100000352E+00 0. -1.
       -3    1    3    3    0  502 -0.20380016022E+03  0.36994853009E+03 -0.22553862451E+04  0.22945944184E+04  0.10100000352E+00 0.  1.
</event>
<event>
 5   0  0.4305500E-08  0.3099367E+04  0.7818609E-02  0.8215912E-01
       -3   -1    0    0    0  501  0.00000000000E+00  0.00000000000E+00  0.10023597914E+04  0.10023597965E+04  0.10100000352E+00 0. -1.
        3   -1    0    0  501    0  0.00000000000E+00  0.00000000000E+00 -0.23958654656E+04  0.23958654677E+04  0.10100000352E+00 0.  1.
    10030    2    1    2    0    0  0.00000000000E+00  0.00000000000E+00 -0.13935056742E+04  0.33982252642E+04  0.30993671744E+04 0.  0.
        4    1    3    3  502    0 -0.81042010941E+03  0.84033195760E+02  0.74856527862E+03  0.11064329718E+04  0.12699999809E+01 0. -1.
       -4    1    3    3    0  502  0.81042010941E+03 -0.84033195760E+02 -0.21420709528E+04  0.22917922924E+04  0.12699999809E+01 0.  1.
</event>
<event>
 5   0  0.4838602E-08  0.3100423E+04  0.7818609E-02  0.8215622E-01
       -1   -1    0    0    0  501  0.00000000000E+00  0.00000000000E+00  0.10207863094E+04  0.10207863094E+04  0.50400001928E-02 0.  1.
        1   -1    0    0  501    0  0.00000000000E+00  0.00000000000E+00 -0.23542205252E+04  0.23542205252E+04  0.50400001928E-02 0. -1.
    10030    2    1    2    0    0  0.00000000000E+00  0.00000000000E+00 -0.13334342158E+04  0.33750068346E+04  0.31004232494E+04 0.  0.
        5    1    3    3  502    0  0.10053808287E+04 -0.11689333287E+04 -0.84203411090E+03  0.17567695557E+04  0.46999998093E+01 0.  1.
       -5    1    3    3    0  502 -0.10053808287E+04  0.11689333287E+04 -0.49140010488E+03  0.16182372789E+04  0.46999998093E+01 0. -1.
</event>
<event>
 5   0  0.1329777E-07  0.3100216E+04  0.7818609E-02  0.8215679E-01
        2   -1    0    0  501    0  0.00000000000E+00  0.00000000000E+00  0.12634608409E+04  0.12634608409E+04  0.25500000920E-02 0. -1.
       -2   -1    0    0    0  501  0.00000000000E+00  0.00000000000E+00 -0.19017882064E+04  0.19017882064E+04  0.25500000920E-02 0.  1.
    10030    2    1    2    0    0  0.00000000000E+00  0.00000000000E+00 -0.63832736548E+03  0.31652490473E+04  0.31002160740E+04 0.  0.
        1    1    3    3  502    0 -0.14745815683E+04  0.45250745895E+03 -0.47627847802E+03  0.16143094470E+04  0.50400001928E-02 0. -1.
       -1    1    3    3    0  502  0.14745815683E+04 -0.45250745895E+03 -0.16204888746E+03  0.15509396003E+04  0.50400001928E-02 0.  1.
</event>
<event>
 5   0  0.4450600E-08  0.3100552E+04  0.7818609E-02  0.8215586E-01
       -1   -1    0    0    0  501  0.00000000000E+00  0.00000000000E+00  0.14892350651E+04  0.14892350651E+04  0.50400001928E-02 0.  1.
        1   -1    0    0  501    0  0.00000000000E+00  0.00000000000E+00 -0.16138190432E+04  0.16138190432E+04  0.50400001928E-02 0. -1.
    10030    2    1    2    0    0  0.00000000000E+00  0.00000000000E+00 -0.12458397811E+03  0.31030541084E+04  0.31005521495E+04 0.  0.
        4    1    3    3  502    0 -0.48565847413E+03  0.88327606151E+03 -0.12410851859E+04  0.15988542166E+04  0.12699999809E+01 0. -1.
       -4    1    3    3    0  502  0.48565847413E+03 -0.88327606151E+03  0.11165012078E+04  0.15041998917E+04  0.12699999809E+01 0.  1.
</event>
<event>
 5   0  0.4517409E-08  0.3097597E+04  0.7818609E-02  0.8216398E-01
        1   -1    0    0  501    0  0.00000000000E+00  0.00000000000E+00  0.16650572495E+04  0.16650572496E+04  0.50400001928E-02 0. -1.
       -1   -1    0    0    0  501  0.00000000000E+00  0.00000000000E+00 -0.14406570729E+04  0.14406570729E+04  0.50400001928E-02 0.  1.
    10030    2    1    2    0    0  0.00000000000E+00  0.00000000000E+00  0.22440017663E+03  0.31057143225E+04  0.30975968126E+04 0.  0.
        2    1    3    3  502    0 -0.10203912411E+04 -0.52708884797E+03  0.11540360439E+04  0.16281339408E+04  0.25500000920E-02 0. -1.
       -2    1    3    3    0  502  0.10203912411E+04  0.52708884797E+03 -0.92963586726E+03  0.14775803817E+04  0.25500000920E-02 0.  1.
</event>
<event>
 5   0  0.1325713E-07  0.3100322E+04  0.7818609E-02  0.8215649E-01
       -2   -1    0    0    0  501  0.00000000000E+00  0.00000000000E+00  0.13521822801E+04  0.13521822801E+04  0.25500000920E-02 0. -1.
        2   -1    0    0  501    0  0.00000000000E+00  0.00000000000E+00 -0.17771268369E+04  0.17771268369E+04  0.25500000920E-02 0.  1.
    10030    2    1    2    0    0  0.00000000000E+00  0.00000000000E+00 -0.42494455680E+03  0.31293091169E+04  0.31003221886E+04 0.  0.
        4    1    3    3  502    0  0.48359580450E+03  0.87093505329E+03  0.98632114552E+03  0.14018643958E+04  0.12699999809E+01 0. -1.
       -4    1    3    3    0  502 -0.48359580450E+03 -0.87093505329E+03 -0.14112657023E+04  0.17274447212E+04  0.12699999809E+01 0.  1.
</event>
<event>
 5   0  0.1377237E-07  0.3100371E+04  0.7818609E-02  0.8215636E-01
       -2   -1    0    0    0  501  0.00000000000E+00  0.00000000000E+00  0.10004433559E+04  0.10004433559E+04  0.25500000920E-02 0.  1.
        2   -1    0    0  501    0  0.00000000000E+00  0.00000000000E+00 -0.24020102568E+04  0.24020102568E+04  0.25500000920E-02 0. -1.
    10030    2    1    2    0    0  0.00000000000E+00  0.00000000000E+00 -0.14015669009E+04  0.34024536126E+04  0.31003710759E+04 0.  0.
        2    1    3    3  502    0  0.97011628315E+01  0.90948702451E+03 -0.20784086380E+04  0.22687095951E+04  0.25500000920E-02 0. -1.
       -2    1    3    3    0  502 -0.97011628315E+01 -0.90948702451E+03  0.67684173707E+03  0.11337440176E+04  0.25500000920E-02 0.  1.
</event>
<event>
 5   0  0.1318916E-07  0.3101226E+04  0.7818609E-02  0.8215402E-01
        2   -1    0    0  501    0  0.00000000000E+00  0.00000000000E+00  0.21481072743E+04  0.21481072743E+04  0.25500000920E-02 0. -1.
       -2   -1    0    0    0  501  0.00000000000E+00  0.00000000000E+00 -0.11193111096E+04  0.11193111097E+04  0.25500000920E-02 0.  1.
    10030    2    1    2    0    0  0.00000000000E+00  0.00000000000E+00  0.10287961646E+04  0.32674183839E+04  0.31012257814E+04 0.  0.
        5    1    3    3  502    0 -0.12236326646E+04 -0.28555933895E+03  0.14716912308E+04  0.19351274384E+04  0.46999998093E+01 0. -1.
       -5    1    3    3    0  502  0.12236326646E+04  0.28555933895E+03 -0.44289506615E+03  0.13322909456E+04  0.46999998093E+01 0.  1.
</event>
<event>
 5   0  0.4517409E-08  0.3098504E+04  0.7818609E-02  0.8216148E-01
       -1   -1    0    0    0  501  0.00000000000E+00  0.00000000000E+00  0.10874765946E+04  0.10874765946E+04  0.50400001928E-02 0.  1.
        1   -1    0    0  501    0  0.00000000000E+00  0.00000000000E+00 -0.22071118699E+04  0.22071118699E+04  0.50400001928E-02 0. -1.
    10030    2    1    2    0    0  0.00000000000E+00  0.00000000000E+00 -0.11196352753E+04  0.32945884645E+04  0.30985044781E+04 0.  0.
        2    1    3    3  502    0  0.94499986271E+03 -0.89236316886E+03  0.33665435544E+03  0.13426365557E+04  0.25500000920E-02 0.  1.
       -2    1    3    3    0  502 -0.94499986271E+03  0.89236316886E+03 -0.14562896307E+04  0.19519519088E+04  0.25500000920E-02 0. -1.
</event>
<event>
 5   0  0.1325713E-07  0.3104118E+04  0.7818609E-02  0.8214609E-01
       -2   -1    0    0    0  501  0.00000000000E+00  0.00000000000E+00  0.14070668692E+04  0.14070668692E+04  0.25500000920E-02 0. -1.
        2   -1    0    0  501    0  0.00000000000E+00  0.00000000000E+00 -0.17119923137E+04  0.17119923137E+04  0.25500000920E-02 0.  1.
    10030    2    1    2    0    0  0.00000000000E+00  0.00000000000E+00 -0.30492544459E+03  0.31190591829E+04  0.31041183385E+04 0.  0.
        4    1    3    3  502    0 -0.11301875475E+04  0.10475954932E+04  0.33103844793E+02  0.15413882339E+04  0.12699999809E+01 0.  1.
       -4    1    3    3    0  502  0.11301875475E+04 -0.10475954932E+04 -0.33802928938E+03  0.15776709490E+04  0.12699999809E+01 0. -1.
</event>
<event>
 5   0  0.1398931E-07  0.3099530E+04  0.7818609E-02  0.8215867E-01
        2   -1    0    0  501    0  0.00000000000E+00  0.00000000000E+00  0.25465180513E+04  0.25465180514E+04  0.25500000920E-02 0.  1.
       -2   -1    0    0    0  501  0.00000000000E+00  0.00000000000E+00 -0.94315931708E+03  0.94315931708E+03  0.25500000920E-02 0. -1.
    10030    2    1    2    0    0  0.00000000000E+00  0.00000000000E+00  0.16033587343E+04  0.34896773684E+04  0.30995304330E+04 0.  0.
        3    1    3    3  502    0 -0.11948965559E+04  0.39384996552E+02 -0.30857248687E+03  0.12347250492E+04  0.10100000352E+00 0. -1.
       -3    1    3    3    0  502  0.11948965559E+04 -0.39384996552E+02  0.19119312211E+04  0.22549523192E+04  0.10100000352E+00 0.  1.
</event>
<event>
 5   0  0.4436241E-08  0.3099248E+04  0.7818609E-02  0.8215944E-01
        1   -1    0    0  501    0  0.00000000000E+00  0.00000000000E+00  0.92381362858E+03  0.92381362859E+03  0.50400001928E-02 0.  1.
       -1   -1    0    0    0  501  0.00000000000E+00  0.00000000000E+00 -0.25993712121E+04  0.25993712121E+04  0.50400001928E-02 0. -1.
    10030    2    1    2    0    0  0.00000000000E+00  0.00000000000E+00 -0.16755575835E+04  0.35231848407E+04  0.30992480065E+04 0.  0.
        3    1    3    3  502    0  0.13979602095E+04  0.77013319935E+02 -0.15927891593E+04  0.21206605374E+04  0.10100000352E+00 0. -1.
       -3    1    3    3    0  502 -0.13979602095E+04 -0.77013319935E+02 -0.82768424214E+02  0.14025243032E+04  0.10100000352E+00 0.  1.
</event>
<event>
 5   0  0.1398931E-07  0.3099692E+04  0.7818609E-02  0.8215823E-01
       -2   -1    0    0    0  501  0.00000000000E+00  0.00000000000E+00  0.85461488972E+03  0.85461488973E+03  0.25500000920E-02 0. -1.
        2   -1    0    0  501    0  0.00000000000E+00  0.00000000000E+00 -0.28106487735E+04  0.28106487735E+04  0.25500000920E-02 0.  1.
    10030    2    1    2    0    0  0.00000000000E+00  0.00000000000E+00 -0.19560338838E+04  0.36652636632E+04  0.30996917857E+04 0.  0.
        3    1    3    3  502    0  0.41667131447E+03  0.82615722359E+03  0.49217287286E+03  0.10480385915E+04  0.10100000352E+00 0. -1.
       -3    1    3    3    0  502 -0.41667131447E+03 -0.82615722359E+03 -0.24482067566E+04  0.26172250717E+04  0.10100000352E+00 0.  1.
</event>
<event>
 5   0  0.4517409E-08  0.3100136E+04  0.7818609E-02  0.8215701E-01
       -1   -1    0    0    0  501  0.00000000000E+00  0.00000000000E+00  0.15705328085E+04  0.15705328085E+04  0.50400001928E-02 0. -1.
        1   -1    0    0  501    0  0.00000000000E+00  0.00000000000E+00 -0.15298698904E+04  0.15298698904E+04  0.50400001928E-02 0.  1.
    10030    2    1    2    0    0  0.00000000000E+00  0.00000000000E+00  0.40662918144E+02  0.31004026989E+04  0.31001360329E+04 0.  0.
        2    1    3    3  502    0  0.36908092263E+03  0.14825446131E+04  0.28217758239E+03  0.15536355574E+04  0.25500000920E-02 0.  1.
       -2    1    3    3    0  502 -0.36908092263E+03 -0.14825446131E+04 -0.24151466425E+03  0.15467671416E+04  0.25500000920E-02 0. -1.
</event>
<event>
 5   0  0.4470354E-08  0.3104501E+04  0.7818609E-02  0.8214504E-01
       -1   -1    0    0    0  501  0.00000000000E+00  0.00000000000E+00  0.18290860492E+04  0.18290860492E+04  0.50400001928E-02 0. -1.
        1   -1    0    0  501    0  0.00000000000E+00  0.00000000000E+00 -0.13173146534E+04  0.13173146534E+04  0.50400001928E-02 0.  1.
    10030    2    1    2    0    0  0.00000000000E+00  0.00000000000E+00  0.51177139574E+03  0.31464007026E+04  0.31045011548E+04 0.  0.
        1    1    3    3  502    0 -0.83189095268E+03  0.60839080477E+03  0.14322838881E+04  0.17645450021E+04  0.50400001928E-02 0. -1.
       -1    1    3    3    0  502  0.83189095268E+03 -0.60839080477E+03 -0.92051249232E+03  0.13818557005E+04  0.50400001928E-02 0.  1.
</event>
<event>
 5   0  0.1325713E-07  0.3107177E+04  0.7818609E-02  0.8213771E-01
       -2   -1    0    0    0  501  0.00000000000E+00  0.00000000000E+00  0.13523807655E+04  0.13523807655E+04  0.25500000920E-02 0. -1.
        2   -1    0    0  501    0  0.00000000000E+00  0.00000000000E+00 -0.17847324529E+04  0.17847324529E+04  0.25500000920E-02 0.  1.
    10030    2    1    2    0    0  0.00000000000E+00  0.00000000000E+00 -0.43235168742E+03  0.31371132184E+04  0.31071773949E+04 0.  0.
        4    1    3    3  502    0  0.13796402876E+04 -0.68068224934E+03 -0.43482774160E+03  0.15986908474E+04  0.12699999809E+01 0.  1.
       -4    1    3    3    0  502 -0.13796402876E+04  0.68068224934E+03  0.24760541793E+01  0.15384223710E+04  0.12699999809E+01 0. -1.
</event>
<event>
 5   0  0.1325713E-07  0.3101831E+04  0.7818609E-02  0.8215236E-01
       -2   -1    0    0    0  501  0.00000000000E+00  0.00000000000E+00  0.96643233165E+03  0.96643233165E+03  0.25500000920E-02 0. -1.
        2   -1    0    0  501    0  0.00000000000E+00  0.00000000000E+00 -0.24888847391E+04  0.24888847391E+04  0.25500000920E-02 0.  1.
    10030    2    1    2    0    0  0.00000000000E+00  0.00000000000E+00 -0.15224524075E+04  0.34553170708E+04  0.31018308668E+04 0.  0.
        4    1    3    3  502    0 -0.10767692180E+04  0.11128481083E+04 -0.66492041799E+03  0.16852250995E+04  0.12699999809E+01 0.  1.
       -4    1    3    3    0  502  0.10767692180E+04 -0.11128481083E+04 -0.85753198946E+03  0.17700919713E+04  0.12699999809E+01 0. -1.
</event>
<event>
 5   0  0.1325713E-07  0.3101717E+04  0.7818609E-02  0.8215267E-01
       -2   -1    0    0    0  501  0.00000000000E+00  0.00000000000E+00  0.71887340311E+03  0.71887340311E+03  0.25500000920E-02 0.  1.
        2   -1    0    0  501    0  0.00000000000E+00  0.00000000000E+00 -0.33457390505E+04  0.33457390505E+04  0.25500000920E-02 0. -1.
    10030    2    1    2    0    0  0.00000000000E+00  0.00000000000E+00 -0.26268656474E+04  0.40646124536E+04  0.31017174708E+04 0.  0.
        4    1    3    3  502    0 -0.52748893422E+03 -0.11600674820E+03  0.59164985005E+03  0.80109506260E+03  0.12699999809E+01 0.  1.
       -4    1    3    3    0  502  0.52748893422E+03  0.11600674820E+03 -0.32185154975E+04  0.32635173910E+04  0.12699999809E+01 0. -1.
</event>
<event>
 5   0  0.4470354E-08  0.3099876E+04  0.7818609E-02  0.8215772E-01
        1   -1    0    0  501    0  0.00000000000E+00  0.00000000000E+00  0.14122771436E+04  0.14122771436E+04  0.50400001928E-02 0. -1.
       -1   -1    0    0    0  501  0.00000000000E+00  0.00000000000E+00 -0.17010177164E+04  0.17010177164E+04  0.50400001928E-02 0.  1.
    10030    2    1    2    0    0  0.00000000000E+00  0.00000000000E+00 -0.28874057282E+03  0.31132948601E+04  0.30998764116E+04 0.  0.
        1    1    3    3  502    0  0.12404889920E+04 -0.70610242326E+03  0.46232644617E+03  0.15003797233E+04  0.50400001928E-02 0.  1.
       -1    1    3    3    0  502 -0.12404889920E+04  0.70610242326E+03 -0.75106701899E+03  0.16129151367E+04  0.50400001928E-02 0. -1.
</event>
<event>
 5   0  0.1318916E-07  0.3100457E+04  0.7818609E-02  0.8215612E-01
        2   -1    0    0  501    0  0.00000000000E+00  0.00000000000E+00  0.17691801151E+04  0.17691801151E+04  0.25500000920E-02 0. -1.
       -2   -1    0    0    0  501  0.00000000000E+00  0.00000000000E+00 -0.13583744710E+04  0.13583744710E+04  0.25500000920E-02 0.  1.
    10030    2    1    2    0    0  0.00000000000E+00  0.00000000000E+00  0.41080564415E+03  0.31275545861E+04  0.31004574520E+04 0.  0.
        5    1    3    3  502    0 -0.72231913597E+03 -0.78653939471E+03  0.13389668114E+04  0.17126714121E+04  0.46999998093E+01 0. -1.
       -5    1    3    3    0  502  0.72231913597E+03  0.78653939471E+03 -0.92816116728E+03  0.14148831740E+04  0.46999998093E+01 0.  1.
</event>
<event>
 5   0  0.1329777E-07  0.3101104E+04  0.7818609E-02  0.8215435E-01
       -2   -1    0    0    0  501  0.00000000000E+00  0.00000000000E+00  0.95164406278E+03  0.95164406279E+03  0.25500000920E-02 0. -1.
        2   -1    0    0  501    0  0.00000000000E+00  0.00000000000E+00 -0.25263762217E+04  0.25263762217E+04  0.25500000920E-02 0.  1.
    10030    2    1    2    0    0  0.00000000000E+00  0.00000000000E+00 -0.15747321589E+04  0.34780202844E+04  0.31011036305E+04 0.  0.
        1    1    3    3  502    0 -0.11352272622E+04  0.18746425677E+03  0.37835184912E+03  0.12112117511E+04  0.50400001928E-02 0. -1.
       -1    1    3    3    0  502  0.11352272622E+04 -0.18746425677E+03 -0.19530840080E+04  0.22668085333E+04  0.50400001928E-02 0.  1.
</event>
<event>
 5   0  0.4517409E-08  0.3097937E+04  0.7818609E-02  0.8216304E-01
       -1   -1    0    0    0  501  0.00000000000E+00  0.00000000000E+00  0.12579830403E+04  0.12579830403E+04  0.50400001928E-02 0.  1.
        1   -1    0    0  501    0  0.00000000000E+00  0.00000000000E+00 -0.19072617343E+04  0.19072617343E+04  0.50400001928E-02 0. -1.
    10030    2    1    2    0    0  0.00000000000E+00  0.00000000000E+00 -0.64927869408E+03  0.31652447746E+04  0.30979366779E+04 0.  0.
        2    1    3    3  502    0  0.10640767753E+04 -0.35247016846E+03  0.76760915855E+03  0.13585722004E+04  0.25500000920E-02 0.  1.
       -2    1    3    3    0  502 -0.10640767753E+04  0.35247016846E+03 -0.14168878526E+04  0.18066725742E+04  0.25500000920E-02 0. -1.
</event>
<event>
 5   0  0.4470354E-08  0.3096770E+04  0.7818609E-02  0.8216625E-01
        1   -1    0    0  501    0  0.00000000000E+00  0.00000000000E+00  0.17680804567E+04  0.17680804567E+04  0.50400001928E-02 0. -1.
       -1   -1    0    0    0  501  0.00000000000E+00  0.00000000000E+00 -0.13559884079E+04  0.13559884079E+04  0.50400001928E-02 0.  1.
    10030    2    1    2    0    0  0.00000000000E+00  0.00000000000E+00  0.41209204881E+03  0.31240688646E+04  0.30967703199E+04 0.  0.
        1    1    3    3  502    0  0.93701005145E+03 -0.26399637371E+03  0.14207427179E+04  0.17222635664E+04  0.50400001928E-02 0. -1.
       -1    1    3    3    0  502 -0.93701005145E+03  0.26399637371E+03 -0.10086506691E+04  0.14018052982E+04  0.50400001928E-02 0.  1.
</event>
<event>
 5   0  0.4517409E-08  0.3096823E+04  0.7818609E-02  0.8216610E-01
       -1   -1    0    0    0  501  0.00000000000E+00  0.00000000000E+00  0.96607056426E+03  0.96607056427E+03  0.50400001928E-02 0.  1.
        1   -1    0    0  501    0  0.00000000000E+00  0.00000000000E+00 -0.24817841937E+04  0.24817841937E+04  0.50400001928E-02 0. -1.
    10030    2    1    2    0    0  0.00000000000E+00  0.00000000000E+00 -0.15157136295E+04  0.34478547580E+04  0.30968233120E+04 0.  0.
        2    1    3    3  502    0 -0.21714106123E+03  0.97100884822E+03  0.56303598269E+03  0.11432488538E+04  0.25500000920E-02 0.  1.
       -2    1    3    3    0  502  0.21714106123E+03 -0.97100884822E+03 -0.20787496122E+04  0.23046059042E+04  0.25500000920E-02 0. -1.
</event>
<event>
 5   0  0.1398931E-07  0.3112588E+04  0.7818609E-02  0.8212292E-01
        2   -1    0    0  501    0  0.00000000000E+00  0.00000000000E+00  0.11107729457E+04  0.11107729457E+04  0.25500000920E-02 0. -1.
       -2   -1    0    0    0  501  0.00000000000E+00  0.00000000000E+00 -0.21805097110E+04  0.21805097110E+04  0.25500000920E-02 0.  1.
    10030    2    1    2    0    0  0.00000000000E+00  0.00000000000E+00 -0.10697367653E+04  0.32912826567E+04  0.31125881159E+04 0.  0.
        3    1    3    3  502    0  0.44876091796E+03 -0.10209760968E+03  0.10371706752E+04  0.11346952468E+04  0.10100000352E+00 0. -1.
       -3    1    3    3    0  502 -0.44876091796E+03  0.10209760968E+03 -0.21069074405E+04  0.21565874099E+04  0.10100000352E+00 0.  1.
</event>
<event>
 5   0  0.4517409E-08  0.3099098E+04  0.7818609E-02  0.8215986E-01
        1   -1    0    0  501    0  0.00000000000E+00  0.00000000000E+00  0.23080728273E+04  0.23080728273E+04  0.50400001928E-02 0.  1.
       -1   -1    0    0    0  501  0.00000000000E+00  0.00000000000E+00 -0.10403057090E+04  0.10403057090E+04  0.50400001928E-02 0. -1.
    10030    2    1    2    0    0  0.00000000000E+00  0.00000000000E+00  0.12677671182E+04  0.33483785363E+04  0.30990975067E+04 0.  0.
        2    1    3    3  502    0 -0.43824737637E+03 -0.11272031141E+04  0.16805438259E+04  0.20704770402E+04  0.25500000920E-02 0.  1.
       -2    1    3    3    0  502  0.43824737637E+03  0.11272031141E+04 -0.41277670766E+03  0.12779014961E+04  0.25500000920E-02 0. -1.
</event>
<event>
 5   0  0.1325713E-07  0.3100182E+04  0.7818609E-02  0.8215688E-01
        2   -1    0    0  501    0  0.00000000000E+00  0.00000000000E+00  0.13735493089E+04  0.13735493090E+04  0.25500000920E-02 0. -1.
       -2   -1    0    0    0  501  0.00000000000E+00  0.00000000000E+00 -0.17493235842E+04  0.17493235842E+04  0.25500000920E-02 0.  1.
    10030    2    1    2    0    0  0.00000000000E+00  0.00000000000E+00 -0.37577427521E+03  0.31228728931E+04  0.31001820593E+04 0.  0.
        4    1    3    3  502    0  0.30331594236E+03 -0.11722077773E+04 -0.11628081817E+04  0.16787483774E+04  0.12699999809E+01 0. -1.
       -4    1    3    3    0  502 -0.30331594236E+03  0.11722077773E+04  0.78703390648E+03  0.14441245158E+04  0.12699999809E+01 0.  1.
</event>
<event>
 5   0  0.4436241E-08  0.3077364E+04  0.7818609E-02  0.8221978E-01
        1   -1    0    0  501    0  0.00000000000E+00  0.00000000000E+00  0.24576413656E+04  0.24576413656E+04  0.50400001928E-02 0. -1.
       -1   -1    0    0    0  501  0.00000000000E+00  0.00000000000E+00 -0.96333924917E+03  0.96333924918E+03  0.50400001928E-02 0.  1.
    10030    2    1    2    0    0  0.00000000000E+00  0.00000000000E+00  0.14943021164E+04  0.34209806148E+04  0.30773640590E+04 0.  0.
        3    1    3    3  502    0 -0.93092480429E+03  0.68932446592E+03  0.18730338186E+04  0.22022817500E+04  0.10100000352E+00 0. -1.
       -3    1    3    3    0  502  0.93092480429E+03 -0.68932446592E+03 -0.37873170218E+03  0.12186988648E+04  0.10100000352E+00 0.  1.
</event>
<event>
 5   0  0.4470354E-08  0.3100363E+04  0.7818609E-02  0.8215638E-01
       -1   -1    0    0    0  501  0.00000000000E+00  0.00000000000E+00  0.11247220254E+04  0.11247220254E+04  0.50400001928E-02 0.  1.
        1   -1    0    0  501    0  0.00000000000E+00  0.00000000000E+00 -0.21365842530E+04  0.21365842530E+04  0.50400001928E-02 0. -1.
    10030    2    1    2    0    0  0.00000000000E+00  0.00000000000E+00 -0.10118622276E+04  0.32613062784E+04  0.31003634422E+04 0.  0.
        1    1    3    3  502    0  0.62710741662E+03 -0.58343917585E+03 -0.18650547764E+04  0.20523387398E+04  0.50400001928E-02 0. -1.
       -1    1    3    3    0  502 -0.62710741662E+03  0.58343917585E+03  0.85319254884E+03  0.12089675386E+04  0.50400001928E-02 0.  1.
</event>
<event>
 5   0  0.1325713E-07  0.3101085E+04  0.7818609E-02  0.8215440E-01
       -2   -1    0    0    0  501  0.00000000000E+00  0.00000000000E+00  0.13708404448E+04  0.13708404448E+04  0.25500000920E-02 0.  1.
        2   -1    0    0  501    0  0.00000000000E+00  0.00000000000E+00 -0.17538014584E+04  0.17538014584E+04  0.25500000920E-02 0. -1.
    10030    2    1    2    0    0  0.00000000000E+00  0.00000000000E+00 -0.38296101363E+03  0.31246419032E+04  0.31010849530E+04 0.  0.
        4    1    3    3  502    0  0.10113660821E+03  0.37015328119E+03 -0.17052035825E+04  0.17478452265E+04  0.12699999809E+01 0. -1.
       -4    1    3    3    0  502 -0.10113660821E+03 -0.37015328119E+03  0.13222425689E+04  0.13767966767E+04  0.12699999809E+01 0.  1.
</event>
<event>
 5   0  0.1318916E-07  0.3099601E+04  0.7818609E-02  0.8215847E-01
       -2   -1    0    0    0  501  0.00000000000E+00  0.00000000000E+00  0.14112191772E+04  0.14112191772E+04  0.25500000920E-02 0. -1.
        2   -1    0    0  501    0  0.00000000000E+00  0.00000000000E+00 -0.17019901645E+04  0.17019901645E+04  0.25500000920E-02 0.  1.
    10030    2    1    2    0    0  0.00000000000E+00  0.00000000000E+00 -0.29077098727E+03  0.31132093417E+04  0.30996007223E+04 0.  0.
        5    1    3    3  502    0  0.16671546567E+03  0.13883727698E+04  0.52574431836E+03  0.14939217425E+04  0.46999998093E+01 0. -1.
       -5    1    3    3    0  502 -0.16671546567E+03 -0.13883727698E+04 -0.81651530563E+03  0.16192875992E+04  0.46999998093E+01 0.  1.
</event>
<event>
 5   0  0.4517409E-08  0.3088979E+04  0.7818609E-02  0.8218769E-01
       -1   -1    0    0    0  501  0.00000000000E+00  0.00000000000E+00  0.12317773853E+04  0.12317773853E+04  0.50400001928E-02 0. -1.
        1   -1    0    0  501    0  0.00000000000E+00  0.00000000000E+00 -0.19365900076E+04  0.19365900076E+04  0.50400001928E-02 0.  1.
    10030    2    1    2    0    0  0.00000000000E+00  0.00000000000E+00 -0.70481262224E+03  0.31683673929E+04  0.30889789744E+04 0.  0.
        2    1    3    3  502    0 -0.11501490364E+04  0.41980053936E+03 -0.13180762544E+04  0.17989998085E+04  0.25500000920E-02 0.  1.
       -2    1    3    3    0  502  0.11501490364E+04 -0.41980053936E+03  0.61326363211E+03  0.13693675844E+04  0.25500000920E-02 0. -1.
</event>
<event>
 5   0  0.4450600E-08  0.3099678E+04  0.7818609E-02  0.8215826E-01
        1   -1    0    0  501    0  0.00000000000E+00  0.00000000000E+00  0.19318665311E+04  0.19318665311E+04  0.50400001928E-02 0. -1.
       -1   -1    0    0    0  501  0.00000000000E+00  0.00000000000E+00 -0.12433571957E+04  0.12433571957E+04  0.50400001928E-02 0.  1.
    10030    2    1    2    0    0  0.00000000000E+00  0.00000000000E+00  0.68850933538E+03  0.31752237268E+04  0.30996775010E+04 0.  0.
        4    1    3    3  502    0 -0.58163134999E+03 -0.24587367304E+03  0.17941122958E+04  0.19019961707E+04  0.12699999809E+01 0. -1.
       -4    1    3    3    0  502  0.58163134999E+03  0.24587367304E+03 -0.11056029605E+04  0.12732275560E+04  0.12699999809E+01 0.  1.
</event>
<event>
 5   0  0.4470354E-08  0.3100477E+04  0.7818609E-02  0.8215607E-01
       -1   -1    0    0    0  501  0.00000000000E+00  0.00000000000E+00  0.14843970692E+04  0.14843970692E+04  0.50400001928E-02 0.  1.
        1   -1    0    0  501    0  0.00000000000E+00  0.00000000000E+00 -0.16190004185E+04  0.16190004185E+04  0.50400001928E-02 0. -1.
    10030    2    1    2    0    0  0.00000000000E+00  0.00000000000E+00 -0.13460334923E+03  0.31033974877E+04  0.31004770448E+04 0.  0.
        1    1    3    3  502    0 -0.86692134470E+03  0.11632793486E+03 -0.13484114235E+04  0.16072641890E+04  0.50400001928E-02 0. -1.
       -1    1    3    3    0  502  0.86692134470E+03 -0.11632793486E+03  0.12138080742E+04  0.14961332987E+04  0.50400001928E-02 0.  1.
</event>
<event>
 5   0  0.4838602E-08  0.3098314E+04  0.7818609E-02  0.8216201E-01
        1   -1    0    0  501    0  0.00000000000E+00  0.00000000000E+00  0.13124193953E+04  0.13124193953E+04  0.50400001928E-02 0.  1.
       -1   -1    0    0    0  501  0.00000000000E+00  0.00000000000E+00 -0.18285982083E+04  0.18285982083E+04  0.50400001928E-02 0. -1.
    10030    2    1    2    0    0  0.00000000000E+00  0.00000000000E+00 -0.51617881296E+03  0.31410176036E+04  0.30983142222E+04 0.  0.
        5    1    3    3  502    0 -0.48669372654E+03  0.13035957921E+04 -0.94838011772E+03  0.16839476566E+04  0.46999998093E+01 0. -1.
       -5    1    3    3    0  502  0.48669372654E+03 -0.13035957921E+04  0.43220130477E+03  0.14570699470E+04  0.46999998093E+01 0.  1.
</event>
<event>
 5   0  0.4436241E-08  0.3099544E+04  0.7818609E-02  0.8215863E-01
        1   -1    0    0  501    0  0.00000000000E+00  0.00000000000E+00  0.15227844729E+04  0.15227844729E+04  0.50400001928E-02 0.  1.
       -1   -1    0    0    0  501  0.00000000000E+00  0.00000000000E+00 -0.15772382736E+04  0.15772382736E+04  0.50400001928E-02 0. -1.
    10030    2    1    2    0    0  0.00000000000E+00  0.00000000000E+00 -0.54453800749E+02  0.31000227465E+04  0.30995444524E+04 0.  0.
        3    1    3    3  502    0  0.25952776618E+03 -0.43530083854E+03  0.14375647204E+04  0.15242814101E+04  0.10100000352E+00 0.  1.
       -3    1    3    3    0  502 -0.25952776618E+03  0.43530083854E+03 -0.14920185212E+04  0.15757413364E+04  0.10100000352E+00 0. -1.
</event>
<event>
 5   0  0.1329777E-07  0.3102516E+04  0.7818609E-02  0.8215048E-01
       -2   -1    0    0    0  501  0.00000000000E+00  0.00000000000E+00  0.90398876245E+03  0.90398876246E+03  0.25500000920E-02 0. -1.
        2   -1    0    0  501    0  0.00000000000E+00  0.00000000000E+00 -0.26619816254E+04  0.26619816255E+04  0.25500000920E-02 0.  1.
    10030    2    1    2    0    0  0.00000000000E+00  0.00000000000E+00 -0.17579928630E+04  0.35659703879E+04  0.31025160598E+04 0.  0.
        1    1    3    3  502    0 -0.40736157093E+03 -0.75780100568E+03  0.60463728321E+03  0.10515664781E+04  0.50400001928E-02 0. -1.
       -1    1    3    3    0  502  0.40736157093E+03  0.75780100568E+03 -0.23626301462E+04  0.25144039098E+04  0.50400001928E-02 0.  1.
</event>
<event>
 5   0  0.4838602E-08  0.3104244E+04  0.7818609E-02  0.8214574E-01
        1   -1    0    0  501    0  0.00000000000E+00  0.00000000000E+00  0.96319236736E+03  0.96319236738E+03  0.50400001928E-02 0. -1.
       -1   -1    0    0    0  501  0.00000000000E+00  0.00000000000E+00 -0.25011441517E+04  0.25011441517E+04  0.50400001928E-02 0.  1.
    10030    2    1    2    0    0  0.00000000000E+00  0.00000000000E+00 -0.15379517843E+04  0.34643365191E+04  0.31042441635E+04 0.  0.
        5    1    3    3  502    0 -0.32466859537E+03 -0.11566108430E+04  0.32783271519E+03  0.12452528732E+04  0.46999998093E+01 0. -1.
       -5    1    3    3    0  502  0.32466859537E+03  0.11566108430E+04 -0.18657844995E+04  0.22190836459E+04  0.46999998093E+01 0.  1.
</event>
<event>
 5   0  0.4470354E-08  0.3100878E+04  0.7818609E-02  0.8215497E-01
        1   -1    0    0  501    0  0.00000000000E+00  0.00000000000E+00  0.10387570977E+04  0.10387570977E+04  0.50400001928E-02 0. -1.
       -1   -1    0    0    0  501  0.00000000000E+00  0.00000000000E+00 -0.23141701249E+04  0.23141701249E+04  0.50400001928E-02 0.  1.
    10030    2    1    2    0    0  0.00000000000E+00  0.00000000000E+00 -0.12754130272E+04  0.33529272226E+04  0.31008777096E+04 0.  0.
        1    1    3    3  502    0  0.28640350054E+03 -0.31390930017E+02  0.10095561828E+04  0.10498647731E+04  0.50400001928E-02 0. -1.
       -1    1    3    3    0  502 -0.28640350054E+03  0.31390930017E+02 -0.22849692100E+04  0.23030624495E+04  0.50400001928E-02 0.  1.
</event>
<event>
 5   0  0.4436241E-08  0.3102097E+04  0.7818609E-02  0.8215163E-01
       -1   -1    0    0    0  501  0.00000000000E+00  0.00000000000E+00  0.14477138189E+04  0.14477138189E+04  0.50400001928E-02 0. -1.
        1   -1    0    0  501    0  0.00000000000E+00  0.00000000000E+00 -0.16617593865E+04  0.16617593865E+04  0.50400001928E-02 0.  1.
    10030    2    1    2    0    0  0.00000000000E+00  0.00000000000E+00 -0.21404556757E+03  0.31094732054E+04  0.31020973728E+04 0.  0.
        3    1    3    3  502    0 -0.13451773845E+04 -0.44757305913E+03 -0.73774713503E+03  0.15981535235E+04  0.10100000352E+00 0. -1.
       -3    1    3    3    0  502  0.13451773845E+04  0.44757305913E+03  0.52370156745E+03  0.15113196819E+04  0.10100000352E+00 0.  1.
</event>
<event>
 5   0  0.4450600E-08  0.3099828E+04  0.7818609E-02  0.8215785E-01
       -1   -1    0    0    0  501  0.00000000000E+00  0.00000000000E+00  0.10083903411E+04  0.10083903411E+04  0.50400001928E-02 0.  1.
        1   -1    0    0  501    0  0.00000000000E+00  0.00000000000E+00 -0.23822454429E+04  0.23822454429E+04  0.50400001928E-02 0. -1.
    10030    2    1    2    0    0  0.00000000000E+00  0.00000000000E+00 -0.13738551018E+04  0.33906357840E+04  0.30998279273E+04 0.  0.
        4    1    3    3  502    0 -0.91281961631E+03  0.12233219956E+04 -0.39245918896E+03  0.15760019621E+04  0.12699999809E+01 0.  1.
       -4    1    3    3    0  502  0.91281961631E+03 -0.12233219956E+04 -0.98139591284E+03  0.18146338218E+04  0.12699999809E+01 0. -1.
</event>
<event>
 5   0  0.4436241E-08  0.3099862E+04  0.7818609E-02  0.8215776E-01
       -1   -1    0    0    0  501  0.00000000000E+00  0.00000000000E+00  0.10268499083E+04  0.10268499083E+04  0.50400001928E-02 0.  1.
        1   -1    0    0  501    0  0.00000000000E+00  0.00000000000E+00 -0.23394711128E+04  0.23394711128E+04  0.50400001928E-02 0. -1.
    10030    2    1    2    0    0  0.00000000000E+00  0.00000000000E+00 -0.13126212045E+04  0.33663210212E+04  0.30998617374E+04 0.  0.
        3    1    3    3  502    0  0.17447417379E+03 -0.18072018040E+03  0.10045969498E+04  0.10355269492E+04  0.10100000352E+00 0.  1.
       -3    1    3    3    0  502 -0.17447417379E+03  0.18072018040E+03 -0.23172181543E+04  0.23307940719E+04  0.10100000352E+00 0. -1.
</event>
<event>
 5   0  0.1329777E-07  0.3099814E+04  0.7818609E-02  0.8215789E-01
       -2   -1    0    0    0  501  0.00000000000E+00  0.00000000000E+00  0.13839236810E+04  0.13839236810E+04  0.25500000920E-02 0.  1.
        2   -1    0    0  501    0  0.00000000000E+00  0.00000000000E+00 -0.17357973814E+04  0.17357973814E+04  0.25500000920E-02 0. -1.
    10030    2    1    2    0    0  0.00000000000E+00  0.00000000000E+00 -0.35187370043E+03  0.31197210624E+04  0.30998136083E+04 0.  0.
        1    1    3    3  502    0 -0.32859228651E+03 -0.65804506576E+03 -0.15489618507E+04  0.17147241802E+04  0.50400001928E-02 0. -1.
       -1    1    3    3    0  502  0.32859228651E+03  0.65804506576E+03  0.11970881503E+04  0.14049968821E+04  0.50400001928E-02 0.  1.
</event>
<event>
 5   0  0.1318916E-07  0.3100626E+04  0.7818609E-02  0.8215566E-01
       -2   -1    0    0    0  501  0.00000000000E+00  0.00000000000E+00  0.13567521547E+04  0.13567521547E+04  0.25500000920E-02 0. -1.
        2   -1    0    0  501    0  0.00000000000E+00  0.00000000000E+00 -0.17714882774E+04  0.17714882774E+04  0.25500000920E-02 0.  1.
    10030    2    1    2    0    0  0.00000000000E+00  0.00000000000E+00 -0.41473612271E+03  0.31282404321E+04  0.31006260899E+04 0.  0.
        5    1    3    3  502    0 -0.52644505887E+03  0.96319068539E+03 -0.13119095209E+04  0.17105582064E+04  0.46999998093E+01 0.  1.
       -5    1    3    3    0  502  0.52644505887E+03 -0.96319068539E+03  0.89717339823E+03  0.14176822257E+04  0.46999998093E+01 0. -1.
</event>
<event>
 5   0  0.4436241E-08  0.3099863E+04  0.7818609E-02  0.8215776E-01
       -1   -1    0    0    0  501  0.00000000000E+00  0.00000000000E+00  0.18098160652E+04  0.18098160652E+04  0.50400001928E-02 0. -1.
        1   -1    0    0  501    0  0.00000000000E+00  0.00000000000E+00 -0.13273655845E+04  0.13273655845E+04  0.50400001928E-02 0.  1.
    10030    2    1    2    0    0  0.00000000000E+00  0.00000000000E+00  0.48245048072E+03  0.31371816497E+04  0.30998629384E+04 0.  0.
        3    1    3    3  502    0  0.88473986398E+03 -0.11405289024E+04 -0.33012131693E+03  0.14807264765E+04  0.10100000352E+00 0.  1.
       -3    1    3    3    0  502 -0.88473986398E+03  0.11405289024E+04  0.81257179765E+03  0.16564551732E+04  0.10100000352E+00 0. -1.
</event>
<event>
 5   0  0.4517409E-08  0.3094406E+04  0.7818609E-02  0.8217275E-01
       -1   -1    0    0    0  501  0.00000000000E+00  0.00000000000E+00  0.12159277896E+04  0.12159277896E+04  0.50400001928E-02 0. -1.
        1   -1    0    0  501    0  0.00000000000E+00  0.00000000000E+00 -0.19687328524E+04  0.19687328524E+04  0.50400001928E-02 0.  1.
    10030    2    1    2    0    0  0.00000000000E+00  0.00000000000E+00 -0.75280506285E+03  0.31846606420E+04  0.30944059110E+04 0.  0.
        2    1    3    3  502    0  0.17306763280E+03 -0.10348865793E+04  0.79381714736E+03  0.13157082887E+04  0.25500000920E-02 0. -1.
       -2    1    3    3    0  502 -0.17306763280E+03  0.10348865793E+04 -0.15466222102E+04  0.18689523532E+04  0.25500000920E-02 0.  1.
</event>
<event>
 5   0  0.4450600E-08  0.3121340E+04  0.7818609E-02  0.8209906E-01
       -1   -1    0    0    0  501  0.00000000000E+00  0.00000000000E+00  0.13823638804E+04  0.13823638804E+04  0.50400001928E-02 0.  1.
        1   -1    0    0  501    0  0.00000000000E+00  0.00000000000E+00 -0.17619752385E+04  0.17619752385E+04  0.50400001928E-02 0. -1.
    10030    2    1    2    0    0  0.00000000000E+00  0.00000000000E+00 -0.37961135806E+03  0.31443391189E+04  0.31213400506E+04 0.  0.
        4    1    3    3  502    0  0.18803073656E+03  0.12661830981E+03  0.13656902736E+04  0.13843768600E+04  0.12699999809E+01 0.  1.
       -4    1    3    3    0  502 -0.18803073656E+03 -0.12661830981E+03 -0.17453016316E+04  0.17599622589E+04  0.12699999809E+01 0. -1.
</event>
<event>
 5   0  0.4517409E-08  0.3101996E+04  0.7818609E-02  0.8215190E-01
       -1   -1    0    0    0  501  0.00000000000E+00  0.00000000000E+00  0.11921485875E+04  0.11921485875E+04  0.50400001928E-02 0.  1.
        1   -1    0    0  501    0  0.00000000000E+00  0.00000000000E+00 -0.20178649966E+04  0.20178649966E+04  0.50400001928E-02 0. -1.
    10030    2    1    2    0    0  0.00000000000E+00  0.00000000000E+00 -0.82571640904E+03  0.32100135841E+04  0.31019960706E+04 0.  0.
        2    1    3    3  502    0 -0.10889828045E+04  0.10619591971E+04 -0.72665679490E+03  0.16857256546E+04  0.25500000920E-02 0.  1.
       -2    1    3    3    0  502  0.10889828045E+04 -0.10619591971E+04 -0.99059614142E+02  0.15242879295E+04  0.25500000920E-02 0. -1.
</event>
<event>
 5   0  0.4470354E-08  0.3089993E+04  0.7818609E-02  0.8218490E-01
        1   -1    0    0  501    0  0.00000000000E+00  0.00000000000E+00  0.21183964097E+04  0.21183964097E+04  0.50400001928E-02 0.  1.
       -1   -1    0    0    0  501  0.00000000000E+00  0.00000000000E+00 -0.11268022170E+04  0.11268022170E+04  0.50400001928E-02 0. -1.
    10030    2    1    2    0    0  0.00000000000E+00  0.00000000000E+00  0.99159419262E+03  0.32451986267E+04  0.30899927320E+04 0.  0.
        1    1    3    3  502    0 -0.38244359042E+03 -0.14673519672E+04  0.18490660084E+03  0.15276044470E+04  0.50400001928E-02 0. -1.
       -1    1    3    3    0  502  0.38244359042E+03  0.14673519672E+04  0.80668759178E+03  0.17175941797E+04  0.50400001928E-02 0.  1.
</event>
<event>
 5   0  0.4838602E-08  0.3099894E+04  0.7818609E-02  0.8215767E-01
       -1   -1    0    0    0  501  0.00000000000E+00  0.00000000000E+00  0.12340408050E+04  0.12340408050E+04  0.50400001928E-02 0.  1.
        1   -1    0    0  501    0  0.00000000000E+00  0.00000000000E+00 -0.19467235293E+04  0.19467235293E+04  0.50400001928E-02 0. -1.
    10030    2    1    2    0    0  0.00000000000E+00  0.00000000000E+00 -0.71268272434E+03  0.31807643343E+04  0.30998943667E+04 0.  0.
        5    1    3    3  502    0  0.11720713487E+04 -0.49010106841E+03 -0.12674034121E+04  0.17945149213E+04  0.46999998093E+01 0. -1.
       -5    1    3    3    0  502 -0.11720713487E+04  0.49010106841E+03  0.55472068775E+03  0.13862494130E+04  0.46999998093E+01 0.  1.
</event>
<event>
 5   0  0.1318916E-07  0.3103673E+04  0.7818609E-02  0.8214731E-01
        2   -1    0    0  501    0  0.00000000000E+00  0.00000000000E+00  0.16146264068E+04  0.16146264068E+04  0.25500000920E-02 0. -1.
       -2   -1    0    0    0  501  0.00000000000E+00  0.00000000000E+00 -0.14914883069E+04  0.14914883069E+04  0.25500000920E-02 0.  1.
    10030    2    1    2    0    0  0.00000000000E+00  0.00000000000E+00  0.12313809982E+03  0.31061147137E+04  0.31036729246E+04 0.  0.
        5    1    3    3  502    0  0.52868951103E+03 -0.39916642104E+03  0.14660005395E+04  0.16087343169E+04  0.46999998093E+01 0. -1.
       -5    1    3    3    0  502 -0.52868951103E+03  0.39916642104E+03 -0.13428624396E+04  0.14973803968E+04  0.46999998093E+01 0.  1.
</event>
<event>
 5   0  0.1325713E-07  0.3099064E+04  0.7818609E-02  0.8215995E-01
       -2   -1    0    0    0  501  0.00000000000E+00  0.00000000000E+00  0.14534160422E+04  0.14534160422E+04  0.25500000920E-02 0.  1.
        2   -1    0    0  501    0  0.00000000000E+00  0.00000000000E+00 -0.16520039021E+04  0.16520039021E+04  0.25500000920E-02 0. -1.
    10030    2    1    2    0    0  0.00000000000E+00  0.00000000000E+00 -0.19858785990E+03  0.31054199443E+04  0.30990637122E+04 0.  0.
        4    1    3    3  502    0 -0.29164458458E+03  0.43831366847E+03  0.13610461172E+04  0.14593229875E+04  0.12699999809E+01 0.  1.
       -4    1    3    3    0  502  0.29164458458E+03 -0.43831366847E+03 -0.15596339771E+04  0.16460969568E+04  0.12699999809E+01 0. -1.
</event>
<event>
 5   0  0.4838602E-08  0.3100465E+04  0.7818609E-02  0.8215610E-01
       -1   -1    0    0    0  501  0.00000000000E+00  0.00000000000E+00  0.16795637420E+04  0.16795637421E+04  0.50400001928E-02 0. -1.
        1   -1    0    0  501    0  0.00000000000E+00  0.00000000000E+00 -0.14308602931E+04  0.14308602931E+04  0.50400001928E-02 0.  1.
    10030    2    1    2    0    0  0.00000000000E+00  0.00000000000E+00  0.24870344894E+03  0.31104240352E+04  0.31004651704E+04 0.  0.
        5    1    3    3  502    0  0.81596688052E+03 -0.89449427026E+03  0.10955921013E+04  0.16328705068E+04  0.46999998093E+01 0. -1.
       -5    1    3    3    0  502 -0.81596688052E+03  0.89449427026E+03 -0.84688865235E+03  0.14775535283E+04  0.46999998093E+01 0.  1.
</event>
<event>
 5   0  0.4305500E-08  0.3099896E+04  0.7818609E-02  0.8215766E-01
        3   -1    0    0  501    0  0.00000000000E+00  0.00000000000E+00  0.19613060527E+04  0.19613060553E+04  0.10100000352E+00 0.  1.
       -3   -1    0    0    0  501  0.00000000000E+00  0.00000000000E+00 -0.12248670192E+04  0.12248670234E+04  0.10100000352E+00 0. -1.
    10030    2    1    2    0    0  0.00000000000E+00  0.00000000000E+00  0.73643903348E+03  0.31861730787E+04  0.30998961979E+04 0.  0.
        3    1    3    3  502    0  0.10725630245E+04  0.71474943853E+03  0.12530397025E+04  0.17976002636E+04  0.10100000352E+00 0.  1.
       -3    1    3    3    0  502 -0.10725630245E+04 -0.71474943853E+03 -0.51660066899E+03  0.13885728151E+04  0.10100000352E+00 0. -1.
</event>
<event>
 5   0  0.1398931E-07  0.3098600E+04  0.7818609E-02  0.8216122E-01
        2   -1    0    0  501    0  0.00000000000E+00  0.00000000000E+00  0.18020829686E+04  0.18020829686E+04  0.25500000920E-02 0.  1.
       -2   -1    0    0    0  501  0.00000000000E+00  0.00000000000E+00 -0.13319759146E+04  0.13319759146E+04  0.25500000920E-02 0. -1.
    10030    2    1    2    0    0  0.00000000000E+00  0.00000000000E+00  0.47010705398E+03  0.31340588831E+04  0.30986004003E+04 0.  0.
        3    1    3    3  502    0  0.55354571612E+03 -0.88292746530E+03  0.13946270893E+04  0.17409648179E+04  0.10100000352E+00 0.  1.
       -3    1    3    3    0  502 -0.55354571612E+03  0.88292746530E+03 -0.92452003527E+03  0.13930940653E+04  0.10100000352E+00 0. -1.
</event>
<event>
 5   0  0.1325713E-07  0.3099948E+04  0.7818609E-02  0.8215752E-01
        2   -1    0    0  501    0  0.00000000000E+00  0.00000000000E+00  0.20825384978E+04  0.20825384978E+04  0.25500000920E-02 0. -1.
       -2   -1    0    0    0  501  0.00000000000E+00  0.00000000000E+00 -0.11536016677E+04  0.11536016677E+04  0.25500000920E-02 0.  1.
    10030    2    1    2    0    0  0.00000000000E+00  0.00000000000E+00  0.92893683009E+03  0.32361401655E+04  0.30999483119E+04 0.  0.
        4    1    3    3  502    0 -0.14391974784E+04  0.49469103937E+03  0.15759869906E+03  0.15299828657E+04  0.12699999809E+01 0.  1.
       -4    1    3    3    0  502  0.14391974784E+04 -0.49469103937E+03  0.77133813103E+03  0.17061572998E+04  0.12699999809E+01 0. -1.
</event>
<event>
 5   0  0.1325713E-07  0.3099715E+04  0.7818609E-02  0.8215816E-01
        2   -1    0    0  501    0  0.00000000000E+00  0.00000000000E+00  0.18351330297E+04  0.18351330297E+04  0.25500000920E-02 0.  1.
       -2   -1    0    0    0  501  0.00000000000E+00  0.00000000000E+00 -0.13089284166E+04  0.13089284166E+04  0.25500000920E-02 0. -1.
    10030    2    1    2    0    0  0.00000000000E+00  0.00000000000E+00  0.52620461312E+03  0.31440614463E+04  0.30997146777E+04 0.  0.
        4    1    3    3  502    0 -0.13721410948E+04 -0.28157883814E+03 -0.40971138439E+03  0.14594255232E+04  0.12699999809E+01 0. -1.
       -4    1    3    3    0  502  0.13721410948E+04  0.28157883814E+03  0.93591599751E+03  0.16846359231E+04  0.12699999809E+01 0.  1.
</event>
<event>
 5   0  0.4470354E-08  0.3098142E+04  0.7818609E-02  0.8216248E-01
       -1   -1    0    0    0  501  0.00000000000E+00  0.00000000000E+00  0.12236186331E+04  0.12236186331E+04  0.50400001928E-02 0. -1.
        1   -1    0    0  501    0  0.00000000000E+00  0.00000000000E+00 -0.19610853157E+04  0.19610853157E+04  0.50400001928E-02 0.  1.
    10030    2    1    2    0    0  0.00000000000E+00  0.00000000000E+00 -0.73746668265E+03  0.31847039488E+04  0.30981417226E+04 0.  0.
        1    1    3    3  502    0  0.13776296136E+04  0.19500391698E+03  0.33127092707E+03  0.14302553293E+04  0.50400001928E-02 0. -1.
       -1    1    3    3    0  502 -0.13776296136E+04 -0.19500391698E+03 -0.10687376097E+04  0.17544486195E+04  0.50400001928E-02 0.  1.
</event>
<event>
 5   0  0.4436241E-08  0.3099859E+04  0.7818609E-02  0.8215777E-01
        1   -1    0    0  501    0  0.00000000000E+00  0.00000000000E+00  0.16312194993E+04  0.16312194993E+04  0.50400001928E-02 0. -1.
       -1   -1    0    0    0  501  0.00000000000E+00  0.00000000000E+00 -0.14726906560E+04  0.14726906560E+04  0.50400001928E-02 0.  1.
    10030    2    1    2    0    0  0.00000000000E+00  0.00000000000E+00  0.15852884330E+03  0.31039101552E+04  0.30998591674E+04 0.  0.
        3    1    3    3  502    0  0.10595951959E+04  0.11278389862E+04 -0.75607544165E+01  0.15475205760E+04  0.10100000352E+00 0.  1.
       -3    1    3    3    0  502 -0.10595951959E+04 -0.11278389862E+04  0.16608959771E+03  0.15563895793E+04  0.10100000352E+00 0. -1.
</event>
<event>
 5   0  0.4436241E-08  0.3103923E+04  0.7818609E-02  0.8214662E-01
       -1   -1    0    0    0  501  0.00000000000E+00  0.00000000000E+00  0.12410367600E+04  0.12410367600E+04  0.50400001928E-02 0. -1.
        1   -1    0    0  501    0  0.00000000000E+00  0.00000000000E+00 -0.19407847400E+04  0.19407847400E+04  0.50400001928E-02 0.  1.
    10030    2    1    2    0    0  0.00000000000E+00  0.00000000000E+00 -0.69974797994E+03  0.31818215000E+04  0.31039234563E+04 0.  0.
        3    1    3    3  502    0  0.83733518278E+03  0.12948389015E+04 -0.52991553353E+03  0.16305055879E+04  0.10100000352E+00 0.  1.
       -3    1    3    3    0  502 -0.83733518278E+03 -0.12948389015E+04 -0.16983244641E+03  0.15513159121E+04  0.10100000352E+00 0. -1.
</event>
<event>
 5   0  0.1329777E-07  0.3099853E+04  0.7818609E-02  0.8215778E-01
        2   -1    0    0  501    0  0.00000000000E+00  0.00000000000E+00  0.27664258980E+04  0.27664258980E+04  0.25500000920E-02 0.  1.
       -2   -1    0    0    0  501  0.00000000000E+00  0.00000000000E+00 -0.86836646214E+03  0.86836646215E+03  0.25500000920E-02 0. -1.
    10030    2    1    2    0    0  0.00000000000E+00  0.00000000000E+00  0.18980594359E+04  0.36347923602E+04  0.30998525577E+04 0.  0.
        1    1    3    3  502    0 -0.14558068129E+04 -0.59036375873E+02  0.15688440866E+04  0.21410582753E+04  0.50400001928E-02 0.  1.
       -1    1    3    3    0  502  0.14558068129E+04  0.59036375873E+02  0.32921534926E+03  0.14937340849E+04  0.50400001928E-02 0. -1.
</event>
<event>
 5   0  0.4450600E-08  0.3099842E+04  0.7818609E-02  0.8215781E-01
        1   -1    0    0  501    0  0.00000000000E+00  0.00000000000E+00  0.23891358486E+04  0.23891358486E+04  0.50400001928E-02 0.  1.
       -1   -1    0    0    0  501  0.00000000000E+00  0.00000000000E+00 -0.10054914465E+04  0.10054914465E+04  0.50400001928E-02 0. -1.
    10030    2    1    2    0    0  0.00000000000E+00  0.00000000000E+00  0.13836444021E+04  0.33946272951E+04  0.30998423575E+04 0.  0.
        4    1    3    3  502    0 -0.11035356198E+04 -0.24261111112E+03  0.18536589730E+04  0.21708763706E+04  0.12699999809E+01 0.  1.
       -4    1    3    3    0  502  0.11035356198E+04  0.24261111112E+03 -0.47001457092E+03  0.12237509245E+04  0.12699999809E+01 0. -1.
</event>
<event>
 5   0  0.1398931E-07  0.3095918E+04  0.7818609E-02  0.8216859E-01
       -2   -1    0    0    0  501  0.00000000000E+00  0.00000000000E+00  0.13868922215E+04  0.13868922215E+04  0.25500000920E-02 0.  1.
        2   -1    0    0  501    0  0.00000000000E+00  0.00000000000E+00 -0.17277308061E+04  0.17277308061E+04  0.25500000920E-02 0. -1.
    10030    2    1    2    0    0  0.00000000000E+00  0.00000000000E+00 -0.34083858462E+03  0.31146230276E+04  0.30959175802E+04 0.  0.
        3    1    3    3  502    0  0.29389012069E+03  0.63933800157E+03 -0.15575362759E+04  0.17091061243E+04  0.10100000352E+00 0. -1.
       -3    1    3    3    0  502 -0.29389012069E+03 -0.63933800157E+03  0.12166976912E+04  0.14055169033E+04  0.10100000352E+00 0.  1.
</event>
<event>
 5   0  0.4838602E-08  0.3099894E+04  0.7818609E-02  0.8215767E-01
       -1   -1    0    0    0  501  0.00000000000E+00  0.00000000000E+00  0.12798373933E+04  0.12798373933E+04  0.50400001928E-02 0. -1.
        1   -1    0    0  501    0  0.00000000000E+00  0.00000000000E+00 -0.18770634480E+04  0.18770634480E+04  0.50400001928E-02 0.  1.
    10030    2    1    2    0    0  0.00000000000E+00  0.00000000000E+00 -0.59722605473E+03  0.31569008413E+04  0.30998941855E+04 0.  0.
        5    1    3    3  502    0 -0.44433414609E+03 -0.85677055395E+02  0.12110586802E+04  0.12928490276E+04  0.46999998093E+01 0. -1.
       -5    1    3    3    0  502  0.44433414609E+03  0.85677055395E+02 -0.18082847350E+04  0.18640518136E+04  0.46999998093E+01 0.  1.
</event>
<event>
 5   0  0.1398931E-07  0.3099311E+04  0.7818609E-02  0.8215927E-01
        2   -1    0    0  501    0  0.00000000000E+00  0.00000000000E+00  0.20257719315E+04  0.20257719315E+04  0.25500000920E-02 0. -1.
       -2   -1    0    0    0  501  0.00000000000E+00  0.00000000000E+00 -0.11854405934E+04  0.11854405934E+04  0.25500000920E-02 0.  1.
    10030    2    1    2    0    0  0.00000000000E+00  0.00000000000E+00  0.84033133807E+03  0.32112125249E+04  0.30993110722E+04 0.  0.
        3    1    3    3  502    0  0.10119788227E+04 -0.93737371726E+02  0.16322513850E+04  0.19227928715E+04  0.10100000352E+00 0. -1.
       -3    1    3    3    0  502 -0.10119788227E+04  0.93737371726E+02 -0.79192004696E+03  0.12884196535E+04  0.10100000352E+00 0.  1.
</event>
<event>
 5   0  0.1329777E-07  0.3102333E+04  0.7818609E-02  0.8215098E-01
       -2   -1    0    0    0  501  0.00000000000E+00  0.00000000000E+00  0.18108263247E+04  0.18108263247E+04  0.25500000920E-02 0.  1.
        2   -1    0    0  501    0  0.00000000000E+00  0.00000000000E+00 -0.13287399049E+04  0.13287399050E+04  0.25500000920E-02 0. -1.
    10030    2    1    2    0    0  0.00000000000E+00  0.00000000000E+00  0.48208641977E+03  0.31395662297E+04  0.31023327988E+04 0.  0.
        1    1    3    3  502    0  0.14874971475E+04  0.36596961137E+03 -0.58845508425E+01  0.15318668833E+04  0.50400001928E-02 0.  1.
       -1    1    3    3    0  502 -0.14874971475E+04 -0.36596961137E+03  0.48797097062E+03  0.16076993464E+04  0.50400001928E-02 0. -1.
</event>
<event>
 5   0  0.4838602E-08  0.3099994E+04  0.7818609E-02  0.8215740E-01
        1   -1    0    0  501    0  0.00000000000E+00  0.00000000000E+00  0.15766387249E+04  0.15766387249E+04  0.50400001928E-02 0. -1.
       -1   -1    0    0    0  501  0.00000000000E+00  0.00000000000E+00 -0.15238053982E+04  0.15238053982E+04  0.50400001928E-02 0.  1.
    10030    2    1    2    0    0  0.00000000000E+00  0.00000000000E+00  0.52833326704E+02  0.31004441231E+04  0.30999939355E+04 0.  0.
        5    1    3    3  502    0 -0.11399981354E+04  0.46580379487E+03  0.96777573890E+03  0.15662633542E+04  0.46999998093E+01 0. -1.
       -5    1    3    3    0  502  0.11399981354E+04 -0.46580379487E+03 -0.91494241220E+03  0.15341807689E+04  0.46999998093E+01 0.  1.
</event>
<event>
 5   0  0.4517409E-08  0.3101045E+04  0.7818609E-02  0.8215451E-01
       -1   -1    0    0    0  501  0.00000000000E+00  0.00000000000E+00  0.18888754136E+04  0.18888754136E+04  0.50400001928E-02 0.  1.
        1   -1    0    0  501    0  0.00000000000E+00  0.00000000000E+00 -0.12727784995E+04  0.12727784995E+04  0.50400001928E-02 0. -1.
    10030    2    1    2    0    0  0.00000000000E+00  0.00000000000E+00  0.61609691411E+03  0.31616539130E+04  0.31010449946E+04 0.  0.
        2    1    3    3  502    0 -0.42991792876E+03 -0.47402965307E+02  0.18261239624E+04  0.18766473277E+04  0.25500000920E-02 0.  1.
       -2    1    3    3    0  502  0.42991792876E+03  0.47402965307E+02 -0.12100270483E+04  0.12850065853E+04  0.25500000920E-02 0. -1.
</event>
<event>
 5   0  0.1377237E-07  0.3100869E+04  0.7818609E-02  0.8215499E-01
       -2   -1    0    0    0  501  0.00000000000E+00  0.00000000000E+00  0.12496456940E+04  0.12496456940E+04  0.25500000920E-02 0.  1.
        2   -1    0    0  501    0  0.00000000000E+00  0.00000000000E+00 -0.19236230334E+04  0.19236230334E+04  0.25500000920E-02 0. -1.
    10030    2    1    2    0    0  0.00000000000E+00  0.00000000000E+00 -0.67397733938E+03  0.31732687274E+04  0.31008690656E+04 0.  0.
        2    1    3    3  502    0 -0.25057564790E+03  0.15300492842E+04 -0.33993212282E+03  0.15872595300E+04  0.25500000920E-02 0. -1.
       -2    1    3    3    0  502  0.25057564790E+03 -0.15300492842E+04 -0.33404521656E+03  0.15860091974E+04  0.25500000920E-02 0.  1.
</event>
<event>
 5   0  0.1377237E-07  0.3100822E+04  0.7818609E-02  0.8215512E-01
       -2   -1    0    0    0  501  0.00000000000E+00  0.00000000000E+00  0.10334152629E+04  0.10334152629E+04  0.25500000920E-02 0. -1.
        2   -1    0    0  501    0  0.00000000000E+00  0.00000000000E+00 -0.23260486500E+04  0.23260486500E+04  0.25500000920E-02 0.  1.
    10030    2    1    2    0    0  0.00000000000E+00  0.00000000000E+00 -0.12926333871E+04  0.33594639129E+04  0.31008219408E+04 0.  0.
        2    1    3    3  502    0  0.96052926707E+03  0.84570608621E+02 -0.19616708648E+04  0.21858456585E+04  0.25500000920E-02 0.  1.
       -2    1    3    3    0  502 -0.96052926707E+03 -0.84570608621E+02  0.66903747766E+03  0.11736182545E+04  0.25500000920E-02 0. -1.
</event>
<event>
 5   0  0.4436241E-08  0.3100795E+04  0.7818609E-02  0.8215520E-01
        1   -1    0    0  501    0  0.00000000000E+00  0.00000000000E+00  0.18993839992E+04  0.18993839992E+04  0.50400001928E-02 0.  1.
       -1   -1    0    0    0  501  0.00000000000E+00  0.00000000000E+00 -0.12655323230E+04  0.12655323231E+04  0.50400001928E-02 0. -1.
    10030    2    1    2    0    0  0.00000000000E+00  0.00000000000E+00  0.63385167616E+03  0.31649163223E+04  0.31007946368E+04 0.  0.
        3    1    3    3  502    0 -0.12386066119E+04 -0.52739917141E+03 -0.46802591295E+03  0.14252524304E+04  0.10100000352E+00 0.  1.
       -3    1    3    3    0  502  0.12386066119E+04  0.52739917141E+03  0.11018775891E+04  0.17396638919E+04  0.10100000352E+00 0. -1.
</event>
<event>
 5   0  0.4517409E-08  0.3100321E+04  0.7818609E-02  0.8215650E-01
       -1   -1    0    0    0  501  0.00000000000E+00  0.00000000000E+00  0.25616832299E+04  0.25616832299E+04  0.50400001928E-02 0. -1.
        1   -1    0    0  501    0  0.00000000000E+00  0.00000000000E+00 -0.93805414686E+03  0.93805414687E+03  0.50400001928E-02 0.  1.
    10030    2    1    2    0    0  0.00000000000E+00  0.00000000000E+00  0.16236290830E+04  0.34997373767E+04  0.31003210006E+04 0.  0.
        2    1    3    3  502    0 -0.36873238794E+02 -0.15298568678E+04  0.53261223947E+03  0.16203386897E+04  0.25500000920E-02 0.  1.
       -2    1    3    3    0  502  0.36873238794E+02  0.15298568678E+04  0.10910168435E+04  0.18793986870E+04  0.25500000920E-02 0. -1.
</event>
<event>
 5   0  0.1329777E-07  0.3094641E+04  0.7818609E-02  0.8217210E-01
        2   -1    0    0  501    0  0.00000000000E+00  0.00000000000E+00  0.25249352078E+04  0.25249352078E+04  0.25500000920E-02 0.  1.
       -2   -1    0    0    0  501  0.00000000000E+00  0.00000000000E+00 -0.94822283313E+03  0.94822283313E+03  0.25500000920E-02 0. -1.
    10030    2    1    2    0    0  0.00000000000E+00  0.00000000000E+00  0.15767123746E+04  0.34731580409E+04  0.30946413144E+04 0.  0.
        1    1    3    3  502    0  0.55269247135E+03 -0.12268073487E+04  0.16457890726E+04  0.21258285233E+04  0.50400001928E-02 0.  1.
       -1    1    3    3    0  502 -0.55269247135E+03  0.12268073487E+04 -0.69076697989E+02  0.13473295176E+04  0.50400001928E-02 0. -1.
</event>
<event>
 5   0  0.4450600E-08  0.3100982E+04  0.7818609E-02  0.8215468E-01
        1   -1    0    0  501    0  0.00000000000E+00  0.00000000000E+00  0.13866031271E+04  0.13866031272E+04  0.50400001928E-02 0.  1.
       -1   -1    0    0    0  501  0.00000000000E+00  0.00000000000E+00 -0.17337498671E+04  0.17337498671E+04  0.50400001928E-02 0. -1.
    10030    2    1    2    0    0  0.00000000000E+00  0.00000000000E+00 -0.34714673998E+03  0.31203529943E+04  0.31009824169E+04 0.  0.
        4    1    3    3  502    0  0.13576297227E+04 -0.31427233857E+03 -0.85759594876E+03  0.16362756464E+04  0.12699999809E+01 0. -1.
       -4    1    3    3    0  502 -0.13576297227E+04  0.31427233857E+03  0.51044920878E+03  0.14840773479E+04  0.12699999809E+01 0.  1.
</event>
<event>
 5   0  0.1329777E-07  0.3098115E+04  0.7818609E-02  0.8216255E-01
        2   -1    0    0  501    0  0.00000000000E+00  0.00000000000E+00  0.15681517066E+04  0.15681517066E+04  0.25500000920E-02 0.  1.
       -2   -1    0    0    0  501  0.00000000000E+00  0.00000000000E+00 -0.15301960912E+04  0.15301960912E+04  0.25500000920E-02 0. -1.
    10030    2    1    2    0    0  0.00000000000E+00  0.00000000000E+00  0.37955615397E+02  0.30983477979E+04  0.30981153058E+04 0.  0.
        1    1    3    3  502    0 -0.13980662905E+04 -0.49281389991E+03  0.46859437394E+03  0.15546818259E+04  0.50400001928E-02 0.  1.
       -1    1    3    3    0  502  0.13980662905E+04  0.49281389991E+03 -0.43063875854E+03  0.15436659719E+04  0.50400001928E-02 0. -1.
</event>
<event>
 5   0  0.4470354E-08  0.3099187E+04  0.7818609E-02  0.8215961E-01
        1   -1    0    0  501    0  0.00000000000E+00  0.00000000000E+00  0.10197960021E+04  0.10197960021E+04  0.50400001928E-02 0. -1.
       -1   -1    0    0    0  501  0.00000000000E+00  0.00000000000E+00 -0.23546271441E+04  0.23546271441E+04  0.50400001928E-02 0.  1.
    10030    2    1    2    0    0  0.00000000000E+00  0.00000000000E+00 -0.13348311420E+04  0.33744231462E+04  0.30991865694E+04 0.  0.
        1    1    3    3  502    0 -0.59391563887E+03  0.13101810858E+04 -0.12947143960E+04  0.19353541357E+04  0.50400001928E-02 0.  1.
       -1    1    3    3    0  502  0.59391563887E+03 -0.13101810858E+04 -0.40116746085E+02  0.14390690105E+04  0.50400001928E-02 0. -1.
</event>
<event>
 5   0  0.1325713E-07  0.3100175E+04  0.7818609E-02  0.8215690E-01
       -2   -1    0    0    0  501  0.00000000000E+00  0.00000000000E+00  0.10269230024E+04  0.10269230024E+04  0.25500000920E-02 0.  1.
        2   -1    0    0  501    0  0.00000000000E+00  0.00000000000E+00 -0.23397780280E+04  0.23397780280E+04  0.25500000920E-02 0. -1.
    10030    2    1    2    0    0  0.00000000000E+00  0.00000000000E+00 -0.13128550257E+04  0.33667010304E+04  0.31001753998E+04 0.  0.
        4    1    3    3  502    0  0.84170851422E+03 -0.86237903923E+02 -0.20668779007E+04  0.22333598161E+04  0.12699999809E+01 0. -1.
       -4    1    3    3    0  502 -0.84170851422E+03  0.86237903923E+02  0.75402287503E+03  0.11333412143E+04  0.12699999809E+01 0.  1.
</event>
<event>
 5   0  0.4305500E-08  0.3101099E+04  0.7818609E-02  0.8215436E-01
       -3   -1    0    0    0  501  0.00000000000E+00  0.00000000000E+00  0.15366100868E+04  0.15366100902E+04  0.10100000352E+00 0. -1.
        3   -1    0    0  501    0  0.00000000000E+00  0.00000000000E+00 -0.15646155958E+04  0.15646155991E+04  0.10100000352E+00 0.  1.
    10030    2    1    2    0    0  0.00000000000E+00  0.00000000000E+00 -0.28005509017E+02  0.31012256893E+04  0.31010992353E+04 0.  0.
        1    1    3    3  502    0 -0.74232065626E+03  0.12998854660E+04 -0.41832350182E+03  0.15542640489E+04  0.50400001928E-02 0.  1.
       -1    1    3    3    0  502  0.74232065626E+03 -0.12998854660E+04  0.39031799281E+03  0.15469616404E+04  0.50400001928E-02 0. -1.
</event>
<event>
 5   0  0.1398931E-07  0.3119768E+04  0.7818609E-02  0.8210334E-01
       -2   -1    0    0    0  501  0.00000000000E+00  0.00000000000E+00  0.18520757707E+04  0.18520757707E+04  0.25500000920E-02 0.  1.
        2   -1    0    0  501    0  0.00000000000E+00  0.00000000000E+00 -0.13137900288E+04  0.13137900288E+04  0.25500000920E-02 0. -1.
    10030    2    1    2    0    0  0.00000000000E+00  0.00000000000E+00  0.53828574199E+03  0.31658657995E+04  0.31197683761E+04 0.  0.
        3    1    3    3  502    0 -0.81993819008E+03  0.72819685806E+03 -0.85660425171E+03  0.13915243993E+04  0.10100000352E+00 0. -1.
       -3    1    3    3    0  502  0.81993819008E+03 -0.72819685806E+03  0.13948899937E+04  0.17743414002E+04  0.10100000352E+00 0.  1.
</event>
<event>
 5   0  0.1377237E-07  0.3099340E+04  0.7818609E-02  0.8215919E-01
       -2   -1    0    0    0  501  0.00000000000E+00  0.00000000000E+00  0.11500691698E+04  0.11500691698E+04  0.25500000920E-02 0.  1.
        2   -1    0    0  501    0  0.00000000000E+00  0.00000000000E+00 -0.20881147388E+04  0.20881147388E+04  0.25500000920E-02 0. -1.
    10030    2    1    2    0    0  0.00000000000E+00  0.00000000000E+00 -0.93804556908E+03  0.32381839086E+04  0.30993395323E+04 0.  0.
        2    1    3    3  502    0 -0.99409148399E+03 -0.88834731852E+03 -0.12944116244E+04  0.18581927484E+04  0.25500000920E-02 0. -1.
       -2    1    3    3    0  502  0.99409148399E+03  0.88834731852E+03  0.35636605531E+03  0.13799911602E+04  0.25500000920E-02 0.  1.
</event>
<event>
 5   0  0.1329777E-07  0.3102519E+04  0.7818609E-02  0.8215047E-01
       -2   -1    0    0    0  501  0.00000000000E+00  0.00000000000E+00  0.10747658428E+04  0.10747658428E+04  0.25500000920E-02 0. -1.
        2   -1    0    0  501    0  0.00000000000E+00  0.00000000000E+00 -0.22390053855E+04  0.22390053855E+04  0.25500000920E-02 0.  1.
    10030    2    1    2    0    0  0.00000000000E+00  0.00000000000E+00 -0.11642395427E+04  0.33137712282E+04  0.31025193054E+04 0.  0.
        1    1    3    3  502    0  0.96132196677E+03  0.50504657052E+03 -0.17653376924E+04  0.20725899571E+04  0.50400001928E-02 0.  1.
       -1    1    3    3    0  502 -0.96132196677E+03 -0.50504657052E+03  0.60109814969E+03  0.12411812711E+04  0.50400001928E-02 0. -1.
</event>
<event>
 5   0  0.4450600E-08  0.3081777E+04  0.7818609E-02  0.8220757E-01
        1   -1    0    0  501    0  0.00000000000E+00  0.00000000000E+00  0.22951952724E+04  0.22951952724E+04  0.50400001928E-02 0. -1.
       -1   -1    0    0    0  501  0.00000000000E+00  0.00000000000E+00 -0.10344818846E+04  0.10344818846E+04  0.50400001928E-02 0.  1.
    10030    2    1    2    0    0  0.00000000000E+00  0.00000000000E+00  0.12607133878E+04  0.33296771570E+04  0.30817773644E+04 0.  0.
        4    1    3    3  502    0  0.91273666062E+03  0.17436007672E+03 -0.69768301739E+03  0.11620038097E+04  0.12699999809E+01 0.  1.
       -4    1    3    3    0  502 -0.91273666062E+03 -0.17436007672E+03  0.19583964052E+04  0.21676733473E+04  0.12699999809E+01 0. -1.
</event>
<event>
 5   0  0.1377237E-07  0.3100062E+04  0.7818609E-02  0.8215721E-01
       -2   -1    0    0    0  501  0.00000000000E+00  0.00000000000E+00  0.20880654880E+04  0.20880654880E+04  0.25500000920E-02 0. -1.
        2   -1    0    0  501    0  0.00000000000E+00  0.00000000000E+00 -0.11506322159E+04  0.11506322159E+04  0.25500000920E-02 0.  1.
    10030    2    1    2    0    0  0.00000000000E+00  0.00000000000E+00  0.93743327214E+03  0.32386977039E+04  0.31000615603E+04 0.  0.
        2    1    3    3  502    0  0.63470502564E+03  0.12288935620E+04 -0.26226341667E+03  0.14077684312E+04  0.25500000920E-02 0.  1.
       -2    1    3    3    0  502 -0.63470502564E+03 -0.12288935620E+04  0.11996966888E+04  0.18309292726E+04  0.25500000920E-02 0. -1.
</event>
<event>
 5   0  0.4436241E-08  0.3099000E+04  0.7818609E-02  0.8216012E-01
       -1   -1    0    0    0  501  0.00000000000E+00  0.00000000000E+00  0.12916567141E+04  0.12916567141E+04  0.50400001928E-02 0.  1.
        1   -1    0    0  501    0  0.00000000000E+00  0.00000000000E+00 -0.18588148492E+04  0.18588148492E+04  0.50400001928E-02 0. -1.
    10030    2    1    2    0    0  0.00000000000E+00  0.00000000000E+00 -0.56715813507E+03  0.31504715633E+04  0.30990002777E+04 0.  0.
        3    1    3    3  502    0  0.81271212949E+03  0.21996219852E+02 -0.16245652679E+04  0.18166444779E+04  0.10100000352E+00 0. -1.
       -3    1    3    3    0  502 -0.81271212949E+03 -0.21996219852E+02  0.10574071328E+04  0.13338270855E+04  0.10100000352E+00 0.  1.
</event>
<event>
 5   0  0.4450600E-08  0.3099443E+04  0.7818609E-02  0.8215891E-01
        1   -1    0    0  501    0  0.00000000000E+00  0.00000000000E+00  0.14393548475E+04  0.14393548475E+04  0.50400001928E-02 0. -1.
       -1   -1    0    0    0  501  0.00000000000E+00  0.00000000000E+00 -0.16685505894E+04  0.16685505894E+04  0.50400001928E-02 0.  1.
    10030    2    1    2    0    0  0.00000000000E+00  0.00000000000E+00 -0.22919574183E+03  0.31079054369E+04  0.30994427752E+04 0.  0.
        4    1    3    3  502    0  0.11706530345E+04  0.23994542044E+03  0.87482441957E+03  0.14809867353E+04  0.12699999809E+01 0. -1.
       -4    1    3    3    0  502 -0.11706530345E+04 -0.23994542044E+03 -0.11040201614E+04  0.16269187016E+04  0.12699999809E+01 0.  1.
</event>
<event>
 5   0  0.4517409E-08  0.3101682E+04  0.7818609E-02  0.8215277E-01
        1   -1    0    0  501    0  0.00000000000E+00  0.00000000000E+00  0.15971362168E+04  0.15971362168E+04  0.50400001928E-02 0. -1.
       -1   -1    0    0    0  501  0.00000000000E+00  0.00000000000E+00 -0.15058872770E+04  0.15058872770E+04  0.50400001928E-02 0.  1.
    10030    2    1    2    0    0  0.00000000000E+00  0.00000000000E+00  0.91248939777E+02  0.31030234938E+04  0.31016815494E+04 0.  0.
        2    1    3    3  502    0  0.11168179971E+04 -0.10430102753E+04  0.31022753128E+03  0.15592927865E+04  0.25500000920E-02 0.  1.
       -2    1    3    3    0  502 -0.11168179971E+04  0.10430102753E+04 -0.21897859151E+03  0.15437307072E+04  0.25500000920E-02 0. -1.
</event>
<event>
 5   0  0.4838602E-08  0.3108535E+04  0.7818609E-02  0.8213399E-01
        1   -1    0    0  501    0  0.00000000000E+00  0.00000000000E+00  0.13206630087E+04  0.13206630087E+04  0.50400001928E-02 0.  1.
       -1   -1    0    0    0  501  0.00000000000E+00  0.00000000000E+00 -0.18291930879E+04  0.18291930879E+04  0.50400001928E-02 0. -1.
    10030    2    1    2    0    0  0.00000000000E+00  0.00000000000E+00 -0.50853007921E+03  0.31498560965E+04  0.31085351192E+04 0.  0.
        5    1    3    3  502    0  0.56244634274E+03 -0.13316359753E+04 -0.83292999161E+03  0.16683508983E+04  0.46999998093E+01 0. -1.
       -5    1    3    3    0  502 -0.56244634274E+03  0.13316359753E+04  0.32439991240E+03  0.14815051982E+04  0.46999998093E+01 0.  1.
</event>
<event>
 5   0  0.1398931E-07  0.3099862E+04  0.7818609E-02  0.8215776E-01
        2   -1    0    0  501    0  0.00000000000E+00  0.00000000000E+00  0.20670644831E+04  0.20670644831E+04  0.25500000920E-02 0.  1.
       -2   -1    0    0    0  501  0.00000000000E+00  0.00000000000E+00 -0.11621727104E+04  0.11621727104E+04  0.25500000920E-02 0. -1.
    10030    2    1    2    0    0  0.00000000000E+00  0.00000000000E+00  0.90489177267E+03  0.32292371936E+04  0.30998618892E+04 0.  0.
        3    1    3    3  502    0 -0.33343431362E+03 -0.10923650800E+04 -0.63906561365E+03  0.13087569592E+04  0.10100000352E+00 0. -1.
       -3    1    3    3    0  502  0.33343431362E+03  0.10923650800E+04  0.15439573863E+04  0.19204802343E+04  0.10100000352E+00 0.  1.
</event>
<event>
 5   0  0.1325713E-07  0.3100471E+04  0.7818609E-02  0.8215609E-01
       -2   -1    0    0    0  501  0.00000000000E+00  0.00000000000E+00  0.11190543398E+04  0.11190543398E+04  0.25500000920E-02 0. -1.
        2   -1    0    0  501    0  0.00000000000E+00  0.00000000000E+00 -0.21475549285E+04  0.21475549285E+04  0.25500000920E-02 0.  1.
    10030    2    1    2    0    0  0.00000000000E+00  0.00000000000E+00 -0.10285005887E+04  0.32666092684E+04  0.31004713595E+04 0.  0.
        4    1    3    3  502    0 -0.11110729784E+04 -0.10263286973E+04 -0.15634880075E+03  0.15206184000E+04  0.12699999809E+01 0. -1.
       -4    1    3    3    0  502  0.11110729784E+04  0.10263286973E+04 -0.87215178796E+03  0.17459908683E+04  0.12699999809E+01 0.  1.
</event>
<event>
 5   0  0.1318916E-07  0.3099176E+04  0.7818609E-02  0.8215964E-01
       -2   -1    0    0    0  501  0.00000000000E+00  0.00000000000E+00  0.12232825980E+04  0.12232825980E+04  0.25500000920E-02 0. -1.
        2   -1    0    0  501    0  0.00000000000E+00  0.00000000000E+00 -0.19629344718E+04  0.19629344718E+04  0.25500000920E-02 0.  1.
    10030    2    1    2    0    0  0.00000000000E+00  0.00000000000E+00 -0.73965187382E+03  0.31862170698E+04  0.30991763940E+04 0.  0.
        5    1    3    3  502    0  0.30152258826E+02 -0.37231795173E+02  0.12225136465E+04  0.12234611032E+04  0.46999998093E+01 0. -1.
       -5    1    3    3    0  502 -0.30152258826E+02  0.37231795173E+02 -0.19621655203E+04  0.19627559666E+04  0.46999998093E+01 0.  1.
</event>
<event>
 5   0  0.4517409E-08  0.3098962E+04  0.7818609E-02  0.8216023E-01
       -1   -1    0    0    0  501  0.00000000000E+00  0.00000000000E+00  0.12535102496E+04  0.12535102496E+04  0.50400001928E-02 0.  1.
        1   -1    0    0  501    0  0.00000000000E+00  0.00000000000E+00 -0.19153341058E+04  0.19153341058E+04  0.50400001928E-02 0. -1.
    10030    2    1    2    0    0  0.00000000000E+00  0.00000000000E+00 -0.66182385624E+03  0.31688443554E+04  0.30989617184E+04 0.  0.
        2    1    3    3  502    0  0.85161211438E+03  0.82518445215E+03 -0.13507583204E+04  0.17974205444E+04  0.25500000920E-02 0. -1.
       -2    1    3    3    0  502 -0.85161211438E+03 -0.82518445215E+03  0.68893446411E+03  0.13714238110E+04  0.25500000920E-02 0.  1.
</event>
<event>
 5   0  0.4517409E-08  0.3099082E+04  0.7818609E-02  0.8215990E-01
        1   -1    0    0  501    0  0.00000000000E+00  0.00000000000E+00  0.19939328101E+04  0.19939328101E+04  0.50400001928E-02 0. -1.
       -1   -1    0    0    0  501  0.00000000000E+00  0.00000000000E+00 -0.12041917328E+04  0.12041917328E+04  0.50400001928E-02 0.  1.
    10030    2    1    2    0    0  0.00000000000E+00  0.00000000000E+00  0.78974107730E+03  0.31981245429E+04  0.30990820613E+04 0.  0.
        2    1    3    3  502    0  0.14326144040E+04 -0.58647525668E+03  0.46591958697E+03  0.16166070391E+04  0.25500000920E-02 0.  1.
       -2    1    3    3    0  502 -0.14326144040E+04  0.58647525668E+03  0.32382149033E+03  0.15815175038E+04  0.25500000920E-02 0. -1.
</event>
<event>
 5   0  0.4305500E-08  0.3099862E+04  0.7818609E-02  0.8215776E-01
       -3   -1    0    0    0  501  0.00000000000E+00  0.00000000000E+00  0.18884592315E+04  0.18884592342E+04  0.10100000352E+00 0.  1.
        3   -1    0    0  501    0  0.00000000000E+00  0.00000000000E+00 -0.12720879333E+04  0.12720879373E+04  0.10100000352E+00 0. -1.
    10030    2    1    2    0    0  0.00000000000E+00  0.00000000000E+00  0.61637129824E+03  0.31605471715E+04  0.30998620689E+04 0.  0.
        5    1    3    3  502    0  0.51934378937E+03 -0.71081387746E+03  0.16088114211E+04  0.18339221954E+04  0.46999998093E+01 0.  1.
       -5    1    3    3    0  502 -0.51934378937E+03  0.71081387746E+03 -0.99244012287E+03  0.13266249762E+04  0.46999998093E+01 0. -1.
</event>
<event>
 5   0  0.4305500E-08  0.3099930E+04  0.7818609E-02  0.8215757E-01
        3   -1    0    0  501    0  0.00000000000E+00  0.00000000000E+00  0.14389256197E+04  0.14389256233E+04  0.10100000352E+00 0.  1.
       -3   -1    0    0    0  501  0.00000000000E+00  0.00000000000E+00 -0.16695731200E+04  0.16695731230E+04  0.10100000352E+00 0. -1.
    10030    2    1    2    0    0  0.00000000000E+00  0.00000000000E+00 -0.23064750025E+03  0.31084987463E+04  0.30999300293E+04 0.  0.
        1    1    3    3  502    0 -0.57475347283E+03 -0.12872083715E+04  0.53077440675E+03  0.15063095356E+04  0.50400001928E-02 0.  1.
       -1    1    3    3    0  502  0.57475347283E+03  0.12872083715E+04 -0.76142190700E+03  0.16021892107E+04  0.50400001928E-02 0. -1.
</event>
<event>
 5   0  0.4450600E-08  0.3102661E+04  0.7818609E-02  0.8215008E-01
       -1   -1    0    0    0  501  0.00000000000E+00  0.00000000000E+00  0.11915515724E+04  0.11915515724E+04  0.50400001928E-02 0. -1.
        1   -1    0    0  501    0  0.00000000000E+00  0.00000000000E+00 -0.20197415408E+04  0.20197415408E+04  0.50400001928E-02 0.  1.
    10030    2    1    2    0    0  0.00000000000E+00  0.00000000000E+00 -0.82818996843E+03  0.32112931132E+04  0.31026609281E+04 0.  0.
        4    1    3    3  502    0 -0.13064366645E+04  0.51734644295E+02 -0.12782972518E+04  0.18285236418E+04  0.12699999809E+01 0.  1.
       -4    1    3    3    0  502  0.13064366645E+04 -0.51734644295E+02  0.45010728335E+03  0.13827694714E+04  0.12699999809E+01 0. -1.
</event>
<event>
 5   0  0.4470354E-08  0.3098291E+04  0.7818609E-02  0.8216207E-01
       -1   -1    0    0    0  501  0.00000000000E+00  0.00000000000E+00  0.11722608259E+04  0.11722608259E+04  0.50400001928E-02 0.  1.
        1   -1    0    0  501    0  0.00000000000E+00  0.00000000000E+00 -0.20471991501E+04  0.20471991501E+04  0.50400001928E-02 0. -1.
    10030    2    1    2    0    0  0.00000000000E+00  0.00000000000E+00 -0.87493832414E+03  0.32194599760E+04  0.30982907330E+04 0.  0.
        1    1    3    3  502    0  0.14810836358E+04 -0.29760709923E+03 -0.79391916225E+03  0.17066008198E+04  0.50400001928E-02 0. -1.
       -1    1    3    3    0  502 -0.14810836358E+04  0.29760709923E+03 -0.81019161884E+02  0.15128591562E+04  0.50400001928E-02 0.  1.
</event>
<event>
 5   0  0.1325713E-07  0.3100159E+04  0.7818609E-02  0.8215694E-01
       -2   -1    0    0    0  501  0.00000000000E+00  0.00000000000E+00  0.13723369866E+04  0.13723369866E+04  0.25500000920E-02 0.  1.
        2   -1    0    0  501    0  0.00000000000E+00  0.00000000000E+00 -0.17508424975E+04  0.17508424975E+04  0.25500000920E-02 0. -1.
    10030    2    1    2    0    0  0.00000000000E+00  0.00000000000E+00 -0.37850551090E+03  0.31231794842E+04  0.31001586522E+04 0.  0.
        4    1    3    3  502    0 -0.11314158143E+04  0.21495506838E+03  0.85596627293E+03  0.14349171751E+04  0.12699999809E+01 0.  1.
       -4    1    3    3    0  502  0.11314158143E+04 -0.21495506838E+03 -0.12344717838E+04  0.16882623090E+04  0.12699999809E+01 0. -1.
</event>
<event>
 5   0  0.1318916E-07  0.3100893E+04  0.7818609E-02  0.8215493E-01
       -2   -1    0    0    0  501  0.00000000000E+00  0.00000000000E+00  0.17392853599E+04  0.17392853599E+04  0.25500000920E-02 0. -1.
        2   -1    0    0  501    0  0.00000000000E+00  0.00000000000E+00 -0.13821107144E+04  0.13821107144E+04  0.25500000920E-02 0.  1.
    10030    2    1    2    0    0  0.00000000000E+00  0.00000000000E+00  0.35717464550E+03  0.31213960743E+04  0.31008933753E+04 0.  0.
        5    1    3    3  502    0  0.11832545989E+04 -0.95557029989E+03 -0.12449613479E+03  0.15260168484E+04  0.46999998093E+01 0.  1.
       -5    1    3    3    0  502 -0.11832545989E+04  0.95557029989E+03  0.48167078029E+03  0.15953792259E+04  0.46999998093E+01 0. -1.
</event>
<event>
 5   0  0.4838602E-08  0.3102008E+04  0.7818609E-02  0.8215187E-01
       -1   -1    0    0    0  501  0.00000000000E+00  0.00000000000E+00  0.10734194648E+04  0.10734194648E+04  0.50400001928E-02 0.  1.
        1   -1    0    0  501    0  0.00000000000E+00  0.00000000000E+00 -0.22410752760E+04  0.22410752760E+04  0.50400001928E-02 0. -1.
    10030    2    1    2    0    0  0.00000000000E+00  0.00000000000E+00 -0.11676558112E+04  0.33144947407E+04  0.31020082677E+04 0.  0.
        5    1    3    3  502    0 -0.88355418537E+03  0.83887831430E+03  0.44171297332E+03  0.12959619074E+04  0.46999998093E+01 0.  1.
       -5    1    3    3    0  502  0.88355418537E+03 -0.83887831430E+03 -0.16093687845E+04  0.20185328333E+04  0.46999998093E+01 0. -1.
</event>
<event>
 5   0  0.1329777E-07  0.3100621E+04  0.7818609E-02  0.8215568E-01
        2   -1    0    0  501    0  0.00000000000E+00  0.00000000000E+00  0.16248595295E+04  0.16248595295E+04  0.25500000920E-02 0.  1.
       -2   -1    0    0    0  501  0.00000000000E+00  0.00000000000E+00 -0.14791813947E+04  0.14791813947E+04  0.25500000920E-02 0. -1.
    10030    2    1    2    0    0  0.00000000000E+00  0.00000000000E+00  0.14567813488E+03  0.31040409242E+04  0.31006205734E+04 0.  0.
        1    1    3    3  502    0  0.28843081747E+03 -0.29627550077E+03 -0.14229612516E+04  0.14818199055E+04  0.50400001928E-02 0. -1.
       -1    1    3    3    0  502 -0.28843081747E+03  0.29627550077E+03  0.15686393864E+04  0.16222210187E+04  0.50400001928E-02 0.  1.
</event>
<event>
 5   0  0.1377237E-07  0.3100040E+04  0.7818609E-02  0.8215727E-01
       -2   -1    0    0    0  501  0.00000000000E+00  0.00000000000E+00  0.92288390608E+03  0.92288390608E+03  0.25500000920E-02 0. -1.
        2   -1    0    0  501    0  0.00000000000E+00  0.00000000000E+00 -0.26033205177E+04  0.26033205177E+04  0.25500000920E-02 0.  1.
    10030    2    1    2    0    0  0.00000000000E+00  0.00000000000E+00 -0.16804366116E+04  0.35262044237E+04  0.31000403921E+04 0.  0.
        2    1    3    3  502    0 -0.90562102885E+03 -0.36996407123E+03 -0.22078058987E+04  0.24148353460E+04  0.25500000920E-02 0.  1.
       -2    1    3    3    0  502  0.90562102885E+03  0.36996407123E+03  0.52736928715E+03  0.11113690777E+04  0.25500000920E-02 0. -1.
</event>
<event>
 5   0  0.1377237E-07  0.3100497E+04  0.7818609E-02  0.8215602E-01
        2   -1    0    0  501    0  0.00000000000E+00  0.00000000000E+00  0.27818094340E+04  0.27818094340E+04  0.25500000920E-02 0.  1.
       -2   -1    0    0    0  501  0.00000000000E+00  0.00000000000E+00 -0.86392344368E+03  0.86392344368E+03  0.25500000920E-02 0. -1.
    10030    2    1    2    0    0  0.00000000000E+00  0.00000000000E+00  0.19178859903E+04  0.36457328777E+04  0.31004969833E+04 0.  0.
        2    1    3    3  502    0 -0.28719871193E+03  0.23291667969E+01  0.27502527558E+04  0.27652086262E+04  0.25500000920E-02 0.  1.
       -2    1    3    3    0  502  0.28719871193E+03 -0.23291667969E+01 -0.83236676553E+03  0.88052425152E+03  0.25500000920E-02 0. -1.
</event>
<event>
 5   0  0.4450600E-08  0.3100412E+04  0.7818609E-02  0.8215625E-01
        1   -1    0    0  501    0  0.00000000000E+00  0.00000000000E+00  0.12791674746E+04  0.12791674746E+04  0.50400001928E-02 0. -1.
       -1   -1    0    0    0  501  0.00000000000E+00  0.00000000000E+00 -0.18786738025E+04  0.18786738025E+04  0.50400001928E-02 0.  1.
    10030    2    1    2    0    0  0.00000000000E+00  0.00000000000E+00 -0.59950632787E+03  0.31578412771E+04  0.31004118588E+04 0.  0.
        4    1    3    3  502    0 -0.78993014570E+03 -0.12727445118E+04 -0.70623015419E+03  0.16560890287E+04  0.12699999809E+01 0.  1.
       -4    1    3    3    0  502  0.78993014570E+03  0.12727445118E+04  0.10672382631E+03  0.15017522484E+04  0.12699999809E+01 0. -1.
</event>
<event>
 5   0  0.4470354E-08  0.3099501E+04  0.7818609E-02  0.8215875E-01
        1   -1    0    0  501    0  0.00000000000E+00  0.00000000000E+00  0.19922491976E+04  0.19922491976E+04  0.50400001928E-02 0.  1.
       -1   -1    0    0    0  501  0.00000000000E+00  0.00000000000E+00 -0.12055356078E+04  0.12055356078E+04  0.50400001928E-02 0. -1.
    10030    2    1    2    0    0  0.00000000000E+00  0.00000000000E+00  0.78671358983E+03  0.31977848055E+04  0.30995014744E+04 0.  0.
        1    1    3    3  502    0 -0.59785681224E+03  0.39358311681E+02 -0.10812102337E+04  0.12361219253E+04  0.50400001928E-02 0. -1.
       -1    1    3    3    0  502  0.59785681224E+03 -0.39358311681E+02  0.18679238236E+04  0.19616628801E+04  0.50400001928E-02 0.  1.
</event>
<event>
 5   0  0.1318916E-07  0.3103831E+04  0.7818609E-02  0.8214687E-01
        2   -1    0    0  501    0  0.00000000000E+00  0.00000000000E+00  0.29296243052E+04  0.29296243052E+04  0.25500000920E-02 0.  1.
       -2   -1    0    0    0  501  0.00000000000E+00  0.00000000000E+00 -0.82209894992E+03  0.82209894992E+03  0.25500000920E-02 0. -1.
    10030    2    1    2    0    0  0.00000000000E+00  0.00000000000E+00  0.21075253553E+04  0.37517232552E+04  0.31038305785E+04 0.  0.
        5    1    3    3  502    0  0.97228948332E+03 -0.96068350579E+03  0.19421323660E+04  0.23749020727E+04  0.46999998093E+01 0.  1.
       -5    1    3    3    0  502 -0.97228948332E+03  0.96068350579E+03  0.16539298931E+03  0.13768211825E+04  0.46999998093E+01 0. -1.
</event>
<event>
 5   0  0.4838602E-08  0.3100238E+04  0.7818609E-02  0.8215673E-01
       -1   -1    0    0    0  501  0.00000000000E+00  0.00000000000E+00  0.90324448276E+03  0.90324448277E+03  0.50400001928E-02 0.  1.
        1   -1    0    0  501    0  0.00000000000E+00  0.00000000000E+00 -0.26602640993E+04  0.26602640993E+04  0.50400001928E-02 0. -1.
    10030    2    1    2    0    0  0.00000000000E+00  0.00000000000E+00 -0.17570196165E+04  0.35635085820E+04  0.31002379717E+04 0.  0.
        5    1    3    3  502    0 -0.26378969735E+03  0.62904547169E+03  0.72145620738E+03  0.99287680960E+03  0.46999998093E+01 0.  1.
       -5    1    3    3    0  502  0.26378969735E+03 -0.62904547169E+03 -0.24784758239E+04  0.25706317724E+04  0.46999998093E+01 0. -1.
</event>
<event>
 5   0  0.1377237E-07  0.3101724E+04  0.7818609E-02  0.8215265E-01
       -2   -1    0    0    0  501  0.00000000000E+00  0.00000000000E+00  0.10953046621E+04  0.10953046621E+04  0.25500000920E-02 0.  1.
        2   -1    0    0  501    0  0.00000000000E+00  0.00000000000E+00 -0.21958940732E+04  0.21958940732E+04  0.25500000920E-02 0. -1.
    10030    2    1    2    0    0  0.00000000000E+00  0.00000000000E+00 -0.11005894111E+04  0.32911987353E+04  0.31017240469E+04 0.  0.
        2    1    3    3  502    0 -0.81368916766E+03  0.23932948250E+03 -0.19279943169E+04  0.21063073728E+04  0.25500000920E-02 0. -1.
       -2    1    3    3    0  502  0.81368916766E+03 -0.23932948250E+03  0.82740490579E+03  0.11848913625E+04  0.25500000920E-02 0.  1.
</event>
<event>
 5   0  0.1325713E-07  0.3099777E+04  0.7818609E-02  0.8215799E-01
        2   -1    0    0  501    0  0.00000000000E+00  0.00000000000E+00  0.15533842996E+04  0.15533842997E+04  0.25500000920E-02 0. -1.
       -2   -1    0    0    0  501  0.00000000000E+00  0.00000000000E+00 -0.15464008985E+04  0.15464008985E+04  0.25500000920E-02 0.  1.
    10030    2    1    2    0    0  0.00000000000E+00  0.00000000000E+00  0.69834011438E+01  0.30997851982E+04  0.30997773318E+04 0.  0.
        4    1    3    3  502    0 -0.11893736442E+04 -0.44709742107E+03  0.89098901996E+03  0.15518920117E+04  0.12699999809E+01 0. -1.
       -4    1    3    3    0  502  0.11893736442E+04  0.44709742107E+03 -0.88400561881E+03  0.15478931864E+04  0.12699999809E+01 0.  1.
</event>
<event>
 5   0  0.4450600E-08  0.3102731E+04  0.7818609E-02  0.8214989E-01
       -1   -1    0    0    0  501  0.00000000000E+00  0.00000000000E+00  0.88363075797E+03  0.88363075798E+03  0.50400001928E-02 0.  1.
        1   -1    0    0  501    0  0.00000000000E+00  0.00000000000E+00 -0.27236876991E+04  0.27236876991E+04  0.50400001928E-02 0. -1.
    10030    2    1    2    0    0  0.00000000000E+00  0.00000000000E+00 -0.18400569411E+04  0.36073184571E+04  0.31027305562E+04 0.  0.
        4    1    3    3  502    0 -0.81004839091E+03 -0.45376993179E+03 -0.23649859028E+04  0.25407175128E+04  0.12699999809E+01 0. -1.
       -4    1    3    3    0  502  0.81004839091E+03  0.45376993179E+03  0.52492896167E+03  0.10666009443E+04  0.12699999809E+01 0.  1.
</event>
<event>
 5   0  0.1318916E-07  0.3104798E+04  0.7818609E-02  0.8214422E-01
        2   -1    0    0  501    0  0.00000000000E+00  0.00000000000E+00  0.19076073874E+04  0.19076073874E+04  0.25500000920E-02 0.  1.
       -2   -1    0    0    0  501  0.00000000000E+00  0.00000000000E+00 -0.12633323761E+04  0.12633323761E+04  0.25500000920E-02 0. -1.
    10030    2    1    2    0    0  0.00000000000E+00  0.00000000000E+00  0.64427501131E+03  0.31709397636E+04  0.31047976897E+04 0.  0.
        5    1    3    3  502    0 -0.22894762741E+03 -0.15203005728E+04  0.10264228191E+03  0.15408726020E+04  0.46999998093E+01 0. -1.
       -5    1    3    3    0  502  0.22894762741E+03  0.15203005728E+04  0.54163272940E+03  0.16300671615E+04  0.46999998093E+01 0.  1.
</event>
<event>
 5   0  0.1398931E-07  0.3100858E+04  0.7818609E-02  0.8215502E-01
       -2   -1    0    0    0  501  0.00000000000E+00  0.00000000000E+00  0.94312226007E+03  0.94312226008E+03  0.25500000920E-02 0.  1.
        2   -1    0    0  501    0  0.00000000000E+00  0.00000000000E+00 -0.25488005998E+04  0.25488005998E+04  0.25500000920E-02 0. -1.
    10030    2    1    2    0    0  0.00000000000E+00  0.00000000000E+00 -0.16056783397E+04  0.34919228599E+04  0.31008583213E+04 0.  0.
        3    1    3    3  502    0  0.15676399552E+03 -0.15406630309E+04 -0.71847033565E+03  0.17071664121E+04  0.10100000352E+00 0. -1.
       -3    1    3    3    0  502 -0.15676399552E+03  0.15406630309E+04 -0.88720800408E+03  0.17847564478E+04  0.10100000352E+00 0.  1.
</event>
<event>
 5   0  0.1325713E-07  0.3100823E+04  0.7818609E-02  0.8215512E-01
       -2   -1    0    0    0  501  0.00000000000E+00  0.00000000000E+00  0.13758019273E+04  0.13758019273E+04  0.25500000920E-02 0.  1.
        2   -1    0    0  501    0  0.00000000000E+00  0.00000000000E+00 -0.17471819094E+04  0.17471819094E+04  0.25500000920E-02 0. -1.
    10030    2    1    2    0    0  0.00000000000E+00  0.00000000000E+00 -0.37137998206E+03  0.31229838367E+04  0.31008232702E+04 0.  0.
        4    1    3    3  502    0 -0.11949524621E+04  0.80869677172E+03 -0.75708289254E+03  0.16294410006E+04  0.12699999809E+01 0.  1.
       -4    1    3    3    0  502  0.11949524621E+04 -0.80869677172E+03  0.38570291047E+03  0.14935428361E+04  0.12699999809E+01 0. -1.
</event>
<event>
 5   0  0.4517409E-08  0.3099021E+04  0.7818609E-02  0.8216007E-01
        1   -1    0    0  501    0  0.00000000000E+00  0.00000000000E+00  0.30874359392E+04  0.30874359392E+04  0.50400001928E-02 0. -1.
       -1   -1    0    0    0  501  0.00000000000E+00  0.00000000000E+00 -0.77766242026E+03  0.77766242028E+03  0.50400001928E-02 0.  1.
    10030    2    1    2    0    0  0.00000000000E+00  0.00000000000E+00  0.23097735190E+04  0.38650983595E+04  0.30990210744E+04 0.  0.
        2    1    3    3  502    0 -0.37063563141E+03 -0.14561846828E+04  0.68302590118E+03  0.16505662614E+04  0.25500000920E-02 0.  1.
       -2    1    3    3    0  502  0.37063563141E+03  0.14561846828E+04  0.16267476178E+04  0.22145320981E+04  0.25500000920E-02 0. -1.
</event>
<event>
 5   0  0.1318916E-07  0.3099964E+04  0.7818609E-02  0.8215748E-01
        2   -1    0    0  501    0  0.00000000000E+00  0.00000000000E+00  0.23066261574E+04  0.23066261574E+04  0.25500000920E-02 0. -1.
       -2   -1    0    0    0  501  0.00000000000E+00  0.00000000000E+00 -0.10415400628E+04  0.10415400628E+04  0.25500000920E-02 0.  1.
    10030    2    1    2    0    0  0.00000000000E+00  0.00000000000E+00  0.12650860946E+04  0.33481662202E+04  0.30999635823E+04 0.  0.
        5    1    3    3  502    0 -0.16479031928E+03  0.13900723087E+04  0.13513874974E+04  0.19456945112E+04  0.46999998093E+01 0.  1.
       -5    1    3    3    0  502  0.16479031928E+03 -0.13900723087E+04 -0.86301402794E+02  0.14024717091E+04  0.46999998093E+01 0. -1.
</event>
<event>
 5   0  0.4838602E-08  0.3099487E+04  0.7818609E-02  0.8215879E-01
       -1   -1    0    0    0  501  0.00000000000E+00  0.00000000000E+00  0.14852679424E+04  0.14852679424E+04  0.50400001928E-02 0.  1.
        1   -1    0    0  501    0  0.00000000000E+00  0.00000000000E+00 -0.16170177848E+04  0.16170177848E+04  0.50400001928E-02 0. -1.
    10030    2    1    2    0    0  0.00000000000E+00  0.00000000000E+00 -0.13174984238E+03  0.31022857272E+04  0.30994868466E+04 0.  0.
        5    1    3    3  502    0 -0.13042417721E+04 -0.27177264551E+03 -0.85828144732E+03  0.15847952877E+04  0.46999998093E+01 0. -1.
       -5    1    3    3    0  502  0.13042417721E+04  0.27177264551E+03  0.72653160494E+03  0.15174904395E+04  0.46999998093E+01 0.  1.
</event>
<event>
 5   0  0.1325713E-07  0.3100123E+04  0.7818609E-02  0.8215704E-01
        2   -1    0    0  501    0  0.00000000000E+00  0.00000000000E+00  0.18066259276E+04  0.18066259276E+04  0.25500000920E-02 0.  1.
       -2   -1    0    0    0  501  0.00000000000E+00  0.00000000000E+00 -0.13299324691E+04  0.13299324691E+04  0.25500000920E-02 0. -1.
    10030    2    1    2    0    0  0.00000000000E+00  0.00000000000E+00  0.47669345845E+03  0.31365583967E+04  0.31001228883E+04 0.  0.
        4    1    3    3  502    0  0.24075492250E+03 -0.13173756882E+04  0.10280632986E+04  0.16883001497E+04  0.12699999809E+01 0.  1.
       -4    1    3    3    0  502 -0.24075492250E+03  0.13173756882E+04 -0.55136984016E+03  0.14482582470E+04  0.12699999809E+01 0. -1.
</event>
<event>
 5   0  0.4470354E-08  0.3098460E+04  0.7818609E-02  0.8216161E-01
       -1   -1    0    0    0  501  0.00000000000E+00  0.00000000000E+00  0.21301636401E+04  0.21301636401E+04  0.50400001928E-02 0. -1.
        1   -1    0    0  501    0  0.00000000000E+00  0.00000000000E+00 -0.11267269895E+04  0.11267269896E+04  0.50400001928E-02 0.  1.
    10030    2    1    2    0    0  0.00000000000E+00  0.00000000000E+00  0.10034366506E+04  0.32568906297E+04  0.30984595305E+04 0.  0.
        1    1    3    3  502    0  0.93697089836E+03  0.24307643048E+02  0.17983262521E+04  0.20279256976E+04  0.50400001928E-02 0. -1.
       -1    1    3    3    0  502 -0.93697089836E+03 -0.24307643048E+02 -0.79488960148E+03  0.12289649321E+04  0.50400001928E-02 0.  1.
</event>
<event>
 5   0  0.1318916E-07  0.3100455E+04  0.7818609E-02  0.8215613E-01
        2   -1    0    0  501    0  0.00000000000E+00  0.00000000000E+00  0.15425781833E+04  0.15425781833E+04  0.25500000920E-02 0. -1.
       -2   -1    0    0    0  501  0.00000000000E+00  0.00000000000E+00 -0.15579146529E+04  0.15579146529E+04  0.25500000920E-02 0.  1.
    10030    2    1    2    0    0  0.00000000000E+00  0.00000000000E+00 -0.15336469600E+02  0.31004928362E+04  0.31004549053E+04 0.  0.
        5    1    3    3  502    0 -0.80557094669E+03  0.13090059823E+04 -0.20951681684E+03  0.15512448544E+04  0.46999998093E+01 0.  1.
       -5    1    3    3    0  502  0.80557094669E+03 -0.13090059823E+04  0.19418034724E+03  0.15492479818E+04  0.46999998093E+01 0. -1.
</event>
<event>
 5   0  0.4838602E-08  0.3099141E+04  0.7818609E-02  0.8215974E-01
       -1   -1    0    0    0  501  0.00000000000E+00  0.00000000000E+00  0.10092733446E+04  0.10092733446E+04  0.50400001928E-02 0. -1.
        1   -1    0    0  501    0  0.00000000000E+00  0.00000000000E+00 -0.23791070395E+04  0.23791070395E+04  0.50400001928E-02 0.  1.
    10030    2    1    2    0    0  0.00000000000E+00  0.00000000000E+00 -0.13698336949E+04  0.33883803842E+04  0.30991413772E+04 0.  0.
        5    1    3    3  502    0 -0.30872584191E+03  0.41117461280E+03  0.91327813571E+03  0.10480817005E+04  0.46999998093E+01 0. -1.
       -5    1    3    3    0  502  0.30872584191E+03 -0.41117461280E+03 -0.22831118306E+04  0.23402986837E+04  0.46999998093E+01 0.  1.
</event>
<event>
 5   0  0.4838602E-08  0.3075582E+04  0.7818609E-02  0.8222471E-01
       -1   -1    0    0    0  501  0.00000000000E+00  0.00000000000E+00  0.20964580157E+04  0.20964580157E+04  0.50400001928E-02 0.  1.
        1   -1    0    0  501    0  0.00000000000E+00  0.00000000000E+00 -0.11279980018E+04  0.11279980018E+04  0.50400001928E-02 0. -1.
    10030    2    1    2    0    0  0.00000000000E+00  0.00000000000E+00  0.96846001384E+03  0.32244560175E+04  0.30755815402E+04 0.  0.
        5    1    3    3  502    0 -0.83490895508E+03 -0.10036407527E+04 -0.36776341622E+03  0.13563331980E+04  0.46999998093E+01 0. -1.
       -5    1    3    3    0  502  0.83490895508E+03  0.10036407527E+04  0.13362234301E+04  0.18681228195E+04  0.46999998093E+01 0.  1.
</event>
<event>
 5   0  0.1318916E-07  0.3100204E+04  0.7818609E-02  0.8215682E-01
        2   -1    0    0  501    0  0.00000000000E+00  0.00000000000E+00  0.25320752271E+04  0.25320752271E+04  0.25500000920E-02 0. -1.
       -2   -1    0    0    0  501  0.00000000000E+00  0.00000000000E+00 -0.94895158541E+03  0.94895158542E+03  0.25500000920E-02 0.  1.
    10030    2    1    2    0    0  0.00000000000E+00  0.00000000000E+00  0.15831236417E+04  0.34810268126E+04  0.31002043811E+04 0.  0.
        5    1    3    3  502    0  0.96397277620E+03 -0.38303612785E+03  0.20849396861E+04  0.23287240655E+04  0.46999998093E+01 0. -1.
       -5    1    3    3    0  502 -0.96397277620E+03  0.38303612785E+03 -0.50181604438E+03  0.11523027471E+04  0.46999998093E+01 0.  1.
</event>
<event>
 5   0  0.4470354E-08  0.3099987E+04  0.7818609E-02  0.8215742E-01
        1   -1    0    0  501    0  0.00000000000E+00  0.00000000000E+00  0.17887673945E+04  0.17887673945E+04  0.50400001928E-02 0.  1.
       -1   -1    0    0    0  501  0.00000000000E+00  0.00000000000E+00 -0.13430921753E+04  0.13430921753E+04  0.50400001928E-02 0. -1.
    10030    2    1    2    0    0  0.00000000000E+00  0.00000000000E+00  0.44567521917E+03  0.31318595698E+04  0.30999867683E+04 0.  0.
        1    1    3    3  502    0  0.58805678532E+03  0.91166350442E+03  0.13412601096E+04  0.17250854500E+04  0.50400001928E-02 0.  1.
       -1    1    3    3    0  502 -0.58805678532E+03 -0.91166350442E+03 -0.89558489047E+03  0.14067741198E+04  0.50400001928E-02 0. -1.
</event>
<event>
 5   0  0.4450600E-08  0.3100567E+04  0.7818609E-02  0.8215582E-01
       -1   -1    0    0    0  501  0.00000000000E+00  0.00000000000E+00  0.17985546743E+04  0.17985546743E+04  0.50400001928E-02 0. -1.
        1   -1    0    0  501    0  0.00000000000E+00  0.00000000000E+00 -0.13362834661E+04  0.13362834661E+04  0.50400001928E-02 0.  1.
    10030    2    1    2    0    0  0.00000000000E+00  0.00000000000E+00  0.46227120817E+03  0.31348381404E+04  0.31005669638E+04 0.  0.
        4    1    3    3  502    0  0.52497260834E+03  0.75524380518E+03  0.14928829304E+04  0.17534795412E+04  0.12699999809E+01 0. -1.
       -4    1    3    3    0  502 -0.52497260834E+03 -0.75524380518E+03 -0.10306117222E+04  0.13813585992E+04  0.12699999809E+01 0.  1.
</event>
<event>
 5   0  0.4838602E-08  0.3100799E+04  0.7818609E-02  0.8215519E-01
        1   -1    0    0  501    0  0.00000000000E+00  0.00000000000E+00  0.16262336917E+04  0.16262336917E+04  0.50400001928E-02 0.  1.
       -1   -1    0    0    0  501  0.00000000000E+00  0.00000000000E+00 -0.14781013382E+04  0.14781013382E+04  0.50400001928E-02 0. -1.
    10030    2    1    2    0    0  0.00000000000E+00  0.00000000000E+00  0.14813235344E+03  0.31043350299E+04  0.31007987332E+04 0.  0.
        5    1    3    3  502    0  0.28762098400E+03 -0.78472333343E+03  0.13813883110E+04  0.16145501839E+04  0.46999998093E+01 0.  1.
       -5    1    3    3    0  502 -0.28762098400E+03  0.78472333343E+03 -0.12332559576E+04  0.14897848460E+04  0.46999998093E+01 0. -1.
</event>
<event>
 5   0  0.4450600E-08  0.3102136E+04  0.7818609E-02  0.8215152E-01
        1   -1    0    0  501    0  0.00000000000E+00  0.00000000000E+00  0.16571385379E+04  0.16571385379E+04  0.50400001928E-02 0. -1.
       -1   -1    0    0    0  501  0.00000000000E+00  0.00000000000E+00 -0.14517871491E+04  0.14517871491E+04  0.50400001928E-02 0.  1.
    10030    2    1    2    0    0  0.00000000000E+00  0.00000000000E+00  0.20535138875E+03  0.31089256870E+04  0.31021363178E+04 0.  0.
        4    1    3    3  502    0 -0.89497731226E+03 -0.10652375725E+04 -0.58445988813E+03  0.15090760249E+04  0.12699999809E+01 0.  1.
       -4    1    3    3    0  502  0.89497731226E+03  0.10652375725E+04  0.78981127688E+03  0.15998496621E+04  0.12699999809E+01 0. -1.
</event>
<event>
 5   0  0.4450600E-08  0.3099083E+04  0.7818609E-02  0.8215990E-01
        1   -1    0    0  501    0  0.00000000000E+00  0.00000000000E+00  0.12486707598E+04  0.12486707598E+04  0.50400001928E-02 0. -1.
       -1   -1    0    0    0  501  0.00000000000E+00  0.00000000000E+00 -0.19229074900E+04  0.19229074900E+04  0.50400001928E-02 0.  1.
    10030    2    1    2    0    0  0.00000000000E+00  0.00000000000E+00 -0.67423673019E+03  0.31715782497E+04  0.30990826749E+04 0.  0.
        4    1    3    3  502    0  0.12167005534E+04 -0.85311341772E+03  0.11237589017E+03  0.14902324294E+04  0.12699999809E+01 0. -1.
       -4    1    3    3    0  502 -0.12167005534E+04  0.85311341772E+03 -0.78661262036E+03  0.16813458203E+04  0.12699999809E+01 0.  1.
</event>
<event>
 5   0  0.4450600E-08  0.3100096E+04  0.7818609E-02  0.8215712E-01
        1   -1    0    0  501    0  0.00000000000E+00  0.00000000000E+00  0.13296957744E+04  0.13296957744E+04  0.50400001928E-02 0. -1.
       -1   -1    0    0    0  501  0.00000000000E+00  0.00000000000E+00 -0.18069161262E+04  0.18069161262E+04  0.50400001928E-02 0.  1.
    10030    2    1    2    0    0  0.00000000000E+00  0.00000000000E+00 -0.47722035182E+03  0.31366119006E+04  0.31000959583E+04 0.  0.
        4    1    3    3  502    0  0.11662869567E+02  0.96673505137E+03 -0.14644648273E+04  0.17548138150E+04  0.12699999809E+01 0.  1.
       -4    1    3    3    0  502 -0.11662869567E+02 -0.96673505137E+03  0.98724447545E+03  0.13817980856E+04  0.12699999809E+01 0. -1.
</event>
<event>
 5   0  0.4470354E-08  0.3103728E+04  0.7818609E-02  0.8214716E-01
       -1   -1    0    0    0  501  0.00000000000E+00  0.00000000000E+00  0.21292962378E+04  0.21292962378E+04  0.50400001928E-02 0. -1.
        1   -1    0    0  501    0  0.00000000000E+00  0.00000000000E+00 -0.11310222142E+04  0.11310222142E+04  0.50400001928E-02 0.  1.
    10030    2    1    2    0    0  0.00000000000E+00  0.00000000000E+00  0.99827402360E+03  0.32603184521E+04  0.31037276592E+04 0.  0.
        1    1    3    3  502    0  0.12676293586E+04 -0.40741019594E+03  0.13364827897E+04  0.18865453893E+04  0.50400001928E-02 0. -1.
       -1    1    3    3    0  502 -0.12676293586E+04  0.40741019594E+03 -0.33820876611E+03  0.13737730628E+04  0.50400001928E-02 0.  1.
</event>
<event>
 5   0  0.1377237E-07  0.3099525E+04  0.7818609E-02  0.8215868E-01
       -2   -1    0    0    0  501  0.00000000000E+00  0.00000000000E+00  0.10919604825E+04  0.10919604825E+04  0.25500000920E-02 0. -1.
        2   -1    0    0  501    0  0.00000000000E+00  0.00000000000E+00 -0.21994967285E+04  0.21994967285E+04  0.25500000920E-02 0.  1.
    10030    2    1    2    0    0  0.00000000000E+00  0.00000000000E+00 -0.11075362460E+04  0.32914572110E+04  0.30995248080E+04 0.  0.
        2    1    3    3  502    0  0.11968443872E+04  0.85992195301E+03 -0.44641292046E+02  0.14744134758E+04  0.25500000920E-02 0. -1.
       -2    1    3    3    0  502 -0.11968443872E+04 -0.85992195301E+03 -0.10628949540E+04  0.18170437352E+04  0.25500000920E-02 0.  1.
</event>
<event>
 5   0  0.4470354E-08  0.3100735E+04  0.7818609E-02  0.8215536E-01
        1   -1    0    0  501    0  0.00000000000E+00  0.00000000000E+00  0.25773932590E+04  0.25773932590E+04  0.50400001928E-02 0. -1.
       -1   -1    0    0    0  501  0.00000000000E+00  0.00000000000E+00 -0.93258566139E+03  0.93258566141E+03  0.50400001928E-02 0.  1.
    10030    2    1    2    0    0  0.00000000000E+00  0.00000000000E+00  0.16448075976E+04  0.35099789204E+04  0.31007353948E+04 0.  0.
        1    1    3    3  502    0  0.12742310355E+04  0.18326083970E+03 -0.15556031785E+03  0.12967067053E+04  0.50400001928E-02 0.  1.
       -1    1    3    3    0  502 -0.12742310355E+04 -0.18326083970E+03  0.18003679155E+04  0.22132722151E+04  0.50400001928E-02 0. -1.
</event>
<event>
 5   0  0.4470354E-08  0.3105303E+04  0.7818609E-02  0.8214284E-01
        1   -1    0    0  501    0  0.00000000000E+00  0.00000000000E+00  0.23527676165E+04  0.23527676165E+04  0.50400001928E-02 0. -1.
       -1   -1    0    0    0  501  0.00000000000E+00  0.00000000000E+00 -0.10246343225E+04  0.10246343226E+04  0.50400001928E-02 0.  1.
    10030    2    1    2    0    0  0.00000000000E+00  0.00000000000E+00  0.13281332940E+04  0.33774019391E+04  0.31053028534E+04 0.  0.
        1    1    3    3  502    0 -0.98693163672E+03 -0.38424619558E+03  0.18989138028E+04  0.21742936382E+04  0.50400001928E-02 0. -1.
       -1    1    3    3    0  502  0.98693163672E+03  0.38424619558E+03 -0.57078050886E+03  0.12031083009E+04  0.50400001928E-02 0.  1.
</event>
<event>
 5   0  0.1318916E-07  0.3099975E+04  0.7818609E-02  0.8215745E-01
       -2   -1    0    0    0  501  0.00000000000E+00  0.00000000000E+00  0.14424889941E+04  0.14424889941E+04  0.25500000920E-02 0. -1.
        2   -1    0    0  501    0  0.00000000000E+00  0.00000000000E+00 -0.16654976090E+04  0.16654976090E+04  0.25500000920E-02 0.  1.
    10030    2    1    2    0    0  0.00000000000E+00  0.00000000000E+00 -0.22300861488E+03  0.31079866031E+04  0.30999754649E+04 0.  0.
        5    1    3    3  502    0 -0.26063064698E+03  0.13919926101E+03  0.14139845943E+04  0.14445342818E+04  0.46999998093E+01 0. -1.
       -5    1    3    3    0  502  0.26063064698E+03 -0.13919926101E+03 -0.16369932092E+04  0.16634523213E+04  0.46999998093E+01 0.  1.
</event>
<event>
 5   0  0.4517409E-08  0.3108072E+04  0.7818609E-02  0.8213526E-01
       -1   -1    0    0    0  501  0.00000000000E+00  0.00000000000E+00  0.15721326111E+04  0.15721326111E+04  0.50400001928E-02 0.  1.
        1   -1    0    0  501    0  0.00000000000E+00  0.00000000000E+00 -0.15361476762E+04  0.15361476762E+04  0.50400001928E-02 0. -1.
    10030    2    1    2    0    0  0.00000000000E+00  0.00000000000E+00  0.35984934850E+02  0.31082802873E+04  0.31080719794E+04 0.  0.
        2    1    3    3  502    0 -0.62004599664E+03  0.14123823977E+04  0.20707333301E+03  0.15563291556E+04  0.25500000920E-02 0.  1.
       -2    1    3    3    0  502  0.62004599664E+03 -0.14123823977E+04 -0.17108839816E+03  0.15519511317E+04  0.25500000920E-02 0. -1.
</event>
<event>
 5   0  0.4436241E-08  0.3101306E+04  0.7818609E-02  0.8215379E-01
       -1   -1    0    0    0  501  0.00000000000E+00  0.00000000000E+00  0.90424756201E+03  0.90424756202E+03  0.50400001928E-02 0. -1.
        1   -1    0    0  501    0  0.00000000000E+00  0.00000000000E+00 -0.26591450440E+04  0.26591450440E+04  0.50400001928E-02 0.  1.
    10030    2    1    2    0    0  0.00000000000E+00  0.00000000000E+00 -0.17548974819E+04  0.35633926060E+04  0.31013064493E+04 0.  0.
        3    1    3    3  502    0  0.14926375773E+04 -0.41749446849E+03 -0.82286418036E+03  0.17548145309E+04  0.10100000352E+00 0. -1.
       -3    1    3    3    0  502 -0.14926375773E+04  0.41749446849E+03 -0.93203330159E+03  0.18085780751E+04  0.10100000352E+00 0.  1.
</event>
<event>
 5   0  0.4450600E-08  0.3099737E+04  0.7818609E-02  0.8215810E-01
        1   -1    0    0  501    0  0.00000000000E+00  0.00000000000E+00  0.23676303551E+04  0.23676303551E+04  0.50400001928E-02 0.  1.
       -1   -1    0    0    0  501  0.00000000000E+00  0.00000000000E+00 -0.10145552556E+04  0.10145552556E+04  0.50400001928E-02 0. -1.
    10030    2    1    2    0    0  0.00000000000E+00  0.00000000000E+00  0.13530750996E+04  0.33821856107E+04  0.30997366469E+04 0.  0.
        4    1    3    3  502    0  0.14981615954E+04 -0.33121253722E+03  0.91534162858E+03  0.17866286186E+04  0.12699999809E+01 0. -1.
       -4    1    3    3    0  502 -0.14981615954E+04  0.33121253722E+03  0.43773347098E+03  0.15955569922E+04  0.12699999809E+01 0.  1.
</event>
<event>
 5   0  0.4450600E-08  0.3097640E+04  0.7818609E-02  0.8216386E-01
       -1   -1    0    0    0  501  0.00000000000E+00  0.00000000000E+00  0.97401284286E+03  0.97401284287E+03  0.50400001928E-02 0. -1.
        1   -1    0    0  501    0  0.00000000000E+00  0.00000000000E+00 -0.24628454149E+04  0.24628454149E+04  0.50400001928E-02 0.  1.
    10030    2    1    2    0    0  0.00000000000E+00  0.00000000000E+00 -0.14888325720E+04  0.34368582577E+04  0.30976397880E+04 0.  0.
        4    1    3    3  502    0 -0.64533908441E+03  0.12217840564E+04 -0.15207732475E+04  0.20547437060E+04  0.12699999809E+01 0.  1.
       -4    1    3    3    0  502  0.64533908441E+03 -0.12217840564E+04  0.31940675507E+02  0.13821145517E+04  0.12699999809E+01 0. -1.
</event>
<event>
 5   0  0.1325713E-07  0.3100152E+04  0.7818609E-02  0.8215696E-01
        2   -1    0    0  501    0  0.00000000000E+00  0.00000000000E+00  0.17377959372E+04  0.17377959372E+04  0.25500000920E-02 0. -1.
       -2   -1    0    0    0  501  0.00000000000E+00  0.00000000000E+00 -0.13826338979E+04  0.13826338979E+04  0.25500000920E-02 0.  1.
    10030    2    1    2    0    0  0.00000000000E+00  0.00000000000E+00  0.35516203932E+03  0.31204298351E+04  0.31001519772E+04 0.  0.
        4    1    3    3  502    0  0.11722685254E+04 -0.96974634747E+03  0.47636008087E+03  0.15942214443E+04  0.12699999809E+01 0. -1.
       -4    1    3    3    0  502 -0.11722685254E+04  0.96974634747E+03 -0.12119804155E+03  0.15262083908E+04  0.12699999809E+01 0.  1.
</event>
<event>
 5   0  0.4305500E-08  0.3102879E+04  0.7818609E-02  0.8214948E-01
       -3   -1    0    0    0  501  0.00000000000E+00  0.00000000000E+00  0.14944213533E+04  0.14944213567E+04  0.10100000352E+00 0. -1.
        3   -1    0    0  501    0  0.00000000000E+00  0.00000000000E+00 -0.16106331199E+04  0.16106331231E+04  0.10100000352E+00 0.  1.
    10030    2    1    2    0    0  0.00000000000E+00  0.00000000000E+00 -0.11621176664E+03  0.31050544797E+04  0.31028790095E+04 0.  0.
        5    1    3    3  502    0  0.55459499214E+03  0.83380400931E+03  0.11276880809E+04  0.15081469521E+04  0.46999998093E+01 0. -1.
       -5    1    3    3    0  502 -0.55459499214E+03 -0.83380400931E+03 -0.12438998475E+04  0.15969075277E+04  0.46999998093E+01 0.  1.
</event>
<event>
 5   0  0.4436241E-08  0.3102779E+04  0.7818609E-02  0.8214976E-01
        1   -1    0    0  501    0  0.00000000000E+00  0.00000000000E+00  0.21300935537E+04  0.21300935537E+04  0.50400001928E-02 0.  1.
       -1   -1    0    0    0  501  0.00000000000E+00  0.00000000000E+00 -0.11299078038E+04  0.11299078038E+04  0.50400001928E-02 0. -1.
    10030    2    1    2    0    0  0.00000000000E+00  0.00000000000E+00  0.10001857500E+04  0.32600013575E+04  0.31027789668E+04 0.  0.
        3    1    3    3  502    0 -0.65202991787E+03  0.13537859428E+04  0.90556213010E+03  0.17544008021E+04  0.10100000352E+00 0. -1.
       -3    1    3    3    0  502  0.65202991787E+03 -0.13537859428E+04  0.94623619866E+02  0.15056005554E+04  0.10100000352E+00 0.  1.
</event>
<event>
 5   0  0.1377237E-07  0.3097537E+04  0.7818609E-02  0.8216414E-01
       -2   -1    0    0    0  501  0.00000000000E+00  0.00000000000E+00  0.12535241001E+04  0.12535241001E+04  0.25500000920E-02 0.  1.
        2   -1    0    0  501    0  0.00000000000E+00  0.00000000000E+00 -0.19135519332E+04  0.19135519332E+04  0.25500000920E-02 0. -1.
    10030    2    1    2    0    0  0.00000000000E+00  0.00000000000E+00 -0.66002783310E+03  0.31670760333E+04  0.30975367407E+04 0.  0.
        2    1    3    3  502    0  0.94170332374E+02 -0.40845238394E+02  0.12500423717E+04  0.12542497024E+04  0.25500000920E-02 0.  1.
       -2    1    3    3    0  502 -0.94170332374E+02  0.40845238394E+02 -0.19100702048E+04  0.19128263309E+04  0.25500000920E-02 0. -1.
</event>
<event>
 5   0  0.1318916E-07  0.3106994E+04  0.7818609E-02  0.8213821E-01
       -2   -1    0    0    0  501  0.00000000000E+00  0.00000000000E+00  0.12438013580E+04  0.12438013580E+04  0.25500000920E-02 0.  1.
        2   -1    0    0  501    0  0.00000000000E+00  0.00000000000E+00 -0.19403039539E+04  0.19403039539E+04  0.25500000920E-02 0. -1.
    10030    2    1    2    0    0  0.00000000000E+00  0.00000000000E+00 -0.69650259587E+03  0.31841053119E+04  0.31069938480E+04 0.  0.
        5    1    3    3  502    0 -0.10277277782E+04 -0.51472530909E+03  0.72275240658E+03  0.13577774711E+04  0.46999998093E+01 0.  1.
       -5    1    3    3    0  502  0.10277277782E+04  0.51472530909E+03 -0.14192550025E+04  0.18263278408E+04  0.46999998093E+01 0. -1.
</event>
<event>
 5   0  0.1398931E-07  0.3099702E+04  0.7818609E-02  0.8215820E-01
        2   -1    0    0  501    0  0.00000000000E+00  0.00000000000E+00  0.20133017093E+04  0.20133017093E+04  0.25500000920E-02 0.  1.
       -2   -1    0    0    0  501  0.00000000000E+00  0.00000000000E+00 -0.11930839472E+04  0.11930839472E+04  0.25500000920E-02 0. -1.
    10030    2    1    2    0    0  0.00000000000E+00  0.00000000000E+00  0.82021776216E+03  0.32063856565E+04  0.30997018890E+04 0.  0.
        3    1    3    3  502    0 -0.10262258753E+04 -0.19467406249E+03 -0.77428796317E+03  0.13002151352E+04  0.10100000352E+00 0. -1.
       -3    1    3    3    0  502  0.10262258753E+04  0.19467406249E+03  0.15945057253E+04  0.19061705212E+04  0.10100000352E+00 0.  1.
</event>
<event>
 5   0  0.4517409E-08  0.3100614E+04  0.7818609E-02  0.8215570E-01
       -1   -1    0    0    0  501  0.00000000000E+00  0.00000000000E+00  0.13417279822E+04  0.13417279822E+04  0.50400001928E-02 0.  1.
        1   -1    0    0  501    0  0.00000000000E+00  0.00000000000E+00 -0.17913104233E+04  0.17913104233E+04  0.50400001928E-02 0. -1.
    10030    2    1    2    0    0  0.00000000000E+00  0.00000000000E+00 -0.44958244112E+03  0.31330384055E+04  0.31006136940E+04 0.  0.
        2    1    3    3  502    0 -0.93406544003E+03 -0.36866077771E+02  0.10249180109E+04  0.13871893465E+04  0.25500000920E-02 0.  1.
       -2    1    3    3    0  502  0.93406544003E+03  0.36866077771E+02 -0.14745004520E+04  0.17458490590E+04  0.25500000920E-02 0. -1.
</event>
<event>
 5   0  0.1398931E-07  0.3101111E+04  0.7818609E-02  0.8215433E-01
       -2   -1    0    0    0  501  0.00000000000E+00  0.00000000000E+00  0.72457895578E+03  0.72457895578E+03  0.25500000920E-02 0. -1.
        2   -1    0    0  501    0  0.00000000000E+00  0.00000000000E+00 -0.33180955179E+04  0.33180955179E+04  0.25500000920E-02 0.  1.
    10030    2    1    2    0    0  0.00000000000E+00  0.00000000000E+00 -0.25935165621E+04  0.40426744737E+04  0.31011108884E+04 0.  0.
        3    1    3    3  502    0  0.73088700957E+03  0.38470486086E+03  0.41393301980E+03  0.92386914973E+03  0.10100000352E+00 0. -1.
       -3    1    3    3    0  502 -0.73088700957E+03 -0.38470486086E+03 -0.30074495819E+04  0.31188053239E+04  0.10100000352E+00 0.  1.
</event>
<event>
 5   0  0.4838602E-08  0.3097367E+04  0.7818609E-02  0.8216461E-01
       -1   -1    0    0    0  501  0.00000000000E+00  0.00000000000E+00  0.14739345763E+04  0.14739345763E+04  0.50400001928E-02 0. -1.
        1   -1    0    0  501    0  0.00000000000E+00  0.00000000000E+00 -0.16272237531E+04  0.16272237531E+04  0.50400001928E-02 0.  1.
    10030    2    1    2    0    0  0.00000000000E+00  0.00000000000E+00 -0.15328917677E+03  0.31011583294E+04  0.30973674972E+04 0.  0.
        5    1    3    3  502    0  0.11490351601E+04 -0.22861787351E+03  0.93743821081E+03  0.15004534049E+04  0.46999998093E+01 0. -1.
       -5    1    3    3    0  502 -0.11490351601E+04  0.22861787351E+03 -0.10907273876E+04  0.16007049245E+04  0.46999998093E+01 0.  1.
</event>
<event>
 5   0  0.4436241E-08  0.3102198E+04  0.7818609E-02  0.8215135E-01
       -1   -1    0    0    0  501  0.00000000000E+00  0.00000000000E+00  0.17201548304E+04  0.17201548304E+04  0.50400001928E-02 0. -1.
        1   -1    0    0  501    0  0.00000000000E+00  0.00000000000E+00 -0.13986580686E+04  0.13986580686E+04  0.50400001928E-02 0.  1.
    10030    2    1    2    0    0  0.00000000000E+00  0.00000000000E+00  0.32149676179E+03  0.31188128990E+04  0.31021982096E+04 0.  0.
        3    1    3    3  502    0  0.38807794657E+03  0.13838213828E+04 -0.42576476451E+03  0.14989468827E+04  0.10100000352E+00 0.  1.
       -3    1    3    3    0  502 -0.38807794657E+03 -0.13838213828E+04  0.74726152630E+03  0.16198660164E+04  0.10100000352E+00 0. -1.
</event>
<event>
 5   0  0.4470354E-08  0.3105995E+04  0.7818609E-02  0.8214094E-01
       -1   -1    0    0    0  501  0.00000000000E+00  0.00000000000E+00  0.98256693874E+03  0.98256693875E+03  0.50400001928E-02 0.  1.
        1   -1    0    0  501    0  0.00000000000E+00  0.00000000000E+00 -0.24545928822E+04  0.24545928822E+04  0.50400001928E-02 0. -1.
    10030    2    1    2    0    0  0.00000000000E+00  0.00000000000E+00 -0.14720259435E+04  0.34371598210E+04  0.31059953729E+04 0.  0.
        1    1    3    3  502    0 -0.56910762533E+03 -0.10113040686E+04 -0.18781308087E+04  0.22077125590E+04  0.50400001928E-02 0. -1.
       -1    1    3    3    0  502  0.56910762533E+03  0.10113040686E+04  0.40610486523E+03  0.12294472620E+04  0.50400001928E-02 0.  1.
</event>
<event>
 5   0  0.1325713E-07  0.3099297E+04  0.7818609E-02  0.8215931E-01
       -2   -1    0    0    0  501  0.00000000000E+00  0.00000000000E+00  0.10897934313E+04  0.10897934313E+04  0.25500000920E-02 0. -1.
        2   -1    0    0  501    0  0.00000000000E+00  0.00000000000E+00 -0.22035465679E+04  0.22035465679E+04  0.25500000920E-02 0.  1.
    10030    2    1    2    0    0  0.00000000000E+00  0.00000000000E+00 -0.11137531366E+04  0.32933399992E+04  0.30992970656E+04 0.  0.
        4    1    3    3  502    0  0.14612474018E+03  0.61680916216E+03  0.94572989125E+03  0.11385133387E+04  0.12699999809E+01 0. -1.
       -4    1    3    3    0  502 -0.14612474018E+03 -0.61680916216E+03 -0.20594830278E+04  0.21548266605E+04  0.12699999809E+01 0.  1.
</event>
<event>
 5   0  0.4450600E-08  0.3099609E+04  0.7818609E-02  0.8215845E-01
        1   -1    0    0  501    0  0.00000000000E+00  0.00000000000E+00  0.16766416191E+04  0.16766416191E+04  0.50400001928E-02 0. -1.
       -1   -1    0    0    0  501  0.00000000000E+00  0.00000000000E+00 -0.14325626531E+04  0.14325626531E+04  0.50400001928E-02 0.  1.
    10030    2    1    2    0    0  0.00000000000E+00  0.00000000000E+00  0.24407896601E+03  0.31092042723E+04  0.30996091149E+04 0.  0.
        4    1    3    3  502    0  0.13370224880E+04  0.75950794570E+03 -0.71978759944E+02  0.15393713028E+04  0.12699999809E+01 0.  1.
       -4    1    3    3    0  502 -0.13370224880E+04 -0.75950794570E+03  0.31605772596E+03  0.15698329695E+04  0.12699999809E+01 0. -1.
</event>
<event>
 5   0  0.4517409E-08  0.3099387E+04  0.7818609E-02  0.8215906E-01
       -1   -1    0    0    0  501  0.00000000000E+00  0.00000000000E+00  0.19206708591E+04  0.19206708591E+04  0.50400001928E-02 0.  1.
        1   -1    0    0  501    0  0.00000000000E+00  0.00000000000E+00 -0.12503705454E+04  0.12503705454E+04  0.50400001928E-02 0. -1.
    10030    2    1    2    0    0  0.00000000000E+00  0.00000000000E+00  0.67030031375E+03  0.31710414045E+04  0.30993872102E+04 0.  0.
        2    1    3    3  502    0  0.13875922959E+04  0.67688858969E+03  0.19803800581E+03  0.15565376944E+04  0.25500000920E-02 0.  1.
       -2    1    3    3    0  502 -0.13875922959E+04 -0.67688858969E+03  0.47226230795E+03  0.16145037101E+04  0.25500000920E-02 0. -1.
</event>
<event>
 5   0  0.4436241E-08  0.3098950E+04  0.7818609E-02  0.8216026E-01
       -1   -1    0    0    0  501  0.00000000000E+00  0.00000000000E+00  0.30921341052E+04  0.30921341052E+04  0.50400001928E-02 0.  1.
        1   -1    0    0  501    0  0.00000000000E+00  0.00000000000E+00 -0.77644515536E+03  0.77644515538E+03  0.50400001928E-02 0. -1.
    10030    2    1    2    0    0  0.00000000000E+00  0.00000000000E+00  0.23156889498E+04  0.38685792606E+04  0.30989498516E+04 0.  0.
        3    1    3    3  502    0 -0.11235230727E+04 -0.10340187387E+04  0.82904255562E+03  0.17374724217E+04  0.10100000352E+00 0. -1.
       -3    1    3    3    0  502  0.11235230727E+04  0.10340187387E+04  0.14866463942E+04  0.21311068388E+04  0.10100000352E+00 0.  1.
</event>
<event>
 5   0  0.1377237E-07  0.3099583E+04  0.7818609E-02  0.8215852E-01
        2   -1    0    0  501    0  0.00000000000E+00  0.00000000000E+00  0.18823099402E+04  0.18823099402E+04  0.25500000920E-02 0.  1.
       -2   -1    0    0    0  501  0.00000000000E+00  0.00000000000E+00 -0.12760139299E+04  0.12760139299E+04  0.25500000920E-02 0. -1.
    10030    2    1    2    0    0  0.00000000000E+00  0.00000000000E+00  0.60629601025E+03  0.31583238701E+04  0.30995830068E+04 0.  0.
        2    1    3    3  502    0 -0.71774490409E+03 -0.55793684532E+03 -0.97578898182E+03  0.13336474076E+04  0.25500000920E-02 0. -1.
       -2    1    3    3    0  502  0.71774490409E+03  0.55793684532E+03  0.15820849921E+04  0.18246764625E+04  0.25500000920E-02 0.  1.
</event>
<event>
 5   0  0.1325713E-07  0.3085419E+04  0.7818609E-02  0.8219751E-01
        2   -1    0    0  501    0  0.00000000000E+00  0.00000000000E+00  0.21728420428E+04  0.21728420428E+04  0.25500000920E-02 0. -1.
       -2   -1    0    0    0  501  0.00000000000E+00  0.00000000000E+00 -0.10953178462E+04  0.10953178462E+04  0.25500000920E-02 0.  1.
    10030    2    1    2    0    0  0.00000000000E+00  0.00000000000E+00  0.10775241966E+04  0.32681598890E+04  0.30854190422E+04 0.  0.
        4    1    3    3  502    0 -0.64696802763E+03  0.13803513806E+04  0.28807299296E+03  0.15514268351E+04  0.12699999809E+01 0.  1.
       -4    1    3    3    0  502  0.64696802763E+03 -0.13803513806E+04  0.78945120361E+03  0.17167330539E+04  0.12699999809E+01 0. -1.
</event>
<event>
 5   0  0.1377237E-07  0.3099687E+04  0.7818609E-02  0.8215824E-01
        2   -1    0    0  501    0  0.00000000000E+00  0.00000000000E+00  0.15921544273E+04  0.15921544273E+04  0.25500000920E-02 0.  1.
       -2   -1    0    0    0  501  0.00000000000E+00  0.00000000000E+00 -0.15086566208E+04  0.15086566208E+04  0.25500000920E-02 0. -1.
    10030    2    1    2    0    0  0.00000000000E+00  0.00000000000E+00  0.83497806491E+02  0.31008110482E+04  0.30996866411E+04 0.  0.
        2    1    3    3  502    0  0.91341092639E+03 -0.78584817739E+03  0.10168524295E+04  0.15766628498E+04  0.25500000920E-02 0.  1.
       -2    1    3    3    0  502 -0.91341092639E+03  0.78584817739E+03 -0.93335462305E+03  0.15241481984E+04  0.25500000920E-02 0. -1.
</event>
<event>
 5   0  0.4450600E-08  0.3098912E+04  0.7818609E-02  0.8216036E-01
        1   -1    0    0  501    0  0.00000000000E+00  0.00000000000E+00  0.22746507403E+04  0.22746507403E+04  0.50400001928E-02 0. -1.
       -1   -1    0    0    0  501  0.00000000000E+00  0.00000000000E+00 -0.10554650737E+04  0.10554650738E+04  0.50400001928E-02 0.  1.
    10030    2    1    2    0    0  0.00000000000E+00  0.00000000000E+00  0.12191856666E+04  0.33301158141E+04  0.30989123327E+04 0.  0.
        4    1    3    3  502    0 -0.26451917113E+03 -0.60096770588E+02  0.22489356189E+04  0.22652362007E+04  0.12699999809E+01 0. -1.
       -4    1    3    3    0  502  0.26451917113E+03  0.60096770588E+02 -0.10297499524E+04  0.10648796134E+04  0.12699999809E+01 0.  1.
</event>
<event>
 5   0  0.1318916E-07  0.3118949E+04  0.7818609E-02  0.8210557E-01
       -2   -1    0    0    0  501  0.00000000000E+00  0.00000000000E+00  0.15988456571E+04  0.15988456571E+04  0.25500000920E-02 0.  1.
        2   -1    0    0  501    0  0.00000000000E+00  0.00000000000E+00 -0.15210726516E+04  0.15210726516E+04  0.25500000920E-02 0. -1.
    10030    2    1    2    0    0  0.00000000000E+00  0.00000000000E+00  0.77773005443E+02  0.31199183087E+04  0.31189487993E+04 0.  0.
        5    1    3    3  502    0 -0.66580873776E+02 -0.41605740554E+02  0.15968603717E+04  0.15987961681E+04  0.46999998093E+01 0.  1.
       -5    1    3    3    0  502  0.66580873776E+02  0.41605740554E+02 -0.15190873662E+04  0.15211221406E+04  0.46999998093E+01 0. -1.
</event>
<event>
 5   0  0.4517409E-08  0.3099515E+04  0.7818609E-02  0.8215871E-01
        1   -1    0    0  501    0  0.00000000000E+00  0.00000000000E+00  0.18710195211E+04  0.18710195211E+04  0.50400001928E-02 0.  1.
       -1   -1    0    0    0  501  0.00000000000E+00  0.00000000000E+00 -0.12836572653E+04  0.12836572653E+04  0.50400001928E-02 0. -1.
    10030    2    1    2    0    0  0.00000000000E+00  0.00000000000E+00  0.58736225582E+03  0.31546767865E+04  0.30995146729E+04 0.  0.
        2    1    3    3  502    0 -0.31123999130E+03 -0.11800544271E+04  0.12658499257E+04  0.17583443399E+04  0.25500000920E-02 0.  1.
       -2    1    3    3    0  502  0.31123999130E+03  0.11800544271E+04 -0.67848766992E+03  0.13963324466E+04  0.25500000920E-02 0. -1.
</event>
<event>
 5   0  0.4470354E-08  0.3104717E+04  0.7818609E-02  0.8214445E-01
        1   -1    0    0  501    0  0.00000000000E+00  0.00000000000E+00  0.11415191327E+04  0.11415191327E+04  0.50400001928E-02 0. -1.
       -1   -1    0    0    0  501  0.00000000000E+00  0.00000000000E+00 -0.21110609092E+04  0.21110609093E+04  0.50400001928E-02 0.  1.
    10030    2    1    2    0    0  0.00000000000E+00  0.00000000000E+00 -0.96954177652E+03  0.32525800420E+04  0.31047166816E+04 0.  0.
        1    1    3    3  502    0 -0.36945211139E+02 -0.66714747716E+03  0.98316341365E+03  0.11887224247E+04  0.50400001928E-02 0. -1.
       -1    1    3    3    0  502  0.36945211139E+02  0.66714747716E+03 -0.19527051902E+04  0.20638576173E+04  0.50400001928E-02 0.  1.
</event>
<event>
 5   0  0.4838602E-08  0.3101194E+04  0.7818609E-02  0.8215410E-01
        1   -1    0    0  501    0  0.00000000000E+00  0.00000000000E+00  0.13220793442E+04  0.13220793442E+04  0.50400001928E-02 0. -1.
       -1   -1    0    0    0  501  0.00000000000E+00  0.00000000000E+00 -0.18186137879E+04  0.18186137879E+04  0.50400001928E-02 0.  1.
    10030    2    1    2    0    0  0.00000000000E+00  0.00000000000E+00 -0.49653444367E+03  0.31406931321E+04  0.31011944306E+04 0.  0.
        5    1    3    3  502    0  0.41644458850E+03  0.17690672320E+03 -0.17502643778E+04  0.18078079451E+04  0.46999998093E+01 0.  1.
       -5    1    3    3    0  502 -0.41644458850E+03 -0.17690672320E+03  0.12537299341E+04  0.13328851870E+04  0.46999998093E+01 0. -1.
</event>
<event>
 5   0  0.4450600E-08  0.3100600E+04  0.7818609E-02  0.8215573E-01
        1   -1    0    0  501    0  0.00000000000E+00  0.00000000000E+00  0.19856489912E+04  0.19856489912E+04  0.50400001928E-02 0. -1.
       -1   -1    0    0    0  501  0.00000000000E+00  0.00000000000E+00 -0.12104000736E+04  0.12104000736E+04  0.50400001928E-02 0.  1.
    10030    2    1    2    0    0  0.00000000000E+00  0.00000000000E+00  0.77524891763E+03  0.31960490649E+04  0.31005997389E+04 0.  0.
        4    1    3    3  502    0  0.13462655571E+04  0.44112800172E+03  0.10366119288E+04  0.17554460311E+04  0.12699999809E+01 0. -1.
       -4    1    3    3    0  502 -0.13462655571E+04 -0.44112800172E+03 -0.26136301121E+03  0.14406030337E+04  0.12699999809E+01 0.  1.
</event>
<event>
 5   0  0.1329777E-07  0.3101421E+04  0.7818609E-02  0.8215348E-01
        2   -1    0    0  501    0  0.00000000000E+00  0.00000000000E+00  0.22576555004E+04  0.22576555004E+04  0.25500000920E-02 0. -1.
       -2   -1    0    0    0  501  0.00000000000E+00  0.00000000000E+00 -0.10651330115E+04  0.10651330115E+04  0.25500000920E-02 0.  1.
    10030    2    1    2    0    0  0.00000000000E+00  0.00000000000E+00  0.11925224889E+04  0.33227885119E+04  0.31014212239E+04 0.  0.
        1    1    3    3  502    0  0.56915856235E+03  0.85862137067E+03  0.18381017919E+04  0.21070809962E+04  0.50400001928E-02 0. -1.
       -1    1    3    3    0  502 -0.56915856235E+03 -0.85862137067E+03 -0.64557930296E+03  0.12157075157E+04  0.50400001928E-02 0.  1.
</event>
<event>
 5   0  0.4470354E-08  0.3096312E+04  0.7818609E-02  0.8216751E-01
        1   -1    0    0  501    0  0.00000000000E+00  0.00000000000E+00  0.16499687065E+04  0.16499687065E+04  0.50400001928E-02 0. -1.
       -1   -1    0    0    0  501  0.00000000000E+00  0.00000000000E+00 -0.14526254508E+04  0.14526254508E+04  0.50400001928E-02 0.  1.
    10030    2    1    2    0    0  0.00000000000E+00  0.00000000000E+00  0.19734325573E+03  0.31025941573E+04  0.30963117001E+04 0.  0.
        1    1    3    3  502    0 -0.10301093926E+04 -0.58595607441E+03  0.10968437505E+04  0.16147867026E+04  0.50400001928E-02 0. -1.
       -1    1    3    3    0  502  0.10301093926E+04  0.58595607441E+03 -0.89950049479E+03  0.14878074546E+04  0.50400001928E-02 0.  1.
</event>
<event>
 5   0  0.1398931E-07  0.3098909E+04  0.7818609E-02  0.8216037E-01
        2   -1    0    0  501    0  0.00000000000E+00  0.00000000000E+00  0.19414479000E+04  0.19414479000E+04  0.25500000920E-02 0. -1.
       -2   -1    0    0    0  501  0.00000000000E+00  0.00000000000E+00 -0.12366077198E+04  0.12366077198E+04  0.25500000920E-02 0.  1.
    10030    2    1    2    0    0  0.00000000000E+00  0.00000000000E+00  0.70484018024E+03  0.31780556198E+04  0.30989091376E+04 0.  0.
        3    1    3    3  502    0  0.50389506922E+03  0.36004997787E+03 -0.11041585484E+04  0.12659827557E+04  0.10100000352E+00 0.  1.
       -3    1    3    3    0  502 -0.50389506922E+03 -0.36004997787E+03  0.18089987287E+04  0.19120728642E+04  0.10100000352E+00 0. -1.
</event>
<event>
 5   0  0.1329777E-07  0.3100771E+04  0.7818609E-02  0.8215526E-01
        2   -1    0    0  501    0  0.00000000000E+00  0.00000000000E+00  0.71696042337E+03  0.71696042337E+03  0.25500000920E-02 0. -1.
       -2   -1    0    0    0  501  0.00000000000E+00  0.00000000000E+00 -0.33526181919E+04  0.33526181919E+04  0.25500000920E-02 0.  1.
    10030    2    1    2    0    0  0.00000000000E+00  0.00000000000E+00 -0.26356577685E+04  0.40695786153E+04  0.31007705870E+04 0.  0.
        1    1    3    3  502    0 -0.38741378901E+03 -0.14184163493E+04 -0.67259333256E+03  0.16169032671E+04  0.50400001928E-02 0. -1.
       -1    1    3    3    0  502  0.38741378901E+03  0.14184163493E+04 -0.19630644360E+04  0.24526753482E+04  0.50400001928E-02 0.  1.
</event>
<event>
 5   0  0.1329777E-07  0.3099180E+04  0.7818609E-02  0.8215963E-01
        2   -1    0    0  501    0  0.00000000000E+00  0.00000000000E+00  0.21178566024E+04  0.21178566024E+04  0.25500000920E-02 0. -1.
       -2   -1    0    0    0  501  0.00000000000E+00  0.00000000000E+00 -0.11338013638E+04  0.11338013638E+04  0.25500000920E-02 0.  1.
    10030    2    1    2    0    0  0.00000000000E+00  0.00000000000E+00  0.98405523859E+03  0.32516579662E+04  0.30991797006E+04 0.  0.
        1    1    3    3  502    0  0.16539527115E+03 -0.85910293435E+03  0.18339432925E+04  0.20319353945E+04  0.50400001928E-02 0. -1.
       -1    1    3    3    0  502 -0.16539527115E+03  0.85910293435E+03 -0.84988805390E+03  0.12197225716E+04  0.50400001928E-02 0.  1.
</event>
<event>
 5   0  0.1318916E-07  0.3103113E+04  0.7818609E-02  0.8214884E-01
        2   -1    0    0  501    0  0.00000000000E+00  0.00000000000E+00  0.23504247538E+04  0.23504247538E+04  0.25500000920E-02 0.  1.
       -2   -1    0    0    0  501  0.00000000000E+00  0.00000000000E+00 -0.10242094866E+04  0.10242094866E+04  0.25500000920E-02 0. -1.
    10030    2    1    2    0    0  0.00000000000E+00  0.00000000000E+00  0.13262152671E+04  0.33746342404E+04  0.31031128439E+04 0.  0.
        5    1    3    3  502    0  0.15742667527E+03 -0.12631164669E+04  0.16278975364E+04  0.20664749807E+04  0.46999998093E+01 0.  1.
       -5    1    3    3    0  502 -0.15742667527E+03  0.12631164669E+04 -0.30168226922E+03  0.13081592597E+04  0.46999998093E+01 0. -1.
</event>
<event>
 5   0  0.4838602E-08  0.3102167E+04  0.7818609E-02  0.8215143E-01
        1   -1    0    0  501    0  0.00000000000E+00  0.00000000000E+00  0.98723718481E+03  0.98723718482E+03  0.50400001928E-02 0.  1.
       -1   -1    0    0    0  501  0.00000000000E+00  0.00000000000E+00 -0.24369629898E+04  0.24369629898E+04  0.50400001928E-02 0. -1.
    10030    2    1    2    0    0  0.00000000000E+00  0.00000000000E+00 -0.14497258050E+04  0.34242001746E+04  0.31021672950E+04 0.  0.
        5    1    3    3  502    0  0.18938829509E+03  0.11793311825E+04 -0.18171031999E+04  0.21745289360E+04  0.46999998093E+01 0. -1.
       -5    1    3    3    0  502 -0.18938829509E+03 -0.11793311825E+04  0.36737739490E+03  0.12496712386E+04  0.46999998093E+01 0.  1.
</event>
<event>
 5   0  0.1398931E-07  0.3101752E+04  0.7818609E-02  0.8215257E-01
       -2   -1    0    0    0  501  0.00000000000E+00  0.00000000000E+00  0.13417597412E+04  0.13417597412E+04  0.25500000920E-02 0. -1.
        2   -1    0    0  501    0  0.00000000000E+00  0.00000000000E+00 -0.17925832170E+04  0.17925832170E+04  0.25500000920E-02 0.  1.
    10030    2    1    2    0    0  0.00000000000E+00  0.00000000000E+00 -0.45082347586E+03  0.31343429582E+04  0.31017517588E+04 0.  0.
        3    1    3    3  502    0 -0.76110726938E+03  0.27372582773E+03  0.11117479646E+04  0.13748431370E+04  0.10100000352E+00 0. -1.
       -3    1    3    3    0  502  0.76110726938E+03 -0.27372582773E+03 -0.15625714405E+04  0.17594998213E+04  0.10100000352E+00 0.  1.
</event>
<event>
 5   0  0.4450600E-08  0.3099861E+04  0.7818609E-02  0.8215776E-01
       -1   -1    0    0    0  501  0.00000000000E+00  0.00000000000E+00  0.11364974020E+04  0.11364974020E+04  0.50400001928E-02 0.  1.
        1   -1    0    0  501    0  0.00000000000E+00  0.00000000000E+00 -0.21137620246E+04  0.21137620246E+04  0.50400001928E-02 0. -1.
    10030    2    1    2    0    0  0.00000000000E+00  0.00000000000E+00 -0.97726462253E+03  0.32502594266E+04  0.30998613191E+04 0.  0.
        4    1    3    3  502    0  0.38805660091E+02  0.25903947074E+03 -0.20903871764E+04  0.21067338434E+04  0.12699999809E+01 0. -1.
       -4    1    3    3    0  502 -0.38805660091E+02 -0.25903947074E+03  0.11131225539E+04  0.11435255832E+04  0.12699999809E+01 0.  1.
</event>
<event>
 5   0  0.4470354E-08  0.3100050E+04  0.7818609E-02  0.8215724E-01
        1   -1    0    0  501    0  0.00000000000E+00  0.00000000000E+00  0.20715353770E+04  0.20715353770E+04  0.50400001928E-02 0.  1.
       -1   -1    0    0    0  501  0.00000000000E+00  0.00000000000E+00 -0.11598053274E+04  0.11598053274E+04  0.50400001928E-02 0. -1.
    10030    2    1    2    0    0  0.00000000000E+00  0.00000000000E+00  0.91173004957E+03  0.32313407044E+04  0.31000501713E+04 0.  0.
        1    1    3    3  502    0  0.81937159727E+03  0.15052066080E+03  0.18183385234E+04  0.20000953151E+04  0.50400001928E-02 0.  1.
       -1    1    3    3    0  502 -0.81937159727E+03 -0.15052066080E+03 -0.90660847384E+03  0.12312453893E+04  0.50400001928E-02 0. -1.
</event>
<event>
 5   0  0.4436241E-08  0.3098517E+04  0.7818609E-02  0.8216145E-01
       -1   -1    0    0    0  501  0.00000000000E+00  0.00000000000E+00  0.13187958849E+04  0.13187958849E+04  0.50400001928E-02 0.  1.
        1   -1    0    0  501    0  0.00000000000E+00  0.00000000000E+00 -0.18199949096E+04  0.18199949096E+04  0.50400001928E-02 0. -1.
    10030    2    1    2    0    0  0.00000000000E+00  0.00000000000E+00 -0.50119902475E+03  0.31387907945E+04  0.30985169339E+04 0.  0.
        3    1    3    3  502    0  0.47530142191E+03 -0.13620271798E+04 -0.82289602243E+03  0.16607791407E+04  0.10100000352E+00 0. -1.
       -3    1    3    3    0  502 -0.47530142191E+03  0.13620271798E+04  0.32169699769E+03  0.14780116538E+04  0.10100000352E+00 0.  1.
</event>
<event>
 5   0  0.4436241E-08  0.3102761E+04  0.7818609E-02  0.8214981E-01
       -1   -1    0    0    0  501  0.00000000000E+00  0.00000000000E+00  0.10573254063E+04  0.10573254063E+04  0.50400001928E-02 0. -1.
        1   -1    0    0  501    0  0.00000000000E+00  0.00000000000E+00 -0.22762913698E+04  0.22762913698E+04  0.50400001928E-02 0.  1.
    10030    2    1    2    0    0  0.00000000000E+00  0.00000000000E+00 -0.12189659635E+04  0.33336167761E+04  0.31027605112E+04 0.  0.
        3    1    3    3  502    0  0.24542608507E+03  0.32328896856E+03 -0.22182317257E+04  0.22550613561E+04  0.10100000352E+00 0.  1.
       -3    1    3    3    0  502 -0.24542608507E+03 -0.32328896856E+03  0.99926576220E+03  0.10785554201E+04  0.10100000352E+00 0. -1.
</event>
<event>
 5   0  0.1377237E-07  0.3110057E+04  0.7818609E-02  0.8212983E-01
       -2   -1    0    0    0  501  0.00000000000E+00  0.00000000000E+00  0.92256155776E+03  0.92256155776E+03  0.25500000920E-02 0.  1.
        2   -1    0    0  501    0  0.00000000000E+00  0.00000000000E+00 -0.26210860805E+04  0.26210860805E+04  0.25500000920E-02 0. -1.
    10030    2    1    2    0    0  0.00000000000E+00  0.00000000000E+00 -0.16985245227E+04  0.35436476382E+04  0.31100567567E+04 0.  0.
        2    1    3    3  502    0  0.67242175761E+03  0.46510736828E+03 -0.23564114363E+04  0.24942234746E+04  0.25500000920E-02 0. -1.
       -2    1    3    3    0  502 -0.67242175761E+03 -0.46510736828E+03  0.65788691359E+03  0.10494241636E+04  0.25500000920E-02 0.  1.
</event>
<event>
 5   0  0.4838602E-08  0.3100230E+04  0.7818609E-02  0.8215675E-01
       -1   -1    0    0    0  501  0.00000000000E+00  0.00000000000E+00  0.81675296567E+03  0.81675296568E+03  0.50400001928E-02 0. -1.
        1   -1    0    0  501    0  0.00000000000E+00  0.00000000000E+00 -0.29419630332E+04  0.29419630332E+04  0.50400001928E-02 0.  1.
    10030    2    1    2    0    0  0.00000000000E+00  0.00000000000E+00 -0.21252100675E+04  0.37587159989E+04  0.31002303349E+04 0.  0.
        5    1    3    3  502    0  0.95907137474E+03  0.11966127199E+04 -0.78844455710E+03  0.17243453288E+04  0.46999998093E+01 0.  1.
       -5    1    3    3    0  502 -0.95907137474E+03 -0.11966127199E+04 -0.13367655104E+04  0.20343706701E+04  0.46999998093E+01 0. -1.
</event>
<event>
 5   0  0.1318916E-07  0.3100440E+04  0.7818609E-02  0.8215617E-01
        2   -1    0    0  501    0  0.00000000000E+00  0.00000000000E+00  0.14290788701E+04  0.14290788701E+04  0.25500000920E-02 0. -1.
       -2   -1    0    0    0  501  0.00000000000E+00  0.00000000000E+00 -0.16816295726E+04  0.16816295726E+04  0.25500000920E-02 0.  1.
    10030    2    1    2    0    0  0.00000000000E+00  0.00000000000E+00 -0.25255070246E+03  0.31107084427E+04  0.31004395105E+04 0.  0.
        5    1    3    3  502    0  0.25321681593E+03  0.15639301149E+03 -0.16526892081E+04  0.16792799762E+04  0.46999998093E+01 0.  1.
       -5    1    3    3    0  502 -0.25321681593E+03 -0.15639301149E+03  0.14001385056E+04  0.14314284666E+04  0.46999998093E+01 0. -1.
</event>
<event>
 5   0  0.4517409E-08  0.3102138E+04  0.7818609E-02  0.8215151E-01
       -1   -1    0    0    0  501  0.00000000000E+00  0.00000000000E+00  0.11833702962E+04  0.11833702962E+04  0.50400001928E-02 0.  1.
        1   -1    0    0  501    0  0.00000000000E+00  0.00000000000E+00 -0.20330196991E+04  0.20330196991E+04  0.50400001928E-02 0. -1.
    10030    2    1    2    0    0  0.00000000000E+00  0.00000000000E+00 -0.84964940291E+03  0.32163899953E+04  0.31021380520E+04 0.  0.
        2    1    3    3  502    0 -0.86978141801E+03 -0.41113341875E+03  0.83664631278E+03  0.12749617468E+04  0.25500000920E-02 0.  1.
       -2    1    3    3    0  502  0.86978141801E+03  0.41113341875E+03 -0.16862957157E+04  0.19414282485E+04  0.25500000920E-02 0. -1.
</event>
<event>
 5   0  0.4517409E-08  0.3100743E+04  0.7818609E-02  0.8215534E-01
        1   -1    0    0  501    0  0.00000000000E+00  0.00000000000E+00  0.16150255316E+04  0.16150255316E+04  0.50400001928E-02 0.  1.
       -1   -1    0    0    0  501  0.00000000000E+00  0.00000000000E+00 -0.14883062312E+04  0.14883062312E+04  0.50400001928E-02 0. -1.
    10030    2    1    2    0    0  0.00000000000E+00  0.00000000000E+00  0.12671930040E+03  0.31033317629E+04  0.31007434995E+04 0.  0.
        2    1    3    3  502    0 -0.44453321930E+02 -0.12802000906E+04 -0.81073308990E+03  0.15159737837E+04  0.25500000920E-02 0. -1.
       -2    1    3    3    0  502  0.44453321930E+02  0.12802000906E+04  0.93745239030E+03  0.15873579792E+04  0.25500000920E-02 0.  1.
</event>
<event>
 5   0  0.4470354E-08  0.3103561E+04  0.7818609E-02  0.8214761E-01
       -1   -1    0    0    0  501  0.00000000000E+00  0.00000000000E+00  0.98438571316E+03  0.98438571317E+03  0.50400001928E-02 0.  1.
        1   -1    0    0  501    0  0.00000000000E+00  0.00000000000E+00 -0.24462186527E+04  0.24462186527E+04  0.50400001928E-02 0. -1.
    10030    2    1    2    0    0  0.00000000000E+00  0.00000000000E+00 -0.14618329396E+04  0.34306043659E+04  0.31035609825E+04 0.  0.
        1    1    3    3  502    0 -0.13367261612E+04 -0.54674428774E+03 -0.10342008627E+03  0.14479163859E+04  0.50400001928E-02 0. -1.
       -1    1    3    3    0  502  0.13367261612E+04  0.54674428774E+03 -0.13584128533E+04  0.19826879800E+04  0.50400001928E-02 0.  1.
</event>
<event>
 5   0  0.4517409E-08  0.3095500E+04  0.7818609E-02  0.8216974E-01
        1   -1    0    0  501    0  0.00000000000E+00  0.00000000000E+00  0.21250046037E+04  0.21250046037E+04  0.50400001928E-02 0.  1.
       -1   -1    0    0    0  501  0.00000000000E+00  0.00000000000E+00 -0.11273060232E+04  0.11273060232E+04  0.50400001928E-02 0. -1.
    10030    2    1    2    0    0  0.00000000000E+00  0.00000000000E+00  0.99769858049E+03  0.32523106269E+04  0.30955002757E+04 0.  0.
        2    1    3    3  502    0  0.10487563201E+04 -0.44851001401E+03  0.15980195636E+04  0.19633434690E+04  0.25500000920E-02 0.  1.
       -2    1    3    3    0  502 -0.10487563201E+04  0.44851001401E+03 -0.60032098309E+03  0.12889671580E+04  0.25500000920E-02 0. -1.
</event>
<event>
 5   0  0.1329777E-07  0.3101098E+04  0.7818609E-02  0.8215437E-01
        2   -1    0    0  501    0  0.00000000000E+00  0.00000000000E+00  0.12029534063E+04  0.12029534063E+04  0.25500000920E-02 0.  1.
       -2   -1    0    0    0  501  0.00000000000E+00  0.00000000000E+00 -0.19985826748E+04  0.19985826748E+04  0.25500000920E-02 0. -1.
    10030    2    1    2    0    0  0.00000000000E+00  0.00000000000E+00 -0.79562926852E+03  0.32015360810E+04  0.31010977645E+04 0.  0.
        1    1    3    3  502    0 -0.20596823049E+03 -0.14181693888E+04 -0.10090846737E+04  0.17526777245E+04  0.50400001928E-02 0. -1.
       -1    1    3    3    0  502  0.20596823049E+03  0.14181693888E+04  0.21345540521E+03  0.14488583565E+04  0.50400001928E-02 0.  1.
</event>
<event>
 5   0  0.1329777E-07  0.3100490E+04  0.7818609E-02  0.8215603E-01
       -2   -1    0    0    0  501  0.00000000000E+00  0.00000000000E+00  0.18838531698E+04  0.18838531698E+04  0.25500000920E-02 0.  1.
        2   -1    0    0  501    0  0.00000000000E+00  0.00000000000E+00 -0.12757147941E+04  0.12757147941E+04  0.25500000920E-02 0. -1.
    10030    2    1    2    0    0  0.00000000000E+00  0.00000000000E+00  0.60813837573E+03  0.31595679639E+04  0.31004898701E+04 0.  0.
        1    1    3    3  502    0 -0.93691017126E+03 -0.12321756010E+04  0.21758767587E+03  0.15631384384E+04  0.50400001928E-02 0. -1.
       -1    1    3    3    0  502  0.93691017126E+03  0.12321756010E+04  0.39055069987E+03  0.15964295255E+04  0.50400001928E-02 0.  1.
</event>
<event>
 5   0  0.4305500E-08  0.3101773E+04  0.7818609E-02  0.8215251E-01
       -3   -1    0    0    0  501  0.00000000000E+00  0.00000000000E+00  0.14902809725E+04  0.14902809759E+04  0.10100000352E+00 0.  1.
        3   -1    0    0  501    0  0.00000000000E+00  0.00000000000E+00 -0.16139567135E+04  0.16139567166E+04  0.10100000352E+00 0. -1.
    10030    2    1    2    0    0  0.00000000000E+00  0.00000000000E+00 -0.12367574098E+03  0.31042376926E+04  0.31017730354E+04 0.  0.
        5    1    3    3  502    0 -0.57695431473E+03 -0.81547930466E+03  0.11254201269E+04  0.15048173742E+04  0.46999998093E+01 0.  1.
       -5    1    3    3    0  502  0.57695431473E+03  0.81547930466E+03 -0.12490958679E+04  0.15994203184E+04  0.46999998093E+01 0. -1.
</event>
<event>
 5   0  0.4450600E-08  0.3099590E+04  0.7818609E-02  0.8215850E-01
        1   -1    0    0  501    0  0.00000000000E+00  0.00000000000E+00  0.24649169149E+04  0.24649169149E+04  0.50400001928E-02 0.  1.
       -1   -1    0    0    0  501  0.00000000000E+00  0.00000000000E+00 -0.97442020942E+03  0.97442020943E+03  0.50400001928E-02 0. -1.
    10030    2    1    2    0    0  0.00000000000E+00  0.00000000000E+00  0.14904967055E+04  0.34393371243E+04  0.30995902029E+04 0.  0.
        4    1    3    3  502    0 -0.34048013843E+03  0.57850653339E+03  0.22952379577E+04  0.23913835806E+04  0.12699999809E+01 0.  1.
       -4    1    3    3    0  502  0.34048013843E+03 -0.57850653339E+03 -0.80474125228E+03  0.10479535437E+04  0.12699999809E+01 0. -1.
</event>
<event>
 5   0  0.1318916E-07  0.3100544E+04  0.7818609E-02  0.8215589E-01
        2   -1    0    0  501    0  0.00000000000E+00  0.00000000000E+00  0.25598960222E+04  0.25598960222E+04  0.25500000920E-02 0.  1.
       -2   -1    0    0    0  501  0.00000000000E+00  0.00000000000E+00 -0.93884413456E+03  0.93884413456E+03  0.25500000920E-02 0. -1.
    10030    2    1    2    0    0  0.00000000000E+00  0.00000000000E+00  0.16210518876E+04  0.34987401568E+04  0.31005440591E+04 0.  0.
        5    1    3    3  502    0  0.83318479092E+02 -0.12721470276E+04  0.18058614830E+04  0.22105333779E+04  0.46999998093E+01 0.  1.
       -5    1    3    3    0  502 -0.83318479092E+02  0.12721470276E+04 -0.18480959540E+03  0.12882067789E+04  0.46999998093E+01 0. -1.
</event>
<event>
 5   0  0.4838602E-08  0.3101491E+04  0.7818609E-02  0.8215329E-01
        1   -1    0    0  501    0  0.00000000000E+00  0.00000000000E+00  0.10469090370E+04  0.10469090371E+04  0.50400001928E-02 0.  1.
       -1   -1    0    0    0  501  0.00000000000E+00  0.00000000000E+00 -0.22970589128E+04  0.22970589128E+04  0.50400001928E-02 0. -1.
    10030    2    1    2    0    0  0.00000000000E+00  0.00000000000E+00 -0.12501498758E+04  0.33439679499E+04  0.31014910830E+04 0.  0.
        5    1    3    3  502    0  0.27504443652E+02 -0.10378214397E+04  0.61692179685E+03  0.12076607258E+04  0.46999998093E+01 0.  1.
       -5    1    3    3    0  502 -0.27504443652E+02  0.10378214397E+04 -0.18670716726E+04  0.21363072241E+04  0.46999998093E+01 0. -1.
</event>
<event>
 5   0  0.4517409E-08  0.3099447E+04  0.7818609E-02  0.8215890E-01
        1   -1    0    0  501    0  0.00000000000E+00  0.00000000000E+00  0.13184505858E+04  0.13184505858E+04  0.50400001928E-02 0. -1.
       -1   -1    0    0    0  501  0.00000000000E+00  0.00000000000E+00 -0.18215650142E+04  0.18215650142E+04  0.50400001928E-02 0.  1.
    10030    2    1    2    0    0  0.00000000000E+00  0.00000000000E+00 -0.50311442839E+03  0.31400156001E+04  0.30994473444E+04 0.  0.
        2    1    3    3  502    0 -0.29657326303E+02 -0.84599041092E+03  0.10635336468E+04  0.13592950931E+04  0.25500000920E-02 0. -1.
       -2    1    3    3    0  502  0.29657326303E+02  0.84599041092E+03 -0.15666480752E+04  0.17807205069E+04  0.25500000920E-02 0.  1.
</event>
<event>
 5   0  0.1318916E-07  0.3099749E+04  0.7818609E-02  0.8215807E-01
       -2   -1    0    0    0  501  0.00000000000E+00  0.00000000000E+00  0.15954182297E+04  0.15954182298E+04  0.25500000920E-02 0. -1.
        2   -1    0    0  501    0  0.00000000000E+00  0.00000000000E+00 -0.15056312671E+04  0.15056312671E+04  0.25500000920E-02 0.  1.
    10030    2    1    2    0    0  0.00000000000E+00  0.00000000000E+00  0.89786962628E+02  0.31010494969E+04  0.30997493904E+04 0.  0.
        5    1    3    3  502    0  0.40081064121E+03 -0.95244136171E+03  0.12004951717E+04  0.15839837325E+04  0.46999998093E+01 0. -1.
       -5    1    3    3    0  502 -0.40081064121E+03  0.95244136171E+03 -0.11107082091E+04  0.15170657643E+04  0.46999998093E+01 0.  1.
</event>
<event>
 5   0  0.1329777E-07  0.3099892E+04  0.7818609E-02  0.8215768E-01
        2   -1    0    0  501    0  0.00000000000E+00  0.00000000000E+00  0.22978129211E+04  0.22978129211E+04  0.25500000920E-02 0.  1.
       -2   -1    0    0    0  501  0.00000000000E+00  0.00000000000E+00 -0.10454864041E+04  0.10454864041E+04  0.25500000920E-02 0. -1.
    10030    2    1    2    0    0  0.00000000000E+00  0.00000000000E+00  0.12523265171E+04  0.33432993252E+04  0.30998917195E+04 0.  0.
        1    1    3    3  502    0  0.99220654674E+03 -0.56677510369E+03  0.17555889769E+04  0.20947077375E+04  0.50400001928E-02 0.  1.
       -1    1    3    3    0  502 -0.99220654674E+03  0.56677510369E+03 -0.50326245984E+03  0.12485915878E+04  0.50400001928E-02 0. -1.
</event>
<event>
 5   0  0.4450600E-08  0.3099954E+04  0.7818609E-02  0.8215750E-01
       -1   -1    0    0    0  501  0.00000000000E+00  0.00000000000E+00  0.11684624645E+04  0.11684624645E+04  0.50400001928E-02 0. -1.
        1   -1    0    0  501    0  0.00000000000E+00  0.00000000000E+00 -0.20560603534E+04  0.20560603534E+04  0.50400001928E-02 0.  1.
    10030    2    1    2    0    0  0.00000000000E+00  0.00000000000E+00 -0.88759788892E+03  0.32245228179E+04  0.30999544175E+04 0.  0.
        4    1    3    3  502    0 -0.76037791588E+03  0.13372013168E+04 -0.24603867019E+03  0.15578249506E+04  0.12699999809E+01 0. -1.
       -4    1    3    3    0  502  0.76037791588E+03 -0.13372013168E+04 -0.64155921873E+03  0.16666978673E+04  0.12699999809E+01 0.  1.
</event>
<event>
 5   0  0.4838602E-08  0.3101044E+04  0.7818609E-02  0.8215451E-01
       -1   -1    0    0    0  501  0.00000000000E+00  0.00000000000E+00  0.11370464330E+04  0.11370464330E+04  0.50400001928E-02 0.  1.
        1   -1    0    0  501    0  0.00000000000E+00  0.00000000000E+00 -0.21143544794E+04  0.21143544794E+04  0.50400001928E-02 0. -1.
    10030    2    1    2    0    0  0.00000000000E+00  0.00000000000E+00 -0.97730804639E+03  0.32514009125E+04  0.31010444815E+04 0.  0.
        5    1    3    3  502    0  0.46608578441E+03 -0.14707684698E+04 -0.32723734041E+03  0.15771817324E+04  0.46999998093E+01 0.  1.
       -5    1    3    3    0  502 -0.46608578441E+03  0.14707684698E+04 -0.65007070597E+03  0.16742191801E+04  0.46999998093E+01 0. -1.
</event>
<event>
 5   0  0.4436241E-08  0.3099728E+04  0.7818609E-02  0.8215813E-01
       -1   -1    0    0    0  501  0.00000000000E+00  0.00000000000E+00  0.92472834165E+03  0.92472834167E+03  0.50400001928E-02 0.  1.
        1   -1    0    0  501    0  0.00000000000E+00  0.00000000000E+00 -0.25976047407E+04  0.25976047407E+04  0.50400001928E-02 0. -1.
    10030    2    1    2    0    0  0.00000000000E+00  0.00000000000E+00 -0.16728763990E+04  0.35223330824E+04  0.30997281972E+04 0.  0.
        3    1    3    3  502    0 -0.14349621092E+04 -0.27417769946E+03 -0.14244732503E+04  0.20404444900E+04  0.10100000352E+00 0. -1.
       -3    1    3    3    0  502  0.14349621092E+04  0.27417769946E+03 -0.24840314877E+03  0.14818885924E+04  0.10100000352E+00 0.  1.
</event>
<event>
 5   0  0.4436241E-08  0.3100098E+04  0.7818609E-02  0.8215711E-01
        1   -1    0    0  501    0  0.00000000000E+00  0.00000000000E+00  0.16957248098E+04  0.16957248098E+04  0.50400001928E-02 0.  1.
       -1   -1    0    0    0  501  0.00000000000E+00  0.00000000000E+00 -0.14168878846E+04  0.14168878846E+04  0.50400001928E-02 0. -1.
    10030    2    1    2    0    0  0.00000000000E+00  0.00000000000E+00  0.27883692517E+03  0.31126126945E+04  0.31000980234E+04 0.  0.
        3    1    3    3  502    0 -0.17110715420E+03 -0.14945353403E+04 -0.23590656119E+03  0.15226836367E+04  0.10100000352E+00 0. -1.
       -3    1    3    3    0  502  0.17110715420E+03  0.14945353403E+04  0.51474348636E+03  0.15899290577E+04  0.10100000352E+00 0.  1.
</event>
<event>
 5   0  0.4838602E-08  0.3100759E+04  0.7818609E-02  0.8215530E-01
        1   -1    0    0  501    0  0.00000000000E+00  0.00000000000E+00  0.16685254456E+04  0.16685254456E+04  0.50400001928E-02 0. -1.
       -1   -1    0    0    0  501  0.00000000000E+00  0.00000000000E+00 -0.14405995264E+04  0.14405995264E+04  0.50400001928E-02 0.  1.
    10030    2    1    2    0    0  0.00000000000E+00  0.00000000000E+00  0.22792591920E+03  0.31091249719E+04  0.31007592403E+04 0.  0.
        5    1    3    3  502    0 -0.20061931069E+03 -0.15154248983E+04  0.37329978535E+03  0.15735741323E+04  0.46999998093E+01 0. -1.
       -5    1    3    3    0  502  0.20061931069E+03  0.15154248983E+04 -0.14537386614E+03  0.15355508396E+04  0.46999998093E+01 0.  1.
</event>
<event>
 5   0  0.4450600E-08  0.3099791E+04  0.7818609E-02  0.8215795E-01
        1   -1    0    0  501    0  0.00000000000E+00  0.00000000000E+00  0.19067823292E+04  0.19067823293E+04  0.50400001928E-02 0.  1.
       -1   -1    0    0    0  501  0.00000000000E+00  0.00000000000E+00 -0.12598058420E+04  0.12598058420E+04  0.50400001928E-02 0. -1.
    10030    2    1    2    0    0  0.00000000000E+00  0.00000000000E+00  0.64697648725E+03  0.31665881713E+04  0.30997906496E+04 0.  0.
        4    1    3    3  502    0  0.20681959114E+03  0.13630743866E+03  0.18864315197E+04  0.19026243856E+04  0.12699999809E+01 0.  1.
       -4    1    3    3    0  502 -0.20681959114E+03 -0.13630743866E+03 -0.12394550325E+04  0.12639637857E+04  0.12699999809E+01 0. -1.
</event>
<event>
 5   0  0.4838602E-08  0.3098805E+04  0.7818609E-02  0.8216066E-01
       -1   -1    0    0    0  501  0.00000000000E+00  0.00000000000E+00  0.15518788630E+04  0.15518788631E+04  0.50400001928E-02 0. -1.
        1   -1    0    0  501    0  0.00000000000E+00  0.00000000000E+00 -0.15469303565E+04  0.15469303565E+04  0.50400001928E-02 0.  1.
    10030    2    1    2    0    0  0.00000000000E+00  0.00000000000E+00  0.49485065514E+01  0.30988092196E+04  0.30988052684E+04 0.  0.
        5    1    3    3  502    0  0.65205505847E+03  0.99913444704E+03  0.99100016708E+03  0.15509831926E+04  0.46999998093E+01 0. -1.
       -5    1    3    3    0  502 -0.65205505847E+03 -0.99913444704E+03 -0.98605166053E+03  0.15478260270E+04  0.46999998093E+01 0.  1.
</event>
<event>
 5   0  0.1325713E-07  0.3102046E+04  0.7818609E-02  0.8215177E-01
        2   -1    0    0  501    0  0.00000000000E+00  0.00000000000E+00  0.25406351762E+04  0.25406351762E+04  0.25500000920E-02 0.  1.
       -2   -1    0    0    0  501  0.00000000000E+00  0.00000000000E+00 -0.94687813708E+03  0.94687813708E+03  0.25500000920E-02 0. -1.
    10030    2    1    2    0    0  0.00000000000E+00  0.00000000000E+00  0.15937570391E+04  0.34875133133E+04  0.31020457138E+04 0.  0.
        4    1    3    3  502    0  0.55100425086E+03 -0.10010171182E+04 -0.38227353993E+03  0.12048965216E+04  0.12699999809E+01 0. -1.
       -4    1    3    3    0  502 -0.55100425086E+03  0.10010171182E+04  0.19760305791E+04  0.22826167917E+04  0.12699999809E+01 0.  1.
</event>
<event>
 5   0  0.4838602E-08  0.3099938E+04  0.7818609E-02  0.8215755E-01
       -1   -1    0    0    0  501  0.00000000000E+00  0.00000000000E+00  0.11908954700E+04  0.11908954700E+04  0.50400001928E-02 0.  1.
        1   -1    0    0  501    0  0.00000000000E+00  0.00000000000E+00 -0.20173081769E+04  0.20173081769E+04  0.50400001928E-02 0. -1.
    10030    2    1    2    0    0  0.00000000000E+00  0.00000000000E+00 -0.82641270691E+03  0.32082036470E+04  0.30999375281E+04 0.  0.
        5    1    3    3  502    0  0.13027735383E+04 -0.49846806586E+03 -0.11125982264E+04  0.17842606895E+04  0.46999998093E+01 0. -1.
       -5    1    3    3    0  502 -0.13027735383E+04  0.49846806586E+03  0.28618551946E+03  0.14239429575E+04  0.46999998093E+01 0.  1.
</event>
<event>
 5   0  0.1398931E-07  0.3101187E+04  0.7818609E-02  0.8215412E-01
        2   -1    0    0  501    0  0.00000000000E+00  0.00000000000E+00  0.33304668933E+04  0.33304668933E+04  0.25500000920E-02 0. -1.
       -2   -1    0    0    0  501  0.00000000000E+00  0.00000000000E+00 -0.72192284135E+03  0.72192284136E+03  0.25500000920E-02 0.  1.
    10030    2    1    2    0    0  0.00000000000E+00  0.00000000000E+00  0.26085440520E+04  0.40523897347E+04  0.31011869487E+04 0.  0.
        3    1    3    3  502    0 -0.22402962874E+03 -0.12491374286E+02 -0.70059701182E+03  0.73565038718E+03  0.10100000352E+00 0.  1.
       -3    1    3    3    0  502  0.22402962874E+03  0.12491374286E+02  0.33091410638E+04  0.33167393475E+04  0.10100000352E+00 0. -1.
</event>
<event>
 5   0  0.1398931E-07  0.3099020E+04  0.7818609E-02  0.8216007E-01
       -2   -1    0    0    0  501  0.00000000000E+00  0.00000000000E+00  0.12673639207E+04  0.12673639207E+04  0.25500000920E-02 0. -1.
        2   -1    0    0  501    0  0.00000000000E+00  0.00000000000E+00 -0.18944682378E+04  0.18944682378E+04  0.25500000920E-02 0.  1.
    10030    2    1    2    0    0  0.00000000000E+00  0.00000000000E+00 -0.62710431715E+03  0.31618321585E+04  0.30990196472E+04 0.  0.
        3    1    3    3  502    0  0.54619812138E+03  0.93946297212E+03  0.81339785584E+03  0.13574016155E+04  0.10100000352E+00 0. -1.
       -3    1    3    3    0  502 -0.54619812138E+03 -0.93946297212E+03 -0.14405021730E+04  0.18044305430E+04  0.10100000352E+00 0.  1.
</event>
<event>
 5   0  0.4517409E-08  0.3102015E+04  0.7818609E-02  0.8215185E-01
        1   -1    0    0  501    0  0.00000000000E+00  0.00000000000E+00  0.18887804961E+04  0.18887804961E+04  0.50400001928E-02 0. -1.
       -1   -1    0    0    0  501  0.00000000000E+00  0.00000000000E+00 -0.12736388809E+04  0.12736388809E+04  0.50400001928E-02 0.  1.
    10030    2    1    2    0    0  0.00000000000E+00  0.00000000000E+00  0.61514161524E+03  0.31624193770E+04  0.31020150079E+04 0.  0.
        2    1    3    3  502    0 -0.58939469733E+03 -0.61246148929E+03 -0.10150467422E+04  0.13239392260E+04  0.25500000920E-02 0.  1.
       -2    1    3    3    0  502  0.58939469733E+03  0.61246148929E+03  0.16301883575E+04  0.18384801511E+04  0.25500000920E-02 0. -1.
</event>
<event>
 5   0  0.1318916E-07  0.3099866E+04  0.7818609E-02  0.8215775E-01
       -2   -1    0    0    0  501  0.00000000000E+00  0.00000000000E+00  0.11674176871E+04  0.11674176871E+04  0.25500000920E-02 0. -1.
        2   -1    0    0  501    0  0.00000000000E+00  0.00000000000E+00 -0.20577824373E+04  0.20577824373E+04  0.25500000920E-02 0.  1.
    10030    2    1    2    0    0  0.00000000000E+00  0.00000000000E+00 -0.89036475017E+03  0.32252001244E+04  0.30998655541E+04 0.  0.
        5    1    3    3  502    0 -0.28573398196E+03 -0.14300247236E+04  0.10107419296E+03  0.14617977634E+04  0.46999998093E+01 0. -1.
       -5    1    3    3    0  502  0.28573398196E+03  0.14300247236E+04 -0.99143894313E+03  0.17634023609E+04  0.46999998093E+01 0.  1.
</event>
<event>
 5   0  0.4838602E-08  0.3098458E+04  0.7818609E-02  0.8216161E-01
        1   -1    0    0  501    0  0.00000000000E+00  0.00000000000E+00  0.19774290902E+04  0.19774290902E+04  0.50400001928E-02 0.  1.
       -1   -1    0    0    0  501  0.00000000000E+00  0.00000000000E+00 -0.12137532855E+04  0.12137532855E+04  0.50400001928E-02 0. -1.
    10030    2    1    2    0    0  0.00000000000E+00  0.00000000000E+00  0.76367580468E+03  0.31911823757E+04  0.30984583619E+04 0.  0.
        5    1    3    3  502    0  0.99636148835E+03  0.31161600927E+03 -0.79707778955E+03  0.13134671086E+04  0.46999998093E+01 0. -1.
       -5    1    3    3    0  502 -0.99636148835E+03 -0.31161600927E+03  0.15607535942E+04  0.18777152672E+04  0.46999998093E+01 0.  1.
</event>
<event>
 5   0  0.4517409E-08  0.3101880E+04  0.7818609E-02  0.8215222E-01
       -1   -1    0    0    0  501  0.00000000000E+00  0.00000000000E+00  0.14055828380E+04  0.14055828380E+04  0.50400001928E-02 0. -1.
        1   -1    0    0  501    0  0.00000000000E+00  0.00000000000E+00 -0.17113294982E+04  0.17113294982E+04  0.50400001928E-02 0.  1.
    10030    2    1    2    0    0  0.00000000000E+00  0.00000000000E+00 -0.30574666021E+03  0.31169123361E+04  0.31018803154E+04 0.  0.
        2    1    3    3  502    0 -0.90171143899E+03  0.98361804794E+03  0.64141755780E+03  0.14805419504E+04  0.25500000920E-02 0. -1.
       -2    1    3    3    0  502  0.90171143899E+03 -0.98361804794E+03 -0.94716421801E+03  0.16363703857E+04  0.25500000920E-02 0.  1.
</event>
<event>
 5   0  0.1318916E-07  0.3099818E+04  0.7818609E-02  0.8215788E-01
       -2   -1    0    0    0  501  0.00000000000E+00  0.00000000000E+00  0.76190212262E+03  0.76190212263E+03  0.25500000920E-02 0. -1.
        2   -1    0    0  501    0  0.00000000000E+00  0.00000000000E+00 -0.31529228793E+04  0.31529228793E+04  0.25500000920E-02 0.  1.
    10030    2    1    2    0    0  0.00000000000E+00  0.00000000000E+00 -0.23910207567E+04  0.39148250020E+04  0.30998184684E+04 0.  0.
        5    1    3    3  502    0 -0.12462817035E+04  0.55379539856E+03 -0.26549198894E+03  0.13893939377E+04  0.46999998093E+01 0. -1.
       -5    1    3    3    0  502  0.12462817035E+04 -0.55379539856E+03 -0.21255287678E+04  0.25254310643E+04  0.46999998093E+01 0.  1.
</event>
<event>
 5   0  0.1329777E-07  0.3099494E+04  0.7818609E-02  0.8215877E-01
       -2   -1    0    0    0  501  0.00000000000E+00  0.00000000000E+00  0.12915620850E+04  0.12915620850E+04  0.25500000920E-02 0.  1.
        2   -1    0    0  501    0  0.00000000000E+00  0.00000000000E+00 -0.18595439100E+04  0.18595439100E+04  0.25500000920E-02 0. -1.
    10030    2    1    2    0    0  0.00000000000E+00  0.00000000000E+00 -0.56798182505E+03  0.31511059950E+04  0.30994944166E+04 0.  0.
        1    1    3    3  502    0 -0.73965019198E+02 -0.46544785110E+03  0.12169408221E+04  0.13050124485E+04  0.50400001928E-02 0.  1.
       -1    1    3    3    0  502  0.73965019198E+02  0.46544785110E+03 -0.17849226472E+04  0.18460935465E+04  0.50400001928E-02 0. -1.
</event>
<event>
 5   0  0.4517409E-08  0.3100934E+04  0.7818609E-02  0.8215482E-01
        1   -1    0    0  501    0  0.00000000000E+00  0.00000000000E+00  0.11241787067E+04  0.11241787067E+04  0.50400001928E-02 0. -1.
       -1   -1    0    0    0  501  0.00000000000E+00  0.00000000000E+00 -0.21384035326E+04  0.21384035326E+04  0.50400001928E-02 0.  1.
    10030    2    1    2    0    0  0.00000000000E+00  0.00000000000E+00 -0.10142248260E+04  0.32625822393E+04  0.31009338708E+04 0.  0.
        2    1    3    3  502    0  0.13419754743E+04 -0.68333790923E+03 -0.11896545756E+03  0.15106295549E+04  0.25500000920E-02 0. -1.
       -2    1    3    3    0  502 -0.13419754743E+04  0.68333790923E+03 -0.89525936840E+03  0.17519526845E+04  0.25500000920E-02 0.  1.
</event>
<event>
 5   0  0.1329777E-07  0.3099865E+04  0.7818609E-02  0.8215775E-01
        2   -1    0    0  501    0  0.00000000000E+00  0.00000000000E+00  0.13298659489E+04  0.13298659489E+04  0.25500000920E-02 0. -1.
       -2   -1    0    0    0  501  0.00000000000E+00  0.00000000000E+00 -0.18064151757E+04  0.18064151757E+04  0.25500000920E-02 0.  1.
    10030    2    1    2    0    0  0.00000000000E+00  0.00000000000E+00 -0.47654922682E+03  0.31362811246E+04  0.30998645336E+04 0.  0.
        1    1    3    3  502    0 -0.15991143029E+03  0.30867117898E+03 -0.17664628051E+04  0.18003445237E+04  0.50400001928E-02 0.  1.
       -1    1    3    3    0  502  0.15991143029E+03 -0.30867117898E+03  0.12899135782E+04  0.13359366009E+04  0.50400001928E-02 0. -1.
</event>
<event>
 5   0  0.4450600E-08  0.3088275E+04  0.7818609E-02  0.8218963E-01
       -1   -1    0    0    0  501  0.00000000000E+00  0.00000000000E+00  0.14553759273E+04  0.14553759273E+04  0.50400001928E-02 0.  1.
        1   -1    0    0  501    0  0.00000000000E+00  0.00000000000E+00 -0.16383120749E+04  0.16383120749E+04  0.50400001928E-02 0. -1.
    10030    2    1    2    0    0  0.00000000000E+00  0.00000000000E+00 -0.18293614763E+03  0.30936880022E+04  0.30882745702E+04 0.  0.
        4    1    3    3  502    0  0.11339529787E+04  0.10480860128E+04 -0.96446123436E+02  0.15471383635E+04  0.12699999809E+01 0. -1.
       -4    1    3    3    0  502 -0.11339529787E+04 -0.10480860128E+04 -0.86490024191E+02  0.15465496388E+04  0.12699999809E+01 0.  1.
</event>
<event>
 5   0  0.1398931E-07  0.3097009E+04  0.7818609E-02  0.8216559E-01
        2   -1    0    0  501    0  0.00000000000E+00  0.00000000000E+00  0.24184633188E+04  0.24184633188E+04  0.25500000920E-02 0.  1.
       -2   -1    0    0    0  501  0.00000000000E+00  0.00000000000E+00 -0.99148368891E+03  0.99148368892E+03  0.25500000920E-02 0. -1.
    10030    2    1    2    0    0  0.00000000000E+00  0.00000000000E+00  0.14269796299E+04  0.34099470077E+04  0.30970094819E+04 0.  0.
        3    1    3    3  502    0 -0.75014044128E+03  0.12753077487E+04  0.12165437826E+04  0.19154893163E+04  0.10100000352E+00 0.  1.
       -3    1    3    3    0  502  0.75014044128E+03 -0.12753077487E+04  0.21043584726E+03  0.14944576914E+04  0.10100000352E+00 0. -1.
</event>
<event>
 5   0  0.4450600E-08  0.3099585E+04  0.7818609E-02  0.8215852E-01
        1   -1    0    0  501    0  0.00000000000E+00  0.00000000000E+00  0.10394099218E+04  0.10394099218E+04  0.50400001928E-02 0.  1.
       -1   -1    0    0    0  501  0.00000000000E+00  0.00000000000E+00 -0.23107888271E+04  0.23107888271E+04  0.50400001928E-02 0. -1.
    10030    2    1    2    0    0  0.00000000000E+00  0.00000000000E+00 -0.12713789053E+04  0.33501987489E+04  0.30995850264E+04 0.  0.
        4    1    3    3  502    0 -0.55898838071E+03 -0.13353112223E+04 -0.12339117540E+04  0.19021208951E+04  0.12699999809E+01 0. -1.
       -4    1    3    3    0  502  0.55898838071E+03  0.13353112223E+04 -0.37467151324E+02  0.14480778537E+04  0.12699999809E+01 0.  1.
</event>
<event>
 5   0  0.1398931E-07  0.3100108E+04  0.7818609E-02  0.8215708E-01
       -2   -1    0    0    0  501  0.00000000000E+00  0.00000000000E+00  0.22901297905E+04  0.22901297906E+04  0.25500000920E-02 0.  1.
        2   -1    0    0  501    0  0.00000000000E+00  0.00000000000E+00 -0.10491405886E+04  0.10491405886E+04  0.25500000920E-02 0. -1.
    10030    2    1    2    0    0  0.00000000000E+00  0.00000000000E+00  0.12409892020E+04  0.33392703791E+04  0.31001084603E+04 0.  0.
        3    1    3    3  502    0 -0.79677340840E+03 -0.13240182246E+04  0.48947188223E+03  0.16209425829E+04  0.10100000352E+00 0. -1.
       -3    1    3    3    0  502  0.79677340840E+03  0.13240182246E+04  0.75151731974E+03  0.17183277962E+04  0.10100000352E+00 0.  1.
</event>
<event>
 5   0  0.1325713E-07  0.3101213E+04  0.7818609E-02  0.8215405E-01
       -2   -1    0    0    0  501  0.00000000000E+00  0.00000000000E+00  0.10572382911E+04  0.10572382911E+04  0.25500000920E-02 0. -1.
        2   -1    0    0  501    0  0.00000000000E+00  0.00000000000E+00 -0.22742093291E+04  0.22742093291E+04  0.25500000920E-02 0.  1.
    10030    2    1    2    0    0  0.00000000000E+00  0.00000000000E+00 -0.12169710380E+04  0.33314476202E+04  0.31012134301E+04 0.  0.
        4    1    3    3  502    0  0.13836029782E+04  0.57013595212E+03 -0.10448007302E+04  0.18251088691E+04  0.12699999809E+01 0. -1.
       -4    1    3    3    0  502 -0.13836029782E+04 -0.57013595212E+03 -0.17217030781E+03  0.15063387511E+04  0.12699999809E+01 0.  1.
</event>
<event>
 5   0  0.1377237E-07  0.3100936E+04  0.7818609E-02  0.8215481E-01
        2   -1    0    0  501    0  0.00000000000E+00  0.00000000000E+00  0.17960533207E+04  0.17960533207E+04  0.25500000920E-02 0. -1.
       -2   -1    0    0    0  501  0.00000000000E+00  0.00000000000E+00 -0.13384634647E+04  0.13384634647E+04  0.25500000920E-02 0.  1.
    10030    2    1    2    0    0  0.00000000000E+00  0.00000000000E+00  0.45758985603E+03  0.31345167854E+04  0.31009364717E+04 0.  0.
        2    1    3    3  502    0 -0.28790677408E+03  0.38183013422E+03  0.17196452221E+04  0.17848989472E+04  0.25500000920E-02 0. -1.
       -2    1    3    3    0  502  0.28790677408E+03 -0.38183013422E+03 -0.12620553661E+04  0.13496178381E+04  0.25500000920E-02 0.  1.
</event>
<event>
 5   0  0.1377237E-07  0.3102124E+04  0.7818609E-02  0.8215155E-01
       -2   -1    0    0    0  501  0.00000000000E+00  0.00000000000E+00  0.11499397232E+04  0.11499397232E+04  0.25500000920E-02 0.  1.
        2   -1    0    0  501    0  0.00000000000E+00  0.00000000000E+00 -0.20921043898E+04  0.20921043898E+04  0.25500000920E-02 0. -1.
    10030    2    1    2    0    0  0.00000000000E+00  0.00000000000E+00 -0.94216466662E+03  0.32420441130E+04  0.31021243966E+04 0.  0.
        2    1    3    3  502    0 -0.44301408076E+03  0.82533078684E+03  0.82094815995E+03  0.12455473756E+04  0.25500000920E-02 0.  1.
       -2    1    3    3    0  502  0.44301408076E+03 -0.82533078684E+03 -0.17631128266E+04  0.19964967375E+04  0.25500000920E-02 0. -1.
</event>
<event>
 5   0  0.4450600E-08  0.3099679E+04  0.7818609E-02  0.8215826E-01
        1   -1    0    0  501    0  0.00000000000E+00  0.00000000000E+00  0.28251026643E+04  0.28251026643E+04  0.50400001928E-02 0.  1.
       -1   -1    0    0    0  501  0.00000000000E+00  0.00000000000E+00 -0.85023553851E+03  0.85023553852E+03  0.50400001928E-02 0. -1.
    10030    2    1    2    0    0  0.00000000000E+00  0.00000000000E+00  0.19748671258E+04  0.36753382028E+04  0.30996791351E+04 0.  0.
        4    1    3    3  502    0 -0.14372868507E+04  0.48005266151E+03  0.13730319230E+04  0.20448624216E+04  0.12699999809E+01 0.  1.
       -4    1    3    3    0  502  0.14372868507E+04 -0.48005266151E+03  0.60183520281E+03  0.16304757812E+04  0.12699999809E+01 0. -1.
</event>
<event>
 5   0  0.1377237E-07  0.3098670E+04  0.7818609E-02  0.8216103E-01
        2   -1    0    0  501    0  0.00000000000E+00  0.00000000000E+00  0.22933520319E+04  0.22933520319E+04  0.25500000920E-02 0. -1.
       -2   -1    0    0    0  501  0.00000000000E+00  0.00000000000E+00 -0.10466942345E+04  0.10466942345E+04  0.25500000920E-02 0.  1.
    10030    2    1    2    0    0  0.00000000000E+00  0.00000000000E+00  0.12466577975E+04  0.33400462664E+04  0.30986696174E+04 0.  0.
        2    1    3    3  502    0  0.12197975048E+04 -0.39053896730E+03 -0.31636704284E+03  0.13192856944E+04  0.25500000920E-02 0.  1.
       -2    1    3    3    0  502 -0.12197975048E+04  0.39053896730E+03  0.15630248403E+04  0.20207605720E+04  0.25500000920E-02 0. -1.
</event>
<event>
 5   0  0.4305500E-08  0.3100040E+04  0.7818609E-02  0.8215727E-01
        4   -1    0    0  501    0  0.00000000000E+00  0.00000000000E+00  0.12756713749E+04  0.12756720071E+04  0.12699999809E+01 0. -1.
       -4   -1    0    0    0  501  0.00000000000E+00  0.00000000000E+00 -0.18833691780E+04  0.18833696062E+04  0.12699999809E+01 0.  1.
    10030    2    1    2    0    0  0.00000000000E+00  0.00000000000E+00 -0.60769780305E+03  0.31590416132E+04  0.31000398859E+04 0.  0.
        2    1    3    3  502    0  0.17856019405E+03  0.93292390575E+03 -0.15520415381E+04  0.18196328456E+04  0.25500000920E-02 0.  1.
       -2    1    3    3    0  502 -0.17856019405E+03 -0.93292390575E+03  0.94434373507E+03  0.13394087676E+04  0.25500000920E-02 0. -1.
</event>
<event>
 5   0  0.1318916E-07  0.3099175E+04  0.7818609E-02  0.8215964E-01
        2   -1    0    0  501    0  0.00000000000E+00  0.00000000000E+00  0.20283462912E+04  0.20283462912E+04  0.25500000920E-02 0.  1.
       -2   -1    0    0    0  501  0.00000000000E+00  0.00000000000E+00 -0.11838322702E+04  0.11838322702E+04  0.25500000920E-02 0. -1.
    10030    2    1    2    0    0  0.00000000000E+00  0.00000000000E+00  0.84451402107E+03  0.32121785614E+04  0.30991752417E+04 0.  0.
        5    1    3    3  502    0  0.61236286948E+03 -0.37510141051E+03  0.18454637968E+04  0.19802646458E+04  0.46999998093E+01 0.  1.
       -5    1    3    3    0  502 -0.61236286948E+03  0.37510141051E+03 -0.10009497757E+04  0.12319139157E+04  0.46999998093E+01 0. -1.
</event>
<event>
 5   0  0.1398931E-07  0.3100517E+04  0.7818609E-02  0.8215596E-01
        2   -1    0    0  501    0  0.00000000000E+00  0.00000000000E+00  0.21455860758E+04  0.21455860758E+04  0.25500000920E-02 0.  1.
       -2   -1    0    0    0  501  0.00000000000E+00  0.00000000000E+00 -0.11201139901E+04  0.11201139901E+04  0.25500000920E-02 0. -1.
    10030    2    1    2    0    0  0.00000000000E+00  0.00000000000E+00  0.10254720857E+04  0.32657000660E+04  0.31005167186E+04 0.  0.
        3    1    3    3  502    0  0.71619719935E+03 -0.13661238507E+04  0.67614043385E+03  0.16841611266E+04  0.10100000352E+00 0. -1.
       -3    1    3    3    0  502 -0.71619719935E+03  0.13661238507E+04  0.34933165185E+03  0.15815389394E+04  0.10100000352E+00 0.  1.
</event>
<event>
 5   0  0.4838602E-08  0.3099738E+04  0.7818609E-02  0.8215810E-01
        1   -1    0    0  501    0  0.00000000000E+00  0.00000000000E+00  0.17390602441E+04  0.17390602441E+04  0.50400001928E-02 0.  1.
       -1   -1    0    0    0  501  0.00000000000E+00  0.00000000000E+00 -0.13812601503E+04  0.13812601503E+04  0.50400001928E-02 0. -1.
    10030    2    1    2    0    0  0.00000000000E+00  0.00000000000E+00  0.35780009378E+03  0.31203203943E+04  0.30997384497E+04 0.  0.
        5    1    3    3  502    0  0.26484580147E+03 -0.45958931437E+03  0.16448341987E+04  0.17282555562E+04  0.46999998093E+01 0.  1.
       -5    1    3    3    0  502 -0.26484580147E+03  0.45958931437E+03 -0.12870341049E+04  0.13920648381E+04  0.46999998093E+01 0. -1.
</event>
<event>
 5   0  0.4470354E-08  0.3106658E+04  0.7818609E-02  0.8213913E-01
       -1   -1    0    0    0  501  0.00000000000E+00  0.00000000000E+00  0.13313326012E+04  0.13313326012E+04  0.50400001928E-02 0.  1.
        1   -1    0    0  501    0  0.00000000000E+00  0.00000000000E+00 -0.18123431251E+04  0.18123431251E+04  0.50400001928E-02 0. -1.
    10030    2    1    2    0    0  0.00000000000E+00  0.00000000000E+00 -0.48101052390E+03  0.31436757262E+04  0.31066583249E+04 0.  0.
        1    1    3    3  502    0 -0.74496320362E+03 -0.73465796126E+03 -0.14022878245E+04  0.17496009938E+04  0.50400001928E-02 0. -1.
       -1    1    3    3    0  502  0.74496320362E+03  0.73465796126E+03  0.92127730064E+03  0.13940747324E+04  0.50400001928E-02 0.  1.
</event>
<event>
 5   0  0.1398931E-07  0.3100719E+04  0.7818609E-02  0.8215541E-01
        2   -1    0    0  501    0  0.00000000000E+00  0.00000000000E+00  0.19305035026E+04  0.19305035026E+04  0.25500000920E-02 0.  1.
       -2   -1    0    0    0  501  0.00000000000E+00  0.00000000000E+00 -0.12450713689E+04  0.12450713689E+04  0.25500000920E-02 0. -1.
    10030    2    1    2    0    0  0.00000000000E+00  0.00000000000E+00  0.68543213367E+03  0.31755748714E+04  0.31007190383E+04 0.  0.
        3    1    3    3  502    0  0.22582491288E+03 -0.37526942350E+03  0.18658284343E+04  0.19165437089E+04  0.10100000352E+00 0.  1.
       -3    1    3    3    0  502 -0.22582491288E+03  0.37526942350E+03 -0.11803963007E+04  0.12590311626E+04  0.10100000352E+00 0. -1.
</event>
<event>
 5   0  0.4517409E-08  0.3100140E+04  0.7818609E-02  0.8215699E-01
       -1   -1    0    0    0  501  0.00000000000E+00  0.00000000000E+00  0.15934058562E+04  0.15934058562E+04  0.50400001928E-02 0.  1.
        1   -1    0    0  501    0  0.00000000000E+00  0.00000000000E+00 -0.15079131800E+04  0.15079131800E+04  0.50400001928E-02 0. -1.
    10030    2    1    2    0    0  0.00000000000E+00  0.00000000000E+00  0.85492676148E+02  0.31013190362E+04  0.31001404431E+04 0.  0.
        2    1    3    3  502    0 -0.40312749930E+03 -0.13566138426E+04 -0.58979523496E+03  0.15332225272E+04  0.25500000920E-02 0.  1.
       -2    1    3    3    0  502  0.40312749930E+03  0.13566138426E+04  0.67528791111E+03  0.15680965090E+04  0.25500000920E-02 0. -1.
</event>
<event>
 5   0  0.1325713E-07  0.3103855E+04  0.7818609E-02  0.8214681E-01
       -2   -1    0    0    0  501  0.00000000000E+00  0.00000000000E+00  0.93500161451E+03  0.93500161451E+03  0.25500000920E-02 0. -1.
        2   -1    0    0  501    0  0.00000000000E+00  0.00000000000E+00 -0.25759081495E+04  0.25759081495E+04  0.25500000920E-02 0.  1.
    10030    2    1    2    0    0  0.00000000000E+00  0.00000000000E+00 -0.16409065350E+04  0.35109097640E+04  0.31038545576E+04 0.  0.
        4    1    3    3  502    0 -0.78512257822E+03 -0.83340550425E+03  0.36454980100E+03  0.12016157321E+04  0.12699999809E+01 0. -1.
       -4    1    3    3    0  502  0.78512257822E+03  0.83340550425E+03 -0.20054563360E+04  0.23092940319E+04  0.12699999809E+01 0.  1.
</event>
<event>
 5   0  0.4450600E-08  0.3101070E+04  0.7818609E-02  0.8215444E-01
       -1   -1    0    0    0  501  0.00000000000E+00  0.00000000000E+00  0.12545490802E+04  0.12545490802E+04  0.50400001928E-02 0.  1.
        1   -1    0    0  501    0  0.00000000000E+00  0.00000000000E+00 -0.19163523477E+04  0.19163523478E+04  0.50400001928E-02 0. -1.
    10030    2    1    2    0    0  0.00000000000E+00  0.00000000000E+00 -0.66180326751E+03  0.31709014280E+04  0.31010695415E+04 0.  0.
        4    1    3    3  502    0  0.32259642743E+03 -0.14969217779E+04 -0.57992890396E+03  0.16374255435E+04  0.12699999809E+01 0.  1.
       -4    1    3    3    0  502 -0.32259642743E+03  0.14969217779E+04 -0.81874363551E+02  0.15334758845E+04  0.12699999809E+01 0. -1.
</event>
<event>
 5   0  0.1325713E-07  0.3100237E+04  0.7818609E-02  0.8215673E-01
        2   -1    0    0  501    0  0.00000000000E+00  0.00000000000E+00  0.23863881918E+04  0.23863881918E+04  0.25500000920E-02 0.  1.
       -2   -1    0    0    0  501  0.00000000000E+00  0.00000000000E+00 -0.10069055609E+04  0.10069055609E+04  0.25500000920E-02 0. -1.
    10030    2    1    2    0    0  0.00000000000E+00  0.00000000000E+00  0.13794826309E+04  0.33932937527E+04  0.31002371141E+04 0.  0.
        4    1    3    3  502    0  0.15663192563E+03  0.13580485185E+04 -0.11011513825E+03  0.13714796007E+04  0.12699999809E+01 0. -1.
       -4    1    3    3    0  502 -0.15663192563E+03 -0.13580485185E+04  0.14895977692E+04  0.20218141520E+04  0.12699999809E+01 0.  1.
</event>
<event>
 5   0  0.1329777E-07  0.3099932E+04  0.7818609E-02  0.8215757E-01
       -2   -1    0    0    0  501  0.00000000000E+00  0.00000000000E+00  0.13026863184E+04  0.13026863184E+04  0.25500000920E-02 0.  1.
        2   -1    0    0  501    0  0.00000000000E+00  0.00000000000E+00 -0.18441850016E+04  0.18441850016E+04  0.25500000920E-02 0. -1.
    10030    2    1    2    0    0  0.00000000000E+00  0.00000000000E+00 -0.54149868318E+03  0.31468713200E+04  0.30999319800E+04 0.  0.
        1    1    3    3  502    0  0.12732203686E+04 -0.11409803573E+03  0.61904227221E+03  0.14203245416E+04  0.50400001928E-02 0.  1.
       -1    1    3    3    0  502 -0.12732203686E+04  0.11409803573E+03 -0.11605409554E+04  0.17265467784E+04  0.50400001928E-02 0. -1.
</event>
<event>
 5   0  0.1377237E-07  0.3101822E+04  0.7818609E-02  0.8215238E-01
       -2   -1    0    0    0  501  0.00000000000E+00  0.00000000000E+00  0.15162545883E+04  0.15162545883E+04  0.25500000920E-02 0. -1.
        2   -1    0    0  501    0  0.00000000000E+00  0.00000000000E+00 -0.15863590402E+04  0.15863590402E+04  0.25500000920E-02 0.  1.
    10030    2    1    2    0    0  0.00000000000E+00  0.00000000000E+00 -0.70104451989E+02  0.31026136285E+04  0.31018215122E+04 0.  0.
        2    1    3    3  502    0  0.38850566693E+03  0.11461407008E+04  0.93511763348E+03  0.15293855458E+04  0.25500000920E-02 0. -1.
       -2    1    3    3    0  502 -0.38850566693E+03 -0.11461407008E+04 -0.10052220855E+04  0.15732280827E+04  0.25500000920E-02 0.  1.
</event>
<event>
 5   0  0.4436241E-08  0.3100462E+04  0.7818609E-02  0.8215611E-01
        1   -1    0    0  501    0  0.00000000000E+00  0.00000000000E+00  0.16168278219E+04  0.16168278219E+04  0.50400001928E-02 0.  1.
       -1   -1    0    0    0  501  0.00000000000E+00  0.00000000000E+00 -0.14863776622E+04  0.14863776622E+04  0.50400001928E-02 0. -1.
    10030    2    1    2    0    0  0.00000000000E+00  0.00000000000E+00  0.13045015971E+03  0.31032054841E+04  0.31004623901E+04 0.  0.
        3    1    3    3  502    0 -0.11029098530E+04  0.10441764035E+04  0.37614802253E+03  0.15646730810E+04  0.10100000352E+00 0. -1.
       -3    1    3    3    0  502  0.11029098530E+04 -0.10441764035E+04 -0.24569786282E+03  0.15385324031E+04  0.10100000352E+00 0.  1.
</event>
<event>
 5   0  0.4470354E-08  0.3088920E+04  0.7818609E-02  0.8218785E-01
       -1   -1    0    0    0  501  0.00000000000E+00  0.00000000000E+00  0.12011356968E+04  0.12011356968E+04  0.50400001928E-02 0.  1.
        1   -1    0    0  501    0  0.00000000000E+00  0.00000000000E+00 -0.19859182172E+04  0.19859182172E+04  0.50400001928E-02 0. -1.
    10030    2    1    2    0    0  0.00000000000E+00  0.00000000000E+00 -0.78478252042E+03  0.31870539140E+04  0.30889203690E+04 0.  0.
        1    1    3    3  502    0  0.14772978092E+04  0.71186909757E+02  0.66579059093E+02  0.14805097650E+04  0.50400001928E-02 0.  1.
       -1    1    3    3    0  502 -0.14772978092E+04 -0.71186909757E+02 -0.85136157951E+03  0.17065441489E+04  0.50400001928E-02 0. -1.
</event>
<event>
 5   0  0.4517409E-08  0.3100453E+04  0.7818609E-02  0.8215614E-01
       -1   -1    0    0    0  501  0.00000000000E+00  0.00000000000E+00  0.18589553383E+04  0.18589553383E+04  0.50400001928E-02 0. -1.
        1   -1    0    0  501    0  0.00000000000E+00  0.00000000000E+00 -0.12927701398E+04  0.12927701398E+04  0.50400001928E-02 0.  1.
    10030    2    1    2    0    0  0.00000000000E+00  0.00000000000E+00  0.56618519847E+03  0.31517254781E+04  0.31004528396E+04 0.  0.
        2    1    3    3  502    0  0.49699773150E+03  0.93011194375E+03  0.14381431816E+04  0.17833594096E+04  0.25500000920E-02 0. -1.
       -2    1    3    3    0  502 -0.49699773150E+03 -0.93011194375E+03 -0.87195798316E+03  0.13683660685E+04  0.25500000920E-02 0.  1.
</event>
<event>
 5   0  0.1377237E-07  0.3100914E+04  0.7818609E-02  0.8215487E-01
       -2   -1    0    0    0  501  0.00000000000E+00  0.00000000000E+00  0.12645123012E+04  0.12645123012E+04  0.25500000920E-02 0. -1.
        2   -1    0    0  501    0  0.00000000000E+00  0.00000000000E+00 -0.19010623694E+04  0.19010623694E+04  0.25500000920E-02 0.  1.
    10030    2    1    2    0    0  0.00000000000E+00  0.00000000000E+00 -0.63655006823E+03  0.31655746706E+04  0.31009138985E+04 0.  0.
        2    1    3    3  502    0 -0.14670392157E+04  0.41052567991E+03 -0.61270082890E+03  0.16419919914E+04  0.25500000920E-02 0.  1.
       -2    1    3    3    0  502  0.14670392157E+04 -0.41052567991E+03 -0.23849239329E+02  0.15235826792E+04  0.25500000920E-02 0. -1.
</event>
<event>
 5   0  0.1318916E-07  0.3099723E+04  0.7818609E-02  0.8215814E-01
       -2   -1    0    0    0  501  0.00000000000E+00  0.00000000000E+00  0.10233793910E+04  0.10233793910E+04  0.25500000920E-02 0. -1.
        2   -1    0    0  501    0  0.00000000000E+00  0.00000000000E+00 -0.23471945897E+04  0.23471945897E+04  0.25500000920E-02 0.  1.
    10030    2    1    2    0    0  0.00000000000E+00  0.00000000000E+00 -0.13238151987E+04  0.33705739808E+04  0.30997229359E+04 0.  0.
        5    1    3    3  502    0 -0.56339497504E+03 -0.83097926240E+03  0.62198650382E+03  0.11810290993E+04  0.46999998093E+01 0. -1.
       -5    1    3    3    0  502  0.56339497504E+03  0.83097926240E+03 -0.19458017025E+04  0.21895448815E+04  0.46999998093E+01 0.  1.
</event>
<event>
 5   0  0.4470354E-08  0.3096986E+04  0.7818609E-02  0.8216566E-01
       -1   -1    0    0    0  501  0.00000000000E+00  0.00000000000E+00  0.11144364328E+04  0.11144364328E+04  0.50400001928E-02 0.  1.
        1   -1    0    0  501    0  0.00000000000E+00  0.00000000000E+00 -0.21516082662E+04  0.21516082662E+04  0.50400001928E-02 0. -1.
    10030    2    1    2    0    0  0.00000000000E+00  0.00000000000E+00 -0.10371718335E+04  0.32660446990E+04  0.30969860451E+04 0.  0.
        1    1    3    3  502    0  0.12096089619E+04  0.60367262382E+03  0.27778954457E+03  0.13801237295E+04  0.50400001928E-02 0.  1.
       -1    1    3    3    0  502 -0.12096089619E+04 -0.60367262382E+03 -0.13149613780E+04  0.18859209695E+04  0.50400001928E-02 0. -1.
</event>
<event>
 5   0  0.1329777E-07  0.3100563E+04  0.7818609E-02  0.8215584E-01
        2   -1    0    0  501    0  0.00000000000E+00  0.00000000000E+00  0.13336286664E+04  0.13336286664E+04  0.25500000920E-02 0.  1.
       -2   -1    0    0    0  501  0.00000000000E+00  0.00000000000E+00 -0.18021298412E+04  0.18021298412E+04  0.25500000920E-02 0. -1.
    10030    2    1    2    0    0  0.00000000000E+00  0.00000000000E+00 -0.46850117479E+03  0.31357585076E+04  0.31005625405E+04 0.  0.
        1    1    3    3  502    0 -0.10436427336E+04  0.28921735787E+03  0.88763645196E+03  0.14002625848E+04  0.50400001928E-02 0.  1.
       -1    1    3    3    0  502  0.10436427336E+04 -0.28921735787E+03 -0.13561376268E+04  0.17354959228E+04  0.50400001928E-02 0. -1.
</event>
<event>
 5   0  0.4470354E-08  0.3100710E+04  0.7818609E-02  0.8215543E-01
        1   -1    0    0  501    0  0.00000000000E+00  0.00000000000E+00  0.12330315204E+04  0.12330315204E+04  0.50400001928E-02 0.  1.
       -1   -1    0    0    0  501  0.00000000000E+00  0.00000000000E+00 -0.19493423787E+04  0.19493423787E+04  0.50400001928E-02 0. -1.
    10030    2    1    2    0    0  0.00000000000E+00  0.00000000000E+00 -0.71631085835E+03  0.31823738991E+04  0.31007099813E+04 0.  0.
        1    1    3    3  502    0  0.42012493478E+03 -0.69185602523E+03  0.99895219464E+03  0.12857197236E+04  0.50400001928E-02 0.  1.
       -1    1    3    3    0  502 -0.42012493478E+03  0.69185602523E+03 -0.17152630530E+04  0.18966541755E+04  0.50400001928E-02 0. -1.
</event>
<event>
 5   0  0.1318916E-07  0.3099415E+04  0.7818609E-02  0.8215898E-01
        2   -1    0    0  501    0  0.00000000000E+00  0.00000000000E+00  0.19171353282E+04  0.19171353282E+04  0.25500000920E-02 0. -1.
       -2   -1    0    0    0  501  0.00000000000E+00  0.00000000000E+00 -0.12526989946E+04  0.12526989946E+04  0.25500000920E-02 0.  1.
    10030    2    1    2    0    0  0.00000000000E+00  0.00000000000E+00  0.66443633358E+03  0.31698343228E+04  0.30994151049E+04 0.  0.
        5    1    3    3  502    0  0.73132562411E+03 -0.23593575867E+03  0.17085535144E+04  0.18734140098E+04  0.46999998093E+01 0. -1.
       -5    1    3    3    0  502 -0.73132562411E+03  0.23593575867E+03 -0.10441171808E+04  0.12964203130E+04  0.46999998093E+01 0.  1.
</event>
<event>
 5   0  0.1329777E-07  0.3100679E+04  0.7818609E-02  0.8215552E-01
        2   -1    0    0  501    0  0.00000000000E+00  0.00000000000E+00  0.26412545009E+04  0.26412545009E+04  0.25500000920E-02 0.  1.
       -2   -1    0    0    0  501  0.00000000000E+00  0.00000000000E+00 -0.91000402908E+03  0.91000402909E+03  0.25500000920E-02 0. -1.
    10030    2    1    2    0    0  0.00000000000E+00  0.00000000000E+00  0.17312504719E+04  0.35512585300E+04  0.31006787887E+04 0.  0.
        1    1    3    3  502    0  0.95469771911E+03  0.87275595966E+03  0.18444531612E+04  0.22528111692E+04  0.50400001928E-02 0.  1.
       -1    1    3    3    0  502 -0.95469771911E+03 -0.87275595966E+03 -0.11320268937E+03  0.12984473608E+04  0.50400001928E-02 0. -1.
</event>
<event>
 5   0  0.1318916E-07  0.3100564E+04  0.7818609E-02  0.8215583E-01
       -2   -1    0    0    0  501  0.00000000000E+00  0.00000000000E+00  0.87430586433E+03  0.87430586433E+03  0.25500000920E-02 0.  1.
        2   -1    0    0  501    0  0.00000000000E+00  0.00000000000E+00 -0.27488942866E+04  0.27488942866E+04  0.25500000920E-02 0. -1.
    10030    2    1    2    0    0  0.00000000000E+00  0.00000000000E+00 -0.18745884222E+04  0.36232001509E+04  0.31005640746E+04 0.  0.
        5    1    3    3  502    0  0.92976657310E+03  0.27692508550E+02  0.51196697500E+03  0.10617744718E+04  0.46999998093E+01 0.  1.
       -5    1    3    3    0  502 -0.92976657310E+03 -0.27692508550E+02 -0.23865553972E+04  0.25614256791E+04  0.46999998093E+01 0. -1.
</event>
<event>
 5   0  0.1318916E-07  0.3103400E+04  0.7818609E-02  0.8214805E-01
       -2   -1    0    0    0  501  0.00000000000E+00  0.00000000000E+00  0.12768927523E+04  0.12768927523E+04  0.25500000920E-02 0. -1.
        2   -1    0    0  501    0  0.00000000000E+00  0.00000000000E+00 -0.18856504274E+04  0.18856504274E+04  0.25500000920E-02 0.  1.
    10030    2    1    2    0    0  0.00000000000E+00  0.00000000000E+00 -0.60875767517E+03  0.31625431797E+04  0.31034003055E+04 0.  0.
        5    1    3    3  502    0 -0.13276422021E+04 -0.45035653350E+03  0.37334910532E+03  0.14508157942E+04  0.46999998093E+01 0. -1.
       -5    1    3    3    0  502  0.13276422021E+04  0.45035653350E+03 -0.98210678048E+03  0.17117273855E+04  0.46999998093E+01 0.  1.
</event>
<event>
 5   0  0.4517409E-08  0.3101438E+04  0.7818609E-02  0.8215343E-01
        1   -1    0    0  501    0  0.00000000000E+00  0.00000000000E+00  0.19781609206E+04  0.19781609206E+04  0.50400001928E-02 0. -1.
       -1   -1    0    0    0  501  0.00000000000E+00  0.00000000000E+00 -0.12156392045E+04  0.12156392045E+04  0.50400001928E-02 0.  1.
    10030    2    1    2    0    0  0.00000000000E+00  0.00000000000E+00  0.76252171610E+03  0.31938001252E+04  0.31014383554E+04 0.  0.
        2    1    3    3  502    0 -0.12552474374E+04  0.70030437121E+03  0.98053427081E+03  0.17399769532E+04  0.25500000920E-02 0. -1.
       -2    1    3    3    0  502  0.12552474374E+04 -0.70030437121E+03 -0.21801255470E+03  0.14538231720E+04  0.25500000920E-02 0.  1.
</event>
<event>
 5   0  0.1398931E-07  0.3099117E+04  0.7818609E-02  0.8215980E-01
       -2   -1    0    0    0  501  0.00000000000E+00  0.00000000000E+00  0.13894826733E+04  0.13894826733E+04  0.25500000920E-02 0.  1.
        2   -1    0    0  501    0  0.00000000000E+00  0.00000000000E+00 -0.17280756783E+04  0.17280756783E+04  0.25500000920E-02 0. -1.
    10030    2    1    2    0    0  0.00000000000E+00  0.00000000000E+00 -0.33859300501E+03  0.31175583516E+04  0.30991167859E+04 0.  0.
        3    1    3    3  502    0  0.31087052056E+03 -0.15002317496E+04  0.64022064290E+02  0.15334388210E+04  0.10100000352E+00 0.  1.
       -3    1    3    3    0  502 -0.31087052056E+03  0.15002317496E+04 -0.40261506930E+03  0.15841195306E+04  0.10100000352E+00 0. -1.
</event>
<event>
 5   0  0.4517409E-08  0.3100312E+04  0.7818609E-02  0.8215652E-01
        1   -1    0    0  501    0  0.00000000000E+00  0.00000000000E+00  0.16845111947E+04  0.16845111947E+04  0.50400001928E-02 0. -1.
       -1   -1    0    0    0  501  0.00000000000E+00  0.00000000000E+00 -0.14265170279E+04  0.14265170279E+04  0.50400001928E-02 0.  1.
    10030    2    1    2    0    0  0.00000000000E+00  0.00000000000E+00  0.25799416686E+03  0.31110282226E+04  0.31003121797E+04 0.  0.
        2    1    3    3  502    0 -0.97583784858E+03 -0.62747719715E+03  0.11606541402E+04  0.16410683023E+04  0.25500000920E-02 0. -1.
       -2    1    3    3    0  502  0.97583784858E+03  0.62747719715E+03 -0.90265997338E+03  0.14699599203E+04  0.25500000920E-02 0.  1.
</event>
<event>
 5   0  0.1325713E-07  0.3100049E+04  0.7818609E-02  0.8215725E-01
        2   -1    0    0  501    0  0.00000000000E+00  0.00000000000E+00  0.12721753599E+04  0.12721753599E+04  0.25500000920E-02 0.  1.
       -2   -1    0    0    0  501  0.00000000000E+00  0.00000000000E+00 -0.18885569473E+04  0.18885569473E+04  0.25500000920E-02 0. -1.
    10030    2    1    2    0    0  0.00000000000E+00  0.00000000000E+00 -0.61638158738E+03  0.31607323073E+04  0.31000487830E+04 0.  0.
        4    1    3    3  502    0  0.82481145936E+03  0.37316376449E+02 -0.16456880804E+04  0.18411945379E+04  0.12699999809E+01 0. -1.
       -4    1    3    3    0  502 -0.82481145936E+03 -0.37316376449E+02  0.10293064930E+04  0.13195377694E+04  0.12699999809E+01 0.  1.
</event>
<event>
 5   0  0.4436241E-08  0.3100256E+04  0.7818609E-02  0.8215668E-01
       -1   -1    0    0    0  501  0.00000000000E+00  0.00000000000E+00  0.13240941611E+04  0.13240941611E+04  0.50400001928E-02 0. -1.
        1   -1    0    0  501    0  0.00000000000E+00  0.00000000000E+00 -0.18147477894E+04  0.18147477894E+04  0.50400001928E-02 0.  1.
    10030    2    1    2    0    0  0.00000000000E+00  0.00000000000E+00 -0.49065362831E+03  0.31388419505E+04  0.31002560874E+04 0.  0.
        3    1    3    3  502    0 -0.49328788395E+03 -0.12163775371E+04  0.58955123805E+03  0.14389155367E+04  0.10100000352E+00 0. -1.
       -3    1    3    3    0  502  0.49328788395E+03  0.12163775371E+04 -0.10802048664E+04  0.16999264139E+04  0.10100000352E+00 0.  1.
</event>
<event>
 5   0  0.1398931E-07  0.3100010E+04  0.7818609E-02  0.8215735E-01
       -2   -1    0    0    0  501  0.00000000000E+00  0.00000000000E+00  0.13163153281E+04  0.13163153281E+04  0.25500000920E-02 0.  1.
        2   -1    0    0  501    0  0.00000000000E+00  0.00000000000E+00 -0.18251817924E+04  0.18251817924E+04  0.25500000920E-02 0. -1.
    10030    2    1    2    0    0  0.00000000000E+00  0.00000000000E+00 -0.50886646430E+03  0.31414971206E+04  0.31000095290E+04 0.  0.
        3    1    3    3  502    0  0.10161258973E+04  0.47145503143E+03 -0.13400938535E+04  0.17466062041E+04  0.10100000352E+00 0. -1.
       -3    1    3    3    0  502 -0.10161258973E+04 -0.47145503143E+03  0.83122738924E+03  0.13948909164E+04  0.10100000352E+00 0.  1.
</event>
<event>
 5   0  0.4450600E-08  0.3099319E+04  0.7818609E-02  0.8215925E-01
        1   -1    0    0  501    0  0.00000000000E+00  0.00000000000E+00  0.29757879957E+04  0.29757879957E+04  0.50400001928E-02 0. -1.
       -1   -1    0    0    0  501  0.00000000000E+00  0.00000000000E+00 -0.80699432800E+03  0.80699432802E+03  0.50400001928E-02 0.  1.
    10030    2    1    2    0    0  0.00000000000E+00  0.00000000000E+00  0.21687936677E+04  0.37827823238E+04  0.30993186567E+04 0.  0.
        4    1    3    3  502    0 -0.83093737549E+03 -0.11416981895E+04  0.18635353100E+04  0.23380969061E+04  0.12699999809E+01 0. -1.
       -4    1    3    3    0  502  0.83093737549E+03  0.11416981895E+04  0.30525835773E+03  0.14446854176E+04  0.12699999809E+01 0.  1.
</event>
<event>
 5   0  0.1329777E-07  0.3099973E+04  0.7818609E-02  0.8215745E-01
        2   -1    0    0  501    0  0.00000000000E+00  0.00000000000E+00  0.15935788842E+04  0.15935788842E+04  0.25500000920E-02 0. -1.
       -2   -1    0    0    0  501  0.00000000000E+00  0.00000000000E+00 -0.15075863631E+04  0.15075863631E+04  0.25500000920E-02 0.  1.
    10030    2    1    2    0    0  0.00000000000E+00  0.00000000000E+00  0.85992521162E+02  0.31011652473E+04  0.30999727704E+04 0.  0.
        1    1    3    3  502    0 -0.10131457222E+04  0.69766821686E+03 -0.90036839541E+03  0.15244239708E+04  0.50400001928E-02 0. -1.
       -1    1    3    3    0  502  0.10131457222E+04 -0.69766821686E+03  0.98636091657E+03  0.15767412765E+04  0.50400001928E-02 0.  1.
</event>
<event>
 5   0  0.4838602E-08  0.3098137E+04  0.7818609E-02  0.8216249E-01
       -1   -1    0    0    0  501  0.00000000000E+00  0.00000000000E+00  0.11328233563E+04  0.11328233563E+04  0.50400001928E-02 0.  1.
        1   -1    0    0  501    0  0.00000000000E+00  0.00000000000E+00 -0.21182594807E+04  0.21182594807E+04  0.50400001928E-02 0. -1.
    10030    2    1    2    0    0  0.00000000000E+00  0.00000000000E+00 -0.98543612445E+03  0.32510828370E+04  0.30981373852E+04 0.  0.
        5    1    3    3  502    0 -0.11832272681E+04 -0.97451989766E+03 -0.25836380513E+03  0.15545062704E+04  0.46999998093E+01 0.  1.
       -5    1    3    3    0  502  0.11832272681E+04  0.97451989766E+03 -0.72707231932E+03  0.16965765666E+04  0.46999998093E+01 0. -1.
</event>
<event>
 5   0  0.4450600E-08  0.3089232E+04  0.7818609E-02  0.8218699E-01
        1   -1    0    0  501    0  0.00000000000E+00  0.00000000000E+00  0.15974358895E+04  0.15974358896E+04  0.50400001928E-02 0.  1.
       -1   -1    0    0    0  501  0.00000000000E+00  0.00000000000E+00 -0.14935422281E+04  0.14935422281E+04  0.50400001928E-02 0. -1.
    10030    2    1    2    0    0  0.00000000000E+00  0.00000000000E+00  0.10389366149E+03  0.30909781176E+04  0.30892315923E+04 0.  0.
        4    1    3    3  502    0 -0.13734223055E+03  0.12906231133E+04 -0.78594253767E+03  0.15173260013E+04  0.12699999809E+01 0. -1.
       -4    1    3    3    0  502  0.13734223055E+03 -0.12906231133E+04  0.88983619916E+03  0.15736521163E+04  0.12699999809E+01 0.  1.
</event>
<event>
 5   0  0.1398931E-07  0.3098527E+04  0.7818609E-02  0.8216142E-01
       -2   -1    0    0    0  501  0.00000000000E+00  0.00000000000E+00  0.11996005322E+04  0.11996005322E+04  0.25500000920E-02 0.  1.
        2   -1    0    0  501    0  0.00000000000E+00  0.00000000000E+00 -0.20008465930E+04  0.20008465930E+04  0.25500000920E-02 0. -1.
    10030    2    1    2    0    0  0.00000000000E+00  0.00000000000E+00 -0.80124606080E+03  0.32004471253E+04  0.30985265130E+04 0.  0.
        3    1    3    3  502    0  0.70466776875E+02 -0.25685765939E+03 -0.19770209089E+04  0.19948817279E+04  0.10100000352E+00 0. -1.
       -3    1    3    3    0  502 -0.70466776875E+02  0.25685765939E+03  0.11757748481E+04  0.12055653974E+04  0.10100000352E+00 0.  1.
</event>
<event>
 5   0  0.4838602E-08  0.3098707E+04  0.7818609E-02  0.8216093E-01
       -1   -1    0    0    0  501  0.00000000000E+00  0.00000000000E+00  0.13626531882E+04  0.13626531882E+04  0.50400001928E-02 0.  1.
        1   -1    0    0  501    0  0.00000000000E+00  0.00000000000E+00 -0.17616336436E+04  0.17616336436E+04  0.50400001928E-02 0. -1.
    10030    2    1    2    0    0  0.00000000000E+00  0.00000000000E+00 -0.39898045539E+03  0.31242868319E+04  0.30987066341E+04 0.  0.
        5    1    3    3  502    0 -0.12368424435E+04 -0.34479049812E+02  0.74068027683E+03  0.14420809261E+04  0.46999998093E+01 0.  1.
       -5    1    3    3    0  502  0.12368424435E+04  0.34479049812E+02 -0.11396607322E+04  0.16822059058E+04  0.46999998093E+01 0. -1.
</event>
<event>
 5   0  0.4436241E-08  0.3099741E+04  0.7818609E-02  0.8215809E-01
       -1   -1    0    0    0  501  0.00000000000E+00  0.00000000000E+00  0.83854596316E+03  0.83854596318E+03  0.50400001928E-02 0. -1.
        1   -1    0    0  501    0  0.00000000000E+00  0.00000000000E+00 -0.28646001956E+04  0.28646001956E+04  0.50400001928E-02 0.  1.
    10030    2    1    2    0    0  0.00000000000E+00  0.00000000000E+00 -0.20260542324E+04  0.37031461587E+04  0.30997412344E+04 0.  0.
        3    1    3    3  502    0  0.18314278060E+03  0.32856269818E+03 -0.28092394638E+04  0.28343113979E+04  0.10100000352E+00 0.  1.
       -3    1    3    3    0  502 -0.18314278060E+03 -0.32856269818E+03  0.78318523145E+03  0.86883476086E+03  0.10100000352E+00 0. -1.
</event>
<event>
 5   0  0.4517409E-08  0.3096961E+04  0.7818609E-02  0.8216573E-01
        1   -1    0    0  501    0  0.00000000000E+00  0.00000000000E+00  0.26938402905E+04  0.26938402905E+04  0.50400001928E-02 0.  1.
       -1   -1    0    0    0  501  0.00000000000E+00  0.00000000000E+00 -0.89010145418E+03  0.89010145419E+03  0.50400001928E-02 0. -1.
    10030    2    1    2    0    0  0.00000000000E+00  0.00000000000E+00  0.18037388363E+04  0.35839417447E+04  0.30969605486E+04 0.  0.
        2    1    3    3  502    0  0.89973590950E+02  0.27924943611E+03  0.26613824054E+04  0.26775047716E+04  0.25500000920E-02 0.  1.
       -2    1    3    3    0  502 -0.89973590950E+02 -0.27924943611E+03 -0.85764356903E+03  0.90643697306E+03  0.25500000920E-02 0. -1.
</event>
<event>
 5   0  0.1377237E-07  0.3099401E+04  0.7818609E-02  0.8215902E-01
        2   -1    0    0  501    0  0.00000000000E+00  0.00000000000E+00  0.25967631752E+04  0.25967631752E+04  0.25500000920E-02 0. -1.
       -2   -1    0    0    0  501  0.00000000000E+00  0.00000000000E+00 -0.92483285862E+03  0.92483285863E+03  0.25500000920E-02 0.  1.
    10030    2    1    2    0    0  0.00000000000E+00  0.00000000000E+00  0.16719303166E+04  0.35215960338E+04  0.30994011747E+04 0.  0.
        2    1    3    3  502    0  0.45766853359E+03  0.14743327889E+04  0.68161397670E+03  0.16875174880E+04  0.25500000920E-02 0.  1.
       -2    1    3    3    0  502 -0.45766853359E+03 -0.14743327889E+04  0.99031633988E+03  0.18340785458E+04  0.25500000920E-02 0. -1.
</event>
<event>
 5   0  0.4450600E-08  0.3097165E+04  0.7818609E-02  0.8216516E-01
        1   -1    0    0  501    0  0.00000000000E+00  0.00000000000E+00  0.18842077770E+04  0.18842077770E+04  0.50400001928E-02 0.  1.
       -1   -1    0    0    0  501  0.00000000000E+00  0.00000000000E+00 -0.12727407334E+04  0.12727407334E+04  0.50400001928E-02 0. -1.
    10030    2    1    2    0    0  0.00000000000E+00  0.00000000000E+00  0.61146704363E+03  0.31569485105E+04  0.30971651477E+04 0.  0.
        4    1    3    3  502    0 -0.56071836455E+03 -0.14205191105E+04  0.56725317648E+03  0.16291278055E+04  0.12699999809E+01 0.  1.
       -4    1    3    3    0  502  0.56071836455E+03  0.14205191105E+04  0.44213867144E+02  0.15278207050E+04  0.12699999809E+01 0. -1.
</event>
<event>
 5   0  0.4517409E-08  0.3098740E+04  0.7818609E-02  0.8216084E-01
        1   -1    0    0  501    0  0.00000000000E+00  0.00000000000E+00  0.10336350109E+04  0.10336350109E+04  0.50400001928E-02 0.  1.
       -1   -1    0    0    0  501  0.00000000000E+00  0.00000000000E+00 -0.23224325348E+04  0.23224325348E+04  0.50400001928E-02 0. -1.
    10030    2    1    2    0    0  0.00000000000E+00  0.00000000000E+00 -0.12887975239E+04  0.33560675457E+04  0.30987401172E+04 0.  0.
        2    1    3    3  502    0  0.43283948903E+03  0.12803941042E+04  0.17599331164E+03  0.13629866951E+04  0.25500000920E-02 0.  1.
       -2    1    3    3    0  502 -0.43283948903E+03 -0.12803941042E+04 -0.14647908355E+04  0.19930808506E+04  0.25500000920E-02 0. -1.
</event>
<event>
 5   0  0.4436241E-08  0.3103001E+04  0.7818609E-02  0.8214915E-01
        1   -1    0    0  501    0  0.00000000000E+00  0.00000000000E+00  0.18856939155E+04  0.18856939155E+04  0.50400001928E-02 0.  1.
       -1   -1    0    0    0  501  0.00000000000E+00  0.00000000000E+00 -0.12765345891E+04  0.12765345891E+04  0.50400001928E-02 0. -1.
    10030    2    1    2    0    0  0.00000000000E+00  0.00000000000E+00  0.60915932642E+03  0.31622285046E+04  0.31030008105E+04 0.  0.
        3    1    3    3  502    0 -0.13603627538E+03  0.38867895952E+03  0.18289843887E+04  0.18747696141E+04  0.10100000352E+00 0.  1.
       -3    1    3    3    0  502  0.13603627538E+03 -0.38867895952E+03 -0.12198250623E+04  0.12874588904E+04  0.10100000352E+00 0. -1.
</event>
<event>
 5   0  0.1329777E-07  0.3100228E+04  0.7818609E-02  0.8215675E-01
       -2   -1    0    0    0  501  0.00000000000E+00  0.00000000000E+00  0.21896573488E+04  0.21896573488E+04  0.25500000920E-02 0. -1.
        2   -1    0    0  501    0  0.00000000000E+00  0.00000000000E+00 -0.10973648757E+04  0.10973648757E+04  0.25500000920E-02 0.  1.
    10030    2    1    2    0    0  0.00000000000E+00  0.00000000000E+00  0.10922924730E+04  0.32870222245E+04  0.31002277751E+04 0.  0.
        1    1    3    3  502    0 -0.12710934220E+03 -0.47271815612E+03 -0.10132653982E+04  0.11253115156E+04  0.50400001928E-02 0.  1.
       -1    1    3    3    0  502  0.12710934220E+03  0.47271815612E+03  0.21055578712E+04  0.21617107089E+04  0.50400001928E-02 0. -1.
</event>
<event>
 5   0  0.1325713E-07  0.3100686E+04  0.7818609E-02  0.8215550E-01
        2   -1    0    0  501    0  0.00000000000E+00  0.00000000000E+00  0.18165254676E+04  0.18165254676E+04  0.25500000920E-02 0.  1.
       -2   -1    0    0    0  501  0.00000000000E+00  0.00000000000E+00 -0.13231654527E+04  0.13231654527E+04  0.25500000920E-02 0. -1.
    10030    2    1    2    0    0  0.00000000000E+00  0.00000000000E+00  0.49336001491E+03  0.31396909203E+04  0.31006862097E+04 0.  0.
        4    1    3    3  502    0 -0.10816989193E+04  0.94489920383E+03 -0.34431867048E+03  0.14769780016E+04  0.12699999809E+01 0. -1.
       -4    1    3    3    0  502  0.10816989193E+04 -0.94489920383E+03  0.83767868539E+03  0.16627129188E+04  0.12699999809E+01 0.  1.
</event>
<event>
 5   0  0.4470354E-08  0.3094214E+04  0.7818609E-02  0.8217328E-01
       -1   -1    0    0    0  501  0.00000000000E+00  0.00000000000E+00  0.13560609362E+04  0.13560609362E+04  0.50400001928E-02 0. -1.
        1   -1    0    0  501    0  0.00000000000E+00  0.00000000000E+00 -0.17650678948E+04  0.17650678949E+04  0.50400001928E-02 0.  1.
    10030    2    1    2    0    0  0.00000000000E+00  0.00000000000E+00 -0.40900695866E+03  0.31211288311E+04  0.30942137107E+04 0.  0.
        1    1    3    3  502    0 -0.31691980785E+03  0.21358797267E+03 -0.17167042849E+04  0.17587301068E+04  0.50400001928E-02 0.  1.
       -1    1    3    3    0  502  0.31691980785E+03 -0.21358797267E+03  0.13076973263E+04  0.13623987242E+04  0.50400001928E-02 0. -1.
</event>
<event>
 5   0  0.1329777E-07  0.3100420E+04  0.7818609E-02  0.8215623E-01
        2   -1    0    0  501    0  0.00000000000E+00  0.00000000000E+00  0.13084611254E+04  0.13084611254E+04  0.25500000920E-02 0. -1.
       -2   -1    0    0    0  501  0.00000000000E+00  0.00000000000E+00 -0.18366239030E+04  0.18366239030E+04  0.25500000920E-02 0.  1.
    10030    2    1    2    0    0  0.00000000000E+00  0.00000000000E+00 -0.52816277759E+03  0.31450850284E+04  0.31004199581E+04 0.  0.
        1    1    3    3  502    0 -0.47475128232E+03 -0.57349555057E+03  0.11152368346E+04  0.13409098119E+04  0.50400001928E-02 0. -1.
       -1    1    3    3    0  502  0.47475128232E+03  0.57349555057E+03 -0.16433996121E+04  0.18041752165E+04  0.50400001928E-02 0.  1.
</event>
<event>
 5   0  0.1325713E-07  0.3099261E+04  0.7818609E-02  0.8215941E-01
       -2   -1    0    0    0  501  0.00000000000E+00  0.00000000000E+00  0.32655217663E+04  0.32655217663E+04  0.25500000920E-02 0. -1.
        2   -1    0    0  501    0  0.00000000000E+00  0.00000000000E+00 -0.73536630311E+03  0.73536630311E+03  0.25500000920E-02 0.  1.
    10030    2    1    2    0    0  0.00000000000E+00  0.00000000000E+00  0.25301554632E+04  0.40008880694E+04  0.30992609887E+04 0.  0.
        4    1    3    3  502    0 -0.37580090227E+03 -0.39193515953E+03 -0.60853738752E+03  0.81557271431E+03  0.12699999809E+01 0.  1.
       -4    1    3    3    0  502  0.37580090227E+03  0.39193515953E+03  0.31386928507E+04  0.31853153551E+04  0.12699999809E+01 0. -1.
</event>
<event>
 5   0  0.1318916E-07  0.3100445E+04  0.7818609E-02  0.8215616E-01
        2   -1    0    0  501    0  0.00000000000E+00  0.00000000000E+00  0.20101499948E+04  0.20101499948E+04  0.25500000920E-02 0.  1.
       -2   -1    0    0    0  501  0.00000000000E+00  0.00000000000E+00 -0.11955277952E+04  0.11955277952E+04  0.25500000920E-02 0. -1.
    10030    2    1    2    0    0  0.00000000000E+00  0.00000000000E+00  0.81462219959E+03  0.32056777901E+04  0.31004452528E+04 0.  0.
        5    1    3    3  502    0 -0.73264113298E+03  0.12114951654E+04  0.10601567225E+04  0.17687390796E+04  0.46999998093E+01 0.  1.
       -5    1    3    3    0  502  0.73264113298E+03 -0.12114951654E+04 -0.24553452294E+03  0.14369387104E+04  0.46999998093E+01 0. -1.
</event>
<event>
 5   0  0.1329777E-07  0.3101248E+04  0.7818609E-02  0.8215395E-01
       -2   -1    0    0    0  501  0.00000000000E+00  0.00000000000E+00  0.14620630913E+04  0.14620630913E+04  0.25500000920E-02 0.  1.
        2   -1    0    0  501    0  0.00000000000E+00  0.00000000000E+00 -0.16445495305E+04  0.16445495305E+04  0.25500000920E-02 0. -1.
    10030    2    1    2    0    0  0.00000000000E+00  0.00000000000E+00 -0.18248643921E+03  0.31066126218E+04  0.31012482457E+04 0.  0.
        1    1    3    3  502    0 -0.12523319203E+04  0.28509470260E+01  0.82471898527E+03  0.14995015075E+04  0.50400001928E-02 0.  1.
       -1    1    3    3    0  502  0.12523319203E+04 -0.28509470260E+01 -0.10072054245E+04  0.16071111142E+04  0.50400001928E-02 0. -1.
</event>
<event>
 5   0  0.1318916E-07  0.3101343E+04  0.7818609E-02  0.8215369E-01
        2   -1    0    0  501    0  0.00000000000E+00  0.00000000000E+00  0.21982977942E+04  0.21982977942E+04  0.25500000920E-02 0.  1.
       -2   -1    0    0    0  501  0.00000000000E+00  0.00000000000E+00 -0.10938382321E+04  0.10938382321E+04  0.25500000920E-02 0. -1.
    10030    2    1    2    0    0  0.00000000000E+00  0.00000000000E+00  0.11044595621E+04  0.32921360263E+04  0.31013430464E+04 0.  0.
        5    1    3    3  502    0  0.98384360503E+03 -0.11731287536E+04  0.29138791909E+03  0.15585596944E+04  0.46999998093E+01 0. -1.
       -5    1    3    3    0  502 -0.98384360503E+03  0.11731287536E+04  0.81307164300E+03  0.17335763319E+04  0.46999998093E+01 0.  1.
</event>
<event>
 5   0  0.1329777E-07  0.3101115E+04  0.7818609E-02  0.8215432E-01
        2   -1    0    0  501    0  0.00000000000E+00  0.00000000000E+00  0.14188553017E+04  0.14188553017E+04  0.25500000920E-02 0. -1.
       -2   -1    0    0    0  501  0.00000000000E+00  0.00000000000E+00 -0.16944843213E+04  0.16944843213E+04  0.25500000920E-02 0.  1.
    10030    2    1    2    0    0  0.00000000000E+00  0.00000000000E+00 -0.27562901960E+03  0.31133396230E+04  0.31011146789E+04 0.  0.
        1    1    3    3  502    0 -0.91303162414E+03  0.24770919225E+03 -0.13711693358E+04  0.16658607199E+04  0.50400001928E-02 0.  1.
       -1    1    3    3    0  502  0.91303162414E+03 -0.24770919225E+03  0.10955403162E+04  0.14474789031E+04  0.50400001928E-02 0. -1.
</event>
<event>
 5   0  0.4450600E-08  0.3101237E+04  0.7818609E-02  0.8215398E-01
       -1   -1    0    0    0  501  0.00000000000E+00  0.00000000000E+00  0.13535795474E+04  0.13535795474E+04  0.50400001928E-02 0.  1.
        1   -1    0    0  501    0  0.00000000000E+00  0.00000000000E+00 -0.17763406852E+04  0.17763406852E+04  0.50400001928E-02 0. -1.
    10030    2    1    2    0    0  0.00000000000E+00  0.00000000000E+00 -0.42276113777E+03  0.31299202327E+04  0.31012374439E+04 0.  0.
        4    1    3    3  502    0 -0.11708787679E+04  0.59407048316E+03  0.62119770252E+03  0.14525030212E+04  0.12699999809E+01 0.  1.
       -4    1    3    3    0  502  0.11708787679E+04 -0.59407048316E+03 -0.10439588403E+04  0.16774172114E+04  0.12699999809E+01 0. -1.
</event>
<event>
 5   0  0.4436241E-08  0.3103648E+04  0.7818609E-02  0.8214737E-01
       -1   -1    0    0    0  501  0.00000000000E+00  0.00000000000E+00  0.11765563447E+04  0.11765563447E+04  0.50400001928E-02 0. -1.
        1   -1    0    0  501    0  0.00000000000E+00  0.00000000000E+00 -0.20467849212E+04  0.20467849212E+04  0.50400001928E-02 0.  1.
    10030    2    1    2    0    0  0.00000000000E+00  0.00000000000E+00 -0.87022857652E+03  0.32233412660E+04  0.31036480376E+04 0.  0.
        3    1    3    3  502    0  0.10471336612E+04 -0.11403711644E+04 -0.32509262437E+03  0.15819672947E+04  0.10100000352E+00 0. -1.
       -3    1    3    3    0  502 -0.10471336612E+04  0.11403711644E+04 -0.54513595215E+03  0.16413739712E+04  0.10100000352E+00 0.  1.
</event>
<event>
 5   0  0.1329777E-07  0.3101542E+04  0.7818609E-02  0.8215315E-01
       -2   -1    0    0    0  501  0.00000000000E+00  0.00000000000E+00  0.10191967580E+04  0.10191967580E+04  0.25500000920E-02 0.  1.
        2   -1    0    0  501    0  0.00000000000E+00  0.00000000000E+00 -0.23595944724E+04  0.23595944724E+04  0.25500000920E-02 0. -1.
    10030    2    1    2    0    0  0.00000000000E+00  0.00000000000E+00 -0.13403977143E+04  0.33787912304E+04  0.31015422206E+04 0.  0.
        1    1    3    3  502    0  0.76594954017E+01  0.68163011891E+03  0.84722999660E+03  0.10874175620E+04  0.50400001928E-02 0.  1.
       -1    1    3    3    0  502 -0.76594954017E+01 -0.68163011891E+03 -0.21876277109E+04  0.22913736685E+04  0.50400001928E-02 0. -1.
</event>
<event>
 5   0  0.4517409E-08  0.3100612E+04  0.7818609E-02  0.8215570E-01
        1   -1    0    0  501    0  0.00000000000E+00  0.00000000000E+00  0.14301142829E+04  0.14301142829E+04  0.50400001928E-02 0.  1.
       -1   -1    0    0    0  501  0.00000000000E+00  0.00000000000E+00 -0.16805987190E+04  0.16805987190E+04  0.50400001928E-02 0. -1.
    10030    2    1    2    0    0  0.00000000000E+00  0.00000000000E+00 -0.25048443615E+03  0.31107130019E+04  0.31006117021E+04 0.  0.
        2    1    3    3  502    0 -0.10591589258E+04 -0.91337450876E+03  0.54579975293E+03  0.15013220820E+04  0.25500000920E-02 0.  1.
       -2    1    3    3    0  502  0.10591589258E+04  0.91337450876E+03 -0.79628418908E+03  0.16093909200E+04  0.25500000920E-02 0. -1.
</event>
<event>
 5   0  0.1377237E-07  0.3102161E+04  0.7818609E-02  0.8215145E-01
       -2   -1    0    0    0  501  0.00000000000E+00  0.00000000000E+00  0.12565178379E+04  0.12565178379E+04  0.25500000920E-02 0.  1.
        2   -1    0    0  501    0  0.00000000000E+00  0.00000000000E+00 -0.19146967677E+04  0.19146967677E+04  0.25500000920E-02 0. -1.
    10030    2    1    2    0    0  0.00000000000E+00  0.00000000000E+00 -0.65817892982E+03  0.31712146056E+04  0.31021609519E+04 0.  0.
        2    1    3    3  502    0  0.31198050877E+03 -0.14846785994E+04 -0.65915160888E+03  0.16541110075E+04  0.25500000920E-02 0. -1.
       -2    1    3    3    0  502 -0.31198050877E+03  0.14846785994E+04  0.97267905268E+00  0.15171035982E+04  0.25500000920E-02 0.  1.
</event>
<event>
 5   0  0.4450600E-08  0.3108166E+04  0.7818609E-02  0.8213501E-01
       -1   -1    0    0    0  501  0.00000000000E+00  0.00000000000E+00  0.14121553940E+04  0.14121553940E+04  0.50400001928E-02 0. -1.
        1   -1    0    0  501    0  0.00000000000E+00  0.00000000000E+00 -0.17102744793E+04  0.17102744793E+04  0.50400001928E-02 0.  1.
    10030    2    1    2    0    0  0.00000000000E+00  0.00000000000E+00 -0.29811908531E+03  0.31224298733E+04  0.31081655883E+04 0.  0.
        4    1    3    3  502    0  0.97539437258E+02 -0.38503778322E+03 -0.16584206670E+04  0.17053236520E+04  0.12699999809E+01 0.  1.
       -4    1    3    3    0  502 -0.97539437258E+02  0.38503778322E+03  0.13603015817E+04  0.14171062213E+04  0.12699999809E+01 0. -1.
</event>
<event>
 5   0  0.1318916E-07  0.3103443E+04  0.7818609E-02  0.8214794E-01
       -2   -1    0    0    0  501  0.00000000000E+00  0.00000000000E+00  0.12430014490E+04  0.12430014490E+04  0.25500000920E-02 0.  1.
        2   -1    0    0  501    0  0.00000000000E+00  0.00000000000E+00 -0.19371174034E+04  0.19371174034E+04  0.25500000920E-02 0. -1.
    10030    2    1    2    0    0  0.00000000000E+00  0.00000000000E+00 -0.69411595436E+03  0.31801188525E+04  0.31034430811E+04 0.  0.
        5    1    3    3  502    0 -0.28569638694E+03 -0.10493224838E+04  0.78713890021E+03  0.13425013366E+04  0.46999998093E+01 0.  1.
       -5    1    3    3    0  502  0.28569638694E+03  0.10493224838E+04 -0.14812548546E+04  0.18376175159E+04  0.46999998093E+01 0. -1.
</event>
<event>
 5   0  0.4470354E-08  0.3100521E+04  0.7818609E-02  0.8215595E-01
       -1   -1    0    0    0  501  0.00000000000E+00  0.00000000000E+00  0.99523005773E+03  0.99523005775E+03  0.50400001928E-02 0.  1.
        1   -1    0    0  501    0  0.00000000000E+00  0.00000000000E+00 -0.24148263671E+04  0.24148263671E+04  0.50400001928E-02 0. -1.
    10030    2    1    2    0    0  0.00000000000E+00  0.00000000000E+00 -0.14195963094E+04  0.34100564248E+04  0.31005211077E+04 0.  0.
        1    1    3    3  502    0  0.95352174579E+02 -0.58521473496E+03 -0.22851877708E+04  0.23608582065E+04  0.50400001928E-02 0. -1.
       -1    1    3    3    0  502 -0.95352174579E+02  0.58521473496E+03  0.86559146146E+03  0.10491982184E+04  0.50400001928E-02 0.  1.
</event>
<event>
 5   0  0.1329777E-07  0.3100465E+04  0.7818609E-02  0.8215610E-01
        2   -1    0    0  501    0  0.00000000000E+00  0.00000000000E+00  0.20895164954E+04  0.20895164954E+04  0.25500000920E-02 0.  1.
       -2   -1    0    0    0  501  0.00000000000E+00  0.00000000000E+00 -0.11501323490E+04  0.11501323490E+04  0.25500000920E-02 0. -1.
    10030    2    1    2    0    0  0.00000000000E+00  0.00000000000E+00  0.93938414646E+03  0.32396488444E+04  0.31004648136E+04 0.  0.
        1    1    3    3  502    0 -0.13382266389E+02 -0.25730145188E+03  0.20669879770E+04  0.20829840180E+04  0.50400001928E-02 0.  1.
       -1    1    3    3    0  502  0.13382266389E+02  0.25730145188E+03 -0.11276038305E+04  0.11566648265E+04  0.50400001928E-02 0. -1.
</event>
<event>
 5   0  0.4517409E-08  0.3100018E+04  0.7818609E-02  0.8215733E-01
       -1   -1    0    0    0  501  0.00000000000E+00  0.00000000000E+00  0.13030622308E+04  0.13030622308E+04  0.50400001928E-02 0. -1.
        1   -1    0    0  501    0  0.00000000000E+00  0.00000000000E+00 -0.18437548118E+04  0.18437548118E+04  0.50400001928E-02 0.  1.
    10030    2    1    2    0    0  0.00000000000E+00  0.00000000000E+00 -0.54069258097E+03  0.31468170426E+04  0.31000175858E+04 0.  0.
        2    1    3    3  502    0 -0.88128271955E+03 -0.12829070203E+03  0.10174305763E+04  0.13521400496E+04  0.25500000920E-02 0. -1.
       -2    1    3    3    0  502  0.88128271955E+03  0.12829070203E+03 -0.15581231573E+04  0.17946769930E+04  0.25500000920E-02 0.  1.
</event>
<event>
 5   0  0.4517409E-08  0.3099881E+04  0.7818609E-02  0.8215771E-01
        1   -1    0    0  501    0  0.00000000000E+00  0.00000000000E+00  0.21440542221E+04  0.21440542221E+04  0.50400001928E-02 0. -1.
       -1   -1    0    0    0  501  0.00000000000E+00  0.00000000000E+00 -0.11204544969E+04  0.11204544969E+04  0.50400001928E-02 0.  1.
    10030    2    1    2    0    0  0.00000000000E+00  0.00000000000E+00  0.10235997252E+04  0.32645087190E+04  0.30998807685E+04 0.  0.
        2    1    3    3  502    0 -0.13205490488E+04 -0.18004307633E+02 -0.34254339969E+03  0.13643716231E+04  0.25500000920E-02 0.  1.
       -2    1    3    3    0  502  0.13205490488E+04  0.18004307633E+02  0.13661431249E+04  0.19001370958E+04  0.25500000920E-02 0. -1.
</event>
<event>
 5   0  0.4436241E-08  0.3098782E+04  0.7818609E-02  0.8216072E-01
       -1   -1    0    0    0  501  0.00000000000E+00  0.00000000000E+00  0.16320468352E+04  0.16320468352E+04  0.50400001928E-02 0.  1.
        1   -1    0    0  501    0  0.00000000000E+00  0.00000000000E+00 -0.14709209676E+04  0.14709209676E+04  0.50400001928E-02 0. -1.
    10030    2    1    2    0    0  0.00000000000E+00  0.00000000000E+00  0.16112586754E+03  0.31029678028E+04  0.30987816380E+04 0.  0.
        3    1    3    3  502    0  0.88901857830E+03 -0.36449104997E+03 -0.11365642199E+04  0.14882829013E+04  0.10100000352E+00 0. -1.
       -3    1    3    3    0  502 -0.88901857830E+03  0.36449104997E+03  0.12976900874E+04  0.16146849015E+04  0.10100000352E+00 0.  1.
</event>
<event>
 5   0  0.4838602E-08  0.3102654E+04  0.7818609E-02  0.8215010E-01
        1   -1    0    0  501    0  0.00000000000E+00  0.00000000000E+00  0.19699552126E+04  0.19699552127E+04  0.50400001928E-02 0.  1.
       -1   -1    0    0    0  501  0.00000000000E+00  0.00000000000E+00 -0.12216596950E+04  0.12216596950E+04  0.50400001928E-02 0. -1.
    10030    2    1    2    0    0  0.00000000000E+00  0.00000000000E+00  0.74829551769E+03  0.31916149076E+04  0.31026536282E+04 0.  0.
        5    1    3    3  502    0 -0.89087721797E+03 -0.11295309943E+04  0.97138973542E+03  0.17358348403E+04  0.46999998093E+01 0.  1.
       -5    1    3    3    0  502  0.89087721797E+03  0.11295309943E+04 -0.22309421773E+03  0.14557800674E+04  0.46999998093E+01 0. -1.
</event>
<event>
 5   0  0.4450600E-08  0.3100383E+04  0.7818609E-02  0.8215633E-01
        1   -1    0    0  501    0  0.00000000000E+00  0.00000000000E+00  0.18102227703E+04  0.18102227703E+04  0.50400001928E-02 0. -1.
       -1   -1    0    0    0  501  0.00000000000E+00  0.00000000000E+00 -0.13275124048E+04  0.13275124048E+04  0.50400001928E-02 0.  1.
    10030    2    1    2    0    0  0.00000000000E+00  0.00000000000E+00  0.48271036554E+03  0.31377351751E+04  0.31003826751E+04 0.  0.
        4    1    3    3  502    0  0.31377507123E+03 -0.22111639247E+03 -0.12786529820E+04  0.13350289569E+04  0.12699999809E+01 0.  1.
       -4    1    3    3    0  502 -0.31377507123E+03  0.22111639247E+03  0.17613633476E+04  0.18027062183E+04  0.12699999809E+01 0. -1.
</event>
<event>
 5   0  0.1325713E-07  0.3098415E+04  0.7818609E-02  0.8216173E-01
        2   -1    0    0  501    0  0.00000000000E+00  0.00000000000E+00  0.14076194196E+04  0.14076194196E+04  0.25500000920E-02 0. -1.
       -2   -1    0    0    0  501  0.00000000000E+00  0.00000000000E+00 -0.17050377944E+04  0.17050377944E+04  0.25500000920E-02 0.  1.
    10030    2    1    2    0    0  0.00000000000E+00  0.00000000000E+00 -0.29741837477E+03  0.31126572140E+04  0.30984152792E+04 0.  0.
        4    1    3    3  502    0 -0.15138206275E+04  0.29748316701E+03 -0.29040207253E+03  0.15698675433E+04  0.12699999809E+01 0. -1.
       -4    1    3    3    0  502  0.15138206275E+04 -0.29748316701E+03 -0.70163022383E+01  0.15427896708E+04  0.12699999809E+01 0.  1.
</event>
<event>
 5   0  0.1329777E-07  0.3095527E+04  0.7818609E-02  0.8216967E-01
       -2   -1    0    0    0  501  0.00000000000E+00  0.00000000000E+00  0.11545996059E+04  0.11545996059E+04  0.25500000920E-02 0.  1.
        2   -1    0    0  501    0  0.00000000000E+00  0.00000000000E+00 -0.20748072482E+04  0.20748072482E+04  0.25500000920E-02 0. -1.
    10030    2    1    2    0    0  0.00000000000E+00  0.00000000000E+00 -0.92020764228E+03  0.32294068541E+04  0.30955268573E+04 0.  0.
        1    1    3    3  502    0  0.76170382566E+03  0.12838497618E+04 -0.88657306845E+03  0.17362242754E+04  0.50400001928E-02 0. -1.
       -1    1    3    3    0  502 -0.76170382566E+03 -0.12838497618E+04 -0.33634573830E+02  0.14931825787E+04  0.50400001928E-02 0.  1.
</event>
<event>
 5   0  0.1318916E-07  0.3101564E+04  0.7818609E-02  0.8215309E-01
       -2   -1    0    0    0  501  0.00000000000E+00  0.00000000000E+00  0.11970138092E+04  0.11970138092E+04  0.25500000920E-02 0. -1.
        2   -1    0    0  501    0  0.00000000000E+00  0.00000000000E+00 -0.20091032783E+04  0.20091032783E+04  0.25500000920E-02 0.  1.
    10030    2    1    2    0    0  0.00000000000E+00  0.00000000000E+00 -0.81208946910E+03  0.32061170875E+04  0.31015637142E+04 0.  0.
        5    1    3    3  502    0  0.57221702264E+03 -0.11793849195E+04 -0.12625413246E+04  0.18200037900E+04  0.46999998093E+01 0.  1.
       -5    1    3    3    0  502 -0.57221702264E+03  0.11793849195E+04  0.45045185555E+03  0.13861132975E+04  0.46999998093E+01 0. -1.
</event>
<event>
 5   0  0.1377237E-07  0.3096689E+04  0.7818609E-02  0.8216647E-01
       -2   -1    0    0    0  501  0.00000000000E+00  0.00000000000E+00  0.16052092655E+04  0.16052092655E+04  0.25500000920E-02 0.  1.
        2   -1    0    0  501    0  0.00000000000E+00  0.00000000000E+00 -0.14934945061E+04  0.14934945061E+04  0.25500000920E-02 0. -1.
    10030    2    1    2    0    0  0.00000000000E+00  0.00000000000E+00  0.11171475938E+03  0.30987037715E+04  0.30966893413E+04 0.  0.
        2    1    3    3  502    0  0.86612123519E+03 -0.71816062229E+03  0.11202459677E+04  0.15877253231E+04  0.25500000920E-02 0.  1.
       -2    1    3    3    0  502 -0.86612123519E+03  0.71816062229E+03 -0.10085312083E+04  0.15109784484E+04  0.25500000920E-02 0. -1.
</event>
<event>
 5   0  0.4517409E-08  0.3098459E+04  0.7818609E-02  0.8216161E-01
        1   -1    0    0  501    0  0.00000000000E+00  0.00000000000E+00  0.13927542315E+04  0.13927542315E+04  0.50400001928E-02 0.  1.
       -1   -1    0    0    0  501  0.00000000000E+00  0.00000000000E+00 -0.17232845364E+04  0.17232845364E+04  0.50400001928E-02 0. -1.
    10030    2    1    2    0    0  0.00000000000E+00  0.00000000000E+00 -0.33053030487E+03  0.31160387679E+04  0.30984588622E+04 0.  0.
        2    1    3    3  502    0  0.11552303600E+02 -0.23836434397E+03  0.13741585380E+04  0.13947267488E+04  0.25500000920E-02 0.  1.
       -2    1    3    3    0  502 -0.11552303600E+02  0.23836434397E+03 -0.17046888429E+04  0.17213120191E+04  0.25500000920E-02 0. -1.
</event>
<event>
 5   0  0.4470354E-08  0.3099847E+04  0.7818609E-02  0.8215780E-01
        1   -1    0    0  501    0  0.00000000000E+00  0.00000000000E+00  0.18874084904E+04  0.18874084904E+04  0.50400001928E-02 0.  1.
       -1   -1    0    0    0  501  0.00000000000E+00  0.00000000000E+00 -0.12727835894E+04  0.12727835894E+04  0.50400001928E-02 0. -1.
    10030    2    1    2    0    0  0.00000000000E+00  0.00000000000E+00  0.61462490096E+03  0.31601920798E+04  0.30998468047E+04 0.  0.
        1    1    3    3  502    0 -0.30340551379E+02  0.40022070526E+03 -0.12188831685E+04  0.12832666677E+04  0.50400001928E-02 0. -1.
       -1    1    3    3    0  502  0.30340551379E+02 -0.40022070526E+03  0.18335080694E+04  0.18769254121E+04  0.50400001928E-02 0.  1.
</event>
<event>
 5   0  0.1318916E-07  0.3099950E+04  0.7818609E-02  0.8215752E-01
       -2   -1    0    0    0  501  0.00000000000E+00  0.00000000000E+00  0.20885095248E+04  0.20885095248E+04  0.25500000920E-02 0. -1.
        2   -1    0    0  501    0  0.00000000000E+00  0.00000000000E+00 -0.11503044613E+04  0.11503044613E+04  0.25500000920E-02 0.  1.
    10030    2    1    2    0    0  0.00000000000E+00  0.00000000000E+00  0.93820506350E+03  0.32388139861E+04  0.30999495633E+04 0.  0.
        5    1    3    3  502    0 -0.15457300008E+04  0.84184893755E+02  0.55024356317E+03  0.16429115620E+04  0.46999998093E+01 0. -1.
       -5    1    3    3    0  502  0.15457300008E+04 -0.84184893755E+02  0.38796150033E+03  0.15959024241E+04  0.46999998093E+01 0.  1.
</event>
<event>
 5   0  0.1329777E-07  0.3099876E+04  0.7818609E-02  0.8215772E-01
       -2   -1    0    0    0  501  0.00000000000E+00  0.00000000000E+00  0.12843716850E+04  0.12843716850E+04  0.25500000920E-02 0.  1.
        2   -1    0    0  501    0  0.00000000000E+00  0.00000000000E+00 -0.18704149581E+04  0.18704149581E+04  0.25500000920E-02 0. -1.
    10030    2    1    2    0    0  0.00000000000E+00  0.00000000000E+00 -0.58604327309E+03  0.31547866431E+04  0.30998761339E+04 0.  0.
        1    1    3    3  502    0  0.11191234179E+04 -0.80521389325E+03  0.42769030194E+03  0.14435115631E+04  0.50400001928E-02 0. -1.
       -1    1    3    3    0  502 -0.11191234179E+04  0.80521389325E+03 -0.10137335750E+04  0.17112750800E+04  0.50400001928E-02 0.  1.
</event>
<event>
 5   0  0.4838602E-08  0.3096599E+04  0.7818609E-02  0.8216672E-01
       -1   -1    0    0    0  501  0.00000000000E+00  0.00000000000E+00  0.32406710595E+04  0.32406710595E+04  0.50400001928E-02 0.  1.
        1   -1    0    0  501    0  0.00000000000E+00  0.00000000000E+00 -0.73973295042E+03  0.73973295043E+03  0.50400001928E-02 0. -1.
    10030    2    1    2    0    0  0.00000000000E+00  0.00000000000E+00  0.25009381091E+04  0.39804040100E+04  0.30965988854E+04 0.  0.
        5    1    3    3  502    0  0.51490912232E+03 -0.83686211711E+03 -0.28759421298E+03  0.10238174294E+04  0.46999998093E+01 0. -1.
       -5    1    3    3    0  502 -0.51490912232E+03  0.83686211711E+03  0.27885323221E+04  0.29565865806E+04  0.46999998093E+01 0.  1.
</event>
<event>
 5   0  0.4436241E-08  0.3102777E+04  0.7818609E-02  0.8214976E-01
       -1   -1    0    0    0  501  0.00000000000E+00  0.00000000000E+00  0.14996235947E+04  0.14996235948E+04  0.50400001928E-02 0. -1.
        1   -1    0    0  501    0  0.00000000000E+00  0.00000000000E+00 -0.16049400420E+04  0.16049400420E+04  0.50400001928E-02 0.  1.
    10030    2    1    2    0    0  0.00000000000E+00  0.00000000000E+00 -0.10531644720E+03  0.31045636367E+04  0.31027767919E+04 0.  0.
        3    1    3    3  502    0 -0.60652415501E+03 -0.12337645864E+03 -0.14760500071E+04  0.16005676914E+04  0.10100000352E+00 0.  1.
       -3    1    3    3    0  502  0.60652415501E+03  0.12337645864E+03  0.13707335599E+04  0.15039959453E+04  0.10100000352E+00 0. -1.
</event>
<event>
 5   0  0.1318916E-07  0.3101053E+04  0.7818609E-02  0.8215449E-01
       -2   -1    0    0    0  501  0.00000000000E+00  0.00000000000E+00  0.10024164935E+04  0.10024164935E+04  0.25500000920E-02 0. -1.
        2   -1    0    0  501    0  0.00000000000E+00  0.00000000000E+00 -0.23983362780E+04  0.23983362780E+04  0.25500000920E-02 0.  1.
    10030    2    1    2    0    0  0.00000000000E+00  0.00000000000E+00 -0.13959197845E+04  0.34007527715E+04  0.31010526226E+04 0.  0.
        5    1    3    3  502    0  0.10721418691E+04  0.43026211064E+03  0.43615100497E+03  0.12348536190E+04  0.46999998093E+01 0. -1.
       -5    1    3    3    0  502 -0.10721418691E+04 -0.43026211064E+03 -0.18320707894E+04  0.21658991525E+04  0.46999998093E+01 0.  1.
</event>
<event>
 5   0  0.4436241E-08  0.3102586E+04  0.7818609E-02  0.8215028E-01
       -1   -1    0    0    0  501  0.00000000000E+00  0.00000000000E+00  0.16349457073E+04  0.16349457073E+04  0.50400001928E-02 0.  1.
        1   -1    0    0  501    0  0.00000000000E+00  0.00000000000E+00 -0.14719206921E+04  0.14719206921E+04  0.50400001928E-02 0. -1.
    10030    2    1    2    0    0  0.00000000000E+00  0.00000000000E+00  0.16302501523E+03  0.31068663994E+04  0.31025862870E+04 0.  0.
        3    1    3    3  502    0 -0.11832212891E+03 -0.16202195129E+03  0.16218995774E+04  0.16342611444E+04  0.10100000352E+00 0.  1.
       -3    1    3    3    0  502  0.11832212891E+03  0.16202195129E+03 -0.14588745621E+04  0.14726052550E+04  0.10100000352E+00 0. -1.
</event>
<event>
 5   0  0.1318916E-07  0.3097837E+04  0.7818609E-02  0.8216332E-01
        2   -1    0    0  501    0  0.00000000000E+00  0.00000000000E+00  0.12723233194E+04  0.12723233194E+04  0.25500000920E-02 0.  1.
       -2   -1    0    0    0  501  0.00000000000E+00  0.00000000000E+00 -0.18856441390E+04  0.18856441390E+04  0.25500000920E-02 0. -1.
    10030    2    1    2    0    0  0.00000000000E+00  0.00000000000E+00 -0.61332081963E+03  0.31579674584E+04  0.30978373167E+04 0.  0.
        5    1    3    3  502    0 -0.35873591581E+03 -0.73900327443E+03 -0.16452784373E+04  0.18389618058E+04  0.46999998093E+01 0. -1.
       -5    1    3    3    0  502  0.35873591581E+03  0.73900327443E+03  0.10319576177E+04  0.13190056526E+04  0.46999998093E+01 0.  1.
</event>
<event>
 5   0  0.4517409E-08  0.3102156E+04  0.7818609E-02  0.8215147E-01
        1   -1    0    0  501    0  0.00000000000E+00  0.00000000000E+00  0.13028910040E+04  0.13028910040E+04  0.50400001928E-02 0.  1.
       -1   -1    0    0    0  501  0.00000000000E+00  0.00000000000E+00 -0.18465417563E+04  0.18465417563E+04  0.50400001928E-02 0. -1.
    10030    2    1    2    0    0  0.00000000000E+00  0.00000000000E+00 -0.54365075230E+03  0.31494327604E+04  0.31021557942E+04 0.  0.
        2    1    3    3  502    0 -0.23816567940E+01 -0.14915156959E+04  0.16035921808E+03  0.15001132698E+04  0.25500000920E-02 0.  1.
       -2    1    3    3    0  502  0.23816567940E+01  0.14915156959E+04 -0.70400997037E+03  0.16493194905E+04  0.25500000920E-02 0. -1.
</event>
<event>
 5   0  0.1329777E-07  0.3100282E+04  0.7818609E-02  0.8215660E-01
        2   -1    0    0  501    0  0.00000000000E+00  0.00000000000E+00  0.92196881737E+03  0.92196881738E+03  0.25500000920E-02 0.  1.
       -2   -1    0    0    0  501  0.00000000000E+00  0.00000000000E+00 -0.26063107614E+04  0.26063107614E+04  0.25500000920E-02 0. -1.
    10030    2    1    2    0    0  0.00000000000E+00  0.00000000000E+00 -0.16843419440E+04  0.35282795788E+04  0.31002820842E+04 0.  0.
        1    1    3    3  502    0  0.12723831563E+03 -0.12267998728E+04 -0.19107941707E+04  0.22742827176E+04  0.50400001928E-02 0.  1.
       -1    1    3    3    0  502 -0.12723831563E+03  0.12267998728E+04  0.22645222665E+03  0.12539968612E+04  0.50400001928E-02 0. -1.
</event>
<event>
 5   0  0.4517409E-08  0.3101140E+04  0.7818609E-02  0.8215425E-01
       -1   -1    0    0    0  501  0.00000000000E+00  0.00000000000E+00  0.11371263610E+04  0.11371263610E+04  0.50400001928E-02 0.  1.
        1   -1    0    0  501    0  0.00000000000E+00  0.00000000000E+00 -0.21143362966E+04  0.21143362966E+04  0.50400001928E-02 0. -1.
    10030    2    1    2    0    0  0.00000000000E+00  0.00000000000E+00 -0.97720993564E+03  0.32514626576E+04  0.31011401380E+04 0.  0.
        2    1    3    3  502    0 -0.36085797210E+03 -0.42525622764E+02  0.10918587833E+04  0.11507312924E+04  0.25500000920E-02 0.  1.
       -2    1    3    3    0  502  0.36085797210E+03  0.42525622764E+02 -0.20690687190E+04  0.21007313651E+04  0.25500000920E-02 0. -1.
</event>
<event>
 5   0  0.1325713E-07  0.3099449E+04  0.7818609E-02  0.8215889E-01
       -2   -1    0    0    0  501  0.00000000000E+00  0.00000000000E+00  0.85263038892E+03  0.85263038892E+03  0.25500000920E-02 0. -1.
        2   -1    0    0  501    0  0.00000000000E+00  0.00000000000E+00 -0.28167494751E+04  0.28167494751E+04  0.25500000920E-02 0.  1.
    10030    2    1    2    0    0  0.00000000000E+00  0.00000000000E+00 -0.19641190862E+04  0.36693798640E+04  0.30994491126E+04 0.  0.
        4    1    3    3  502    0 -0.45029955390E+03 -0.13153019874E+04 -0.17142014329E+03  0.14007767434E+04  0.12699999809E+01 0. -1.
       -4    1    3    3    0  502  0.45029955390E+03  0.13153019874E+04 -0.17926989429E+04  0.22686031207E+04  0.12699999809E+01 0.  1.
</event>
<event>
 5   0  0.4450600E-08  0.3099882E+04  0.7818609E-02  0.8215770E-01
       -1   -1    0    0    0  501  0.00000000000E+00  0.00000000000E+00  0.89830064093E+03  0.89830064094E+03  0.50400001928E-02 0. -1.
        1   -1    0    0  501    0  0.00000000000E+00  0.00000000000E+00 -0.26742906517E+04  0.26742906517E+04  0.50400001928E-02 0.  1.
    10030    2    1    2    0    0  0.00000000000E+00  0.00000000000E+00 -0.17759900108E+04  0.35725912927E+04  0.30998819374E+04 0.  0.
        4    1    3    3  502    0 -0.59226289182E+03  0.51313429215E+03 -0.24291640091E+04  0.25524344322E+04  0.12699999809E+01 0.  1.
       -4    1    3    3    0  502  0.59226289182E+03 -0.51313429215E+03  0.65317399835E+03  0.10201568604E+04  0.12699999809E+01 0. -1.
</event>
<event>
 5   0  0.4517409E-08  0.3097584E+04  0.7818609E-02  0.8216401E-01
       -1   -1    0    0    0  501  0.00000000000E+00  0.00000000000E+00  0.11442327324E+04  0.11442327325E+04  0.50400001928E-02 0.  1.
        1   -1    0    0  501    0  0.00000000000E+00  0.00000000000E+00 -0.20963889182E+04  0.20963889182E+04  0.50400001928E-02 0. -1.
    10030    2    1    2    0    0  0.00000000000E+00  0.00000000000E+00 -0.95215618578E+03  0.32406216507E+04  0.30975841039E+04 0.  0.
        2    1    3    3  502    0 -0.12872525288E+04  0.69596895272E+03  0.54659603044E+02  0.14643700107E+04  0.25500000920E-02 0.  1.
       -2    1    3    3    0  502  0.12872525288E+04 -0.69596895272E+03 -0.10068157888E+04  0.17762516400E+04  0.25500000920E-02 0. -1.
</event>
<event>
 5   0  0.4838602E-08  0.3097699E+04  0.7818609E-02  0.8216370E-01
       -1   -1    0    0    0  501  0.00000000000E+00  0.00000000000E+00  0.10329010747E+04  0.10329010747E+04  0.50400001928E-02 0.  1.
        1   -1    0    0  501    0  0.00000000000E+00  0.00000000000E+00 -0.23225210951E+04  0.23225210951E+04  0.50400001928E-02 0. -1.
    10030    2    1    2    0    0  0.00000000000E+00  0.00000000000E+00 -0.12896200204E+04  0.33554221698E+04  0.30976988460E+04 0.  0.
        5    1    3    3  502    0  0.15343422582E+04 -0.21139522623E+03 -0.64017140928E+03  0.16759282891E+04  0.46999998093E+01 0. -1.
       -5    1    3    3    0  502 -0.15343422582E+04  0.21139522623E+03 -0.64944861116E+03  0.16794938807E+04  0.46999998093E+01 0.  1.
</event>
<event>
 5   0  0.4517409E-08  0.3098903E+04  0.7818609E-02  0.8216039E-01
       -1   -1    0    0    0  501  0.00000000000E+00  0.00000000000E+00  0.32303943992E+04  0.32303943992E+04  0.50400001928E-02 0. -1.
        1   -1    0    0  501    0  0.00000000000E+00  0.00000000000E+00 -0.74319108435E+03  0.74319108437E+03  0.50400001928E-02 0.  1.
    10030    2    1    2    0    0  0.00000000000E+00  0.00000000000E+00  0.24872033148E+04  0.39735854836E+04  0.30989032360E+04 0.  0.
        2    1    3    3  502    0  0.98683399648E+03 -0.77286170662E+03  0.24115412231E+04  0.27178461371E+04  0.25500000920E-02 0. -1.
       -2    1    3    3    0  502 -0.98683399648E+03  0.77286170662E+03  0.75662091754E+02  0.12557393465E+04  0.25500000920E-02 0.  1.
</event>
<event>
 5   0  0.4436241E-08  0.3099682E+04  0.7818609E-02  0.8215825E-01
       -1   -1    0    0    0  501  0.00000000000E+00  0.00000000000E+00  0.85225464155E+03  0.85225464157E+03  0.50400001928E-02 0.  1.
        1   -1    0    0  501    0  0.00000000000E+00  0.00000000000E+00 -0.28184143540E+04  0.28184143540E+04  0.50400001928E-02 0. -1.
    10030    2    1    2    0    0  0.00000000000E+00  0.00000000000E+00 -0.19661597124E+04  0.36706689955E+04  0.30996817353E+04 0.  0.
        3    1    3    3  502    0  0.96805336115E+03  0.99586692785E+03 -0.16853003207E+03  0.13990284593E+04  0.10100000352E+00 0.  1.
       -3    1    3    3    0  502 -0.96805336115E+03 -0.99586692785E+03 -0.17976296803E+04  0.22716405362E+04  0.10100000352E+00 0. -1.
</event>
<event>
 5   0  0.4838602E-08  0.3098547E+04  0.7818609E-02  0.8216137E-01
       -1   -1    0    0    0  501  0.00000000000E+00  0.00000000000E+00  0.15639392000E+04  0.15639392000E+04  0.50400001928E-02 0. -1.
        1   -1    0    0  501    0  0.00000000000E+00  0.00000000000E+00 -0.15347452406E+04  0.15347452406E+04  0.50400001928E-02 0.  1.
    10030    2    1    2    0    0  0.00000000000E+00  0.00000000000E+00  0.29193959346E+02  0.30986844406E+04  0.30985469135E+04 0.  0.
        5    1    3    3  502    0  0.15134441063E+04 -0.97031841520E+02 -0.30211553362E+03  0.15463583436E+04  0.46999998093E+01 0.  1.
       -5    1    3    3    0  502 -0.15134441063E+04  0.97031841520E+02  0.33130949297E+03  0.15523260970E+04  0.46999998093E+01 0. -1.
</event>
<event>
 5   0  0.4838602E-08  0.3099977E+04  0.7818609E-02  0.8215744E-01
       -1   -1    0    0    0  501  0.00000000000E+00  0.00000000000E+00  0.17508230324E+04  0.17508230324E+04  0.50400001928E-02 0.  1.
        1   -1    0    0  501    0  0.00000000000E+00  0.00000000000E+00 -0.13721913487E+04  0.13721913487E+04  0.50400001928E-02 0. -1.
    10030    2    1    2    0    0  0.00000000000E+00  0.00000000000E+00  0.37863168366E+03  0.31230143811E+04  0.30999769149E+04 0.  0.
        5    1    3    3  502    0  0.14202163861E+04 -0.43336375345E+03  0.63716803970E+03  0.16158044210E+04  0.46999998093E+01 0.  1.
       -5    1    3    3    0  502 -0.14202163861E+04  0.43336375345E+03 -0.25853635603E+03  0.15072099600E+04  0.46999998093E+01 0. -1.
</event>
<event>
 5   0  0.4838602E-08  0.3100221E+04  0.7818609E-02  0.8215677E-01
       -1   -1    0    0    0  501  0.00000000000E+00  0.00000000000E+00  0.13838996297E+04  0.13838996297E+04  0.50400001928E-02 0. -1.
        1   -1    0    0  501    0  0.00000000000E+00  0.00000000000E+00 -0.17362835041E+04  0.17362835041E+04  0.50400001928E-02 0.  1.
    10030    2    1    2    0    0  0.00000000000E+00  0.00000000000E+00 -0.35238387437E+03  0.31201831338E+04  0.31002207008E+04 0.  0.
        5    1    3    3  502    0  0.18483484230E+03 -0.14719664321E+02  0.13726910646E+04  0.13851654905E+04  0.46999998093E+01 0. -1.
       -5    1    3    3    0  502 -0.18483484230E+03  0.14719664321E+02 -0.17250749389E+04  0.17350176433E+04  0.46999998093E+01 0.  1.
</event>
<event>
 5   0  0.1325713E-07  0.3099708E+04  0.7818609E-02  0.8215818E-01
       -2   -1    0    0    0  501  0.00000000000E+00  0.00000000000E+00  0.91374444618E+03  0.91374444618E+03  0.25500000920E-02 0. -1.
        2   -1    0    0  501    0  0.00000000000E+00  0.00000000000E+00 -0.26287955994E+04  0.26287955994E+04  0.25500000920E-02 0.  1.
    10030    2    1    2    0    0  0.00000000000E+00  0.00000000000E+00 -0.17150511533E+04  0.35425400456E+04  0.30997079728E+04 0.  0.
        4    1    3    3  502    0 -0.27499900835E+03 -0.14555656449E+04 -0.13784377031E+04  0.20234593931E+04  0.12699999809E+01 0.  1.
       -4    1    3    3    0  502  0.27499900835E+03  0.14555656449E+04 -0.33661345016E+03  0.15190806525E+04  0.12699999809E+01 0. -1.
</event>
<event>
 5   0  0.4450600E-08  0.3101474E+04  0.7818609E-02  0.8215333E-01
        1   -1    0    0  501    0  0.00000000000E+00  0.00000000000E+00  0.13299155552E+04  0.13299155552E+04  0.50400001928E-02 0.  1.
       -1   -1    0    0    0  501  0.00000000000E+00  0.00000000000E+00 -0.18082242278E+04  0.18082242278E+04  0.50400001928E-02 0. -1.
    10030    2    1    2    0    0  0.00000000000E+00  0.00000000000E+00 -0.47830867256E+03  0.31381397830E+04  0.31014741836E+04 0.  0.
        4    1    3    3  502    0 -0.29906605895E+03 -0.15179789713E+04 -0.34567593625E+03  0.15853056900E+04  0.12699999809E+01 0. -1.
       -4    1    3    3    0  502  0.29906605895E+03  0.15179789713E+04 -0.13263273631E+03  0.15528340930E+04  0.12699999809E+01 0.  1.
</event>
<event>
 5   0  0.1398931E-07  0.3099711E+04  0.7818609E-02  0.8215817E-01
       -2   -1    0    0    0  501  0.00000000000E+00  0.00000000000E+00  0.93329003981E+03  0.93329003981E+03  0.25500000920E-02 0.  1.
        2   -1    0    0  501    0  0.00000000000E+00  0.00000000000E+00 -0.25737458060E+04  0.25737458060E+04  0.25500000920E-02 0. -1.
    10030    2    1    2    0    0  0.00000000000E+00  0.00000000000E+00 -0.16404557662E+04  0.35070358458E+04  0.30997105192E+04 0.  0.
        3    1    3    3  502    0  0.14372424148E+04  0.98817453555E+02 -0.17362014330E+03  0.14510598239E+04  0.10100000352E+00 0.  1.
       -3    1    3    3    0  502 -0.14372424148E+04 -0.98817453555E+02 -0.14668356229E+04  0.20559760220E+04  0.10100000352E+00 0. -1.
</event>
<event>
 5   0  0.1329777E-07  0.3103344E+04  0.7818609E-02  0.8214821E-01
       -2   -1    0    0    0  501  0.00000000000E+00  0.00000000000E+00  0.11706814471E+04  0.11706814471E+04  0.25500000920E-02 0. -1.
        2   -1    0    0  501    0  0.00000000000E+00  0.00000000000E+00 -0.20566535864E+04  0.20566535864E+04  0.25500000920E-02 0.  1.
    10030    2    1    2    0    0  0.00000000000E+00  0.00000000000E+00 -0.88597213931E+03  0.32273350335E+04  0.31033441296E+04 0.  0.
        1    1    3    3  502    0  0.12516765604E+04  0.49122669610E+03  0.36234955271E+03  0.13925857521E+04  0.50400001928E-02 0. -1.
       -1    1    3    3    0  502 -0.12516765604E+04 -0.49122669610E+03 -0.12483216920E+04  0.18347492814E+04  0.50400001928E-02 0.  1.
</event>
<event>
 5   0  0.4450600E-08  0.3099593E+04  0.7818609E-02  0.8215850E-01
       -1   -1    0    0    0  501  0.00000000000E+00  0.00000000000E+00  0.18616735900E+04  0.18616735900E+04  0.50400001928E-02 0. -1.
        1   -1    0    0  501    0  0.00000000000E+00  0.00000000000E+00 -0.12901662633E+04  0.12901662633E+04  0.50400001928E-02 0.  1.
    10030    2    1    2    0    0  0.00000000000E+00  0.00000000000E+00  0.57150732675E+03  0.31518398533E+04  0.30995925275E+04 0.  0.
        4    1    3    3  502    0  0.87232618545E+03 -0.10223184211E+04  0.10706315679E+04  0.17182379041E+04  0.12699999809E+01 0. -1.
       -4    1    3    3    0  502 -0.87232618545E+03  0.10223184211E+04 -0.49912424118E+03  0.14336019493E+04  0.12699999809E+01 0.  1.
</event>
<event>
 5   0  0.1329777E-07  0.3099768E+04  0.7818609E-02  0.8215802E-01
        2   -1    0    0  501    0  0.00000000000E+00  0.00000000000E+00  0.79117973685E+03  0.79117973685E+03  0.25500000920E-02 0. -1.
       -2   -1    0    0    0  501  0.00000000000E+00  0.00000000000E+00 -0.30361493936E+04  0.30361493936E+04  0.25500000920E-02 0.  1.
    10030    2    1    2    0    0  0.00000000000E+00  0.00000000000E+00 -0.22449696568E+04  0.38273291305E+04  0.30997676547E+04 0.  0.
        1    1    3    3  502    0  0.15169132750E+04  0.20815523854E+03 -0.14192928929E+04  0.20877611940E+04  0.50400001928E-02 0.  1.
       -1    1    3    3    0  502 -0.15169132750E+04 -0.20815523854E+03 -0.82567676386E+03  0.17395679365E+04  0.50400001928E-02 0. -1.
</event>
<event>
 5   0  0.1398931E-07  0.3100667E+04  0.7818609E-02  0.8215555E-01
       -2   -1    0    0    0  501  0.00000000000E+00  0.00000000000E+00  0.12869179819E+04  0.12869179819E+04  0.25500000920E-02 0. -1.
        2   -1    0    0  501    0  0.00000000000E+00  0.00000000000E+00 -0.18676664781E+04  0.18676664781E+04  0.25500000920E-02 0.  1.
    10030    2    1    2    0    0  0.00000000000E+00  0.00000000000E+00 -0.58074849618E+03  0.31545844601E+04  0.31006667508E+04 0.  0.
        3    1    3    3  502    0 -0.10225622770E+04 -0.11646025329E+04 -0.24966730854E+03  0.15697982180E+04  0.10100000352E+00 0.  1.
       -3    1    3    3    0  502  0.10225622770E+04  0.11646025329E+04 -0.33108118764E+03  0.15847862421E+04  0.10100000352E+00 0. -1.
</event>
<event>
 5   0  0.4517409E-08  0.3101287E+04  0.7818609E-02  0.8215385E-01
        1   -1    0    0  501    0  0.00000000000E+00  0.00000000000E+00  0.17796336463E+04  0.17796336463E+04  0.50400001928E-02 0. -1.
       -1   -1    0    0    0  501  0.00000000000E+00  0.00000000000E+00 -0.13511182728E+04  0.13511182728E+04  0.50400001928E-02 0.  1.
    10030    2    1    2    0    0  0.00000000000E+00  0.00000000000E+00  0.42851537350E+03  0.31307519192E+04  0.31012871770E+04 0.  0.
        2    1    3    3  502    0  0.12023923455E+04 -0.70394104001E+03  0.90132307679E+03  0.16594166533E+04  0.25500000920E-02 0. -1.
       -2    1    3    3    0  502 -0.12023923455E+04  0.70394104001E+03 -0.47280770329E+03  0.14713352659E+04  0.25500000920E-02 0.  1.
</event>
<event>
 5   0  0.1398931E-07  0.3102701E+04  0.7818609E-02  0.8214997E-01
       -2   -1    0    0    0  501  0.00000000000E+00  0.00000000000E+00  0.85276404720E+03  0.85276404721E+03  0.25500000920E-02 0. -1.
        2   -1    0    0  501    0  0.00000000000E+00  0.00000000000E+00 -0.28222199539E+04  0.28222199539E+04  0.25500000920E-02 0.  1.
    10030    2    1    2    0    0  0.00000000000E+00  0.00000000000E+00 -0.19694559067E+04  0.36749840011E+04  0.31027005721E+04 0.  0.
        3    1    3    3  502    0 -0.21106286146E+03  0.42086454954E+03 -0.27355524700E+04  0.27757740951E+04  0.10100000352E+00 0.  1.
       -3    1    3    3    0  502  0.21106286146E+03 -0.42086454954E+03  0.76609656332E+03  0.89920990602E+03  0.10100000352E+00 0. -1.
</event>
<event>
 5   0  0.4470354E-08  0.3100818E+04  0.7818609E-02  0.8215514E-01
       -1   -1    0    0    0  501  0.00000000000E+00  0.00000000000E+00  0.26386425481E+04  0.26386425482E+04  0.50400001928E-02 0.  1.
        1   -1    0    0  501    0  0.00000000000E+00  0.00000000000E+00 -0.91098652262E+03  0.91098652263E+03  0.50400001928E-02 0. -1.
    10030    2    1    2    0    0  0.00000000000E+00  0.00000000000E+00  0.17276560255E+04  0.35496290708E+04  0.31008178272E+04 0.  0.
        1    1    3    3  502    0 -0.14262757101E+04  0.14227182707E+03  0.15403527947E+04  0.21040889730E+04  0.50400001928E-02 0.  1.
       -1    1    3    3    0  502  0.14262757101E+04 -0.14227182707E+03  0.18730323079E+03  0.14455400978E+04  0.50400001928E-02 0. -1.
</event>
<event>
 5   0  0.4517409E-08  0.3099835E+04  0.7818609E-02  0.8215783E-01
        1   -1    0    0  501    0  0.00000000000E+00  0.00000000000E+00  0.22603455625E+04  0.22603455625E+04  0.50400001928E-02 0. -1.
       -1   -1    0    0    0  501  0.00000000000E+00  0.00000000000E+00 -0.10627772152E+04  0.10627772152E+04  0.50400001928E-02 0.  1.
    10030    2    1    2    0    0  0.00000000000E+00  0.00000000000E+00  0.11975683473E+04  0.33231227777E+04  0.30998346810E+04 0.  0.
        2    1    3    3  502    0 -0.15919038889E+03  0.53208265663E+03 -0.95243955268E+03  0.11025400831E+04  0.25500000920E-02 0.  1.
       -2    1    3    3    0  502  0.15919038889E+03 -0.53208265663E+03  0.21500079000E+04  0.22205826946E+04  0.25500000920E-02 0. -1.
</event>
<event>
 5   0  0.4470354E-08  0.3099188E+04  0.7818609E-02  0.8215961E-01
       -1   -1    0    0    0  501  0.00000000000E+00  0.00000000000E+00  0.89544661552E+03  0.89544661553E+03  0.50400001928E-02 0. -1.
        1   -1    0    0  501    0  0.00000000000E+00  0.00000000000E+00 -0.26816130053E+04  0.26816130053E+04  0.50400001928E-02 0.  1.
    10030    2    1    2    0    0  0.00000000000E+00  0.00000000000E+00 -0.17861663898E+04  0.35770596209E+04  0.30991878225E+04 0.  0.
        1    1    3    3  502    0 -0.13573770810E+02  0.67111266037E+03 -0.25051001668E+04  0.25934732109E+04  0.50400001928E-02 0.  1.
       -1    1    3    3    0  502  0.13573770810E+02 -0.67111266037E+03  0.71893377696E+03  0.98358640995E+03  0.50400001928E-02 0. -1.
</event>
<event>
 5   0  0.1329777E-07  0.3101189E+04  0.7818609E-02  0.8215412E-01
        2   -1    0    0  501    0  0.00000000000E+00  0.00000000000E+00  0.21106908299E+04  0.21106908299E+04  0.25500000920E-02 0.  1.
       -2   -1    0    0    0  501  0.00000000000E+00  0.00000000000E+00 -0.11391263696E+04  0.11391263696E+04  0.25500000920E-02 0. -1.
    10030    2    1    2    0    0  0.00000000000E+00  0.00000000000E+00  0.97156446029E+03  0.32498171995E+04  0.31011891799E+04 0.  0.
        1    1    3    3  502    0 -0.16547823194E+03  0.15358751337E+04  0.34500041854E+03  0.15828205079E+04  0.50400001928E-02 0.  1.
       -1    1    3    3    0  502  0.16547823194E+03 -0.15358751337E+04  0.62656404176E+03  0.16669966916E+04  0.50400001928E-02 0. -1.
</event>
<event>
 5   0  0.4470354E-08  0.3099166E+04  0.7818609E-02  0.8215967E-01
       -1   -1    0    0    0  501  0.00000000000E+00  0.00000000000E+00  0.12814808588E+04  0.12814808588E+04  0.50400001928E-02 0.  1.
        1   -1    0    0  501    0  0.00000000000E+00  0.00000000000E+00 -0.18737751482E+04  0.18737751482E+04  0.50400001928E-02 0. -1.
    10030    2    1    2    0    0  0.00000000000E+00  0.00000000000E+00 -0.59229428941E+03  0.31552560070E+04  0.30991656853E+04 0.  0.
        1    1    3    3  502    0  0.88335429274E+03 -0.43896415498E+02  0.99926682320E+03  0.13344571502E+04  0.50400001928E-02 0.  1.
       -1    1    3    3    0  502 -0.88335429274E+03  0.43896415498E+02 -0.15915611126E+04  0.18207988568E+04  0.50400001928E-02 0. -1.
</event>
<event>
 5   0  0.4450600E-08  0.3099841E+04  0.7818609E-02  0.8215782E-01
       -1   -1    0    0    0  501  0.00000000000E+00  0.00000000000E+00  0.13856715759E+04  0.13856715759E+04  0.50400001928E-02 0. -1.
        1   -1    0    0  501    0  0.00000000000E+00  0.00000000000E+00 -0.17336381770E+04  0.17336381770E+04  0.50400001928E-02 0.  1.
    10030    2    1    2    0    0  0.00000000000E+00  0.00000000000E+00 -0.34796660112E+03  0.31193097529E+04  0.30998407344E+04 0.  0.
        4    1    3    3  502    0  0.12227004952E+04  0.95228147849E+03 -0.19448320830E+03  0.15619416911E+04  0.12699999809E+01 0. -1.
       -4    1    3    3    0  502 -0.12227004952E+04 -0.95228147849E+03 -0.15348339282E+03  0.15573680618E+04  0.12699999809E+01 0.  1.
</event>
<event>
 5   0  0.1377237E-07  0.3099942E+04  0.7818609E-02  0.8215754E-01
        2   -1    0    0  501    0  0.00000000000E+00  0.00000000000E+00  0.16844027181E+04  0.16844027181E+04  0.25500000920E-02 0.  1.
       -2   -1    0    0    0  501  0.00000000000E+00  0.00000000000E+00 -0.14262685838E+04  0.14262685838E+04  0.25500000920E-02 0. -1.
    10030    2    1    2    0    0  0.00000000000E+00  0.00000000000E+00  0.25813413431E+03  0.31106713019E+04  0.30999423732E+04 0.  0.
        2    1    3    3  502    0 -0.14492044369E+04 -0.38776792236E+03 -0.26196511488E+03  0.15228864643E+04  0.25500000920E-02 0. -1.
       -2    1    3    3    0  502  0.14492044369E+04  0.38776792236E+03  0.52009924918E+03  0.15877848376E+04  0.25500000920E-02 0.  1.
</event>
<event>
 5   0  0.1377237E-07  0.3113857E+04  0.7818609E-02  0.8211945E-01
        2   -1    0    0  501    0  0.00000000000E+00  0.00000000000E+00  0.18272214549E+04  0.18272214549E+04  0.25500000920E-02 0. -1.
       -2   -1    0    0    0  501  0.00000000000E+00  0.00000000000E+00 -0.13266191452E+04  0.13266191452E+04  0.25500000920E-02 0.  1.
    10030    2    1    2    0    0  0.00000000000E+00  0.00000000000E+00  0.50060230974E+03  0.31538406002E+04  0.31138573921E+04 0.  0.
        2    1    3    3  502    0  0.12369043035E+04  0.31269105846E+03 -0.65352428795E+03  0.14334580388E+04  0.25500000920E-02 0.  1.
       -2    1    3    3    0  502 -0.12369043035E+04 -0.31269105846E+03  0.11541265977E+04  0.17203825614E+04  0.25500000920E-02 0. -1.
</event>
<event>
 5   0  0.4517409E-08  0.3097027E+04  0.7818609E-02  0.8216554E-01
        1   -1    0    0  501    0  0.00000000000E+00  0.00000000000E+00  0.10695794954E+04  0.10695794954E+04  0.50400001928E-02 0. -1.
       -1   -1    0    0    0  501  0.00000000000E+00  0.00000000000E+00 -0.22419040147E+04  0.22419040147E+04  0.50400001928E-02 0.  1.
    10030    2    1    2    0    0  0.00000000000E+00  0.00000000000E+00 -0.11723245193E+04  0.33114835101E+04  0.30970273262E+04 0.  0.
        2    1    3    3  502    0  0.11555582353E+04 -0.46447218648E+03  0.39780263623E+03  0.13074005448E+04  0.25500000920E-02 0. -1.
       -2    1    3    3    0  502 -0.11555582353E+04  0.46447218648E+03 -0.15701271556E+04  0.20040829653E+04  0.25500000920E-02 0.  1.
</event>
<event>
 5   0  0.1329777E-07  0.3098854E+04  0.7818609E-02  0.8216053E-01
        2   -1    0    0  501    0  0.00000000000E+00  0.00000000000E+00  0.93937441896E+03  0.93937441897E+03  0.25500000920E-02 0. -1.
       -2   -1    0    0    0  501  0.00000000000E+00  0.00000000000E+00 -0.25556618523E+04  0.25556618523E+04  0.25500000920E-02 0.  1.
    10030    2    1    2    0    0  0.00000000000E+00  0.00000000000E+00 -0.16162874333E+04  0.34950362713E+04  0.30988535735E+04 0.  0.
        1    1    3    3  502    0 -0.98447730867E+03 -0.66844436874E+03 -0.19273362102E+04  0.22650912371E+04  0.50400001928E-02 0.  1.
       -1    1    3    3    0  502  0.98447730867E+03  0.66844436874E+03  0.31104877685E+03  0.12299450341E+04  0.50400001928E-02 0. -1.
</event>
<event>
 5   0  0.4436241E-08  0.3094860E+04  0.7818609E-02  0.8217150E-01
       -1   -1    0    0    0  501  0.00000000000E+00  0.00000000000E+00  0.14795328400E+04  0.14795328400E+04  0.50400001928E-02 0. -1.
        1   -1    0    0  501    0  0.00000000000E+00  0.00000000000E+00 -0.16184433463E+04  0.16184433463E+04  0.50400001928E-02 0.  1.
    10030    2    1    2    0    0  0.00000000000E+00  0.00000000000E+00 -0.13891050631E+03  0.30979761864E+04  0.30948603074E+04 0.  0.
        3    1    3    3  502    0 -0.54008320050E+03 -0.14336009458E+04 -0.28793753562E+03  0.15587846451E+04  0.10100000352E+00 0.  1.
       -3    1    3    3    0  502  0.54008320050E+03  0.14336009458E+04  0.14902702932E+03  0.15391915413E+04  0.10100000352E+00 0. -1.
</event>
<event>
 5   0  0.1325713E-07  0.3098762E+04  0.7818609E-02  0.8216078E-01
       -2   -1    0    0    0  501  0.00000000000E+00  0.00000000000E+00  0.11494460198E+04  0.11494460198E+04  0.25500000920E-02 0. -1.
        2   -1    0    0  501    0  0.00000000000E+00  0.00000000000E+00 -0.20884683542E+04  0.20884683542E+04  0.25500000920E-02 0.  1.
    10030    2    1    2    0    0  0.00000000000E+00  0.00000000000E+00 -0.93902233444E+03  0.32379143740E+04  0.30987620995E+04 0.  0.
        4    1    3    3  502    0  0.64212413868E+03 -0.13968553242E+04 -0.26837883622E+03  0.15606271235E+04  0.12699999809E+01 0.  1.
       -4    1    3    3    0  502 -0.64212413868E+03  0.13968553242E+04 -0.67064349822E+03  0.16772872505E+04  0.12699999809E+01 0. -1.
</event>
<event>
 5   0  0.1318916E-07  0.3099958E+04  0.7818609E-02  0.8215749E-01
        2   -1    0    0  501    0  0.00000000000E+00  0.00000000000E+00  0.16842856874E+04  0.16842856874E+04  0.25500000920E-02 0.  1.
       -2   -1    0    0    0  501  0.00000000000E+00  0.00000000000E+00 -0.14263821020E+04  0.14263821020E+04  0.25500000920E-02 0. -1.
    10030    2    1    2    0    0  0.00000000000E+00  0.00000000000E+00  0.25790358534E+03  0.31106677894E+04  0.30999580379E+04 0.  0.
        5    1    3    3  502    0 -0.16221544540E+03  0.15407475859E+04  0.17597406588E+03  0.15592324830E+04  0.46999998093E+01 0. -1.
       -5    1    3    3    0  502  0.16221544540E+03 -0.15407475859E+04  0.81929519462E+02  0.15514353065E+04  0.46999998093E+01 0.  1.
</event>
<event>
 5   0  0.1398931E-07  0.3098129E+04  0.7818609E-02  0.8216252E-01
       -2   -1    0    0    0  501  0.00000000000E+00  0.00000000000E+00  0.13279360405E+04  0.13279360405E+04  0.25500000920E-02 0.  1.
        2   -1    0    0  501    0  0.00000000000E+00  0.00000000000E+00 -0.18070154161E+04  0.18070154161E+04  0.25500000920E-02 0. -1.
    10030    2    1    2    0    0  0.00000000000E+00  0.00000000000E+00 -0.47907937555E+03  0.31349514566E+04  0.30981290462E+04 0.  0.
        3    1    3    3  502    0  0.14220096836E+02 -0.63679776314E+03  0.11892937950E+04  0.13491231757E+04  0.10100000352E+00 0.  1.
       -3    1    3    3    0  502 -0.14220096836E+02  0.63679776314E+03 -0.16683731705E+04  0.17858282808E+04  0.10100000352E+00 0. -1.
</event>
<event>
 5   0  0.4470354E-08  0.3114123E+04  0.7818609E-02  0.8211873E-01
       -1   -1    0    0    0  501  0.00000000000E+00  0.00000000000E+00  0.11662965747E+04  0.11662965748E+04  0.50400001928E-02 0. -1.
        1   -1    0    0  501    0  0.00000000000E+00  0.00000000000E+00 -0.20787511938E+04  0.20787511938E+04  0.50400001928E-02 0.  1.
    10030    2    1    2    0    0  0.00000000000E+00  0.00000000000E+00 -0.91245461905E+03  0.32450477686E+04  0.31141229244E+04 0.  0.
        1    1    3    3  502    0  0.85837749355E+03  0.84391880732E+03 -0.14853882390E+04  0.19119071879E+04  0.50400001928E-02 0.  1.
       -1    1    3    3    0  502 -0.85837749355E+03 -0.84391880732E+03  0.57293361994E+03  0.13331405806E+04  0.50400001928E-02 0. -1.
</event>
<event>
 5   0  0.4517409E-08  0.3089956E+04  0.7818609E-02  0.8218500E-01
       -1   -1    0    0    0  501  0.00000000000E+00  0.00000000000E+00  0.11204031176E+04  0.11204031176E+04  0.50400001928E-02 0.  1.
        1   -1    0    0  501    0  0.00000000000E+00  0.00000000000E+00 -0.21304450381E+04  0.21304450381E+04  0.50400001928E-02 0. -1.
    10030    2    1    2    0    0  0.00000000000E+00  0.00000000000E+00 -0.10100419205E+04  0.32508481557E+04  0.30899561567E+04 0.  0.
        2    1    3    3  502    0  0.81074663598E+03  0.72332745947E+03  0.65055380267E+03  0.12663857910E+04  0.25500000920E-02 0.  1.
       -2    1    3    3    0  502 -0.81074663598E+03 -0.72332745947E+03 -0.16605957232E+04  0.19844623648E+04  0.25500000920E-02 0. -1.
</event>
<event>
 5   0  0.4517409E-08  0.3100383E+04  0.7818609E-02  0.8215633E-01
        1   -1    0    0  501    0  0.00000000000E+00  0.00000000000E+00  0.13411595316E+04  0.13411595316E+04  0.50400001928E-02 0.  1.
       -1   -1    0    0    0  501  0.00000000000E+00  0.00000000000E+00 -0.17918025688E+04  0.17918025688E+04  0.50400001928E-02 0. -1.
    10030    2    1    2    0    0  0.00000000000E+00  0.00000000000E+00 -0.45064303720E+03  0.31329621003E+04  0.31003826175E+04 0.  0.
        2    1    3    3  502    0  0.72395904438E+03  0.11446562734E+04  0.53675069750E+03  0.14568651253E+04  0.25500000920E-02 0.  1.
       -2    1    3    3    0  502 -0.72395904438E+03 -0.11446562734E+04 -0.98739373470E+03  0.16760969750E+04  0.25500000920E-02 0. -1.
</event>
<event>
 5   0  0.1377237E-07  0.3099940E+04  0.7818609E-02  0.8215754E-01
       -2   -1    0    0    0  501  0.00000000000E+00  0.00000000000E+00  0.13841803376E+04  0.13841803377E+04  0.25500000920E-02 0. -1.
        2   -1    0    0  501    0  0.00000000000E+00  0.00000000000E+00 -0.17356167168E+04  0.17356167168E+04  0.25500000920E-02 0.  1.
    10030    2    1    2    0    0  0.00000000000E+00  0.00000000000E+00 -0.35143637914E+03  0.31197970544E+04  0.30999396982E+04 0.  0.
        2    1    3    3  502    0  0.10033850270E+04 -0.67051009475E+03 -0.11545952041E+04  0.16701662746E+04  0.25500000920E-02 0.  1.
       -2    1    3    3    0  502 -0.10033850270E+04  0.67051009475E+03  0.80315882499E+03  0.14496307798E+04  0.25500000920E-02 0. -1.
</event>
<event>
 5   0  0.1325713E-07  0.3107816E+04  0.7818609E-02  0.8213596E-01
        2   -1    0    0  501    0  0.00000000000E+00  0.00000000000E+00  0.18807424046E+04  0.18807424046E+04  0.25500000920E-02 0.  1.
       -2   -1    0    0    0  501  0.00000000000E+00  0.00000000000E+00 -0.12838705191E+04  0.12838705191E+04  0.25500000920E-02 0. -1.
    10030    2    1    2    0    0  0.00000000000E+00  0.00000000000E+00  0.59687188552E+03  0.31646129238E+04  0.31078157779E+04 0.  0.
        4    1    3    3  502    0  0.60150384709E+03  0.90707608642E+03  0.14277739004E+04  0.17953088392E+04  0.12699999809E+01 0.  1.
       -4    1    3    3    0  502 -0.60150384709E+03 -0.90707608642E+03 -0.83090201490E+03  0.13693040845E+04  0.12699999809E+01 0. -1.
</event>
<event>
 5   0  0.1318916E-07  0.3100011E+04  0.7818609E-02  0.8215735E-01
       -2   -1    0    0    0  501  0.00000000000E+00  0.00000000000E+00  0.14157481522E+04  0.14157481522E+04  0.25500000920E-02 0.  1.
        2   -1    0    0  501    0  0.00000000000E+00  0.00000000000E+00 -0.16969943293E+04  0.16969943293E+04  0.25500000920E-02 0. -1.
    10030    2    1    2    0    0  0.00000000000E+00  0.00000000000E+00 -0.28124617711E+03  0.31127424816E+04  0.31000107007E+04 0.  0.
        5    1    3    3  502    0  0.11169154432E+04  0.99240024703E+03 -0.55479275250E+03  0.15937927864E+04  0.46999998093E+01 0. -1.
       -5    1    3    3    0  502 -0.11169154432E+04 -0.99240024703E+03  0.27354657539E+03  0.15189496952E+04  0.46999998093E+01 0.  1.
</event>
<event>
 5   0  0.4470354E-08  0.3100379E+04  0.7818609E-02  0.8215634E-01
       -1   -1    0    0    0  501  0.00000000000E+00  0.00000000000E+00  0.16176979297E+04  0.16176979297E+04  0.50400001928E-02 0.  1.
        1   -1    0    0  501    0  0.00000000000E+00  0.00000000000E+00 -0.14854986802E+04  0.14854986802E+04  0.50400001928E-02 0. -1.
    10030    2    1    2    0    0  0.00000000000E+00  0.00000000000E+00  0.13219924955E+03  0.31031966099E+04  0.31003794216E+04 0.  0.
        1    1    3    3  502    0  0.10973079687E+04 -0.13822245485E+03 -0.10211184484E+04  0.15052817381E+04  0.50400001928E-02 0. -1.
       -1    1    3    3    0  502 -0.10973079687E+04  0.13822245485E+03  0.11533176980E+04  0.15979148718E+04  0.50400001928E-02 0.  1.
</event>
<event>
 5   0  0.4450600E-08  0.3086193E+04  0.7818609E-02  0.8219537E-01
        1   -1    0    0  501    0  0.00000000000E+00  0.00000000000E+00  0.17755988325E+04  0.17755988325E+04  0.50400001928E-02 0. -1.
       -1   -1    0    0    0  501  0.00000000000E+00  0.00000000000E+00 -0.13410390849E+04  0.13410390849E+04  0.50400001928E-02 0.  1.
    10030    2    1    2    0    0  0.00000000000E+00  0.00000000000E+00  0.43455974763E+03  0.31166379175E+04  0.30861934052E+04 0.  0.
        4    1    3    3  502    0  0.18952548053E+03 -0.82451288059E+03  0.15205158731E+04  0.17400320489E+04  0.12699999809E+01 0. -1.
       -4    1    3    3    0  502 -0.18952548053E+03  0.82451288059E+03 -0.10859561254E+04  0.13766058685E+04  0.12699999809E+01 0.  1.
</event>
<event>
 5   0  0.1377237E-07  0.3117843E+04  0.7818609E-02  0.8210858E-01
        2   -1    0    0  501    0  0.00000000000E+00  0.00000000000E+00  0.21431139470E+04  0.21431139470E+04  0.25500000920E-02 0. -1.
       -2   -1    0    0    0  501  0.00000000000E+00  0.00000000000E+00 -0.11339739975E+04  0.11339739975E+04  0.25500000920E-02 0.  1.
    10030    2    1    2    0    0  0.00000000000E+00  0.00000000000E+00  0.10091399494E+04  0.32770879445E+04  0.31178425166E+04 0.  0.
        2    1    3    3  502    0  0.41794398705E+03 -0.13977201295E+04 -0.72983114912E+02  0.14606934215E+04  0.25500000920E-02 0.  1.
       -2    1    3    3    0  502 -0.41794398705E+03  0.13977201295E+04  0.10821230643E+04  0.18163945230E+04  0.25500000920E-02 0. -1.
</event>
<event>
 5   0  0.1329777E-07  0.3102175E+04  0.7818609E-02  0.8215141E-01
       -2   -1    0    0    0  501  0.00000000000E+00  0.00000000000E+00  0.11647553151E+04  0.11647553151E+04  0.25500000920E-02 0. -1.
        2   -1    0    0  501    0  0.00000000000E+00  0.00000000000E+00 -0.20655607891E+04  0.20655607891E+04  0.25500000920E-02 0.  1.
    10030    2    1    2    0    0  0.00000000000E+00  0.00000000000E+00 -0.90080547394E+03  0.32303161042E+04  0.31021753063E+04 0.  0.
        1    1    3    3  502    0  0.67485294456E+03  0.84417933730E+03 -0.16089273598E+04  0.19382240581E+04  0.50400001928E-02 0.  1.
       -1    1    3    3    0  502 -0.67485294456E+03 -0.84417933730E+03  0.70812188584E+03  0.12920920461E+04  0.50400001928E-02 0. -1.
</event>
<event>
 5   0  0.1329777E-07  0.3099491E+04  0.7818609E-02  0.8215878E-01
       -2   -1    0    0    0  501  0.00000000000E+00  0.00000000000E+00  0.19073545545E+04  0.19073545545E+04  0.25500000920E-02 0. -1.
        2   -1    0    0  501    0  0.00000000000E+00  0.00000000000E+00 -0.12591844524E+04  0.12591844524E+04  0.25500000920E-02 0.  1.
    10030    2    1    2    0    0  0.00000000000E+00  0.00000000000E+00  0.64817010216E+03  0.31665390069E+04  0.30994910552E+04 0.  0.
        1    1    3    3  502    0  0.72469204155E+03 -0.61136731129E+03 -0.92830512405E+03  0.13269133158E+04  0.50400001928E-02 0.  1.
       -1    1    3    3    0  502 -0.72469204155E+03  0.61136731129E+03  0.15764752262E+04  0.18396256911E+04  0.50400001928E-02 0. -1.
</event>
<event>
 5   0  0.4517409E-08  0.3095233E+04  0.7818609E-02  0.8217047E-01
       -1   -1    0    0    0  501  0.00000000000E+00  0.00000000000E+00  0.12496447040E+04  0.12496447040E+04  0.50400001928E-02 0. -1.
        1   -1    0    0  501    0  0.00000000000E+00  0.00000000000E+00 -0.19166380129E+04  0.19166380129E+04  0.50400001928E-02 0.  1.
    10030    2    1    2    0    0  0.00000000000E+00  0.00000000000E+00 -0.66699330894E+03  0.31662827169E+04  0.30952328134E+04 0.  0.
        2    1    3    3  502    0  0.59118607543E+03 -0.10936955732E+04  0.60931326853E+03  0.13845337272E+04  0.25500000920E-02 0. -1.
       -2    1    3    3    0  502 -0.59118607543E+03  0.10936955732E+04 -0.12763065775E+04  0.17817489897E+04  0.25500000920E-02 0.  1.
</event>
<event>
 5   0  0.1318916E-07  0.3099840E+04  0.7818609E-02  0.8215782E-01
       -2   -1    0    0    0  501  0.00000000000E+00  0.00000000000E+00  0.13300248045E+04  0.13300248045E+04  0.25500000920E-02 0.  1.
        2   -1    0    0  501    0  0.00000000000E+00  0.00000000000E+00 -0.18061704944E+04  0.18061704944E+04  0.25500000920E-02 0. -1.
    10030    2    1    2    0    0  0.00000000000E+00  0.00000000000E+00 -0.47614568993E+03  0.31361952989E+04  0.30998397111E+04 0.  0.
        5    1    3    3  502    0 -0.46427817578E+02  0.15418176262E+04 -0.85063096225E+02  0.15448672937E+04  0.46999998093E+01 0. -1.
       -5    1    3    3    0  502  0.46427817578E+02 -0.15418176262E+04 -0.39108259371E+03  0.15913280051E+04  0.46999998093E+01 0.  1.
</event>
<event>
 5   0  0.4450600E-08  0.3099043E+04  0.7818609E-02  0.8216001E-01
        1   -1    0    0  501    0  0.00000000000E+00  0.00000000000E+00  0.19794061444E+04  0.19794061444E+04  0.50400001928E-02 0.  1.
       -1   -1    0    0    0  501  0.00000000000E+00  0.00000000000E+00 -0.12129983842E+04  0.12129983842E+04  0.50400001928E-02 0. -1.
    10030    2    1    2    0    0  0.00000000000E+00  0.00000000000E+00  0.76640776019E+03  0.31924045286E+04  0.30990427262E+04 0.  0.
        4    1    3    3  502    0  0.88908260580E+03 -0.47458543633E+03 -0.82924858478E+03  0.13051260646E+04  0.12699999809E+01 0. -1.
       -4    1    3    3    0  502 -0.88908260580E+03  0.47458543633E+03  0.15956563450E+04  0.18872784639E+04  0.12699999809E+01 0.  1.
</event>
<event>
 5   0  0.4470354E-08  0.3101391E+04  0.7818609E-02  0.8215356E-01
       -1   -1    0    0    0  501  0.00000000000E+00  0.00000000000E+00  0.13484852045E+04  0.13484852045E+04  0.50400001928E-02 0.  1.
        1   -1    0    0  501    0  0.00000000000E+00  0.00000000000E+00 -0.17832280102E+04  0.17832280102E+04  0.50400001928E-02 0. -1.
    10030    2    1    2    0    0  0.00000000000E+00  0.00000000000E+00 -0.43474280568E+03  0.31317132147E+04  0.31013910350E+04 0.  0.
        1    1    3    3  502    0 -0.81056761732E+03  0.10338881623E+04 -0.10492658387E+04  0.16813397619E+04  0.50400001928E-02 0. -1.
       -1    1    3    3    0  502  0.81056761732E+03 -0.10338881623E+04  0.61452303305E+03  0.14503734528E+04  0.50400001928E-02 0.  1.
</event>
<event>
 5   0  0.4470354E-08  0.3098944E+04  0.7818609E-02  0.8216028E-01
       -1   -1    0    0    0  501  0.00000000000E+00  0.00000000000E+00  0.13541878783E+04  0.13541878783E+04  0.50400001928E-02 0. -1.
        1   -1    0    0  501    0  0.00000000000E+00  0.00000000000E+00 -0.17729180504E+04  0.17729180504E+04  0.50400001928E-02 0.  1.
    10030    2    1    2    0    0  0.00000000000E+00  0.00000000000E+00 -0.41873017209E+03  0.31271059287E+04  0.30989444223E+04 0.  0.
        1    1    3    3  502    0  0.12424071096E+03  0.15444772523E+04 -0.20503705271E+03  0.15629734259E+04  0.50400001928E-02 0. -1.
       -1    1    3    3    0  502 -0.12424071096E+03 -0.15444772523E+04 -0.21369311938E+03  0.15641325028E+04  0.50400001928E-02 0.  1.
</event>
<event>
 5   0  0.4517409E-08  0.3100063E+04  0.7818609E-02  0.8215721E-01
       -1   -1    0    0    0  501  0.00000000000E+00  0.00000000000E+00  0.15657918935E+04  0.15657918935E+04  0.50400001928E-02 0.  1.
        1   -1    0    0  501    0  0.00000000000E+00  0.00000000000E+00 -0.15344293437E+04  0.15344293437E+04  0.50400001928E-02 0. -1.
    10030    2    1    2    0    0  0.00000000000E+00  0.00000000000E+00  0.31362549725E+02  0.31002212372E+04  0.31000625978E+04 0.  0.
        2    1    3    3  502    0 -0.63011573408E+03 -0.10085220153E+04  0.10099326006E+04  0.15601686933E+04  0.25500000920E-02 0.  1.
       -2    1    3    3    0  502  0.63011573408E+03  0.10085220153E+04 -0.97857005086E+03  0.15400525440E+04  0.25500000920E-02 0. -1.
</event>
<event>
 5   0  0.4436241E-08  0.3100620E+04  0.7818609E-02  0.8215568E-01
        1   -1    0    0  501    0  0.00000000000E+00  0.00000000000E+00  0.10048394812E+04  0.10048394812E+04  0.50400001928E-02 0. -1.
       -1   -1    0    0    0  501  0.00000000000E+00  0.00000000000E+00 -0.23918862510E+04  0.23918862510E+04  0.50400001928E-02 0.  1.
    10030    2    1    2    0    0  0.00000000000E+00  0.00000000000E+00 -0.13870467698E+04  0.33967257322E+04  0.31006204150E+04 0.  0.
        3    1    3    3  502    0 -0.24038799448E+03  0.97892947496E+03  0.59682923575E+03  0.11714497222E+04  0.10100000352E+00 0. -1.
       -3    1    3    3    0  502  0.24038799448E+03 -0.97892947496E+03 -0.19838760055E+04  0.22252760099E+04  0.10100000352E+00 0.  1.
</event>
<event>
 5   0  0.1398931E-07  0.3097984E+04  0.7818609E-02  0.8216292E-01
        2   -1    0    0  501    0  0.00000000000E+00  0.00000000000E+00  0.28970240894E+04  0.28970240894E+04  0.25500000920E-02 0. -1.
       -2   -1    0    0    0  501  0.00000000000E+00  0.00000000000E+00 -0.82822076652E+03  0.82822076653E+03  0.25500000920E-02 0.  1.
    10030    2    1    2    0    0  0.00000000000E+00  0.00000000000E+00  0.20688033229E+04  0.37252448559E+04  0.30979835455E+04 0.  0.
        3    1    3    3  502    0 -0.80642351015E+03 -0.12085419966E+04  0.16802577073E+04  0.22212966053E+04  0.10100000352E+00 0. -1.
       -3    1    3    3    0  502  0.80642351015E+03  0.12085419966E+04  0.38854561554E+03  0.15039482507E+04  0.10100000352E+00 0.  1.
</event>
<event>
 5   0  0.4436241E-08  0.3101986E+04  0.7818609E-02  0.8215193E-01
        1   -1    0    0  501    0  0.00000000000E+00  0.00000000000E+00  0.22374884064E+04  0.22374884064E+04  0.50400001928E-02 0. -1.
       -1   -1    0    0    0  501  0.00000000000E+00  0.00000000000E+00 -0.10751250924E+04  0.10751250924E+04  0.50400001928E-02 0.  1.
    10030    2    1    2    0    0  0.00000000000E+00  0.00000000000E+00  0.11623633140E+04  0.33126134987E+04  0.31019864149E+04 0.  0.
        3    1    3    3  502    0 -0.51217309514E+03  0.13499613147E+03  0.21379137804E+04  0.22025486549E+04  0.10100000352E+00 0. -1.
       -3    1    3    3    0  502  0.51217309514E+03 -0.13499613147E+03 -0.97555046634E+03  0.11100648438E+04  0.10100000352E+00 0.  1.
</event>
<event>
 5   0  0.1325713E-07  0.3100275E+04  0.7818609E-02  0.8215662E-01
       -2   -1    0    0    0  501  0.00000000000E+00  0.00000000000E+00  0.18376810029E+04  0.18376810029E+04  0.25500000920E-02 0. -1.
        2   -1    0    0  501    0  0.00000000000E+00  0.00000000000E+00 -0.13075862739E+04  0.13075862739E+04  0.25500000920E-02 0.  1.
    10030    2    1    2    0    0  0.00000000000E+00  0.00000000000E+00  0.53009472898E+03  0.31452672768E+04  0.31002751201E+04 0.  0.
        4    1    3    3  502    0  0.37079145405E+01  0.35118848021E+02 -0.13071776066E+04  0.13076551496E+04  0.12699999809E+01 0.  1.
       -4    1    3    3    0  502 -0.37079145405E+01 -0.35118848021E+02  0.18372723356E+04  0.18376121272E+04  0.12699999809E+01 0. -1.
</event>
<event>
 5   0  0.1398931E-07  0.3099325E+04  0.7818609E-02  0.8215923E-01
        2   -1    0    0  501    0  0.00000000000E+00  0.00000000000E+00  0.20101761686E+04  0.20101761686E+04  0.25500000920E-02 0. -1.
       -2   -1    0    0    0  501  0.00000000000E+00  0.00000000000E+00 -0.11946485523E+04  0.11946485523E+04  0.25500000920E-02 0.  1.
    10030    2    1    2    0    0  0.00000000000E+00  0.00000000000E+00  0.81552761627E+03  0.32048247209E+04  0.30993251199E+04 0.  0.
        3    1    3    3  502    0  0.11053247356E+04 -0.50247526657E+03  0.14034691881E+04  0.18557882252E+04  0.10100000352E+00 0. -1.
       -3    1    3    3    0  502 -0.11053247356E+04  0.50247526657E+03 -0.58794157184E+03  0.13490364957E+04  0.10100000352E+00 0.  1.
</event>
<event>
 5   0  0.1377237E-07  0.3099420E+04  0.7818609E-02  0.8215897E-01
        2   -1    0    0  501    0  0.00000000000E+00  0.00000000000E+00  0.24588066494E+04  0.24588066494E+04  0.25500000920E-02 0.  1.
       -2   -1    0    0    0  501  0.00000000000E+00  0.00000000000E+00 -0.97673427386E+03  0.97673427386E+03  0.25500000920E-02 0. -1.
    10030    2    1    2    0    0  0.00000000000E+00  0.00000000000E+00  0.14820723755E+04  0.34355409232E+04  0.30994197697E+04 0.  0.
        2    1    3    3  502    0 -0.14113099341E+04  0.86127919310E+02  0.14441679011E+04  0.20210973938E+04  0.25500000920E-02 0.  1.
       -2    1    3    3    0  502  0.14113099341E+04 -0.86127919310E+02  0.37904474411E+02  0.14144435294E+04  0.25500000920E-02 0. -1.
</event>
<event>
 5   0  0.4838602E-08  0.3100672E+04  0.7818609E-02  0.8215553E-01
       -1   -1    0    0    0  501  0.00000000000E+00  0.00000000000E+00  0.13332771031E+04  0.13332771031E+04  0.50400001928E-02 0. -1.
        1   -1    0    0  501    0  0.00000000000E+00  0.00000000000E+00 -0.18027327935E+04  0.18027327935E+04  0.50400001928E-02 0.  1.
    10030    2    1    2    0    0  0.00000000000E+00  0.00000000000E+00 -0.46945569044E+03  0.31360098966E+04  0.31006724152E+04 0.  0.
        5    1    3    3  502    0  0.13829826293E+03  0.11614947410E+04  0.79437704696E+03  0.14139495838E+04  0.46999998093E+01 0. -1.
       -5    1    3    3    0  502 -0.13829826293E+03 -0.11614947410E+04 -0.12638327374E+04  0.17220603128E+04  0.46999998093E+01 0.  1.
</event>
<event>
 5   0  0.4470354E-08  0.3099641E+04  0.7818609E-02  0.8215836E-01
        1   -1    0    0  501    0  0.00000000000E+00  0.00000000000E+00  0.16782435362E+04  0.16782435362E+04  0.50400001928E-02 0. -1.
       -1   -1    0    0    0  501  0.00000000000E+00  0.00000000000E+00 -0.14312245326E+04  0.14312245326E+04  0.50400001928E-02 0.  1.
    10030    2    1    2    0    0  0.00000000000E+00  0.00000000000E+00  0.24701900359E+03  0.31094680689E+04  0.30996408313E+04 0.  0.
        1    1    3    3  502    0 -0.87033480821E+02  0.13006321007E+04 -0.71743496384E+03  0.14879286326E+04  0.50400001928E-02 0.  1.
       -1    1    3    3    0  502  0.87033480821E+02 -0.13006321007E+04  0.96445396743E+03  0.16215394363E+04  0.50400001928E-02 0. -1.
</event>
<event>
 5   0  0.1329777E-07  0.3102277E+04  0.7818609E-02  0.8215113E-01
       -2   -1    0    0    0  501  0.00000000000E+00  0.00000000000E+00  0.98999246349E+03  0.98999246350E+03  0.25500000920E-02 0. -1.
        2   -1    0    0  501    0  0.00000000000E+00  0.00000000000E+00 -0.24303525372E+04  0.24303525372E+04  0.25500000920E-02 0.  1.
    10030    2    1    2    0    0  0.00000000000E+00  0.00000000000E+00 -0.14403600737E+04  0.34203450007E+04  0.31022770318E+04 0.  0.
        1    1    3    3  502    0 -0.51574619010E+03  0.14569255930E+04 -0.86563167219E+03  0.17714244291E+04  0.50400001928E-02 0. -1.
       -1    1    3    3    0  502  0.51574619010E+03 -0.14569255930E+04 -0.57472840154E+03  0.16489205716E+04  0.50400001928E-02 0.  1.
</event>
<event>
 5   0  0.1325713E-07  0.3097733E+04  0.7818609E-02  0.8216360E-01
        2   -1    0    0  501    0  0.00000000000E+00  0.00000000000E+00  0.12619415701E+04  0.12619415701E+04  0.25500000920E-02 0.  1.
       -2   -1    0    0    0  501  0.00000000000E+00  0.00000000000E+00 -0.19010292944E+04  0.19010292944E+04  0.25500000920E-02 0. -1.
    10030    2    1    2    0    0  0.00000000000E+00  0.00000000000E+00 -0.63908772434E+03  0.31629708645E+04  0.30977332955E+04 0.  0.
        4    1    3    3  502    0 -0.73764672319E+02  0.16695449867E+02  0.12600545256E+04  0.12623228531E+04  0.12699999809E+01 0.  1.
       -4    1    3    3    0  502  0.73764672319E+02 -0.16695449867E+02 -0.18991422500E+04  0.19006480114E+04  0.12699999809E+01 0. -1.
</event>
<event>
 5   0  0.4517409E-08  0.3100110E+04  0.7818609E-02  0.8215708E-01
       -1   -1    0    0    0  501  0.00000000000E+00  0.00000000000E+00  0.12311393224E+04  0.12311393224E+04  0.50400001928E-02 0. -1.
        1   -1    0    0  501    0  0.00000000000E+00  0.00000000000E+00 -0.19515828252E+04  0.19515828252E+04  0.50400001928E-02 0.  1.
    10030    2    1    2    0    0  0.00000000000E+00  0.00000000000E+00 -0.72044350281E+03  0.31827221475E+04  0.31001099057E+04 0.  0.
        2    1    3    3  502    0  0.32411701109E+03  0.14929131873E+04 -0.62956527057E+03  0.16523298858E+04  0.25500000920E-02 0.  1.
       -2    1    3    3    0  502 -0.32411701109E+03 -0.14929131873E+04 -0.90878232233E+02  0.15303922617E+04  0.25500000920E-02 0. -1.
</event>
<event>
 5   0  0.1398931E-07  0.3097056E+04  0.7818609E-02  0.8216546E-01
        2   -1    0    0  501    0  0.00000000000E+00  0.00000000000E+00  0.15088541106E+04  0.15088541106E+04  0.25500000920E-02 0.  1.
       -2   -1    0    0    0  501  0.00000000000E+00  0.00000000000E+00 -0.15892454625E+04  0.15892454625E+04  0.25500000920E-02 0. -1.
    10030    2    1    2    0    0  0.00000000000E+00  0.00000000000E+00 -0.80391351860E+02  0.30980995731E+04  0.30970563759E+04 0.  0.
        3    1    3    3  502    0  0.77142817345E+03 -0.12976884399E+04 -0.38504767180E+03  0.15579982136E+04  0.10100000352E+00 0. -1.
       -3    1    3    3    0  502 -0.77142817345E+03  0.12976884399E+04  0.30465631994E+03  0.15401013595E+04  0.10100000352E+00 0.  1.
</event>
<event>
 5   0  0.1325713E-07  0.3100614E+04  0.7818609E-02  0.8215569E-01
        2   -1    0    0  501    0  0.00000000000E+00  0.00000000000E+00  0.89973926316E+03  0.89973926316E+03  0.25500000920E-02 0. -1.
       -2   -1    0    0    0  501  0.00000000000E+00  0.00000000000E+00 -0.26712760174E+04  0.26712760174E+04  0.25500000920E-02 0.  1.
    10030    2    1    2    0    0  0.00000000000E+00  0.00000000000E+00 -0.17715367543E+04  0.35710152806E+04  0.31006140783E+04 0.  0.
        4    1    3    3  502    0  0.42539565397E+03  0.98808451680E+03  0.39991492630E+03  0.11476959684E+04  0.12699999809E+01 0. -1.
       -4    1    3    3    0  502 -0.42539565397E+03 -0.98808451680E+03 -0.21714516806E+04  0.24233193122E+04  0.12699999809E+01 0.  1.
</event>
<event>
 5   0  0.4838602E-08  0.3099979E+04  0.7818609E-02  0.8215744E-01
        1   -1    0    0  501    0  0.00000000000E+00  0.00000000000E+00  0.71274179138E+03  0.71274179140E+03  0.50400001928E-02 0.  1.
       -1   -1    0    0    0  501  0.00000000000E+00  0.00000000000E+00 -0.33707407444E+04  0.33707407444E+04  0.50400001928E-02 0. -1.
    10030    2    1    2    0    0  0.00000000000E+00  0.00000000000E+00 -0.26579989530E+04  0.40834825358E+04  0.30999792235E+04 0.  0.
        5    1    3    3  502    0 -0.22178325631E+03 -0.15279009804E+04 -0.15095002633E+04  0.21592318897E+04  0.46999998093E+01 0. -1.
       -5    1    3    3    0  502  0.22178325631E+03  0.15279009804E+04 -0.11484986897E+04  0.19242506461E+04  0.46999998093E+01 0.  1.
</event>
<event>
 5   0  0.4517409E-08  0.3100343E+04  0.7818609E-02  0.8215644E-01
       -1   -1    0    0    0  501  0.00000000000E+00  0.00000000000E+00  0.10223671706E+04  0.10223671706E+04  0.50400001928E-02 0.  1.
        1   -1    0    0  501    0  0.00000000000E+00  0.00000000000E+00 -0.23504582281E+04  0.23504582281E+04  0.50400001928E-02 0. -1.
    10030    2    1    2    0    0  0.00000000000E+00  0.00000000000E+00 -0.13280910574E+04  0.33728253987E+04  0.31003427735E+04 0.  0.
        2    1    3    3  502    0  0.32295086688E+03 -0.21382816408E+03 -0.22969691061E+04  0.23293962352E+04  0.25500000920E-02 0. -1.
       -2    1    3    3    0  502 -0.32295086688E+03  0.21382816408E+03  0.96887804865E+03  0.10434291635E+04  0.25500000920E-02 0.  1.
</event>
<event>
 5   0  0.1325713E-07  0.3098758E+04  0.7818609E-02  0.8216079E-01
       -2   -1    0    0    0  501  0.00000000000E+00  0.00000000000E+00  0.11575676877E+04  0.11575676877E+04  0.25500000920E-02 0.  1.
        2   -1    0    0  501    0  0.00000000000E+00  0.00000000000E+00 -0.20738096071E+04  0.20738096071E+04  0.25500000920E-02 0. -1.
    10030    2    1    2    0    0  0.00000000000E+00  0.00000000000E+00 -0.91624191937E+03  0.32313772948E+04  0.30987578103E+04 0.  0.
        4    1    3    3  502    0 -0.12400700344E+04 -0.80721540163E+03  0.21115729856E+02  0.14798033254E+04  0.12699999809E+01 0.  1.
       -4    1    3    3    0  502  0.12400700344E+04  0.80721540163E+03 -0.93735764923E+03  0.17515739694E+04  0.12699999809E+01 0. -1.
</event>
<event>
 5   0  0.1398931E-07  0.3099658E+04  0.7818609E-02  0.8215832E-01
        2   -1    0    0  501    0  0.00000000000E+00  0.00000000000E+00  0.23826674347E+04  0.23826674347E+04  0.25500000920E-02 0. -1.
       -2   -1    0    0    0  501  0.00000000000E+00  0.00000000000E+00 -0.10081014418E+04  0.10081014418E+04  0.25500000920E-02 0.  1.
    10030    2    1    2    0    0  0.00000000000E+00  0.00000000000E+00  0.13745659929E+04  0.33907688765E+04  0.30996583530E+04 0.  0.
        3    1    3    3  502    0  0.31439091700E+03 -0.34964023363E+03 -0.92819221016E+03  0.10404954257E+04  0.10100000352E+00 0.  1.
       -3    1    3    3    0  502 -0.31439091700E+03  0.34964023363E+03  0.23027582031E+04  0.23502734509E+04  0.10100000352E+00 0. -1.
</event>
<event>
 5   0  0.4305500E-08  0.3101879E+04  0.7818609E-02  0.8215222E-01
       -3   -1    0    0    0  501  0.00000000000E+00  0.00000000000E+00  0.11597712527E+04  0.11597712571E+04  0.10100000352E+00 0.  1.
        3   -1    0    0  501    0  0.00000000000E+00  0.00000000000E+00 -0.20740416555E+04  0.20740416580E+04  0.10100000352E+00 0. -1.
    10030    2    1    2    0    0  0.00000000000E+00  0.00000000000E+00 -0.91427040288E+03  0.32338129150E+04  0.31018793658E+04 0.  0.
        3    1    3    3  502    0  0.59375524603E+03 -0.13498641760E+04  0.43644840438E+02  0.14753248686E+04  0.10100000352E+00 0.  1.
       -3    1    3    3    0  502 -0.59375524603E+03  0.13498641760E+04 -0.95791524332E+03  0.17584880464E+04  0.10100000352E+00 0. -1.
</event>
<event>
 5   0  0.1377237E-07  0.3100682E+04  0.7818609E-02  0.8215551E-01
       -2   -1    0    0    0  501  0.00000000000E+00  0.00000000000E+00  0.16368676651E+04  0.16368676651E+04  0.25500000920E-02 0.  1.
        2   -1    0    0  501    0  0.00000000000E+00  0.00000000000E+00 -0.14683879638E+04  0.14683879638E+04  0.25500000920E-02 0. -1.
    10030    2    1    2    0    0  0.00000000000E+00  0.00000000000E+00  0.16847970129E+03  0.31052556288E+04  0.31006817171E+04 0.  0.
        2    1    3    3  502    0  0.18263466414E+03 -0.44830627619E+02  0.16254028890E+04  0.16362456287E+04  0.25500000920E-02 0.  1.
       -2    1    3    3    0  502 -0.18263466414E+03  0.44830627619E+02 -0.14569231877E+04  0.14690100002E+04  0.25500000920E-02 0. -1.
</event>
<event>
 5   0  0.1325713E-07  0.3100030E+04  0.7818609E-02  0.8215730E-01
       -2   -1    0    0    0  501  0.00000000000E+00  0.00000000000E+00  0.16588261932E+04  0.16588261932E+04  0.25500000920E-02 0. -1.
        2   -1    0    0  501    0  0.00000000000E+00  0.00000000000E+00 -0.14483414509E+04  0.14483414509E+04  0.25500000920E-02 0.  1.
    10030    2    1    2    0    0  0.00000000000E+00  0.00000000000E+00  0.21048474230E+03  0.31071676442E+04  0.31000301518E+04 0.  0.
        4    1    3    3  502    0  0.11155366841E+02  0.14946946315E+04 -0.30595655511E+03  0.15257285179E+04  0.12699999809E+01 0. -1.
       -4    1    3    3    0  502 -0.11155366841E+02 -0.14946946315E+04  0.51644129740E+03  0.15814391263E+04  0.12699999809E+01 0.  1.
</event>
<event>
 5   0  0.4470354E-08  0.3100632E+04  0.7818609E-02  0.8215565E-01
        1   -1    0    0  501    0  0.00000000000E+00  0.00000000000E+00  0.18752999259E+04  0.18752999259E+04  0.50400001928E-02 0. -1.
       -1   -1    0    0    0  501  0.00000000000E+00  0.00000000000E+00 -0.12816505014E+04  0.12816505015E+04  0.50400001928E-02 0.  1.
    10030    2    1    2    0    0  0.00000000000E+00  0.00000000000E+00  0.59364942444E+03  0.31569504274E+04  0.31006316069E+04 0.  0.
        1    1    3    3  502    0  0.92362570660E+03 -0.44344626234E+03 -0.88781649828E+03  0.13557091016E+04  0.50400001928E-02 0.  1.
       -1    1    3    3    0  502 -0.92362570660E+03  0.44344626234E+03  0.14814659227E+04  0.18012413258E+04  0.50400001928E-02 0. -1.
</event>
<event>
 5   0  0.1377237E-07  0.3100882E+04  0.7818609E-02  0.8215496E-01
        2   -1    0    0  501    0  0.00000000000E+00  0.00000000000E+00  0.14947646131E+04  0.14947646131E+04  0.25500000920E-02 0. -1.
       -2   -1    0    0    0  501  0.00000000000E+00  0.00000000000E+00 -0.16081910322E+04  0.16081910322E+04  0.25500000920E-02 0.  1.
    10030    2    1    2    0    0  0.00000000000E+00  0.00000000000E+00 -0.11342641908E+03  0.31029556453E+04  0.31008818397E+04 0.  0.
        2    1    3    3  502    0 -0.15247882227E+04 -0.73241310328E+02  0.21462054711E+03  0.15415594029E+04  0.25500000920E-02 0.  1.
       -2    1    3    3    0  502  0.15247882227E+04  0.73241310328E+02 -0.32804696619E+03  0.15613962423E+04  0.25500000920E-02 0. -1.
</event>
<event>
 5   0  0.4838602E-08  0.3096843E+04  0.7818609E-02  0.8216605E-01
       -1   -1    0    0    0  501  0.00000000000E+00  0.00000000000E+00  0.13679260267E+04  0.13679260267E+04  0.50400001928E-02 0.  1.
        1   -1    0    0  501    0  0.00000000000E+00  0.00000000000E+00 -0.17527329978E+04  0.17527329978E+04  0.50400001928E-02 0. -1.
    10030    2    1    2    0    0  0.00000000000E+00  0.00000000000E+00 -0.38480697113E+03  0.31206590245E+04  0.30968429637E+04 0.  0.
        5    1    3    3  502    0  0.16762871130E+03 -0.14701193682E+04  0.26743543117E+03  0.15036269954E+04  0.46999998093E+01 0. -1.
       -5    1    3    3    0  502 -0.16762871130E+03  0.14701193682E+04 -0.65224240230E+03  0.16170320290E+04  0.46999998093E+01 0.  1.
</event>
<event>
 5   0  0.4436241E-08  0.3100493E+04  0.7818609E-02  0.8215603E-01
       -1   -1    0    0    0  501  0.00000000000E+00  0.00000000000E+00  0.10358980839E+04  0.10358980839E+04  0.50400001928E-02 0.  1.
        1   -1    0    0  501    0  0.00000000000E+00  0.00000000000E+00 -0.23199819304E+04  0.23199819304E+04  0.50400001928E-02 0. -1.
    10030    2    1    2    0    0  0.00000000000E+00  0.00000000000E+00 -0.12840838464E+04  0.33558800143E+04  0.31004934036E+04 0.  0.
        3    1    3    3  502    0  0.10028304688E+04  0.61202823628E+03  0.45271349984E+03  0.12590460811E+04  0.10100000352E+00 0.  1.
       -3    1    3    3    0  502 -0.10028304688E+04 -0.61202823628E+03 -0.17367973463E+04  0.20968339332E+04  0.10100000352E+00 0. -1.
</event>
<event>
 5   0  0.1318916E-07  0.3099637E+04  0.7818609E-02  0.8215837E-01
       -2   -1    0    0    0  501  0.00000000000E+00  0.00000000000E+00  0.10479215707E+04  0.10479215707E+04  0.25500000920E-02 0. -1.
        2   -1    0    0  501    0  0.00000000000E+00  0.00000000000E+00 -0.22920971126E+04  0.22920971126E+04  0.25500000920E-02 0.  1.
    10030    2    1    2    0    0  0.00000000000E+00  0.00000000000E+00 -0.12441755419E+04  0.33400186832E+04  0.30996374022E+04 0.  0.
        5    1    3    3  502    0 -0.10362435048E+04  0.86611455507E+03  0.19710711038E+03  0.13648546907E+04  0.46999998093E+01 0. -1.
       -5    1    3    3    0  502  0.10362435048E+04 -0.86611455507E+03 -0.14412826523E+04  0.19751639925E+04  0.46999998093E+01 0.  1.
</event>
<event>
 5   0  0.4838602E-08  0.3121297E+04  0.7818609E-02  0.8209917E-01
       -1   -1    0    0    0  501  0.00000000000E+00  0.00000000000E+00  0.21209366815E+04  0.21209366815E+04  0.50400001928E-02 0.  1.
        1   -1    0    0  501    0  0.00000000000E+00  0.00000000000E+00 -0.11483717485E+04  0.11483717486E+04  0.50400001928E-02 0. -1.
    10030    2    1    2    0    0  0.00000000000E+00  0.00000000000E+00  0.97256493299E+03  0.32693084301E+04  0.31212970160E+04 0.  0.
        5    1    3    3  502    0 -0.45916635672E+03 -0.13430198174E+04  0.11659487576E+04  0.18368436429E+04  0.46999998093E+01 0.  1.
       -5    1    3    3    0  502  0.45916635672E+03  0.13430198174E+04 -0.19338382466E+03  0.14324647872E+04  0.46999998093E+01 0. -1.
</event>
<event>
 5   0  0.1398931E-07  0.3100156E+04  0.7818609E-02  0.8215695E-01
        2   -1    0    0  501    0  0.00000000000E+00  0.00000000000E+00  0.12762196473E+04  0.12762196473E+04  0.25500000920E-02 0. -1.
       -2   -1    0    0    0  501  0.00000000000E+00  0.00000000000E+00 -0.18827022100E+04  0.18827022100E+04  0.25500000920E-02 0.  1.
    10030    2    1    2    0    0  0.00000000000E+00  0.00000000000E+00 -0.60648256276E+03  0.31589218573E+04  0.31001558351E+04 0.  0.
        3    1    3    3  502    0 -0.12786578746E+03 -0.11150816574E+04  0.78612914508E+03  0.13703123021E+04  0.10100000352E+00 0. -1.
       -3    1    3    3    0  502  0.12786578746E+03  0.11150816574E+04 -0.13926117078E+04  0.17886095553E+04  0.10100000352E+00 0.  1.
</event>
<event>
 5   0  0.4470354E-08  0.3098973E+04  0.7818609E-02  0.8216020E-01
       -1   -1    0    0    0  501  0.00000000000E+00  0.00000000000E+00  0.84626551338E+03  0.84626551340E+03  0.50400001928E-02 0. -1.
        1   -1    0    0  501    0  0.00000000000E+00  0.00000000000E+00 -0.28370625881E+04  0.28370625881E+04  0.50400001928E-02 0.  1.
    10030    2    1    2    0    0  0.00000000000E+00  0.00000000000E+00 -0.19907970747E+04  0.36833281015E+04  0.30989728799E+04 0.  0.
        1    1    3    3  502    0  0.14448998481E+04 -0.14395363803E+03 -0.16381579549E+04  0.21890682279E+04  0.50400001928E-02 0. -1.
       -1    1    3    3    0  502 -0.14448998481E+04  0.14395363803E+03 -0.35263911981E+03  0.14942598736E+04  0.50400001928E-02 0.  1.
</event>
<event>
 5   0  0.4838602E-08  0.3098189E+04  0.7818609E-02  0.8216235E-01
        1   -1    0    0  501    0  0.00000000000E+00  0.00000000000E+00  0.23853960318E+04  0.23853960319E+04  0.50400001928E-02 0.  1.
       -1   -1    0    0    0  501  0.00000000000E+00  0.00000000000E+00 -0.10059935981E+04  0.10059935982E+04  0.50400001928E-02 0. -1.
    10030    2    1    2    0    0  0.00000000000E+00  0.00000000000E+00  0.13794024337E+04  0.33913896300E+04  0.30981885915E+04 0.  0.
        5    1    3    3  502    0 -0.14692048990E+04  0.45119937224E+03  0.47764912496E+03  0.16094454590E+04  0.46999998093E+01 0. -1.
       -5    1    3    3    0  502  0.14692048990E+04 -0.45119937224E+03  0.90175330875E+03  0.17819441710E+04  0.46999998093E+01 0.  1.
</event>
<event>
 5   0  0.1398931E-07  0.3100389E+04  0.7818609E-02  0.8215631E-01
       -2   -1    0    0    0  501  0.00000000000E+00  0.00000000000E+00  0.11631645706E+04  0.11631645706E+04  0.25500000920E-02 0. -1.
        2   -1    0    0  501    0  0.00000000000E+00  0.00000000000E+00 -0.20660049415E+04  0.20660049415E+04  0.25500000920E-02 0.  1.
    10030    2    1    2    0    0  0.00000000000E+00  0.00000000000E+00 -0.90284037093E+03  0.32291695121E+04  0.31003894920E+04 0.  0.
        3    1    3    3  502    0 -0.13623747310E+04 -0.73938602091E+03 -0.47082591460E+03  0.16200103850E+04  0.10100000352E+00 0.  1.
       -3    1    3    3    0  502  0.13623747310E+04  0.73938602091E+03 -0.43201445633E+03  0.16091591271E+04  0.10100000352E+00 0. -1.
</event>
<event>
 5   0  0.1318916E-07  0.3101413E+04  0.7818609E-02  0.8215350E-01
       -2   -1    0    0    0  501  0.00000000000E+00  0.00000000000E+00  0.13594426608E+04  0.13594426608E+04  0.25500000920E-02 0. -1.
        2   -1    0    0  501    0  0.00000000000E+00  0.00000000000E+00 -0.17688796100E+04  0.17688796100E+04  0.25500000920E-02 0.  1.
    10030    2    1    2    0    0  0.00000000000E+00  0.00000000000E+00 -0.40943694922E+03  0.31283222708E+04  0.31014128417E+04 0.  0.
        5    1    3    3  502    0  0.12124660492E+04  0.83365705460E+03 -0.69846568495E+03  0.16287831065E+04  0.46999998093E+01 0. -1.
       -5    1    3    3    0  502 -0.12124660492E+04 -0.83365705460E+03  0.28902873573E+03  0.14995391643E+04  0.46999998093E+01 0.  1.
</event>
<event>
 5   0  0.1318916E-07  0.3100949E+04  0.7818609E-02  0.8215477E-01
       -2   -1    0    0    0  501  0.00000000000E+00  0.00000000000E+00  0.11111261865E+04  0.11111261865E+04  0.25500000920E-02 0. -1.
        2   -1    0    0  501    0  0.00000000000E+00  0.00000000000E+00 -0.21635448666E+04  0.21635448666E+04  0.25500000920E-02 0.  1.
    10030    2    1    2    0    0  0.00000000000E+00  0.00000000000E+00 -0.10524186801E+04  0.32746710530E+04  0.31009491172E+04 0.  0.
        5    1    3    3  502    0 -0.51558242885E+03  0.39257814493E+03 -0.20136668818E+04  0.21153768557E+04  0.46999998093E+01 0.  1.
       -5    1    3    3    0  502  0.51558242885E+03 -0.39257814493E+03  0.96124820166E+03  0.11592941974E+04  0.46999998093E+01 0. -1.
</event>
<event>
 5   0  0.4450600E-08  0.3100132E+04  0.7818609E-02  0.8215702E-01
       -1   -1    0    0    0  501  0.00000000000E+00  0.00000000000E+00  0.94746357951E+03  0.94746357953E+03  0.50400001928E-02 0. -1.
        1   -1    0    0  501    0  0.00000000000E+00  0.00000000000E+00 -0.25359327926E+04  0.25359327926E+04  0.50400001928E-02 0.  1.
    10030    2    1    2    0    0  0.00000000000E+00  0.00000000000E+00 -0.15884692131E+04  0.34833963722E+04  0.31001315850E+04 0.  0.
        4    1    3    3  502    0  0.14952245974E+04 -0.38110145320E+03 -0.96001241162E+03  0.18172947911E+04  0.12699999809E+01 0.  1.
       -4    1    3    3    0  502 -0.14952245974E+04  0.38110145320E+03 -0.62845680151E+03  0.16661015811E+04  0.12699999809E+01 0. -1.
</event>
<event>
 5   0  0.4305500E-08  0.3100048E+04  0.7818609E-02  0.8215725E-01
       -3   -1    0    0    0  501  0.00000000000E+00  0.00000000000E+00  0.11180746129E+04  0.11180746174E+04  0.10100000352E+00 0. -1.
        3   -1    0    0  501    0  0.00000000000E+00  0.00000000000E+00 -0.21488494896E+04  0.21488494920E+04  0.10100000352E+00 0.  1.
    10030    2    1    2    0    0  0.00000000000E+00  0.00000000000E+00 -0.10307748767E+04  0.32669241094E+04  0.31000477884E+04 0.  0.
        4    1    3    3  502    0 -0.12275814509E+04  0.71498559708E+03 -0.11687722478E+04  0.18396170261E+04  0.12699999809E+01 0.  1.
       -4    1    3    3    0  502  0.12275814509E+04 -0.71498559708E+03  0.13799737112E+03  0.14273070833E+04  0.12699999809E+01 0. -1.
</event>
<event>
 5   0  0.4450600E-08  0.3100427E+04  0.7818609E-02  0.8215621E-01
        1   -1    0    0  501    0  0.00000000000E+00  0.00000000000E+00  0.14433699280E+04  0.14433699281E+04  0.50400001928E-02 0. -1.
       -1   -1    0    0    0  501  0.00000000000E+00  0.00000000000E+00 -0.16649661929E+04  0.16649661929E+04  0.50400001928E-02 0.  1.
    10030    2    1    2    0    0  0.00000000000E+00  0.00000000000E+00 -0.22159626489E+03  0.31083361210E+04  0.31004271539E+04 0.  0.
        4    1    3    3  502    0 -0.24565828513E+03 -0.12070470802E+04  0.83279877174E+03  0.14868981317E+04  0.12699999809E+01 0. -1.
       -4    1    3    3    0  502  0.24565828513E+03  0.12070470802E+04 -0.10543950366E+04  0.16214379893E+04  0.12699999809E+01 0.  1.
</event>
<event>
 5   0  0.4436241E-08  0.3099692E+04  0.7818609E-02  0.8215822E-01
       -1   -1    0    0    0  501  0.00000000000E+00  0.00000000000E+00  0.25272263410E+04  0.25272263410E+04  0.50400001928E-02 0. -1.
        1   -1    0    0  501    0  0.00000000000E+00  0.00000000000E+00 -0.95045811846E+03  0.95045811847E+03  0.50400001928E-02 0.  1.
    10030    2    1    2    0    0  0.00000000000E+00  0.00000000000E+00  0.15767682225E+04  0.34776844594E+04  0.30996921092E+04 0.  0.
        3    1    3    3  502    0 -0.49675760111E+03 -0.10928512506E+04  0.18881941427E+04  0.22374916985E+04  0.10100000352E+00 0. -1.
       -3    1    3    3    0  502  0.49675760111E+03  0.10928512506E+04 -0.31142592020E+03  0.12401927609E+04  0.10100000352E+00 0.  1.
</event>
<event>
 5   0  0.4470354E-08  0.3098701E+04  0.7818609E-02  0.8216094E-01
       -1   -1    0    0    0  501  0.00000000000E+00  0.00000000000E+00  0.14995052369E+04  0.14995052369E+04  0.50400001928E-02 0.  1.
        1   -1    0    0  501    0  0.00000000000E+00  0.00000000000E+00 -0.16008531410E+04  0.16008531410E+04  0.50400001928E-02 0. -1.
    10030    2    1    2    0    0  0.00000000000E+00  0.00000000000E+00 -0.10134790413E+03  0.31003583779E+04  0.30987014496E+04 0.  0.
        1    1    3    3  502    0 -0.12755387867E+04 -0.53387223450E+03  0.64860527263E+03  0.15273203852E+04  0.50400001928E-02 0.  1.
       -1    1    3    3    0  502  0.12755387867E+04  0.53387223450E+03 -0.74995317676E+03  0.15730379927E+04  0.50400001928E-02 0. -1.
</event>
<event>
 5   0  0.1318916E-07  0.3097293E+04  0.7818609E-02  0.8216481E-01
        2   -1    0    0  501    0  0.00000000000E+00  0.00000000000E+00  0.20984784507E+04  0.20984784507E+04  0.25500000920E-02 0.  1.
       -2   -1    0    0    0  501  0.00000000000E+00  0.00000000000E+00 -0.11428787011E+04  0.11428787011E+04  0.25500000920E-02 0. -1.
    10030    2    1    2    0    0  0.00000000000E+00  0.00000000000E+00  0.95559974958E+03  0.32413571518E+04  0.30972932222E+04 0.  0.
        5    1    3    3  502    0 -0.11351552911E+04  0.33160305122E+03 -0.56858011940E+03  0.13121903675E+04  0.46999998093E+01 0. -1.
       -5    1    3    3    0  502  0.11351552911E+04 -0.33160305122E+03  0.15241798690E+04  0.19291667843E+04  0.46999998093E+01 0.  1.
</event>
<event>
 5   0  0.1318916E-07  0.3101448E+04  0.7818609E-02  0.8215341E-01
       -2   -1    0    0    0  501  0.00000000000E+00  0.00000000000E+00  0.16572204780E+04  0.16572204780E+04  0.25500000920E-02 0. -1.
        2   -1    0    0  501    0  0.00000000000E+00  0.00000000000E+00 -0.14510708418E+04  0.14510708418E+04  0.25500000920E-02 0.  1.
    10030    2    1    2    0    0  0.00000000000E+00  0.00000000000E+00  0.20614963618E+03  0.31082913198E+04  0.31014476066E+04 0.  0.
        5    1    3    3  502    0  0.93059276625E+03  0.80768578445E+03 -0.84047117859E+03  0.14915673351E+04  0.46999998093E+01 0.  1.
       -5    1    3    3    0  502 -0.93059276625E+03 -0.80768578445E+03  0.10466208148E+04  0.16167239848E+04  0.46999998093E+01 0. -1.
</event>
<event>
 5   0  0.1318916E-07  0.3100954E+04  0.7818609E-02  0.8215476E-01
        2   -1    0    0  501    0  0.00000000000E+00  0.00000000000E+00  0.15850030696E+04  0.15850030696E+04  0.25500000920E-02 0. -1.
       -2   -1    0    0    0  501  0.00000000000E+00  0.00000000000E+00 -0.15167028104E+04  0.15167028104E+04  0.25500000920E-02 0.  1.
    10030    2    1    2    0    0  0.00000000000E+00  0.00000000000E+00  0.68300259157E+02  0.31017058800E+04  0.31009537953E+04 0.  0.
        5    1    3    3  502    0 -0.24925630550E+03  0.26109197511E+01 -0.14965219694E+04  0.15171471971E+04  0.46999998093E+01 0.  1.
       -5    1    3    3    0  502  0.24925630550E+03 -0.26109197511E+01  0.15648222286E+04  0.15845586830E+04  0.46999998093E+01 0. -1.
</event>
<event>
 5   0  0.4470354E-08  0.3100478E+04  0.7818609E-02  0.8215607E-01
        1   -1    0    0  501    0  0.00000000000E+00  0.00000000000E+00  0.11909726661E+04  0.11909726661E+04  0.50400001928E-02 0.  1.
       -1   -1    0    0    0  501  0.00000000000E+00  0.00000000000E+00 -0.20178810680E+04  0.20178810680E+04  0.50400001928E-02 0. -1.
    10030    2    1    2    0    0  0.00000000000E+00  0.00000000000E+00 -0.82690840196E+03  0.32088537341E+04  0.31004781538E+04 0.  0.
        1    1    3    3  502    0 -0.87631921573E+02  0.87052268100E+03  0.91102556780E+03  0.12631138813E+04  0.50400001928E-02 0.  1.
       -1    1    3    3    0  502  0.87631921573E+02 -0.87052268100E+03 -0.17379339698E+04  0.19457398529E+04  0.50400001928E-02 0. -1.
</event>
<event>
 5   0  0.1329777E-07  0.3099987E+04  0.7818609E-02  0.8215741E-01
       -2   -1    0    0    0  501  0.00000000000E+00  0.00000000000E+00  0.12734579826E+04  0.12734579826E+04  0.25500000920E-02 0.  1.
        2   -1    0    0  501    0  0.00000000000E+00  0.00000000000E+00 -0.18865798603E+04  0.18865798603E+04  0.25500000920E-02 0. -1.
    10030    2    1    2    0    0  0.00000000000E+00  0.00000000000E+00 -0.61312187774E+03  0.31600378429E+04  0.30999872147E+04 0.  0.
        1    1    3    3  502    0 -0.75023137539E+02 -0.15491031180E+03  0.12636859291E+04  0.12753539914E+04  0.50400001928E-02 0.  1.
       -1    1    3    3    0  502  0.75023137539E+02  0.15491031180E+03 -0.18768078069E+04  0.18846838514E+04  0.50400001928E-02 0. -1.
</event>
<event>
 5   0  0.1329777E-07  0.3099009E+04  0.7818609E-02  0.8216010E-01
       -2   -1    0    0    0  501  0.00000000000E+00  0.00000000000E+00  0.73312825170E+03  0.73312825170E+03  0.25500000920E-02 0.  1.
        2   -1    0    0  501    0  0.00000000000E+00  0.00000000000E+00 -0.32749589725E+04  0.32749589725E+04  0.25500000920E-02 0. -1.
    10030    2    1    2    0    0  0.00000000000E+00  0.00000000000E+00 -0.25418307208E+04  0.40080872242E+04  0.30990094843E+04 0.  0.
        1    1    3    3  502    0 -0.14493005866E+04  0.34130122602E+01 -0.19798771744E+04  0.24536498252E+04  0.50400001928E-02 0.  1.
       -1    1    3    3    0  502  0.14493005866E+04 -0.34130122602E+01 -0.56195354642E+03  0.15544373990E+04  0.50400001928E-02 0. -1.
</event>
<event>
 5   0  0.4436241E-08  0.3095759E+04  0.7818609E-02  0.8216903E-01
        1   -1    0    0  501    0  0.00000000000E+00  0.00000000000E+00  0.13883465826E+04  0.13883465826E+04  0.50400001928E-02 0. -1.
       -1   -1    0    0    0  501  0.00000000000E+00  0.00000000000E+00 -0.17257443463E+04  0.17257443463E+04  0.50400001928E-02 0.  1.
    10030    2    1    2    0    0  0.00000000000E+00  0.00000000000E+00 -0.33739776364E+03  0.31140909289E+04  0.30957592062E+04 0.  0.
        3    1    3    3  502    0 -0.13798875190E+01  0.21195307489E+03 -0.17110772137E+04  0.17241552283E+04  0.10100000352E+00 0.  1.
       -3    1    3    3    0  502  0.13798875190E+01 -0.21195307489E+03  0.13736794500E+04  0.13899357006E+04  0.10100000352E+00 0. -1.
</event>
<event>
 5   0  0.1325713E-07  0.3099913E+04  0.7818609E-02  0.8215762E-01
        2   -1    0    0  501    0  0.00000000000E+00  0.00000000000E+00  0.12893701861E+04  0.12893701861E+04  0.25500000920E-02 0. -1.
       -2   -1    0    0    0  501  0.00000000000E+00  0.00000000000E+00 -0.18632084471E+04  0.18632084471E+04  0.25500000920E-02 0.  1.
    10030    2    1    2    0    0  0.00000000000E+00  0.00000000000E+00 -0.57383826106E+03  0.31525786332E+04  0.30999131744E+04 0.  0.
        4    1    3    3  502    0  0.20936275351E+03  0.14501586339E+04 -0.80104821165E+03  0.16698720538E+04  0.12699999809E+01 0.  1.
       -4    1    3    3    0  502 -0.20936275351E+03 -0.14501586339E+04  0.22720995059E+03  0.14827065794E+04  0.12699999809E+01 0. -1.
</event>
<event>
 5   0  0.4517409E-08  0.3100890E+04  0.7818609E-02  0.8215494E-01
        1   -1    0    0  501    0  0.00000000000E+00  0.00000000000E+00  0.12861302283E+04  0.12861302283E+04  0.50400001928E-02 0. -1.
       -1   -1    0    0    0  501  0.00000000000E+00  0.00000000000E+00 -0.18690800961E+04  0.18690800962E+04  0.50400001928E-02 0.  1.
    10030    2    1    2    0    0  0.00000000000E+00  0.00000000000E+00 -0.58294986784E+03  0.31552103245E+04  0.31008904597E+04 0.  0.
        2    1    3    3  502    0 -0.91188203065E+03 -0.22529052953E+03 -0.15466130915E+04  0.18095017865E+04  0.25500000920E-02 0.  1.
       -2    1    3    3    0  502  0.91188203065E+03  0.22529052953E+03  0.96366322366E+03  0.13457085380E+04  0.25500000920E-02 0. -1.
</event>
<event>
 5   0  0.1377237E-07  0.3100979E+04  0.7818609E-02  0.8215469E-01
        2   -1    0    0  501    0  0.00000000000E+00  0.00000000000E+00  0.22305719152E+04  0.22305719152E+04  0.25500000920E-02 0.  1.
       -2   -1    0    0    0  501  0.00000000000E+00  0.00000000000E+00 -0.10777585849E+04  0.10777585849E+04  0.25500000920E-02 0. -1.
    10030    2    1    2    0    0  0.00000000000E+00  0.00000000000E+00  0.11528133303E+04  0.33083305002E+04  0.31009792202E+04 0.  0.
        2    1    3    3  502    0 -0.86092428668E+03  0.12651587489E+04  0.31032936758E+03  0.15614485595E+04  0.25500000920E-02 0.  1.
       -2    1    3    3    0  502  0.86092428668E+03 -0.12651587489E+04  0.84248396270E+03  0.17468819407E+04  0.25500000920E-02 0. -1.
</event>
<event>
 5   0  0.4470354E-08  0.3101630E+04  0.7818609E-02  0.8215291E-01
        1   -1    0    0  501    0  0.00000000000E+00  0.00000000000E+00  0.18969801999E+04  0.18969801999E+04  0.50400001928E-02 0. -1.
       -1   -1    0    0    0  501  0.00000000000E+00  0.00000000000E+00 -0.12678191671E+04  0.12678191672E+04  0.50400001928E-02 0.  1.
    10030    2    1    2    0    0  0.00000000000E+00  0.00000000000E+00  0.62916103277E+03  0.31647993671E+04  0.31016304468E+04 0.  0.
        1    1    3    3  502    0 -0.60932396270E+03 -0.12643661693E+04 -0.35849814553E+03  0.14485918755E+04  0.50400001928E-02 0.  1.
       -1    1    3    3    0  502  0.60932396270E+03  0.12643661693E+04  0.98765917830E+03  0.17162074915E+04  0.50400001928E-02 0. -1.
</event>
<event>
 5   0  0.1377237E-07  0.3100047E+04  0.7818609E-02  0.8215725E-01
       -2   -1    0    0    0  501  0.00000000000E+00  0.00000000000E+00  0.10004320719E+04  0.10004320719E+04  0.25500000920E-02 0.  1.
        2   -1    0    0  501    0  0.00000000000E+00  0.00000000000E+00 -0.24015353702E+04  0.24015353702E+04  0.25500000920E-02 0. -1.
    10030    2    1    2    0    0  0.00000000000E+00  0.00000000000E+00 -0.14011032983E+04  0.34019674421E+04  0.31000471004E+04 0.  0.
        2    1    3    3  502    0 -0.31484923914E+02 -0.36091418979E+03  0.95331799814E+03  0.10198360449E+04  0.25500000920E-02 0.  1.
       -2    1    3    3    0  502  0.31484923914E+02  0.36091418979E+03 -0.23544212964E+04  0.23821313973E+04  0.25500000920E-02 0. -1.
</event>
<event>
 5   0  0.1318916E-07  0.3101349E+04  0.7818609E-02  0.8215368E-01
       -2   -1    0    0    0  501  0.00000000000E+00  0.00000000000E+00  0.10355764283E+04  0.10355764283E+04  0.25500000920E-02 0.  1.
        2   -1    0    0  501    0  0.00000000000E+00  0.00000000000E+00 -0.23219830481E+04  0.23219830481E+04  0.25500000920E-02 0. -1.
    10030    2    1    2    0    0  0.00000000000E+00  0.00000000000E+00 -0.12864066198E+04  0.33575594764E+04  0.31013486818E+04 0.  0.
        5    1    3    3  502    0 -0.18993383975E+02 -0.15492679281E+04 -0.57493034997E+03  0.16526218136E+04  0.46999998093E+01 0.  1.
       -5    1    3    3    0  502  0.18993383975E+02  0.15492679281E+04 -0.71147626981E+03  0.17049376628E+04  0.46999998093E+01 0. -1.
</event>
<event>
 5   0  0.1318916E-07  0.3099496E+04  0.7818609E-02  0.8215876E-01
        2   -1    0    0  501    0  0.00000000000E+00  0.00000000000E+00  0.18479220938E+04  0.18479220938E+04  0.25500000920E-02 0.  1.
       -2   -1    0    0    0  501  0.00000000000E+00  0.00000000000E+00 -0.12996860134E+04  0.12996860134E+04  0.25500000920E-02 0. -1.
    10030    2    1    2    0    0  0.00000000000E+00  0.00000000000E+00  0.54823608043E+03  0.31476081072E+04  0.30994957649E+04 0.  0.
        5    1    3    3  502    0  0.96449708037E+03 -0.54991214237E+02  0.15047109878E+04  0.17881431426E+04  0.46999998093E+01 0.  1.
       -5    1    3    3    0  502 -0.96449708037E+03  0.54991214237E+02 -0.95647490734E+03  0.13594649646E+04  0.46999998093E+01 0. -1.
</event>
<event>
 5   0  0.4517409E-08  0.3099897E+04  0.7818609E-02  0.8215766E-01
       -1   -1    0    0    0  501  0.00000000000E+00  0.00000000000E+00  0.16922742197E+04  0.16922742197E+04  0.50400001928E-02 0. -1.
        1   -1    0    0  501    0  0.00000000000E+00  0.00000000000E+00 -0.14195932309E+04  0.14195932309E+04  0.50400001928E-02 0.  1.
    10030    2    1    2    0    0  0.00000000000E+00  0.00000000000E+00  0.27268098882E+03  0.31118674506E+04  0.30998974351E+04 0.  0.
        2    1    3    3  502    0 -0.45258187543E+03 -0.13289778306E+04  0.79563262595E+03  0.16137049618E+04  0.25500000920E-02 0. -1.
       -2    1    3    3    0  502  0.45258187543E+03  0.13289778306E+04 -0.52295163713E+03  0.14981624888E+04  0.25500000920E-02 0.  1.
</event>
<event>
 5   0  0.4436241E-08  0.3100714E+04  0.7818609E-02  0.8215542E-01
        1   -1    0    0  501    0  0.00000000000E+00  0.00000000000E+00  0.16511892929E+04  0.16511892929E+04  0.50400001928E-02 0.  1.
       -1   -1    0    0    0  501  0.00000000000E+00  0.00000000000E+00 -0.14556820614E+04  0.14556820614E+04  0.50400001928E-02 0. -1.
    10030    2    1    2    0    0  0.00000000000E+00  0.00000000000E+00  0.19550723152E+03  0.31068713542E+04  0.31007138749E+04 0.  0.
        3    1    3    3  502    0 -0.96835629161E+03  0.17732491254E+03  0.12978166889E+04  0.16289524856E+04  0.10100000352E+00 0.  1.
       -3    1    3    3    0  502  0.96835629161E+03 -0.17732491254E+03 -0.11023094574E+04  0.14779188686E+04  0.10100000352E+00 0. -1.
</event>
<event>
 5   0  0.4436241E-08  0.3095780E+04  0.7818609E-02  0.8216897E-01
       -1   -1    0    0    0  501  0.00000000000E+00  0.00000000000E+00  0.10621788092E+04  0.10621788093E+04  0.50400001928E-02 0.  1.
        1   -1    0    0  501    0  0.00000000000E+00  0.00000000000E+00 -0.22557056902E+04  0.22557056903E+04  0.50400001928E-02 0. -1.
    10030    2    1    2    0    0  0.00000000000E+00  0.00000000000E+00 -0.11935268810E+04  0.33178844995E+04  0.30957795684E+04 0.  0.
        3    1    3    3  502    0 -0.12271599209E+04 -0.62151671446E+03  0.16391714295E+03  0.13853062252E+04  0.10100000352E+00 0.  1.
       -3    1    3    3    0  502  0.12271599209E+04  0.62151671446E+03 -0.13574440240E+04  0.19325782743E+04  0.10100000352E+00 0. -1.
</event>
<event>
 5   0  0.4436241E-08  0.3100023E+04  0.7818609E-02  0.8215732E-01
       -1   -1    0    0    0  501  0.00000000000E+00  0.00000000000E+00  0.10306105108E+04  0.10306105108E+04  0.50400001928E-02 0.  1.
        1   -1    0    0  501    0  0.00000000000E+00  0.00000000000E+00 -0.23311773475E+04  0.23311773475E+04  0.50400001928E-02 0. -1.
    10030    2    1    2    0    0  0.00000000000E+00  0.00000000000E+00 -0.13005668367E+04  0.33617878584E+04  0.31000231464E+04 0.  0.
        3    1    3    3  502    0 -0.93222387289E+03 -0.96009026553E+03  0.19788507066E+03  0.13527650123E+04  0.10100000352E+00 0.  1.
       -3    1    3    3    0  502  0.93222387289E+03  0.96009026553E+03 -0.14984519073E+04  0.20090228460E+04  0.10100000352E+00 0. -1.
</event>
<event>
 5   0  0.1329777E-07  0.3089304E+04  0.7818609E-02  0.8218679E-01
       -2   -1    0    0    0  501  0.00000000000E+00  0.00000000000E+00  0.11312462704E+04  0.11312462704E+04  0.25500000920E-02 0. -1.
        2   -1    0    0  501    0  0.00000000000E+00  0.00000000000E+00 -0.21091341538E+04  0.21091341538E+04  0.25500000920E-02 0.  1.
    10030    2    1    2    0    0  0.00000000000E+00  0.00000000000E+00 -0.97788788339E+03  0.32403804241E+04  0.30893042227E+04 0.  0.
        1    1    3    3  502    0 -0.10822956661E+04 -0.71808254472E+03 -0.13658567584E+04  0.18848265529E+04  0.50400001928E-02 0. -1.
       -1    1    3    3    0  502  0.10822956661E+04  0.71808254472E+03  0.38796887498E+03  0.13555538713E+04  0.50400001928E-02 0.  1.
</event>
<event>
 5   0  0.4838602E-08  0.3096198E+04  0.7818609E-02  0.8216782E-01
       -1   -1    0    0    0  501  0.00000000000E+00  0.00000000000E+00  0.18297408565E+04  0.18297408565E+04  0.50400001928E-02 0. -1.
        1   -1    0    0  501    0  0.00000000000E+00  0.00000000000E+00 -0.13098088906E+04  0.13098088906E+04  0.50400001928E-02 0.  1.
    10030    2    1    2    0    0  0.00000000000E+00  0.00000000000E+00  0.51993196592E+03  0.31395497471E+04  0.30961982116E+04 0.  0.
        5    1    3    3  502    0  0.11247239750E+04  0.11857628736E+03 -0.81196573030E+03  0.13922552902E+04  0.46999998093E+01 0.  1.
       -5    1    3    3    0  502 -0.11247239750E+04 -0.11857628736E+03  0.13318976962E+04  0.17472944569E+04  0.46999998093E+01 0. -1.
</event>
<event>
 5   0  0.1329777E-07  0.3099819E+04  0.7818609E-02  0.8215788E-01
        2   -1    0    0  501    0  0.00000000000E+00  0.00000000000E+00  0.13947668331E+04  0.13947668331E+04  0.25500000920E-02 0.  1.
       -2   -1    0    0    0  501  0.00000000000E+00  0.00000000000E+00 -0.17223088444E+04  0.17223088444E+04  0.25500000920E-02 0. -1.
    10030    2    1    2    0    0  0.00000000000E+00  0.00000000000E+00 -0.32754201130E+03  0.31170756774E+04  0.30998188672E+04 0.  0.
        1    1    3    3  502    0  0.25711641120E+03  0.63659998575E+03  0.12335152727E+04  0.14117111315E+04  0.50400001928E-02 0.  1.
       -1    1    3    3    0  502 -0.25711641120E+03 -0.63659998575E+03 -0.15610572840E+04  0.17053645460E+04  0.50400001928E-02 0. -1.
</event>
<event>
 5   0  0.1398931E-07  0.3101014E+04  0.7818609E-02  0.8215460E-01
        2   -1    0    0  501    0  0.00000000000E+00  0.00000000000E+00  0.15924126187E+04  0.15924126187E+04  0.25500000920E-02 0. -1.
       -2   -1    0    0    0  501  0.00000000000E+00  0.00000000000E+00 -0.15097038897E+04  0.15097038897E+04  0.25500000920E-02 0.  1.
    10030    2    1    2    0    0  0.00000000000E+00  0.00000000000E+00  0.82708729021E+02  0.31021165084E+04  0.31010137210E+04 0.  0.
        3    1    3    3  502    0 -0.12219373656E+04 -0.35172394437E+03 -0.84622147332E+03  0.15273936790E+04  0.10100000352E+00 0.  1.
       -3    1    3    3    0  502  0.12219373656E+04  0.35172394437E+03  0.92893020234E+03  0.15747228294E+04  0.10100000352E+00 0. -1.
</event>
<event>
 5   0  0.1377237E-07  0.3100617E+04  0.7818609E-02  0.8215569E-01
        2   -1    0    0  501    0  0.00000000000E+00  0.00000000000E+00  0.15589837941E+04  0.15589837941E+04  0.25500000920E-02 0.  1.
       -2   -1    0    0    0  501  0.00000000000E+00  0.00000000000E+00 -0.15416811380E+04  0.15416811380E+04  0.25500000920E-02 0. -1.
    10030    2    1    2    0    0  0.00000000000E+00  0.00000000000E+00  0.17302656126E+02  0.31006649322E+04  0.31006166547E+04 0.  0.
        2    1    3    3  502    0  0.33172578293E+03 -0.14261683782E+04  0.51802913647E+03  0.15531749496E+04  0.25500000920E-02 0.  1.
       -2    1    3    3    0  502 -0.33172578293E+03  0.14261683782E+04 -0.50072648034E+03  0.15474899825E+04  0.25500000920E-02 0. -1.
</event>
<event>
 5   0  0.4450600E-08  0.3099119E+04  0.7818609E-02  0.8215980E-01
       -1   -1    0    0    0  501  0.00000000000E+00  0.00000000000E+00  0.18767650927E+04  0.18767650927E+04  0.50400001928E-02 0. -1.
        1   -1    0    0  501    0  0.00000000000E+00  0.00000000000E+00 -0.12794005836E+04  0.12794005836E+04  0.50400001928E-02 0.  1.
    10030    2    1    2    0    0  0.00000000000E+00  0.00000000000E+00  0.59736450910E+03  0.31561656763E+04  0.30991188134E+04 0.  0.
        4    1    3    3  502    0 -0.10039284754E+04  0.11726290364E+04  0.43607859619E+03  0.16040877145E+04  0.12699999809E+01 0.  1.
       -4    1    3    3    0  502  0.10039284754E+04 -0.11726290364E+04  0.16128591291E+03  0.15520779618E+04  0.12699999809E+01 0. -1.
</event>
<event>
 5   0  0.1318916E-07  0.3099907E+04  0.7818609E-02  0.8215764E-01
        2   -1    0    0  501    0  0.00000000000E+00  0.00000000000E+00  0.14629465992E+04  0.14629465992E+04  0.25500000920E-02 0. -1.
       -2   -1    0    0    0  501  0.00000000000E+00  0.00000000000E+00 -0.16421345793E+04  0.16421345793E+04  0.25500000920E-02 0.  1.
    10030    2    1    2    0    0  0.00000000000E+00  0.00000000000E+00 -0.17918798007E+03  0.31050811785E+04  0.30999065781E+04 0.  0.
        5    1    3    3  502    0  0.10252217570E+04 -0.52550863951E+03 -0.11281922669E+04  0.16124760037E+04  0.46999998093E+01 0.  1.
       -5    1    3    3    0  502 -0.10252217570E+04  0.52550863951E+03  0.94900428688E+03  0.14926051748E+04  0.46999998093E+01 0. -1.
</event>
<event>
 5   0  0.1318916E-07  0.3096375E+04  0.7818609E-02  0.8216733E-01
       -2   -1    0    0    0  501  0.00000000000E+00  0.00000000000E+00  0.10893489105E+04  0.10893489105E+04  0.25500000920E-02 0. -1.
        2   -1    0    0  501    0  0.00000000000E+00  0.00000000000E+00 -0.22002908272E+04  0.22002908272E+04  0.25500000920E-02 0.  1.
    10030    2    1    2    0    0  0.00000000000E+00  0.00000000000E+00 -0.11109419167E+04  0.32896397377E+04  0.30963749227E+04 0.  0.
        5    1    3    3  502    0  0.75710452886E+03  0.13488480683E+04 -0.48609633022E+03  0.16213914121E+04  0.46999998093E+01 0. -1.
       -5    1    3    3    0  502 -0.75710452886E+03 -0.13488480683E+04 -0.62484558653E+03  0.16682483256E+04  0.46999998093E+01 0.  1.
</event>
<event>
 5   0  0.1329777E-07  0.3099732E+04  0.7818609E-02  0.8215812E-01
        2   -1    0    0  501    0  0.00000000000E+00  0.00000000000E+00  0.16660948895E+04  0.16660948895E+04  0.25500000920E-02 0. -1.
       -2   -1    0    0    0  501  0.00000000000E+00  0.00000000000E+00 -0.14417451214E+04  0.14417451214E+04  0.25500000920E-02 0.  1.
    10030    2    1    2    0    0  0.00000000000E+00  0.00000000000E+00  0.22434976807E+03  0.31078400109E+04  0.30997317166E+04 0.  0.
        1    1    3    3  502    0 -0.92698746862E+03 -0.37870843419E+03 -0.10738642411E+04  0.14683018264E+04  0.50400001928E-02 0.  1.
       -1    1    3    3    0  502  0.92698746862E+03  0.37870843419E+03  0.12982140091E+04  0.16395381846E+04  0.50400001928E-02 0. -1.
</event>
<event>
 5   0  0.1325713E-07  0.3101503E+04  0.7818609E-02  0.8215326E-01
       -2   -1    0    0    0  501  0.00000000000E+00  0.00000000000E+00  0.10075324577E+04  0.10075324578E+04  0.25500000920E-02 0. -1.
        2   -1    0    0  501    0  0.00000000000E+00  0.00000000000E+00 -0.23868507884E+04  0.23868507884E+04  0.25500000920E-02 0.  1.
    10030    2    1    2    0    0  0.00000000000E+00  0.00000000000E+00 -0.13793183306E+04  0.33943832461E+04  0.31015026301E+04 0.  0.
        4    1    3    3  502    0 -0.83176545256E+03 -0.12645697378E+04 -0.32036724411E+03  0.15471286869E+04  0.12699999809E+01 0.  1.
       -4    1    3    3    0  502  0.83176545256E+03  0.12645697378E+04 -0.10589510865E+04  0.18472545592E+04  0.12699999809E+01 0. -1.
</event>
<event>
 5   0  0.4517409E-08  0.3099139E+04  0.7818609E-02  0.8215974E-01
       -1   -1    0    0    0  501  0.00000000000E+00  0.00000000000E+00  0.25492808782E+04  0.25492808782E+04  0.50400001928E-02 0. -1.
        1   -1    0    0  501    0  0.00000000000E+00  0.00000000000E+00 -0.94189891557E+03  0.94189891558E+03  0.50400001928E-02 0.  1.
    10030    2    1    2    0    0  0.00000000000E+00  0.00000000000E+00  0.16073819627E+04  0.34911797938E+04  0.30991385221E+04 0.  0.
        2    1    3    3  502    0 -0.10056862181E+04 -0.11552566519E+04  0.53916200817E+03  0.16237975158E+04  0.25500000920E-02 0.  1.
       -2    1    3    3    0  502  0.10056862181E+04  0.11552566519E+04  0.10682199545E+04  0.18673822781E+04  0.25500000920E-02 0. -1.
</event>
<event>
 5   0  0.4517409E-08  0.3099831E+04  0.7818609E-02  0.8215784E-01
        1   -1    0    0  501    0  0.00000000000E+00  0.00000000000E+00  0.14483081694E+04  0.14483081694E+04  0.50400001928E-02 0.  1.
       -1   -1    0    0    0  501  0.00000000000E+00  0.00000000000E+00 -0.16586510890E+04  0.16586510890E+04  0.50400001928E-02 0. -1.
    10030    2    1    2    0    0  0.00000000000E+00  0.00000000000E+00 -0.21034291963E+03  0.31069592583E+04  0.30998309130E+04 0.  0.
        2    1    3    3  502    0 -0.42199539689E+03 -0.10423656153E+02 -0.15999255284E+04  0.16546753349E+04  0.25500000920E-02 0. -1.
       -2    1    3    3    0  502  0.42199539689E+03  0.10423656153E+02  0.13895826088E+04  0.14522839234E+04  0.25500000920E-02 0.  1.
</event>
<event>
 5   0  0.1318916E-07  0.3101211E+04  0.7818609E-02  0.8215406E-01
        2   -1    0    0  501    0  0.00000000000E+00  0.00000000000E+00  0.19489444227E+04  0.19489444227E+04  0.25500000920E-02 0.  1.
       -2   -1    0    0    0  501  0.00000000000E+00  0.00000000000E+00 -0.12336821980E+04  0.12336821980E+04  0.25500000920E-02 0. -1.
    10030    2    1    2    0    0  0.00000000000E+00  0.00000000000E+00  0.71526222477E+03  0.31826266207E+04  0.31012114015E+04 0.  0.
        5    1    3    3  502    0  0.15020346174E+04 -0.11055282891E+03 -0.20868404414E+02  0.15062494814E+04  0.46999998093E+01 0. -1.
       -5    1    3    3    0  502 -0.15020346174E+04  0.11055282891E+03  0.73613062918E+03  0.16763771393E+04  0.46999998093E+01 0.  1.
</event>
<event>
 5   0  0.1398931E-07  0.3099936E+04  0.7818609E-02  0.8215756E-01
       -2   -1    0    0    0  501  0.00000000000E+00  0.00000000000E+00  0.10381239987E+04  0.10381239987E+04  0.25500000920E-02 0. -1.
        2   -1    0    0  501    0  0.00000000000E+00  0.00000000000E+00 -0.23141749565E+04  0.23141749565E+04  0.25500000920E-02 0.  1.
    10030    2    1    2    0    0  0.00000000000E+00  0.00000000000E+00 -0.12760509578E+04  0.33522989551E+04  0.30999358441E+04 0.  0.
        3    1    3    3  502    0  0.45410088536E+02 -0.27246227813E+03  0.10112928527E+04  0.10483372613E+04  0.10100000352E+00 0. -1.
       -3    1    3    3    0  502 -0.45410088536E+02  0.27246227813E+03 -0.22873438105E+04  0.23039616939E+04  0.10100000352E+00 0.  1.
</event>
<event>
 5   0  0.4517409E-08  0.3099677E+04  0.7818609E-02  0.8215827E-01
        1   -1    0    0  501    0  0.00000000000E+00  0.00000000000E+00  0.19982454742E+04  0.19982454742E+04  0.50400001928E-02 0.  1.
       -1   -1    0    0    0  501  0.00000000000E+00  0.00000000000E+00 -0.12020540706E+04  0.12020540706E+04  0.50400001928E-02 0. -1.
    10030    2    1    2    0    0  0.00000000000E+00  0.00000000000E+00  0.79619140363E+03  0.32002995448E+04  0.30996768259E+04 0.  0.
        2    1    3    3  502    0  0.51335278528E+03 -0.83945963018E+03 -0.83817847812E+03  0.12925814149E+04  0.25500000920E-02 0. -1.
       -2    1    3    3    0  502 -0.51335278528E+03  0.83945963018E+03  0.16343698817E+04  0.19077181299E+04  0.25500000920E-02 0.  1.
</event>
<event>
 5   0  0.1325713E-07  0.3097366E+04  0.7818609E-02  0.8216461E-01
       -2   -1    0    0    0  501  0.00000000000E+00  0.00000000000E+00  0.15806939142E+04  0.15806939142E+04  0.25500000920E-02 0. -1.
        2   -1    0    0  501    0  0.00000000000E+00  0.00000000000E+00 -0.15173202929E+04  0.15173202929E+04  0.25500000920E-02 0.  1.
    10030    2    1    2    0    0  0.00000000000E+00  0.00000000000E+00  0.63373621335E+02  0.30980142071E+04  0.30973659473E+04 0.  0.
        4    1    3    3  502    0  0.76207814994E+03  0.85464179049E+03  0.10746138440E+04  0.15703414353E+04  0.12699999809E+01 0. -1.
       -4    1    3    3    0  502 -0.76207814994E+03 -0.85464179049E+03 -0.10112402227E+04  0.15276727718E+04  0.12699999809E+01 0.  1.
</event>
<event>
 5   0  0.4450600E-08  0.3100596E+04  0.7818609E-02  0.8215574E-01
        1   -1    0    0  501    0  0.00000000000E+00  0.00000000000E+00  0.96039473262E+03  0.96039473263E+03  0.50400001928E-02 0.  1.
       -1   -1    0    0    0  501  0.00000000000E+00  0.00000000000E+00 -0.25025373406E+04  0.25025373406E+04  0.50400001928E-02 0. -1.
    10030    2    1    2    0    0  0.00000000000E+00  0.00000000000E+00 -0.15421426080E+04  0.34629320733E+04  0.31005958654E+04 0.  0.
        4    1    3    3  502    0  0.14374719464E+04 -0.30037900612E+03 -0.21614920452E+03  0.14843433684E+04  0.12699999809E+01 0. -1.
       -4    1    3    3    0  502 -0.14374719464E+04  0.30037900612E+03 -0.13259934035E+04  0.19785887048E+04  0.12699999809E+01 0.  1.
</event>
<event>
 5   0  0.4436241E-08  0.3099533E+04  0.7818609E-02  0.8215866E-01
        1   -1    0    0  501    0  0.00000000000E+00  0.00000000000E+00  0.16585887585E+04  0.16585887586E+04  0.50400001928E-02 0. -1.
       -1   -1    0    0    0  501  0.00000000000E+00  0.00000000000E+00 -0.14480838162E+04  0.14480838162E+04  0.50400001928E-02 0.  1.
    10030    2    1    2    0    0  0.00000000000E+00  0.00000000000E+00  0.21050494233E+03  0.31066725748E+04  0.30995325706E+04 0.  0.
        3    1    3    3  502    0 -0.13413506092E+04  0.60250363082E+03  0.59581167293E+03  0.15865760750E+04  0.10100000352E+00 0. -1.
       -3    1    3    3    0  502  0.13413506092E+04 -0.60250363082E+03 -0.38530673061E+03  0.15200964998E+04  0.10100000352E+00 0.  1.
</event>
<event>
 5   0  0.1398931E-07  0.3108541E+04  0.7818609E-02  0.8213398E-01
       -2   -1    0    0    0  501  0.00000000000E+00  0.00000000000E+00  0.24900587163E+04  0.24900587163E+04  0.25500000920E-02 0. -1.
        2   -1    0    0  501    0  0.00000000000E+00  0.00000000000E+00 -0.97016039870E+03  0.97016039871E+03  0.25500000920E-02 0.  1.
    10030    2    1    2    0    0  0.00000000000E+00  0.00000000000E+00  0.15198983176E+04  0.34602191150E+04  0.31085407232E+04 0.  0.
        3    1    3    3  502    0  0.12057901653E+04 -0.96562666774E+03  0.56911400599E+03  0.16462853781E+04  0.10100000352E+00 0. -1.
       -3    1    3    3    0  502 -0.12057901653E+04  0.96562666774E+03  0.95078431157E+03  0.18139337368E+04  0.10100000352E+00 0.  1.
</event>
<event>
 5   0  0.4517409E-08  0.3100172E+04  0.7818609E-02  0.8215691E-01
        1   -1    0    0  501    0  0.00000000000E+00  0.00000000000E+00  0.17844985030E+04  0.17844985030E+04  0.50400001928E-02 0.  1.
       -1   -1    0    0    0  501  0.00000000000E+00  0.00000000000E+00 -0.13464658501E+04  0.13464658501E+04  0.50400001928E-02 0. -1.
    10030    2    1    2    0    0  0.00000000000E+00  0.00000000000E+00  0.43803265288E+03  0.31309643531E+04  0.31001717978E+04 0.  0.
        2    1    3    3  502    0 -0.37579918077E+03 -0.51528825451E+03  0.16458545277E+04  0.17651017353E+04  0.25500000920E-02 0.  1.
       -2    1    3    3    0  502  0.37579918077E+03  0.51528825451E+03 -0.12078218748E+04  0.13658626179E+04  0.25500000920E-02 0. -1.
</event>
<event>
 5   0  0.1329777E-07  0.3101017E+04  0.7818609E-02  0.8215459E-01
        2   -1    0    0  501    0  0.00000000000E+00  0.00000000000E+00  0.25546539659E+04  0.25546539659E+04  0.25500000920E-02 0. -1.
       -2   -1    0    0    0  501  0.00000000000E+00  0.00000000000E+00 -0.94105785318E+03  0.94105785319E+03  0.25500000920E-02 0.  1.
    10030    2    1    2    0    0  0.00000000000E+00  0.00000000000E+00  0.16135961127E+04  0.34957118191E+04  0.31010173665E+04 0.  0.
        1    1    3    3  502    0  0.12581874792E+04  0.19705266014E+03 -0.19019831207E+03  0.12876493629E+04  0.50400001928E-02 0.  1.
       -1    1    3    3    0  502 -0.12581874792E+04 -0.19705266014E+03  0.18037944248E+04  0.22080624562E+04  0.50400001928E-02 0. -1.
</event>
<event>
 5   0  0.1398931E-07  0.3107521E+04  0.7818609E-02  0.8213677E-01
       -2   -1    0    0    0  501  0.00000000000E+00  0.00000000000E+00  0.10062112192E+04  0.10062112192E+04  0.25500000920E-02 0.  1.
        2   -1    0    0  501    0  0.00000000000E+00  0.00000000000E+00 -0.23992686493E+04  0.23992686493E+04  0.25500000920E-02 0. -1.
    10030    2    1    2    0    0  0.00000000000E+00  0.00000000000E+00 -0.13930574301E+04  0.34054798685E+04  0.31075205762E+04 0.  0.
        3    1    3    3  502    0  0.11842058962E+04 -0.97212855044E+03 -0.97975359640E+03  0.18185968885E+04  0.10100000352E+00 0. -1.
       -3    1    3    3    0  502 -0.11842058962E+04  0.97212855044E+03 -0.41330383371E+03  0.15868829800E+04  0.10100000352E+00 0.  1.
</event>
<event>
 5   0  0.4470354E-08  0.3100239E+04  0.7818609E-02  0.8215672E-01
        1   -1    0    0  501    0  0.00000000000E+00  0.00000000000E+00  0.17579529189E+04  0.17579529189E+04  0.50400001928E-02 0. -1.
       -1   -1    0    0    0  501  0.00000000000E+00  0.00000000000E+00 -0.13668572289E+04  0.13668572289E+04  0.50400001928E-02 0.  1.
    10030    2    1    2    0    0  0.00000000000E+00  0.00000000000E+00  0.39109568992E+03  0.31248101478E+04  0.31002391232E+04 0.  0.
        1    1    3    3  502    0 -0.72657764928E+03 -0.40112940774E+03  0.15151417014E+04  0.17275630980E+04  0.50400001928E-02 0. -1.
       -1    1    3    3    0  502  0.72657764928E+03  0.40112940774E+03 -0.11240460115E+04  0.13972470498E+04  0.50400001928E-02 0.  1.
</event>
<event>
 5   0  0.4470354E-08  0.3100044E+04  0.7818609E-02  0.8215726E-01
       -1   -1    0    0    0  501  0.00000000000E+00  0.00000000000E+00  0.85510672309E+03  0.85510672311E+03  0.50400001928E-02 0.  1.
        1   -1    0    0  501    0  0.00000000000E+00  0.00000000000E+00 -0.28096697625E+04  0.28096697625E+04  0.50400001928E-02 0. -1.
    10030    2    1    2    0    0  0.00000000000E+00  0.00000000000E+00 -0.19545630394E+04  0.36647764856E+04  0.31000435504E+04 0.  0.
        1    1    3    3  502    0  0.12287553407E+04  0.94457962868E+03 -0.10036399587E+04  0.18464461890E+04  0.50400001928E-02 0.  1.
       -1    1    3    3    0  502 -0.12287553407E+04 -0.94457962868E+03 -0.95092308077E+03  0.18183302967E+04  0.50400001928E-02 0. -1.
</event>
<event>
 5   0  0.1329777E-07  0.3100589E+04  0.7818609E-02  0.8215576E-01
       -2   -1    0    0    0  501  0.00000000000E+00  0.00000000000E+00  0.25441323463E+04  0.25441323463E+04  0.25500000920E-02 0.  1.
        2   -1    0    0  501    0  0.00000000000E+00  0.00000000000E+00 -0.94468883143E+03  0.94468883143E+03  0.25500000920E-02 0. -1.
    10030    2    1    2    0    0  0.00000000000E+00  0.00000000000E+00  0.15994435149E+04  0.34888211777E+04  0.31005892428E+04 0.  0.
        1    1    3    3  502    0  0.32480268814E+03 -0.13912674750E+04  0.12244915068E+03  0.14339162346E+04  0.50400001928E-02 0. -1.
       -1    1    3    3    0  502 -0.32480268814E+03  0.13912674750E+04  0.14769943642E+04  0.20549049431E+04  0.50400001928E-02 0.  1.
</event>
<event>
 5   0  0.4517409E-08  0.3099918E+04  0.7818609E-02  0.8215761E-01
       -1   -1    0    0    0  501  0.00000000000E+00  0.00000000000E+00  0.36025070330E+04  0.36025070330E+04  0.50400001928E-02 0.  1.
        1   -1    0    0  501    0  0.00000000000E+00  0.00000000000E+00 -0.66686123242E+03  0.66686123244E+03  0.50400001928E-02 0. -1.
    10030    2    1    2    0    0  0.00000000000E+00  0.00000000000E+00  0.29356458005E+04  0.42693682654E+04  0.30999175988E+04 0.  0.
        2    1    3    3  502    0  0.70552924761E+03 -0.12245924637E+04  0.23442727485E+04  0.27373368336E+04  0.25500000920E-02 0.  1.
       -2    1    3    3    0  502 -0.70552924761E+03  0.12245924637E+04  0.59137305204E+03  0.15320314318E+04  0.25500000920E-02 0. -1.
</event>
<event>
 5   0  0.4470354E-08  0.3099715E+04  0.7818609E-02  0.8215816E-01
       -1   -1    0    0    0  501  0.00000000000E+00  0.00000000000E+00  0.10307630406E+04  0.10307630406E+04  0.50400001928E-02 0.  1.
        1   -1    0    0  501    0  0.00000000000E+00  0.00000000000E+00 -0.23303690861E+04  0.23303690861E+04  0.50400001928E-02 0. -1.
    10030    2    1    2    0    0  0.00000000000E+00  0.00000000000E+00 -0.12996060455E+04  0.33611321267E+04  0.30997150352E+04 0.  0.
        1    1    3    3  502    0  0.58192162471E+02 -0.82053649613E+03  0.77451735239E+03  0.11298422892E+04  0.50400001928E-02 0.  1.
       -1    1    3    3    0  502 -0.58192162471E+02  0.82053649613E+03 -0.20741233979E+04  0.22312898375E+04  0.50400001928E-02 0. -1.
</event>
<event>
 5   0  0.1398931E-07  0.3101221E+04  0.7818609E-02  0.8215403E-01
       -2   -1    0    0    0  501  0.00000000000E+00  0.00000000000E+00  0.17346429864E+04  0.17346429864E+04  0.25500000920E-02 0. -1.
        2   -1    0    0  501    0  0.00000000000E+00  0.00000000000E+00 -0.13861025356E+04  0.13861025356E+04  0.25500000920E-02 0.  1.
    10030    2    1    2    0    0  0.00000000000E+00  0.00000000000E+00  0.34854045084E+03  0.31207455220E+04  0.31012210768E+04 0.  0.
        3    1    3    3  502    0 -0.42155060530E+03 -0.89567331173E+03  0.13752905797E+04  0.16945087143E+04  0.10100000352E+00 0. -1.
       -3    1    3    3    0  502  0.42155060530E+03  0.89567331173E+03 -0.10267501288E+04  0.14262368076E+04  0.10100000352E+00 0.  1.
</event>
<event>
 5   0  0.4450600E-08  0.3098923E+04  0.7818609E-02  0.8216033E-01
       -1   -1    0    0    0  501  0.00000000000E+00  0.00000000000E+00  0.16156349712E+04  0.16156349712E+04  0.50400001928E-02 0.  1.
        1   -1    0    0  501    0  0.00000000000E+00  0.00000000000E+00 -0.14859986175E+04  0.14859986175E+04  0.50400001928E-02 0. -1.
    10030    2    1    2    0    0  0.00000000000E+00  0.00000000000E+00  0.12963635367E+03  0.31016335887E+04  0.30989232541E+04 0.  0.
        4    1    3    3  502    0  0.54418181021E+03 -0.13618352275E+02 -0.13871436892E+04  0.14901303733E+04  0.12699999809E+01 0. -1.
       -4    1    3    3    0  502 -0.54418181021E+03  0.13618352275E+02  0.15167800428E+04  0.16115032154E+04  0.12699999809E+01 0.  1.
</event>
<event>
 5   0  0.4470354E-08  0.3100329E+04  0.7818609E-02  0.8215648E-01
       -1   -1    0    0    0  501  0.00000000000E+00  0.00000000000E+00  0.16204015498E+04  0.16204015498E+04  0.50400001928E-02 0. -1.
        1   -1    0    0  501    0  0.00000000000E+00  0.00000000000E+00 -0.14829715117E+04  0.14829715117E+04  0.50400001928E-02 0.  1.
    10030    2    1    2    0    0  0.00000000000E+00  0.00000000000E+00  0.13743003814E+03  0.31033730616E+04  0.31003285864E+04 0.  0.
        1    1    3    3  502    0 -0.10673604366E+04 -0.10647791197E+04  0.42961929306E+03  0.15676688465E+04  0.50400001928E-02 0. -1.
       -1    1    3    3    0  502  0.10673604366E+04  0.10647791197E+04 -0.29218925492E+03  0.15357042150E+04  0.50400001928E-02 0.  1.
</event>
<event>
 5   0  0.4470354E-08  0.3100144E+04  0.7818609E-02  0.8215699E-01
       -1   -1    0    0    0  501  0.00000000000E+00  0.00000000000E+00  0.11045568498E+04  0.11045568498E+04  0.50400001928E-02 0.  1.
        1   -1    0    0  501    0  0.00000000000E+00  0.00000000000E+00 -0.21752818294E+04  0.21752818294E+04  0.50400001928E-02 0. -1.
    10030    2    1    2    0    0  0.00000000000E+00  0.00000000000E+00 -0.10707249796E+04  0.32798386792E+04  0.31001435095E+04 0.  0.
        1    1    3    3  502    0 -0.38386345384E+03  0.11451064045E+04  0.49260714302E+03  0.13043318696E+04  0.50400001928E-02 0. -1.
       -1    1    3    3    0  502  0.38386345384E+03 -0.11451064045E+04 -0.15633321227E+04  0.19755068095E+04  0.50400001928E-02 0.  1.
</event>
<event>
 5   0  0.1377237E-07  0.3100463E+04  0.7818609E-02  0.8215611E-01
       -2   -1    0    0    0  501  0.00000000000E+00  0.00000000000E+00  0.29737225512E+04  0.29737225512E+04  0.25500000920E-02 0. -1.
        2   -1    0    0  501    0  0.00000000000E+00  0.00000000000E+00 -0.80815150488E+03  0.80815150489E+03  0.25500000920E-02 0.  1.
    10030    2    1    2    0    0  0.00000000000E+00  0.00000000000E+00  0.21655710463E+04  0.37818740561E+04  0.31004634201E+04 0.  0.
        2    1    3    3  502    0  0.52576330789E+03 -0.89093155919E+03 -0.32553263599E+03  0.10845079973E+04  0.25500000920E-02 0.  1.
       -2    1    3    3    0  502 -0.52576330789E+03  0.89093155919E+03  0.24911036823E+04  0.26973660588E+04  0.25500000920E-02 0. -1.
</event>
<event>
 5   0  0.1325713E-07  0.3098317E+04  0.7818609E-02  0.8216200E-01
        2   -1    0    0  501    0  0.00000000000E+00  0.00000000000E+00  0.23829740716E+04  0.23829740716E+04  0.25500000920E-02 0. -1.
       -2   -1    0    0    0  501  0.00000000000E+00  0.00000000000E+00 -0.10070996687E+04  0.10070996688E+04  0.25500000920E-02 0.  1.
    10030    2    1    2    0    0  0.00000000000E+00  0.00000000000E+00  0.13758744028E+04  0.33900737403E+04  0.30983172195E+04 0.  0.
        4    1    3    3  502    0  0.58572570400E+03 -0.47461289517E+03 -0.79285355708E+03  0.10940522732E+04  0.12699999809E+01 0.  1.
       -4    1    3    3    0  502 -0.58572570400E+03  0.47461289517E+03  0.21687279599E+04  0.22960214671E+04  0.12699999809E+01 0. -1.
</event>
<event>
 5   0  0.1398931E-07  0.3103608E+04  0.7818609E-02  0.8214748E-01
       -2   -1    0    0    0  501  0.00000000000E+00  0.00000000000E+00  0.13856069118E+04  0.13856069118E+04  0.25500000920E-02 0.  1.
        2   -1    0    0  501    0  0.00000000000E+00  0.00000000000E+00 -0.17379358587E+04  0.17379358587E+04  0.25500000920E-02 0. -1.
    10030    2    1    2    0    0  0.00000000000E+00  0.00000000000E+00 -0.35232894687E+03  0.31235427705E+04  0.31036081828E+04 0.  0.
        3    1    3    3  502    0  0.70701500936E+02 -0.77913107794E+03  0.11726121203E+04  0.14096322690E+04  0.10100000352E+00 0.  1.
       -3    1    3    3    0  502 -0.70701500936E+02  0.77913107794E+03 -0.15249410672E+04  0.17139105016E+04  0.10100000352E+00 0. -1.
</event>
<event>
 5   0  0.4436241E-08  0.3103881E+04  0.7818609E-02  0.8214674E-01
        1   -1    0    0  501    0  0.00000000000E+00  0.00000000000E+00  0.81277222323E+03  0.81277222325E+03  0.50400001928E-02 0. -1.
       -1   -1    0    0    0  501  0.00000000000E+00  0.00000000000E+00 -0.29633378212E+04  0.29633378212E+04  0.50400001928E-02 0.  1.
    10030    2    1    2    0    0  0.00000000000E+00  0.00000000000E+00 -0.21505655980E+04  0.37761100445E+04  0.31038805835E+04 0.  0.
        3    1    3    3  502    0 -0.64678603077E+03  0.98278261697E+03  0.15600190798E+03  0.11868152541E+04  0.10100000352E+00 0. -1.
       -3    1    3    3    0  502  0.64678603077E+03 -0.98278261697E+03 -0.23065675060E+04  0.25892947904E+04  0.10100000352E+00 0.  1.
</event>
<event>
 5   0  0.1318916E-07  0.3101125E+04  0.7818609E-02  0.8215429E-01
        2   -1    0    0  501    0  0.00000000000E+00  0.00000000000E+00  0.13942829397E+04  0.13942829397E+04  0.25500000920E-02 0.  1.
       -2   -1    0    0    0  501  0.00000000000E+00  0.00000000000E+00 -0.17243583317E+04  0.17243583317E+04  0.25500000920E-02 0. -1.
    10030    2    1    2    0    0  0.00000000000E+00  0.00000000000E+00 -0.33007539195E+03  0.31186412714E+04  0.31011245727E+04 0.  0.
        5    1    3    3  502    0 -0.32698446917E+03  0.45072132873E+03 -0.16203305217E+04  0.17133480817E+04  0.46999998093E+01 0. -1.
       -5    1    3    3    0  502  0.32698446917E+03 -0.45072132873E+03  0.12902551298E+04  0.14052931898E+04  0.46999998093E+01 0.  1.
</event>
<event>
 5   0  0.1377237E-07  0.3100774E+04  0.7818609E-02  0.8215526E-01
        2   -1    0    0  501    0  0.00000000000E+00  0.00000000000E+00  0.14296932308E+04  0.14296932308E+04  0.25500000920E-02 0.  1.
       -2   -1    0    0    0  501  0.00000000000E+00  0.00000000000E+00 -0.16812694304E+04  0.16812694304E+04  0.25500000920E-02 0. -1.
    10030    2    1    2    0    0  0.00000000000E+00  0.00000000000E+00 -0.25157619965E+03  0.31109626612E+04  0.31007737898E+04 0.  0.
        2    1    3    3  502    0  0.11296255188E+04  0.39042805250E+03 -0.11165610793E+04  0.16356028004E+04  0.25500000920E-02 0. -1.
       -2    1    3    3    0  502 -0.11296255188E+04 -0.39042805250E+03  0.86498487970E+03  0.14753598608E+04  0.25500000920E-02 0.  1.
</event>
<event>
 5   0  0.4436241E-08  0.3098803E+04  0.7818609E-02  0.8216066E-01
        1   -1    0    0  501    0  0.00000000000E+00  0.00000000000E+00  0.19241402083E+04  0.19241402083E+04  0.50400001928E-02 0.  1.
       -1   -1    0    0    0  501  0.00000000000E+00  0.00000000000E+00 -0.12476458989E+04  0.12476458989E+04  0.50400001928E-02 0. -1.
    10030    2    1    2    0    0  0.00000000000E+00  0.00000000000E+00  0.67649430939E+03  0.31717861072E+04  0.30988034077E+04 0.  0.
        3    1    3    3  502    0  0.24017042717E+03 -0.53807242187E+02 -0.12275091171E+04  0.12519407719E+04  0.10100000352E+00 0. -1.
       -3    1    3    3    0  502 -0.24017042717E+03  0.53807242187E+02  0.19040034265E+04  0.19198453354E+04  0.10100000352E+00 0.  1.
</event>
<event>
 5   0  0.1318916E-07  0.3100603E+04  0.7818609E-02  0.8215572E-01
       -2   -1    0    0    0  501  0.00000000000E+00  0.00000000000E+00  0.10448984652E+04  0.10448984653E+04  0.25500000920E-02 0.  1.
        2   -1    0    0  501    0  0.00000000000E+00  0.00000000000E+00 -0.23001615949E+04  0.23001615949E+04  0.25500000920E-02 0. -1.
    10030    2    1    2    0    0  0.00000000000E+00  0.00000000000E+00 -0.12552631297E+04  0.33450600602E+04  0.31006033738E+04 0.  0.
        5    1    3    3  502    0  0.10081551379E+04  0.55788594576E+03  0.49135125331E+03  0.12526219121E+04  0.46999998093E+01 0.  1.
       -5    1    3    3    0  502 -0.10081551379E+04 -0.55788594576E+03 -0.17466143830E+04  0.20924381481E+04  0.46999998093E+01 0. -1.
</event>
<event>
 5   0  0.4305500E-08  0.3100313E+04  0.7818609E-02  0.8215652E-01
        3   -1    0    0  501    0  0.00000000000E+00  0.00000000000E+00  0.10084035984E+04  0.10084036035E+04  0.10100000352E+00 0. -1.
       -3   -1    0    0    0  501  0.00000000000E+00  0.00000000000E+00 -0.23829590605E+04  0.23829590626E+04  0.10100000352E+00 0.  1.
    10030    2    1    2    0    0  0.00000000000E+00  0.00000000000E+00 -0.13745554621E+04  0.33913626661E+04  0.31003125673E+04 0.  0.
        4    1    3    3  502    0 -0.98924980953E+03 -0.83228202446E+03  0.24840295601E+03  0.13164399703E+04  0.12699999809E+01 0. -1.
       -4    1    3    3    0  502  0.98924980953E+03  0.83228202446E+03 -0.16229584181E+04  0.20749226958E+04  0.12699999809E+01 0.  1.
</event>
<event>
 5   0  0.1318916E-07  0.3098836E+04  0.7818609E-02  0.8216057E-01
       -2   -1    0    0    0  501  0.00000000000E+00  0.00000000000E+00  0.10750846952E+04  0.10750846952E+04  0.25500000920E-02 0.  1.
        2   -1    0    0  501    0  0.00000000000E+00  0.00000000000E+00 -0.22330294932E+04  0.22330294932E+04  0.25500000920E-02 0. -1.
    10030    2    1    2    0    0  0.00000000000E+00  0.00000000000E+00 -0.11579447980E+04  0.33081141884E+04  0.30988358021E+04 0.  0.
        5    1    3    3  502    0 -0.46810546023E+03 -0.97028712991E+03  0.60982874323E+03  0.12379390221E+04  0.46999998093E+01 0.  1.
       -5    1    3    3    0  502  0.46810546023E+03  0.97028712991E+03 -0.17677735412E+04  0.20701751663E+04  0.46999998093E+01 0. -1.
</event>
<event>
 5   0  0.1329777E-07  0.3099604E+04  0.7818609E-02  0.8215847E-01
        2   -1    0    0  501    0  0.00000000000E+00  0.00000000000E+00  0.20095248662E+04  0.20095248662E+04  0.25500000920E-02 0. -1.
       -2   -1    0    0    0  501  0.00000000000E+00  0.00000000000E+00 -0.11952509117E+04  0.11952509117E+04  0.25500000920E-02 0.  1.
    10030    2    1    2    0    0  0.00000000000E+00  0.00000000000E+00  0.81427395450E+03  0.32047757779E+04  0.30996041221E+04 0.  0.
        1    1    3    3  502    0  0.17495628464E+03 -0.13350072010E+04 -0.38638881732E+03  0.14007677347E+04  0.50400001928E-02 0.  1.
       -1    1    3    3    0  502 -0.17495628464E+03  0.13350072010E+04  0.12006627718E+04  0.18040080432E+04  0.50400001928E-02 0. -1.
</event>
<event>
 5   0  0.1325713E-07  0.3097462E+04  0.7818609E-02  0.8216435E-01
        2   -1    0    0  501    0  0.00000000000E+00  0.00000000000E+00  0.18860136019E+04  0.18860136019E+04  0.25500000920E-02 0. -1.
       -2   -1    0    0    0  501  0.00000000000E+00  0.00000000000E+00 -0.12717656346E+04  0.12717656346E+04  0.25500000920E-02 0.  1.
    10030    2    1    2    0    0  0.00000000000E+00  0.00000000000E+00  0.61424796732E+03  0.31577792365E+04  0.30974617256E+04 0.  0.
        4    1    3    3  502    0 -0.14836147562E+04 -0.17458903103E+03  0.72370273865E+03  0.16599220890E+04  0.12699999809E+01 0. -1.
       -4    1    3    3    0  502  0.14836147562E+04  0.17458903103E+03 -0.10945477133E+03  0.14978571476E+04  0.12699999809E+01 0.  1.
</event>
<event>
 5   0  0.4436241E-08  0.3101510E+04  0.7818609E-02  0.8215324E-01
       -1   -1    0    0    0  501  0.00000000000E+00  0.00000000000E+00  0.16459016298E+04  0.16459016298E+04  0.50400001928E-02 0. -1.
        1   -1    0    0  501    0  0.00000000000E+00  0.00000000000E+00 -0.14611083053E+04  0.14611083053E+04  0.50400001928E-02 0.  1.
    10030    2    1    2    0    0  0.00000000000E+00  0.00000000000E+00  0.18479332443E+03  0.31070099351E+04  0.31015096589E+04 0.  0.
        3    1    3    3  502    0  0.25578521252E+03 -0.13616340643E+04 -0.60552179712E+03  0.15119953892E+04  0.10100000352E+00 0.  1.
       -3    1    3    3    0  502 -0.25578521252E+03  0.13616340643E+04  0.79031512155E+03  0.15950145459E+04  0.10100000352E+00 0. -1.
</event>
<event>
 5   0  0.4450600E-08  0.3100043E+04  0.7818609E-02  0.8215726E-01
       -1   -1    0    0    0  501  0.00000000000E+00  0.00000000000E+00  0.13521569180E+04  0.13521569180E+04  0.50400001928E-02 0.  1.
        1   -1    0    0  501    0  0.00000000000E+00  0.00000000000E+00 -0.17768399030E+04  0.17768399030E+04  0.50400001928E-02 0. -1.
    10030    2    1    2    0    0  0.00000000000E+00  0.00000000000E+00 -0.42468298495E+03  0.31289968210E+04  0.31000428172E+04 0.  0.
        4    1    3    3  502    0  0.44995757055E+03  0.16735558013E+03 -0.16999095440E+04  0.17663985327E+04  0.12699999809E+01 0. -1.
       -4    1    3    3    0  502 -0.44995757055E+03 -0.16735558013E+03  0.12752265591E+04  0.13625982883E+04  0.12699999809E+01 0.  1.
</event>
<event>
 5   0  0.1329777E-07  0.3104222E+04  0.7818609E-02  0.8214580E-01
        2   -1    0    0  501    0  0.00000000000E+00  0.00000000000E+00  0.14801961871E+04  0.14801961871E+04  0.25500000920E-02 0. -1.
       -2   -1    0    0    0  501  0.00000000000E+00  0.00000000000E+00 -0.16275201325E+04  0.16275201325E+04  0.25500000920E-02 0.  1.
    10030    2    1    2    0    0  0.00000000000E+00  0.00000000000E+00 -0.14732394537E+03  0.31077163196E+04  0.31042223468E+04 0.  0.
        1    1    3    3  502    0 -0.16922475514E+03 -0.20165814112E+03  0.14576825544E+04  0.14812634651E+04  0.50400001928E-02 0. -1.
       -1    1    3    3    0  502  0.16922475514E+03  0.20165814112E+03 -0.16050064998E+04  0.16264528545E+04  0.50400001928E-02 0.  1.
</event>
<event>
 5   0  0.4470354E-08  0.3100145E+04  0.7818609E-02  0.8215698E-01
        1   -1    0    0  501    0  0.00000000000E+00  0.00000000000E+00  0.15389893020E+04  0.15389893020E+04  0.50400001928E-02 0. -1.
       -1   -1    0    0    0  501  0.00000000000E+00  0.00000000000E+00 -0.15612359353E+04  0.15612359353E+04  0.50400001928E-02 0.  1.
    10030    2    1    2    0    0  0.00000000000E+00  0.00000000000E+00 -0.22246633296E+02  0.31002252374E+04  0.31001454175E+04 0.  0.
        1    1    3    3  502    0 -0.20104884270E+03 -0.12326203255E+04 -0.92927107503E+03  0.15567010743E+04  0.50400001928E-02 0.  1.
       -1    1    3    3    0  502  0.20104884270E+03  0.12326203255E+04  0.90702444173E+03  0.15435241630E+04  0.50400001928E-02 0. -1.
</event>
<event>
 5   0  0.1325713E-07  0.3099678E+04  0.7818609E-02  0.8215826E-01
        2   -1    0    0  501    0  0.00000000000E+00  0.00000000000E+00  0.21961230521E+04  0.21961230521E+04  0.25500000920E-02 0.  1.
       -2   -1    0    0    0  501  0.00000000000E+00  0.00000000000E+00 -0.10937462233E+04  0.10937462233E+04  0.25500000920E-02 0. -1.
    10030    2    1    2    0    0  0.00000000000E+00  0.00000000000E+00  0.11023768289E+04  0.32898692754E+04  0.30996782376E+04 0.  0.
        4    1    3    3  502    0 -0.10561832733E+04  0.43172368767E+03  0.16643965685E+04  0.20179509408E+04  0.12699999809E+01 0.  1.
       -4    1    3    3    0  502  0.10561832733E+04 -0.43172368767E+03 -0.56201973959E+03  0.12719183346E+04  0.12699999809E+01 0. -1.
</event>
<event>
 5   0  0.1318916E-07  0.3101737E+04  0.7818609E-02  0.8215261E-01
        2   -1    0    0  501    0  0.00000000000E+00  0.00000000000E+00  0.19052102451E+04  0.19052102451E+04  0.25500000920E-02 0. -1.
       -2   -1    0    0    0  501  0.00000000000E+00  0.00000000000E+00 -0.12624290483E+04  0.12624290483E+04  0.25500000920E-02 0.  1.
    10030    2    1    2    0    0  0.00000000000E+00  0.00000000000E+00  0.64278119681E+03  0.31676392934E+04  0.31017367758E+04 0.  0.
        5    1    3    3  502    0  0.67605191326E+03 -0.13154206940E+04  0.79798903815E+03  0.16805315786E+04  0.46999998093E+01 0.  1.
       -5    1    3    3    0  502 -0.67605191326E+03  0.13154206940E+04 -0.15520784134E+03  0.14871077149E+04  0.46999998093E+01 0. -1.
</event>
<event>
 5   0  0.1318916E-07  0.3100430E+04  0.7818609E-02  0.8215620E-01
        2   -1    0    0  501    0  0.00000000000E+00  0.00000000000E+00  0.23676131186E+04  0.23676131186E+04  0.25500000920E-02 0. -1.
       -2   -1    0    0    0  501  0.00000000000E+00  0.00000000000E+00 -0.10150167842E+04  0.10150167842E+04  0.25500000920E-02 0.  1.
    10030    2    1    2    0    0  0.00000000000E+00  0.00000000000E+00  0.13525963343E+04  0.33826299028E+04  0.31004303275E+04 0.  0.
        5    1    3    3  502    0 -0.86202851790E+03  0.12853808045E+04  0.77295033615E+03  0.17299628003E+04  0.46999998093E+01 0.  1.
       -5    1    3    3    0  502  0.86202851790E+03 -0.12853808045E+04  0.57964599818E+03  0.16526671025E+04  0.46999998093E+01 0. -1.
</event>
<event>
 5   0  0.4450600E-08  0.3099940E+04  0.7818609E-02  0.8215754E-01
       -1   -1    0    0    0  501  0.00000000000E+00  0.00000000000E+00  0.26446248719E+04  0.26446248719E+04  0.50400001928E-02 0. -1.
        1   -1    0    0  501    0  0.00000000000E+00  0.00000000000E+00 -0.90841112597E+03  0.90841112598E+03  0.50400001928E-02 0.  1.
    10030    2    1    2    0    0  0.00000000000E+00  0.00000000000E+00  0.17362137459E+04  0.35530359979E+04  0.30999397786E+04 0.  0.
        4    1    3    3  502    0  0.63070736460E+03 -0.32282867070E+03  0.24481475960E+04  0.25486149954E+04  0.12699999809E+01 0. -1.
       -4    1    3    3    0  502 -0.63070736460E+03  0.32282867070E+03 -0.71193385005E+03  0.10044210024E+04  0.12699999809E+01 0.  1.
</event>
<event>
 5   0  0.4450600E-08  0.3099109E+04  0.7818609E-02  0.8215982E-01
       -1   -1    0    0    0  501  0.00000000000E+00  0.00000000000E+00  0.25022595053E+04  0.25022595053E+04  0.50400001928E-02 0. -1.
        1   -1    0    0  501    0  0.00000000000E+00  0.00000000000E+00 -0.95958069542E+03  0.95958069543E+03  0.50400001928E-02 0.  1.
    10030    2    1    2    0    0  0.00000000000E+00  0.00000000000E+00  0.15426788098E+04  0.34618402007E+04  0.30991094955E+04 0.  0.
        4    1    3    3  502    0  0.57342398053E+03 -0.83671666323E+03  0.20798587380E+04  0.23140276184E+04  0.12699999809E+01 0. -1.
       -4    1    3    3    0  502 -0.57342398053E+03  0.83671666323E+03 -0.53717992813E+03  0.11478125823E+04  0.12699999809E+01 0.  1.
</event>
<event>
 5   0  0.4470354E-08  0.3099834E+04  0.7818609E-02  0.8215784E-01
        1   -1    0    0  501    0  0.00000000000E+00  0.00000000000E+00  0.16188933232E+04  0.16188933232E+04  0.50400001928E-02 0.  1.
       -1   -1    0    0    0  501  0.00000000000E+00  0.00000000000E+00 -0.14838792796E+04  0.14838792797E+04  0.50400001928E-02 0. -1.
    10030    2    1    2    0    0  0.00000000000E+00  0.00000000000E+00  0.13501404355E+03  0.31027726029E+04  0.30998337106E+04 0.  0.
        1    1    3    3  502    0 -0.86186168244E+03  0.10554859653E+04 -0.67169572844E+03  0.15192206338E+04  0.50400001928E-02 0.  1.
       -1    1    3    3    0  502  0.86186168244E+03 -0.10554859653E+04  0.80670977199E+03  0.15835519691E+04  0.50400001928E-02 0. -1.
</event>
<event>
 5   0  0.1318916E-07  0.3099399E+04  0.7818609E-02  0.8215903E-01
        2   -1    0    0  501    0  0.00000000000E+00  0.00000000000E+00  0.93716095499E+03  0.93716095499E+03  0.25500000920E-02 0.  1.
       -2   -1    0    0    0  501  0.00000000000E+00  0.00000000000E+00 -0.25625998282E+04  0.25625998282E+04  0.25500000920E-02 0. -1.
    10030    2    1    2    0    0  0.00000000000E+00  0.00000000000E+00 -0.16254388732E+04  0.34997607832E+04  0.30993989755E+04 0.  0.
        5    1    3    3  502    0 -0.81419732566E+03 -0.78747074120E+03 -0.20069345142E+04  0.23045250460E+04  0.46999998093E+01 0. -1.
       -5    1    3    3    0  502  0.81419732566E+03  0.78747074120E+03  0.38149564099E+03  0.11952357372E+04  0.46999998093E+01 0.  1.
</event>
<event>
 5   0  0.1329777E-07  0.3102952E+04  0.7818609E-02  0.8214928E-01
       -2   -1    0    0    0  501  0.00000000000E+00  0.00000000000E+00  0.16193970429E+04  0.16193970429E+04  0.25500000920E-02 0. -1.
        2   -1    0    0  501    0  0.00000000000E+00  0.00000000000E+00 -0.14864033647E+04  0.14864033647E+04  0.25500000920E-02 0.  1.
    10030    2    1    2    0    0  0.00000000000E+00  0.00000000000E+00  0.13299367826E+03  0.31058004076E+04  0.31029516357E+04 0.  0.
        1    1    3    3  502    0 -0.43188549411E+03  0.14893729979E+04  0.18284095853E+02  0.15508356828E+04  0.50400001928E-02 0.  1.
       -1    1    3    3    0  502  0.43188549411E+03 -0.14893729979E+04  0.11470958241E+03  0.15549647248E+04  0.50400001928E-02 0. -1.
</event>
<event>
 5   0  0.1329777E-07  0.3100133E+04  0.7818609E-02  0.8215701E-01
        2   -1    0    0  501    0  0.00000000000E+00  0.00000000000E+00  0.15655735299E+04  0.15655735299E+04  0.25500000920E-02 0. -1.
       -2   -1    0    0    0  501  0.00000000000E+00  0.00000000000E+00 -0.15347130795E+04  0.15347130795E+04  0.25500000920E-02 0.  1.
    10030    2    1    2    0    0  0.00000000000E+00  0.00000000000E+00  0.30860450335E+02  0.31002866094E+04  0.31001330122E+04 0.  0.
        1    1    3    3  502    0 -0.10317344452E+04 -0.11551092041E+04  0.78305705590E+02  0.15507691712E+04  0.50400001928E-02 0.  1.
       -1    1    3    3    0  502  0.10317344452E+04  0.11551092041E+04 -0.47445255255E+02  0.15495174382E+04  0.50400001928E-02 0. -1.
</event>
<event>
 5   0  0.1329777E-07  0.3099556E+04  0.7818609E-02  0.8215860E-01
       -2   -1    0    0    0  501  0.00000000000E+00  0.00000000000E+00  0.17245192723E+04  0.17245192723E+04  0.25500000920E-02 0. -1.
        2   -1    0    0  501    0  0.00000000000E+00  0.00000000000E+00 -0.13927430729E+04  0.13927430729E+04  0.25500000920E-02 0.  1.
    10030    2    1    2    0    0  0.00000000000E+00  0.00000000000E+00  0.33177619941E+03  0.31172623451E+04  0.30995562718E+04 0.  0.
        1    1    3    3  502    0 -0.14599350411E+04  0.25271107059E+03 -0.29117370223E+03  0.15099852099E+04  0.50400001928E-02 0.  1.
       -1    1    3    3    0  502  0.14599350411E+04 -0.25271107059E+03  0.62294990163E+03  0.16072771352E+04  0.50400001928E-02 0. -1.
</event>
<event>
 5   0  0.4517409E-08  0.3107137E+04  0.7818609E-02  0.8213782E-01
       -1   -1    0    0    0  501  0.00000000000E+00  0.00000000000E+00  0.11393940686E+04  0.11393940686E+04  0.50400001928E-02 0.  1.
        1   -1    0    0  501    0  0.00000000000E+00  0.00000000000E+00 -0.21182974173E+04  0.21182974173E+04  0.50400001928E-02 0. -1.
    10030    2    1    2    0    0  0.00000000000E+00  0.00000000000E+00 -0.97890334872E+03  0.32576914860E+04  0.31071372760E+04 0.  0.
        2    1    3    3  502    0 -0.12201876154E+03  0.56885427510E+03 -0.19997688571E+04  0.20826807836E+04  0.25500000920E-02 0. -1.
       -2    1    3    3    0  502  0.12201876154E+03 -0.56885427510E+03  0.10208655084E+04  0.11750107024E+04  0.25500000920E-02 0.  1.
</event>
<event>
 5   0  0.4838602E-08  0.3101488E+04  0.7818609E-02  0.8215330E-01
       -1   -1    0    0    0  501  0.00000000000E+00  0.00000000000E+00  0.29432410013E+04  0.29432410013E+04  0.50400001928E-02 0.  1.
        1   -1    0    0  501    0  0.00000000000E+00  0.00000000000E+00 -0.81706079664E+03  0.81706079666E+03  0.50400001928E-02 0. -1.
    10030    2    1    2    0    0  0.00000000000E+00  0.00000000000E+00  0.21261802047E+04  0.37603017980E+04  0.31014879250E+04 0.  0.
        5    1    3    3  502    0  0.14319779878E+04 -0.57334027250E+03  0.86946444615E+03  0.17706695171E+04  0.46999998093E+01 0.  1.
       -5    1    3    3    0  502 -0.14319779878E+04  0.57334027250E+03  0.12567157585E+04  0.19896322809E+04  0.46999998093E+01 0. -1.
</event>
<event>
 5   0  0.1318916E-07  0.3101617E+04  0.7818609E-02  0.8215294E-01
       -2   -1    0    0    0  501  0.00000000000E+00  0.00000000000E+00  0.14601115711E+04  0.14601115711E+04  0.25500000920E-02 0. -1.
        2   -1    0    0  501    0  0.00000000000E+00  0.00000000000E+00 -0.16471391710E+04  0.16471391710E+04  0.25500000920E-02 0.  1.
    10030    2    1    2    0    0  0.00000000000E+00  0.00000000000E+00 -0.18702759982E+03  0.31072507421E+04  0.31016169737E+04 0.  0.
        5    1    3    3  502    0 -0.27168584249E+03  0.69238361414E+03  0.12697579412E+04  0.14715690895E+04  0.46999998093E+01 0. -1.
       -5    1    3    3    0  502  0.27168584249E+03 -0.69238361414E+03 -0.14567855410E+04  0.16356816526E+04  0.46999998093E+01 0.  1.
</event>
<event>
 5   0  0.4450600E-08  0.3095737E+04  0.7818609E-02  0.8216909E-01
       -1   -1    0    0    0  501  0.00000000000E+00  0.00000000000E+00  0.13735141711E+04  0.13735141711E+04  0.50400001928E-02 0. -1.
        1   -1    0    0  501    0  0.00000000000E+00  0.00000000000E+00 -0.17443554615E+04  0.17443554615E+04  0.50400001928E-02 0.  1.
    10030    2    1    2    0    0  0.00000000000E+00  0.00000000000E+00 -0.37084129043E+03  0.31178696326E+04  0.30957370339E+04 0.  0.
        4    1    3    3  502    0  0.10026999361E+03 -0.59476204892E+03 -0.16211294365E+04  0.17296988839E+04  0.12699999809E+01 0.  1.
       -4    1    3    3    0  502 -0.10026999361E+03  0.59476204892E+03  0.12502881460E+04  0.13881707487E+04  0.12699999809E+01 0. -1.
</event>
<event>
 5   0  0.1377237E-07  0.3101635E+04  0.7818609E-02  0.8215289E-01
        2   -1    0    0  501    0  0.00000000000E+00  0.00000000000E+00  0.25731090075E+04  0.25731090075E+04  0.25500000920E-02 0. -1.
       -2   -1    0    0    0  501  0.00000000000E+00  0.00000000000E+00 -0.93468070012E+03  0.93468070012E+03  0.25500000920E-02 0.  1.
    10030    2    1    2    0    0  0.00000000000E+00  0.00000000000E+00  0.16384283074E+04  0.35077897076E+04  0.31016352646E+04 0.  0.
        2    1    3    3  502    0  0.58713801532E+02  0.12774531503E+04 -0.17299671674E+03  0.12904502028E+04  0.25500000920E-02 0.  1.
       -2    1    3    3    0  502 -0.58713801532E+02 -0.12774531503E+04  0.18114250241E+04  0.22173395049E+04  0.25500000920E-02 0. -1.
</event>
<event>
 5   0  0.4470354E-08  0.3098375E+04  0.7818609E-02  0.8216184E-01
        1   -1    0    0  501    0  0.00000000000E+00  0.00000000000E+00  0.16520325455E+04  0.16520325455E+04  0.50400001928E-02 0. -1.
       -1   -1    0    0    0  501  0.00000000000E+00  0.00000000000E+00 -0.14527449144E+04  0.14527449144E+04  0.50400001928E-02 0.  1.
    10030    2    1    2    0    0  0.00000000000E+00  0.00000000000E+00  0.19928763109E+03  0.31047774599E+04  0.30983749798E+04 0.  0.
        1    1    3    3  502    0  0.99100607049E+03 -0.10849179248E+04  0.59141441585E+03  0.15839542123E+04  0.50400001928E-02 0. -1.
       -1    1    3    3    0  502 -0.99100607049E+03  0.10849179248E+04 -0.39212678476E+03  0.15208232476E+04  0.50400001928E-02 0.  1.
</event>
<event>
 5   0  0.1398931E-07  0.3099808E+04  0.7818609E-02  0.8215791E-01
       -2   -1    0    0    0  501  0.00000000000E+00  0.00000000000E+00  0.10271956079E+04  0.10271956079E+04  0.25500000920E-02 0.  1.
        2   -1    0    0  501    0  0.00000000000E+00  0.00000000000E+00 -0.23386029448E+04  0.23386029448E+04  0.25500000920E-02 0. -1.
    10030    2    1    2    0    0  0.00000000000E+00  0.00000000000E+00 -0.13114073369E+04  0.33657985528E+04  0.30998081706E+04 0.  0.
        3    1    3    3  502    0  0.47308795473E+03  0.12223207821E+04 -0.15539256206E+04  0.20328711596E+04  0.10100000352E+00 0. -1.
       -3    1    3    3    0  502 -0.47308795473E+03 -0.12223207821E+04  0.24251828366E+03  0.13329273931E+04  0.10100000352E+00 0.  1.
</event>
<event>
 5   0  0.4305500E-08  0.3099803E+04  0.7818609E-02  0.8215792E-01
        4   -1    0    0  501    0  0.00000000000E+00  0.00000000000E+00  0.16275263658E+04  0.16275268613E+04  0.12699999809E+01 0. -1.
       -4   -1    0    0    0  501  0.00000000000E+00  0.00000000000E+00 -0.14759776862E+04  0.14759782326E+04  0.12699999809E+01 0.  1.
    10030    2    1    2    0    0  0.00000000000E+00  0.00000000000E+00  0.15154867954E+03  0.31035050939E+04  0.30998027139E+04 0.  0.
        4    1    3    3  502    0  0.52961498168E+02  0.11815981460E+03  0.16221014760E+04  0.16272619560E+04  0.12699999809E+01 0. -1.
       -4    1    3    3    0  502 -0.52961498168E+02 -0.11815981460E+03 -0.14705527965E+04  0.14762431379E+04  0.12699999809E+01 0.  1.
</event>
<event>
 5   0  0.4470354E-08  0.3099380E+04  0.7818609E-02  0.8215908E-01
        1   -1    0    0  501    0  0.00000000000E+00  0.00000000000E+00  0.25465157830E+04  0.25465157830E+04  0.50400001928E-02 0.  1.
       -1   -1    0    0    0  501  0.00000000000E+00  0.00000000000E+00 -0.94306848657E+03  0.94306848659E+03  0.50400001928E-02 0. -1.
    10030    2    1    2    0    0  0.00000000000E+00  0.00000000000E+00  0.16034472965E+04  0.34895842696E+04  0.30993797996E+04 0.  0.
        1    1    3    3  502    0  0.10166140027E+04 -0.60809180002E+03 -0.32319349465E+03  0.12278980832E+04  0.50400001928E-02 0. -1.
       -1    1    3    3    0  502 -0.10166140027E+04  0.60809180002E+03  0.19266407911E+04  0.22616861864E+04  0.50400001928E-02 0.  1.
</event>
<event>
 5   0  0.4450600E-08  0.3099096E+04  0.7818609E-02  0.8215986E-01
       -1   -1    0    0    0  501  0.00000000000E+00  0.00000000000E+00  0.18451976793E+04  0.18451976793E+04  0.50400001928E-02 0.  1.
        1   -1    0    0  501    0  0.00000000000E+00  0.00000000000E+00 -0.13012691872E+04  0.13012691872E+04  0.50400001928E-02 0. -1.
    10030    2    1    2    0    0  0.00000000000E+00  0.00000000000E+00  0.54392849209E+03  0.31464668665E+04  0.30990959226E+04 0.  0.
        4    1    3    3  502    0  0.63557335713E+03  0.44199669195E+02 -0.11621385820E+04  0.13253206403E+04  0.12699999809E+01 0. -1.
       -4    1    3    3    0  502 -0.63557335713E+03 -0.44199669195E+02  0.17060670740E+04  0.18211462262E+04  0.12699999809E+01 0.  1.
</event>
<event>
 5   0  0.4305500E-08  0.3100245E+04  0.7818609E-02  0.8215671E-01
       -3   -1    0    0    0  501  0.00000000000E+00  0.00000000000E+00  0.17125860964E+04  0.17125860994E+04  0.10100000352E+00 0.  1.
        3   -1    0    0  501    0  0.00000000000E+00  0.00000000000E+00 -0.14030713248E+04  0.14030713284E+04  0.10100000352E+00 0. -1.
    10030    2    1    2    0    0  0.00000000000E+00  0.00000000000E+00  0.30951477161E+03  0.31156574278E+04  0.31002454440E+04 0.  0.
        4    1    3    3  502    0 -0.61611520838E+03  0.55495931311E+03 -0.11614484107E+04  0.14270745646E+04  0.12699999809E+01 0. -1.
       -4    1    3    3    0  502  0.61611520838E+03 -0.55495931311E+03  0.14709631823E+04  0.16885828632E+04  0.12699999809E+01 0.  1.
</event>
<event>
 5   0  0.4838602E-08  0.3102124E+04  0.7818609E-02  0.8215155E-01
        1   -1    0    0  501    0  0.00000000000E+00  0.00000000000E+00  0.25748144554E+04  0.25748144555E+04  0.50400001928E-02 0. -1.
       -1   -1    0    0    0  501  0.00000000000E+00  0.00000000000E+00 -0.93435617695E+03  0.93435617696E+03  0.50400001928E-02 0.  1.
    10030    2    1    2    0    0  0.00000000000E+00  0.00000000000E+00  0.16404582785E+04  0.35091706324E+04  0.31021242986E+04 0.  0.
        5    1    3    3  502    0  0.80647576692E+03 -0.35092950834E+03  0.22654500661E+04  0.24301935673E+04  0.46999998093E+01 0. -1.
       -5    1    3    3    0  502 -0.80647576692E+03  0.35092950834E+03 -0.62499178762E+03  0.10789770651E+04  0.46999998093E+01 0.  1.
</event>
<event>
 5   0  0.1318916E-07  0.3101504E+04  0.7818609E-02  0.8215325E-01
        2   -1    0    0  501    0  0.00000000000E+00  0.00000000000E+00  0.21794682854E+04  0.21794682854E+04  0.25500000920E-02 0.  1.
       -2   -1    0    0    0  501  0.00000000000E+00  0.00000000000E+00 -0.11034030571E+04  0.11034030571E+04  0.25500000920E-02 0. -1.
    10030    2    1    2    0    0  0.00000000000E+00  0.00000000000E+00  0.10760652283E+04  0.32828713426E+04  0.31015041313E+04 0.  0.
        5    1    3    3  502    0  0.25007623638E+03  0.38367564533E+03 -0.10301808096E+04  0.11274039717E+04  0.46999998093E+01 0. -1.
       -5    1    3    3    0  502 -0.25007623638E+03 -0.38367564533E+03  0.21062460379E+04  0.21554673709E+04  0.46999998093E+01 0.  1.
</event>
<event>
 5   0  0.1318916E-07  0.3094531E+04  0.7818609E-02  0.8217240E-01
       -2   -1    0    0    0  501  0.00000000000E+00  0.00000000000E+00  0.14756706848E+04  0.14756706848E+04  0.25500000920E-02 0.  1.
        2   -1    0    0  501    0  0.00000000000E+00  0.00000000000E+00 -0.16223338015E+04  0.16223338015E+04  0.25500000920E-02 0. -1.
    10030    2    1    2    0    0  0.00000000000E+00  0.00000000000E+00 -0.14666311669E+03  0.30980044864E+04  0.30945309383E+04 0.  0.
        5    1    3    3  502    0 -0.28131790758E+03 -0.96459732084E+03  0.11046032012E+04  0.14932374488E+04  0.46999998093E+01 0.  1.
       -5    1    3    3    0  502  0.28131790758E+03  0.96459732084E+03 -0.12512663179E+04  0.16047670375E+04  0.46999998093E+01 0. -1.
</event>
<event>
 5   0  0.1318916E-07  0.3100381E+04  0.7818609E-02  0.8215633E-01
        2   -1    0    0  501    0  0.00000000000E+00  0.00000000000E+00  0.15903107661E+04  0.15903107661E+04  0.25500000920E-02 0. -1.
       -2   -1    0    0    0  501  0.00000000000E+00  0.00000000000E+00 -0.15110823659E+04  0.15110823659E+04  0.25500000920E-02 0.  1.
    10030    2    1    2    0    0  0.00000000000E+00  0.00000000000E+00  0.79228400186E+02  0.31013931321E+04  0.31003809799E+04 0.  0.
        5    1    3    3  502    0 -0.12881159245E+04 -0.67034852803E+03 -0.50320342181E+03  0.15368297101E+04  0.46999998093E+01 0.  1.
       -5    1    3    3    0  502  0.12881159245E+04  0.67034852803E+03  0.58243182200E+03  0.15645634220E+04  0.46999998093E+01 0. -1.
</event>
<event>
 5   0  0.1318916E-07  0.3099112E+04  0.7818609E-02  0.8215982E-01
        2   -1    0    0  501    0  0.00000000000E+00  0.00000000000E+00  0.17593172984E+04  0.17593172984E+04  0.25500000920E-02 0. -1.
       -2   -1    0    0    0  501  0.00000000000E+00  0.00000000000E+00 -0.13648042193E+04  0.13648042193E+04  0.25500000920E-02 0.  1.
    10030    2    1    2    0    0  0.00000000000E+00  0.00000000000E+00  0.39451307916E+03  0.31241215177E+04  0.30991119192E+04 0.  0.
        5    1    3    3  502    0  0.17581576328E+03 -0.37801838406E+03 -0.13071987485E+04  0.13720786199E+04  0.46999998093E+01 0.  1.
       -5    1    3    3    0  502 -0.17581576328E+03  0.37801838406E+03  0.17017118276E+04  0.17520428978E+04  0.46999998093E+01 0. -1.
</event>
<event>
 5   0  0.4517409E-08  0.3098129E+04  0.7818609E-02  0.8216252E-01
        1   -1    0    0  501    0  0.00000000000E+00  0.00000000000E+00  0.19843600637E+04  0.19843600637E+04  0.50400001928E-02 0. -1.
       -1   -1    0    0    0  501  0.00000000000E+00  0.00000000000E+00 -0.12092567616E+04  0.12092567617E+04  0.50400001928E-02 0.  1.
    10030    2    1    2    0    0  0.00000000000E+00  0.00000000000E+00  0.77510330209E+03  0.31936168254E+04  0.30981289997E+04 0.  0.
        2    1    3    3  502    0  0.12695478285E+04  0.84844713366E+03  0.11877288053E+03  0.15315747532E+04  0.25500000920E-02 0.  1.
       -2    1    3    3    0  502 -0.12695478285E+04 -0.84844713366E+03  0.65633042157E+03  0.16620420722E+04  0.25500000920E-02 0. -1.
</event>
<event>
 5   0  0.1398931E-07  0.3101597E+04  0.7818609E-02  0.8215300E-01
        2   -1    0    0  501    0  0.00000000000E+00  0.00000000000E+00  0.17293260863E+04  0.17293260863E+04  0.25500000920E-02 0. -1.
       -2   -1    0    0    0  501  0.00000000000E+00  0.00000000000E+00 -0.13907011668E+04  0.13907011668E+04  0.25500000920E-02 0.  1.
    10030    2    1    2    0    0  0.00000000000E+00  0.00000000000E+00  0.33862491950E+03  0.31200272531E+04  0.31015968829E+04 0.  0.
        3    1    3    3  502    0 -0.42912702156E+03 -0.57421216647E+03  0.15526590161E+04  0.17101519357E+04  0.10100000352E+00 0. -1.
       -3    1    3    3    0  502  0.42912702156E+03  0.57421216647E+03 -0.12140340966E+04  0.14098753174E+04  0.10100000352E+00 0.  1.
</event>
<event>
 5   0  0.1325713E-07  0.3100216E+04  0.7818609E-02  0.8215679E-01
       -2   -1    0    0    0  501  0.00000000000E+00  0.00000000000E+00  0.13613376229E+04  0.13613376229E+04  0.25500000920E-02 0.  1.
        2   -1    0    0  501    0  0.00000000000E+00  0.00000000000E+00 -0.17650542678E+04  0.17650542678E+04  0.25500000920E-02 0. -1.
    10030    2    1    2    0    0  0.00000000000E+00  0.00000000000E+00 -0.40371664497E+03  0.31263918907E+04  0.31002159803E+04 0.  0.
        4    1    3    3  502    0 -0.53389695121E+03  0.13474401974E+04 -0.75621979366E+03  0.16347816458E+04  0.12699999809E+01 0. -1.
       -4    1    3    3    0  502  0.53389695121E+03 -0.13474401974E+04  0.35250314869E+03  0.14916102449E+04  0.12699999809E+01 0.  1.
</event>
<event>
 5   0  0.1398931E-07  0.3099463E+04  0.7818609E-02  0.8215885E-01
       -2   -1    0    0    0  501  0.00000000000E+00  0.00000000000E+00  0.11079073193E+04  0.11079073193E+04  0.25500000920E-02 0.  1.
        2   -1    0    0  501    0  0.00000000000E+00  0.00000000000E+00 -0.21677514579E+04  0.21677514579E+04  0.25500000920E-02 0. -1.
    10030    2    1    2    0    0  0.00000000000E+00  0.00000000000E+00 -0.10598441386E+04  0.32756587772E+04  0.30994629901E+04 0.  0.
        3    1    3    3  502    0 -0.11290056522E+03  0.97451679899E+03  0.73795904898E+03  0.12276046177E+04  0.10100000352E+00 0.  1.
       -3    1    3    3    0  502  0.11290056522E+03 -0.97451679899E+03 -0.17978031875E+04  0.20480541596E+04  0.10100000352E+00 0. -1.
</event>
<event>
 5   0  0.4517409E-08  0.3108283E+04  0.7818609E-02  0.8213469E-01
        1   -1    0    0  501    0  0.00000000000E+00  0.00000000000E+00  0.18118739621E+04  0.18118739621E+04  0.50400001928E-02 0. -1.
       -1   -1    0    0    0  501  0.00000000000E+00  0.00000000000E+00 -0.13330701687E+04  0.13330701687E+04  0.50400001928E-02 0.  1.
    10030    2    1    2    0    0  0.00000000000E+00  0.00000000000E+00  0.47880379338E+03  0.31449441309E+04  0.31082825666E+04 0.  0.
        2    1    3    3  502    0  0.13571018097E+04 -0.73175315736E+03  0.41733538055E+02  0.15423779347E+04  0.25500000920E-02 0.  1.
       -2    1    3    3    0  502 -0.13571018097E+04  0.73175315736E+03  0.43707025533E+03  0.16025661962E+04  0.25500000920E-02 0. -1.
</event>
<event>
 5   0  0.1377237E-07  0.3099950E+04  0.7818609E-02  0.8215752E-01
        2   -1    0    0  501    0  0.00000000000E+00  0.00000000000E+00  0.17604312316E+04  0.17604312316E+04  0.25500000920E-02 0.  1.
       -2   -1    0    0    0  501  0.00000000000E+00  0.00000000000E+00 -0.13646787824E+04  0.13646787824E+04  0.25500000920E-02 0. -1.
    10030    2    1    2    0    0  0.00000000000E+00  0.00000000000E+00  0.39575244920E+03  0.31251100139E+04  0.30999504186E+04 0.  0.
        2    1    3    3  502    0 -0.51528578350E+03 -0.75087604242E+02  0.16696103044E+04  0.17489300031E+04  0.25500000920E-02 0.  1.
       -2    1    3    3    0  502  0.51528578350E+03  0.75087604242E+02 -0.12738578552E+04  0.13761800109E+04  0.25500000920E-02 0. -1.
</event>
<event>
 5   0  0.4450600E-08  0.3099414E+04  0.7818609E-02  0.8215899E-01
        1   -1    0    0  501    0  0.00000000000E+00  0.00000000000E+00  0.20469409319E+04  0.20469409319E+04  0.50400001928E-02 0.  1.
       -1   -1    0    0    0  501  0.00000000000E+00  0.00000000000E+00 -0.11732591952E+04  0.11732591952E+04  0.50400001928E-02 0. -1.
    10030    2    1    2    0    0  0.00000000000E+00  0.00000000000E+00  0.87368173666E+03  0.32202001271E+04  0.30994143127E+04 0.  0.
        4    1    3    3  502    0 -0.27689417705E+03 -0.78446832551E+03  0.17952842933E+04  0.19786632471E+04  0.12699999809E+01 0.  1.
       -4    1    3    3    0  502  0.27689417705E+03  0.78446832551E+03 -0.92160255662E+03  0.12415368800E+04  0.12699999809E+01 0. -1.
</event>
<event>
 5   0  0.4450600E-08  0.3100146E+04  0.7818609E-02  0.8215698E-01
        1   -1    0    0  501    0  0.00000000000E+00  0.00000000000E+00  0.10401764276E+04  0.10401764276E+04  0.50400001928E-02 0. -1.
       -1   -1    0    0    0  501  0.00000000000E+00  0.00000000000E+00 -0.23099226375E+04  0.23099226375E+04  0.50400001928E-02 0.  1.
    10030    2    1    2    0    0  0.00000000000E+00  0.00000000000E+00 -0.12697462099E+04  0.33500990651E+04  0.31001464979E+04 0.  0.
        4    1    3    3  502    0 -0.26797399671E+03 -0.99693064310E+03  0.61466180799E+03  0.12014539197E+04  0.12699999809E+01 0. -1.
       -4    1    3    3    0  502  0.26797399671E+03  0.99693064310E+03 -0.18844080179E+04  0.21486451454E+04  0.12699999809E+01 0.  1.
</event>
<event>
 5   0  0.1325713E-07  0.3100981E+04  0.7818609E-02  0.8215469E-01
       -2   -1    0    0    0  501  0.00000000000E+00  0.00000000000E+00  0.12480326441E+04  0.12480326441E+04  0.25500000920E-02 0. -1.
        2   -1    0    0  501    0  0.00000000000E+00  0.00000000000E+00 -0.19262486696E+04  0.19262486696E+04  0.25500000920E-02 0.  1.
    10030    2    1    2    0    0  0.00000000000E+00  0.00000000000E+00 -0.67821602547E+03  0.31742813136E+04  0.31009812771E+04 0.  0.
        4    1    3    3  502    0  0.72098423128E+03 -0.82885926745E+02  0.10634367322E+04  0.12874733531E+04  0.12699999809E+01 0. -1.
       -4    1    3    3    0  502 -0.72098423128E+03  0.82885926745E+02 -0.17416527577E+04  0.18868079605E+04  0.12699999809E+01 0.  1.
</event>
<event>
 5   0  0.4436241E-08  0.3100538E+04  0.7818609E-02  0.8215590E-01
        1   -1    0    0  501    0  0.00000000000E+00  0.00000000000E+00  0.21556455187E+04  0.21556455187E+04  0.50400001928E-02 0. -1.
       -1   -1    0    0    0  501  0.00000000000E+00  0.00000000000E+00 -0.11149025516E+04  0.11149025516E+04  0.50400001928E-02 0.  1.
    10030    2    1    2    0    0  0.00000000000E+00  0.00000000000E+00  0.10407429672E+04  0.32705480703E+04  0.31005384624E+04 0.  0.
        3    1    3    3  502    0  0.40810805985E+03 -0.82396121954E+03  0.18369570095E+04  0.20542335176E+04  0.10100000352E+00 0. -1.
       -3    1    3    3    0  502 -0.40810805985E+03  0.82396121954E+03 -0.79621404232E+03  0.12163145527E+04  0.10100000352E+00 0.  1.
</event>
<event>
 5   0  0.4517409E-08  0.3098944E+04  0.7818609E-02  0.8216028E-01
        1   -1    0    0  501    0  0.00000000000E+00  0.00000000000E+00  0.15590455503E+04  0.15590455503E+04  0.50400001928E-02 0. -1.
       -1   -1    0    0    0  501  0.00000000000E+00  0.00000000000E+00 -0.15399572222E+04  0.15399572222E+04  0.50400001928E-02 0.  1.
    10030    2    1    2    0    0  0.00000000000E+00  0.00000000000E+00  0.19088328167E+02  0.30990027725E+04  0.30989439846E+04 0.  0.
        2    1    3    3  502    0  0.12499376744E+04  0.85758986685E+03 -0.31148978340E+03  0.15475239755E+04  0.25500000920E-02 0.  1.
       -2    1    3    3    0  502 -0.12499376744E+04 -0.85758986685E+03  0.33057811156E+03  0.15514787970E+04  0.25500000920E-02 0. -1.
</event>
<event>
 5   0  0.1398931E-07  0.3098766E+04  0.7818609E-02  0.8216077E-01
       -2   -1    0    0    0  501  0.00000000000E+00  0.00000000000E+00  0.85433940295E+03  0.85433940296E+03  0.25500000920E-02 0. -1.
        2   -1    0    0  501    0  0.00000000000E+00  0.00000000000E+00 -0.28098751128E+04  0.28098751128E+04  0.25500000920E-02 0.  1.
    10030    2    1    2    0    0  0.00000000000E+00  0.00000000000E+00 -0.19555357099E+04  0.36642145158E+04  0.30987655776E+04 0.  0.
        3    1    3    3  502    0  0.13476099574E+04  0.76062061915E+03 -0.10692909466E+04  0.18809517438E+04  0.10100000352E+00 0.  1.
       -3    1    3    3    0  502 -0.13476099574E+04 -0.76062061915E+03 -0.88624476324E+03  0.17832627720E+04  0.10100000352E+00 0. -1.
</event>
<event>
 5   0  0.1398931E-07  0.3100022E+04  0.7818609E-02  0.8215732E-01
       -2   -1    0    0    0  501  0.00000000000E+00  0.00000000000E+00  0.17653850041E+04  0.17653850041E+04  0.25500000920E-02 0.  1.
        2   -1    0    0  501    0  0.00000000000E+00  0.00000000000E+00 -0.13609120869E+04  0.13609120869E+04  0.25500000920E-02 0. -1.
    10030    2    1    2    0    0  0.00000000000E+00  0.00000000000E+00  0.40447291728E+03  0.31262970910E+04  0.31000218000E+04 0.  0.
        3    1    3    3  502    0 -0.28457815114E+03 -0.12871812934E+04  0.10244463685E+04  0.16695241174E+04  0.10100000352E+00 0. -1.
       -3    1    3    3    0  502  0.28457815114E+03  0.12871812934E+04 -0.61997345126E+03  0.14567729736E+04  0.10100000352E+00 0.  1.
</event>
<event>
 5   0  0.1325713E-07  0.3099858E+04  0.7818609E-02  0.8215777E-01
       -2   -1    0    0    0  501  0.00000000000E+00  0.00000000000E+00  0.75305633096E+03  0.75305633097E+03  0.25500000920E-02 0.  1.
        2   -1    0    0  501    0  0.00000000000E+00  0.00000000000E+00 -0.31900399519E+04  0.31900399519E+04  0.25500000920E-02 0. -1.
    10030    2    1    2    0    0  0.00000000000E+00  0.00000000000E+00 -0.24369836209E+04  0.39430962828E+04  0.30998579205E+04 0.  0.
        4    1    3    3  502    0  0.32907202642E+03  0.14483040699E+04 -0.17822228706E+04  0.23199553985E+04  0.12699999809E+01 0. -1.
       -4    1    3    3    0  502 -0.32907202642E+03 -0.14483040699E+04 -0.65476075029E+03  0.16231408844E+04  0.12699999809E+01 0.  1.
</event>
<event>
 5   0  0.4470354E-08  0.3100302E+04  0.7818609E-02  0.8215655E-01
        1   -1    0    0  501    0  0.00000000000E+00  0.00000000000E+00  0.24988106300E+04  0.24988106300E+04  0.50400001928E-02 0. -1.
       -1   -1    0    0    0  501  0.00000000000E+00  0.00000000000E+00 -0.96164469946E+03  0.96164469947E+03  0.50400001928E-02 0.  1.
    10030    2    1    2    0    0  0.00000000000E+00  0.00000000000E+00  0.15371659305E+04  0.34604553294E+04  0.31003019190E+04 0.  0.
        1    1    3    3  502    0  0.59649526022E+03  0.11914086525E+04 -0.11573344335E+03  0.13374062220E+04  0.50400001928E-02 0.  1.
       -1    1    3    3    0  502 -0.59649526022E+03 -0.11914086525E+04  0.16528993739E+04  0.21230491075E+04  0.50400001928E-02 0. -1.
</event>
<event>
 5   0  0.1325713E-07  0.3099644E+04  0.7818609E-02  0.8215836E-01
       -2   -1    0    0    0  501  0.00000000000E+00  0.00000000000E+00  0.14534269127E+04  0.14534269127E+04  0.25500000920E-02 0.  1.
        2   -1    0    0  501    0  0.00000000000E+00  0.00000000000E+00 -0.16526106939E+04  0.16526106939E+04  0.25500000920E-02 0. -1.
    10030    2    1    2    0    0  0.00000000000E+00  0.00000000000E+00 -0.19918378122E+03  0.31060376066E+04  0.30996444046E+04 0.  0.
        4    1    3    3  502    0  0.96413913858E+03 -0.12038804276E+04 -0.25174341228E+03  0.15627759664E+04  0.12699999809E+01 0. -1.
       -4    1    3    3    0  502 -0.96413913858E+03  0.12038804276E+04  0.52559631064E+02  0.15432616402E+04  0.12699999809E+01 0.  1.
</event>
<event>
 5   0  0.4436241E-08  0.3098557E+04  0.7818609E-02  0.8216134E-01
        1   -1    0    0  501    0  0.00000000000E+00  0.00000000000E+00  0.11623137405E+04  0.11623137405E+04  0.50400001928E-02 0.  1.
       -1   -1    0    0    0  501  0.00000000000E+00  0.00000000000E+00 -0.20650741194E+04  0.20650741194E+04  0.50400001928E-02 0. -1.
    10030    2    1    2    0    0  0.00000000000E+00  0.00000000000E+00 -0.90276037890E+03  0.32273878599E+04  0.30985570992E+04 0.  0.
        3    1    3    3  502    0 -0.33380427332E+03  0.63095465975E+03  0.98083073543E+03  0.12130779107E+04  0.10100000352E+00 0.  1.
       -3    1    3    3    0  502  0.33380427332E+03 -0.63095465975E+03 -0.18835911143E+04  0.20143099493E+04  0.10100000352E+00 0. -1.
</event>
<event>
 5   0  0.1398931E-07  0.3101216E+04  0.7818609E-02  0.8215404E-01
       -2   -1    0    0    0  501  0.00000000000E+00  0.00000000000E+00  0.22148591093E+04  0.22148591093E+04  0.25500000920E-02 0. -1.
        2   -1    0    0  501    0  0.00000000000E+00  0.00000000000E+00 -0.10855705822E+04  0.10855705823E+04  0.25500000920E-02 0.  1.
    10030    2    1    2    0    0  0.00000000000E+00  0.00000000000E+00  0.11292885271E+04  0.33004296916E+04  0.31012164664E+04 0.  0.
        3    1    3    3  502    0 -0.11141715273E+04  0.42766983223E+03  0.16182423510E+04  0.20107182782E+04  0.10100000352E+00 0. -1.
       -3    1    3    3    0  502  0.11141715273E+04 -0.42766983223E+03 -0.48895382393E+03  0.12897114134E+04  0.10100000352E+00 0.  1.
</event>
<event>
 5   0  0.1318916E-07  0.3100295E+04  0.7818609E-02  0.8215657E-01
        2   -1    0    0  501    0  0.00000000000E+00  0.00000000000E+00  0.22314563076E+04  0.22314563076E+04  0.25500000920E-02 0. -1.
       -2   -1    0    0    0  501  0.00000000000E+00  0.00000000000E+00 -0.10768563445E+04  0.10768563445E+04  0.25500000920E-02 0.  1.
    10030    2    1    2    0    0  0.00000000000E+00  0.00000000000E+00  0.11545999630E+04  0.33083126521E+04  0.31002953939E+04 0.  0.
        5    1    3    3  502    0  0.41867774928E+03 -0.14870711915E+04  0.44121279564E+03  0.16066619456E+04  0.46999998093E+01 0.  1.
       -5    1    3    3    0  502 -0.41867774928E+03  0.14870711915E+04  0.71338716740E+03  0.17016507065E+04  0.46999998093E+01 0. -1.
</event>
<event>
 5   0  0.4470354E-08  0.3098740E+04  0.7818609E-02  0.8216084E-01
        1   -1    0    0  501    0  0.00000000000E+00  0.00000000000E+00  0.11841373481E+04  0.11841373481E+04  0.50400001928E-02 0. -1.
       -1   -1    0    0    0  501  0.00000000000E+00  0.00000000000E+00 -0.20272540149E+04  0.20272540149E+04  0.50400001928E-02 0.  1.
    10030    2    1    2    0    0  0.00000000000E+00  0.00000000000E+00 -0.84311666680E+03  0.32113913629E+04  0.30987398684E+04 0.  0.
        1    1    3    3  502    0  0.27652799930E+03  0.91584546750E+03 -0.16845955905E+04  0.19372926879E+04  0.50400001928E-02 0.  1.
       -1    1    3    3    0  502 -0.27652799930E+03 -0.91584546750E+03  0.84147892373E+03  0.12740986751E+04  0.50400001928E-02 0. -1.
</event>
<event>
 5   0  0.4470354E-08  0.3099047E+04  0.7818609E-02  0.8215999E-01
        1   -1    0    0  501    0  0.00000000000E+00  0.00000000000E+00  0.30934216479E+04  0.30934216479E+04  0.50400001928E-02 0. -1.
       -1   -1    0    0    0  501  0.00000000000E+00  0.00000000000E+00 -0.77617087481E+03  0.77617087483E+03  0.50400001928E-02 0.  1.
    10030    2    1    2    0    0  0.00000000000E+00  0.00000000000E+00  0.23172507731E+04  0.38695925227E+04  0.30990474580E+04 0.  0.
        1    1    3    3  502    0  0.13692015935E+04 -0.48481790811E+03  0.18325001686E+04  0.23383366472E+04  0.50400001928E-02 0. -1.
       -1    1    3    3    0  502 -0.13692015935E+04  0.48481790811E+03  0.48475060455E+03  0.15312558756E+04  0.50400001928E-02 0.  1.
</event>
<event>
 5   0  0.1329777E-07  0.3100947E+04  0.7818609E-02  0.8215478E-01
        2   -1    0    0  501    0  0.00000000000E+00  0.00000000000E+00  0.23438910082E+04  0.23438910082E+04  0.25500000920E-02 0.  1.
       -2   -1    0    0    0  501  0.00000000000E+00  0.00000000000E+00 -0.10256314122E+04  0.10256314122E+04  0.25500000920E-02 0. -1.
    10030    2    1    2    0    0  0.00000000000E+00  0.00000000000E+00  0.13182595961E+04  0.33695224204E+04  0.31009471100E+04 0.  0.
        1    1    3    3  502    0  0.44014678445E+03  0.86734736342E+03 -0.65290377994E+03  0.11714537919E+04  0.50400001928E-02 0. -1.
       -1    1    3    3    0  502 -0.44014678445E+03 -0.86734736342E+03  0.19711633760E+04  0.21980686285E+04  0.50400001928E-02 0.  1.
</event>
<event>
 5   0  0.4450600E-08  0.3101012E+04  0.7818609E-02  0.8215460E-01
        1   -1    0    0  501    0  0.00000000000E+00  0.00000000000E+00  0.14114251315E+04  0.14114251316E+04  0.50400001928E-02 0.  1.
       -1   -1    0    0    0  501  0.00000000000E+00  0.00000000000E+00 -0.17032916626E+04  0.17032916626E+04  0.50400001928E-02 0. -1.
    10030    2    1    2    0    0  0.00000000000E+00  0.00000000000E+00 -0.29186653104E+03  0.31147167942E+04  0.31010118729E+04 0.  0.
        4    1    3    3  502    0  0.13809240339E+04  0.52558893116E+03 -0.61798065386E+03  0.16015918998E+04  0.12699999809E+01 0. -1.
       -4    1    3    3    0  502 -0.13809240339E+04 -0.52558893116E+03  0.32611412282E+03  0.15131248944E+04  0.12699999809E+01 0.  1.
</event>
<event>
 5   0  0.1318916E-07  0.3098414E+04  0.7818609E-02  0.8216173E-01
       -2   -1    0    0    0  501  0.00000000000E+00  0.00000000000E+00  0.13261310519E+04  0.13261310519E+04  0.25500000920E-02 0. -1.
        2   -1    0    0  501    0  0.00000000000E+00  0.00000000000E+00 -0.18098080967E+04  0.18098080967E+04  0.25500000920E-02 0.  1.
    10030    2    1    2    0    0  0.00000000000E+00  0.00000000000E+00 -0.48367704476E+03  0.31359391486E+04  0.30984142493E+04 0.  0.
        5    1    3    3  502    0  0.26425984702E+03 -0.59670623066E+03  0.11802149047E+04  0.13486366834E+04  0.46999998093E+01 0. -1.
       -5    1    3    3    0  502 -0.26425984702E+03  0.59670623066E+03 -0.16638919495E+04  0.17873024652E+04  0.46999998093E+01 0.  1.
</event>
<event>
 5   0  0.4517409E-08  0.3100626E+04  0.7818609E-02  0.8215566E-01
       -1   -1    0    0    0  501  0.00000000000E+00  0.00000000000E+00  0.13336489226E+04  0.13336489226E+04  0.50400001928E-02 0.  1.
        1   -1    0    0  501    0  0.00000000000E+00  0.00000000000E+00 -0.18021759014E+04  0.18021759014E+04  0.50400001928E-02 0. -1.
    10030    2    1    2    0    0  0.00000000000E+00  0.00000000000E+00 -0.46852697879E+03  0.31358248240E+04  0.31006257105E+04 0.  0.
        2    1    3    3  502    0 -0.33842417743E+03 -0.11756885583E+04  0.72875176272E+03  0.14240272615E+04  0.25500000920E-02 0.  1.
       -2    1    3    3    0  502  0.33842417743E+03  0.11756885583E+04 -0.11972787415E+04  0.17117975624E+04  0.25500000920E-02 0. -1.
</event>
<event>
 5   0  0.4838602E-08  0.3106819E+04  0.7818609E-02  0.8213869E-01
        1   -1    0    0  501    0  0.00000000000E+00  0.00000000000E+00  0.27249548044E+04  0.27249548044E+04  0.50400001928E-02 0. -1.
       -1   -1    0    0    0  501  0.00000000000E+00  0.00000000000E+00 -0.88554910170E+03  0.88554910171E+03  0.50400001928E-02 0.  1.
    10030    2    1    2    0    0  0.00000000000E+00  0.00000000000E+00  0.18394057027E+04  0.36105039061E+04  0.31068191317E+04 0.  0.
        5    1    3    3  502    0  0.35426309783E+03 -0.30849510008E+03 -0.80101838593E+03  0.92861408230E+03  0.46999998093E+01 0.  1.
       -5    1    3    3    0  502 -0.35426309783E+03  0.30849510008E+03  0.26404240886E+04  0.26818898238E+04  0.46999998093E+01 0. -1.
</event>
<event>
 5   0  0.4470354E-08  0.3100984E+04  0.7818609E-02  0.8215468E-01
       -1   -1    0    0    0  501  0.00000000000E+00  0.00000000000E+00  0.20115950043E+04  0.20115950043E+04  0.50400001928E-02 0. -1.
        1   -1    0    0  501    0  0.00000000000E+00  0.00000000000E+00 -0.11950838978E+04  0.11950838978E+04  0.50400001928E-02 0.  1.
    10030    2    1    2    0    0  0.00000000000E+00  0.00000000000E+00  0.81651110652E+03  0.32066789021E+04  0.31009835850E+04 0.  0.
        1    1    3    3  502    0 -0.52204418083E+03 -0.11751301369E+04  0.13041355173E+04  0.18314558179E+04  0.50400001928E-02 0. -1.
       -1    1    3    3    0  502  0.52204418083E+03  0.11751301369E+04 -0.48762441075E+03  0.13752230842E+04  0.50400001928E-02 0.  1.
</event>
<event>
 5   0  0.1318916E-07  0.3099246E+04  0.7818609E-02  0.8215945E-01
       -2   -1    0    0    0  501  0.00000000000E+00  0.00000000000E+00  0.15854759554E+04  0.15854759554E+04  0.25500000920E-02 0.  1.
        2   -1    0    0  501    0  0.00000000000E+00  0.00000000000E+00 -0.15145810879E+04  0.15145810879E+04  0.25500000920E-02 0. -1.
    10030    2    1    2    0    0  0.00000000000E+00  0.00000000000E+00  0.70894867472E+02  0.31000570434E+04  0.30992462938E+04 0.  0.
        5    1    3    3  502    0 -0.21696657212E+03  0.52244023569E+03  0.14784930222E+04  0.15830293743E+04  0.46999998093E+01 0.  1.
       -5    1    3    3    0  502  0.21696657212E+03 -0.52244023569E+03 -0.14075981547E+04  0.15170276690E+04  0.46999998093E+01 0. -1.
</event>
<event>
 5   0  0.4517409E-08  0.3100221E+04  0.7818609E-02  0.8215677E-01
        1   -1    0    0  501    0  0.00000000000E+00  0.00000000000E+00  0.22496011163E+04  0.22496011163E+04  0.50400001928E-02 0. -1.
       -1   -1    0    0    0  501  0.00000000000E+00  0.00000000000E+00 -0.10681192593E+04  0.10681192593E+04  0.50400001928E-02 0.  1.
    10030    2    1    2    0    0  0.00000000000E+00  0.00000000000E+00  0.11814818570E+04  0.33177203756E+04  0.31002208167E+04 0.  0.
        2    1    3    3  502    0 -0.93838499346E+03 -0.94732623995E+03 -0.25518950354E+03  0.13576137461E+04  0.25500000920E-02 0.  1.
       -2    1    3    3    0  502  0.93838499346E+03  0.94732623995E+03  0.14366713605E+04  0.19601066295E+04  0.25500000920E-02 0. -1.
</event>
<event>
 5   0  0.4436241E-08  0.3099498E+04  0.7818609E-02  0.8215876E-01
        1   -1    0    0  501    0  0.00000000000E+00  0.00000000000E+00  0.10890592774E+04  0.10890592774E+04  0.50400001928E-02 0.  1.
       -1   -1    0    0    0  501  0.00000000000E+00  0.00000000000E+00 -0.22053177945E+04  0.22053177945E+04  0.50400001928E-02 0. -1.
    10030    2    1    2    0    0  0.00000000000E+00  0.00000000000E+00 -0.11162585171E+04  0.32943770719E+04  0.30994978972E+04 0.  0.
        3    1    3    3  502    0  0.11978154050E+03  0.15424368130E+04 -0.46151371632E+03  0.16144515664E+04  0.10100000352E+00 0. -1.
       -3    1    3    3    0  502 -0.11978154050E+03 -0.15424368130E+04 -0.65474480080E+03  0.16799255055E+04  0.10100000352E+00 0.  1.
</event>
<event>
 5   0  0.1318916E-07  0.3099914E+04  0.7818609E-02  0.8215762E-01
        2   -1    0    0  501    0  0.00000000000E+00  0.00000000000E+00  0.24486405402E+04  0.24486405402E+04  0.25500000920E-02 0.  1.
       -2   -1    0    0    0  501  0.00000000000E+00  0.00000000000E+00 -0.98110200089E+03  0.98110200089E+03  0.25500000920E-02 0. -1.
    10030    2    1    2    0    0  0.00000000000E+00  0.00000000000E+00  0.14675385393E+04  0.34297425411E+04  0.30999136333E+04 0.  0.
        5    1    3    3  502    0  0.13008497935E+04  0.45687366145E+03 -0.49667999551E+02  0.13796494946E+04  0.46999998093E+01 0. -1.
       -5    1    3    3    0  502 -0.13008497935E+04 -0.45687366145E+03  0.15172065388E+04  0.20500930465E+04  0.46999998093E+01 0.  1.
</event>
<event>
 5   0  0.1318916E-07  0.3105835E+04  0.7818609E-02  0.8214139E-01
        2   -1    0    0  501    0  0.00000000000E+00  0.00000000000E+00  0.22702334736E+04  0.22702334736E+04  0.25500000920E-02 0. -1.
       -2   -1    0    0    0  501  0.00000000000E+00  0.00000000000E+00 -0.10622484597E+04  0.10622484597E+04  0.25500000920E-02 0.  1.
    10030    2    1    2    0    0  0.00000000000E+00  0.00000000000E+00  0.12079850139E+04  0.33324819333E+04  0.31058345161E+04 0.  0.
        5    1    3    3  502    0  0.73495358280E+03  0.86876845226E+03  0.17378047141E+04  0.20772343890E+04  0.46999998093E+01 0. -1.
       -5    1    3    3    0  502 -0.73495358280E+03 -0.86876845226E+03 -0.52981970023E+03  0.12552475442E+04  0.46999998093E+01 0.  1.
</event>
<event>
 5   0  0.1329777E-07  0.3100736E+04  0.7818609E-02  0.8215536E-01
       -2   -1    0    0    0  501  0.00000000000E+00  0.00000000000E+00  0.17547097397E+04  0.17547097397E+04  0.25500000920E-02 0.  1.
        2   -1    0    0  501    0  0.00000000000E+00  0.00000000000E+00 -0.13698228808E+04  0.13698228808E+04  0.25500000920E-02 0. -1.
    10030    2    1    2    0    0  0.00000000000E+00  0.00000000000E+00  0.38488685893E+03  0.31245326204E+04  0.31007363967E+04 0.  0.
        1    1    3    3  502    0  0.52253909053E+02  0.15350695784E+03 -0.13612541038E+04  0.13708784017E+04  0.50400001928E-02 0. -1.
       -1    1    3    3    0  502 -0.52253909053E+02 -0.15350695784E+03  0.17461409627E+04  0.17536542187E+04  0.50400001928E-02 0.  1.
</event>
<event>
 5   0  0.4450600E-08  0.3102141E+04  0.7818609E-02  0.8215150E-01
       -1   -1    0    0    0  501  0.00000000000E+00  0.00000000000E+00  0.19030843352E+04  0.19030843352E+04  0.50400001928E-02 0.  1.
        1   -1    0    0  501    0  0.00000000000E+00  0.00000000000E+00 -0.12641690953E+04  0.12641690953E+04  0.50400001928E-02 0. -1.
    10030    2    1    2    0    0  0.00000000000E+00  0.00000000000E+00  0.63891523992E+03  0.31672534304E+04  0.31021414553E+04 0.  0.
        4    1    3    3  502    0 -0.34684812466E+03  0.13593827817E+04 -0.35593561888E+03  0.14473827920E+04  0.12699999809E+01 0. -1.
       -4    1    3    3    0  502  0.34684812466E+03 -0.13593827817E+04  0.99485085880E+03  0.17198706385E+04  0.12699999809E+01 0.  1.
</event>
<event>
 5   0  0.4436241E-08  0.3095739E+04  0.7818609E-02  0.8216908E-01
        1   -1    0    0  501    0  0.00000000000E+00  0.00000000000E+00  0.12661927901E+04  0.12661927901E+04  0.50400001928E-02 0. -1.
       -1   -1    0    0    0  501  0.00000000000E+00  0.00000000000E+00 -0.18922076934E+04  0.18922076934E+04  0.50400001928E-02 0.  1.
    10030    2    1    2    0    0  0.00000000000E+00  0.00000000000E+00 -0.62601490332E+03  0.31584004836E+04  0.30957388384E+04 0.  0.
        3    1    3    3  502    0  0.90594940077E+03 -0.10514298248E+04 -0.10121896866E+04  0.17177825721E+04  0.10100000352E+00 0.  1.
       -3    1    3    3    0  502 -0.90594940077E+03  0.10514298248E+04  0.38617478329E+03  0.14406179114E+04  0.10100000352E+00 0. -1.
</event>
<event>
 5   0  0.4436241E-08  0.3100415E+04  0.7818609E-02  0.8215624E-01
       -1   -1    0    0    0  501  0.00000000000E+00  0.00000000000E+00  0.13657385534E+04  0.13657385534E+04  0.50400001928E-02 0. -1.
        1   -1    0    0  501    0  0.00000000000E+00  0.00000000000E+00 -0.17595923081E+04  0.17595923081E+04  0.50400001928E-02 0.  1.
    10030    2    1    2    0    0  0.00000000000E+00  0.00000000000E+00 -0.39385375466E+03  0.31253308615E+04  0.31004148454E+04 0.  0.
        3    1    3    3  502    0 -0.24956043954E+03 -0.13183396899E+04  0.58574249131E+03  0.14640335472E+04  0.10100000352E+00 0. -1.
       -3    1    3    3    0  502  0.24956043954E+03  0.13183396899E+04 -0.97959624597E+03  0.16612973143E+04  0.10100000352E+00 0.  1.
</event>
<event>
 5   0  0.1377237E-07  0.3099987E+04  0.7818609E-02  0.8215741E-01
       -2   -1    0    0    0  501  0.00000000000E+00  0.00000000000E+00  0.29621068751E+04  0.29621068751E+04  0.25500000920E-02 0.  1.
        2   -1    0    0  501    0  0.00000000000E+00  0.00000000000E+00 -0.81107135190E+03  0.81107135191E+03  0.25500000920E-02 0. -1.
    10030    2    1    2    0    0  0.00000000000E+00  0.00000000000E+00  0.21510355232E+04  0.37731782270E+04  0.30999871146E+04 0.  0.
        2    1    3    3  502    0 -0.84757344422E+03  0.97401528488E+03  0.21192938109E+04  0.24816310716E+04  0.25500000920E-02 0.  1.
       -2    1    3    3    0  502  0.84757344422E+03 -0.97401528488E+03  0.31741712361E+02  0.12915471555E+04  0.25500000920E-02 0. -1.
</event>
<event>
 5   0  0.4436241E-08  0.3100105E+04  0.7818609E-02  0.8215709E-01
        1   -1    0    0  501    0  0.00000000000E+00  0.00000000000E+00  0.10977201525E+04  0.10977201525E+04  0.50400001928E-02 0.  1.
       -1   -1    0    0    0  501  0.00000000000E+00  0.00000000000E+00 -0.21887749453E+04  0.21887749453E+04  0.50400001928E-02 0. -1.
    10030    2    1    2    0    0  0.00000000000E+00  0.00000000000E+00 -0.10910547928E+04  0.32864950979E+04  0.31001047511E+04 0.  0.
        3    1    3    3  502    0  0.43322484755E+03  0.48667313655E+03 -0.20365485276E+04  0.21382386269E+04  0.10100000352E+00 0. -1.
       -3    1    3    3    0  502 -0.43322484755E+03 -0.48667313655E+03  0.94549373477E+03  0.11482564709E+04  0.10100000352E+00 0.  1.
</event>
<event>
 5   0  0.4517409E-08  0.3100112E+04  0.7818609E-02  0.8215707E-01
        1   -1    0    0  501    0  0.00000000000E+00  0.00000000000E+00  0.17977372228E+04  0.17977372228E+04  0.50400001928E-02 0. -1.
       -1   -1    0    0    0  501  0.00000000000E+00  0.00000000000E+00 -0.13364984466E+04  0.13364984466E+04  0.50400001928E-02 0.  1.
    10030    2    1    2    0    0  0.00000000000E+00  0.00000000000E+00  0.46123877616E+03  0.31342356694E+04  0.31001116145E+04 0.  0.
        2    1    3    3  502    0 -0.12345085561E+04 -0.16226668484E+03 -0.70276063159E+03  0.14297602447E+04  0.25500000920E-02 0.  1.
       -2    1    3    3    0  502  0.12345085561E+04  0.16226668484E+03  0.11639994077E+04  0.17044754247E+04  0.25500000920E-02 0. -1.
</event>
<event>
 5   0  0.4450600E-08  0.3099148E+04  0.7818609E-02  0.8215972E-01
       -1   -1    0    0    0  501  0.00000000000E+00  0.00000000000E+00  0.11129524322E+04  0.11129524322E+04  0.50400001928E-02 0.  1.
        1   -1    0    0  501    0  0.00000000000E+00  0.00000000000E+00 -0.21574858378E+04  0.21574858378E+04  0.50400001928E-02 0. -1.
    10030    2    1    2    0    0  0.00000000000E+00  0.00000000000E+00 -0.10445334056E+04  0.32704382700E+04  0.30991476961E+04 0.  0.
        4    1    3    3  502    0  0.50988510933E+03  0.42280942342E+02  0.10212466397E+04  0.11422420123E+04  0.12699999809E+01 0.  1.
       -4    1    3    3    0  502 -0.50988510933E+03 -0.42280942342E+02 -0.20657800453E+04  0.21281962577E+04  0.12699999809E+01 0. -1.
</event>
<event>
 5   0  0.1398931E-07  0.3100799E+04  0.7818609E-02  0.8215519E-01
       -2   -1    0    0    0  501  0.00000000000E+00  0.00000000000E+00  0.10503332879E+04  0.10503332879E+04  0.25500000920E-02 0. -1.
        2   -1    0    0  501    0  0.00000000000E+00  0.00000000000E+00 -0.22885486677E+04  0.22885486677E+04  0.25500000920E-02 0.  1.
    10030    2    1    2    0    0  0.00000000000E+00  0.00000000000E+00 -0.12382153799E+04  0.33388819556E+04  0.31007991529E+04 0.  0.
        3    1    3    3  502    0  0.73914103093E+03  0.63094879544E+03  0.68166572591E+03  0.11870526602E+04  0.10100000352E+00 0. -1.
       -3    1    3    3    0  502 -0.73914103093E+03 -0.63094879544E+03 -0.19198811058E+04  0.21518292954E+04  0.10100000352E+00 0.  1.
</event>
<event>
 5   0  0.1398931E-07  0.3098853E+04  0.7818609E-02  0.8216053E-01
       -2   -1    0    0    0  501  0.00000000000E+00  0.00000000000E+00  0.11571037862E+04  0.11571037862E+04  0.25500000920E-02 0. -1.
        2   -1    0    0  501    0  0.00000000000E+00  0.00000000000E+00 -0.20747682454E+04  0.20747682454E+04  0.25500000920E-02 0.  1.
    10030    2    1    2    0    0  0.00000000000E+00  0.00000000000E+00 -0.91766445921E+03  0.32318720316E+04  0.30988528150E+04 0.  0.
        3    1    3    3  502    0 -0.59042098440E+03 -0.14003283883E+04 -0.14386594013E+03  0.15265038332E+04  0.10100000352E+00 0. -1.
       -3    1    3    3    0  502  0.59042098440E+03  0.14003283883E+04 -0.77379851908E+03  0.17053681984E+04  0.10100000352E+00 0.  1.
</event>
<event>
 5   0  0.4517409E-08  0.3104801E+04  0.7818609E-02  0.8214422E-01
       -1   -1    0    0    0  501  0.00000000000E+00  0.00000000000E+00  0.17573509671E+04  0.17573509671E+04  0.50400001928E-02 0.  1.
        1   -1    0    0  501    0  0.00000000000E+00  0.00000000000E+00 -0.13713523383E+04  0.13713523383E+04  0.50400001928E-02 0. -1.
    10030    2    1    2    0    0  0.00000000000E+00  0.00000000000E+00  0.38599862888E+03  0.31287033054E+04  0.31048010293E+04 0.  0.
        2    1    3    3  502    0  0.37323165441E+03  0.10786990436E+04  0.12532656765E+04  0.16951602728E+04  0.25500000920E-02 0.  1.
       -2    1    3    3    0  502 -0.37323165441E+03 -0.10786990436E+04 -0.86726704759E+03  0.14335430326E+04  0.25500000920E-02 0. -1.
</event>
<event>
 5   0  0.4838602E-08  0.3099456E+04  0.7818609E-02  0.8215887E-01
        1   -1    0    0  501    0  0.00000000000E+00  0.00000000000E+00  0.22305551129E+04  0.22305551130E+04  0.50400001928E-02 0. -1.
       -1   -1    0    0    0  501  0.00000000000E+00  0.00000000000E+00 -0.10767080660E+04  0.10767080660E+04  0.50400001928E-02 0.  1.
    10030    2    1    2    0    0  0.00000000000E+00  0.00000000000E+00  0.11538470470E+04  0.33072631789E+04  0.30994558760E+04 0.  0.
        5    1    3    3  502    0 -0.88701023277E+03  0.12699619178E+04  0.62516730939E+03  0.16704630138E+04  0.46999998093E+01 0.  1.
       -5    1    3    3    0  502  0.88701023277E+03 -0.12699619178E+04  0.52867973758E+03  0.16368001652E+04  0.46999998093E+01 0. -1.
</event>
<event>
 5   0  0.1318916E-07  0.3100682E+04  0.7818609E-02  0.8215551E-01
        2   -1    0    0  501    0  0.00000000000E+00  0.00000000000E+00  0.17287420080E+04  0.17287420080E+04  0.25500000920E-02 0.  1.
       -2   -1    0    0    0  501  0.00000000000E+00  0.00000000000E+00 -0.13903501595E+04  0.13903501595E+04  0.25500000920E-02 0. -1.
    10030    2    1    2    0    0  0.00000000000E+00  0.00000000000E+00  0.33839184854E+03  0.31190921675E+04  0.31006816841E+04 0.  0.
        5    1    3    3  502    0  0.14928170454E+04  0.36347261529E+03 -0.39204535133E+02  0.15369366151E+04  0.46999998093E+01 0. -1.
       -5    1    3    3    0  502 -0.14928170454E+04 -0.36347261529E+03  0.37759638368E+03  0.15821555524E+04  0.46999998093E+01 0.  1.
</event>
<event>
 5   0  0.1329777E-07  0.3101761E+04  0.7818609E-02  0.8215255E-01
       -2   -1    0    0    0  501  0.00000000000E+00  0.00000000000E+00  0.18291733743E+04  0.18291733743E+04  0.25500000920E-02 0. -1.
        2   -1    0    0  501    0  0.00000000000E+00  0.00000000000E+00 -0.13149277489E+04  0.13149277489E+04  0.25500000920E-02 0.  1.
    10030    2    1    2    0    0  0.00000000000E+00  0.00000000000E+00  0.51424562542E+03  0.31441011231E+04  0.31017613237E+04 0.  0.
        1    1    3    3  502    0  0.11694920454E+04  0.88187047299E+03 -0.25956411103E+03  0.14875418324E+04  0.50400001928E-02 0. -1.
       -1    1    3    3    0  502 -0.11694920454E+04 -0.88187047299E+03  0.77380973645E+03  0.16565592907E+04  0.50400001928E-02 0.  1.
</event>
<event>
 5   0  0.4305500E-08  0.3098980E+04  0.7818609E-02  0.8216018E-01
        3   -1    0    0  501    0  0.00000000000E+00  0.00000000000E+00  0.21892965368E+04  0.21892965392E+04  0.10100000352E+00 0. -1.
       -3   -1    0    0    0  501  0.00000000000E+00  0.00000000000E+00 -0.10966624030E+04  0.10966624077E+04  0.10100000352E+00 0.  1.
    10030    2    1    2    0    0  0.00000000000E+00  0.00000000000E+00  0.10926341338E+04  0.32859589468E+04  0.30989799693E+04 0.  0.
        4    1    3    3  502    0  0.49959145254E+03  0.59612478838E+03 -0.87467561442E+03  0.11704765808E+04  0.12699999809E+01 0.  1.
       -4    1    3    3    0  502 -0.49959145254E+03 -0.59612478838E+03  0.19673097482E+04  0.21154823661E+04  0.12699999809E+01 0. -1.
</event>
<event>
 5   0  0.4450600E-08  0.3099855E+04  0.7818609E-02  0.8215778E-01
        1   -1    0    0  501    0  0.00000000000E+00  0.00000000000E+00  0.15549259748E+04  0.15549259748E+04  0.50400001928E-02 0.  1.
       -1   -1    0    0    0  501  0.00000000000E+00  0.00000000000E+00 -0.15449446693E+04  0.15449446693E+04  0.50400001928E-02 0. -1.
    10030    2    1    2    0    0  0.00000000000E+00  0.00000000000E+00  0.99813054968E+01  0.30998706440E+04  0.30998545745E+04 0.  0.
        4    1    3    3  502    0 -0.93511113124E+02 -0.12110648553E+04  0.96772643182E+03  0.15530352449E+04  0.12699999809E+01 0.  1.
       -4    1    3    3    0  502  0.93511113124E+02  0.12110648553E+04 -0.95774512632E+03  0.15468353991E+04  0.12699999809E+01 0. -1.
</event>
<event>
 5   0  0.1325713E-07  0.3102174E+04  0.7818609E-02  0.8215141E-01
        2   -1    0    0  501    0  0.00000000000E+00  0.00000000000E+00  0.23278179313E+04  0.23278179313E+04  0.25500000920E-02 0.  1.
       -2   -1    0    0    0  501  0.00000000000E+00  0.00000000000E+00 -0.10335308227E+04  0.10335308227E+04  0.25500000920E-02 0. -1.
    10030    2    1    2    0    0  0.00000000000E+00  0.00000000000E+00  0.12942871086E+04  0.33613487540E+04  0.31021744513E+04 0.  0.
        4    1    3    3  502    0  0.10044622469E+04 -0.24230455146E+03 -0.60631550458E+03  0.11980300518E+04  0.12699999809E+01 0. -1.
       -4    1    3    3    0  502 -0.10044622469E+04  0.24230455146E+03  0.19006026131E+04  0.21633187021E+04  0.12699999809E+01 0.  1.
</event>
<event>
 5   0  0.1398931E-07  0.3097451E+04  0.7818609E-02  0.8216438E-01
       -2   -1    0    0    0  501  0.00000000000E+00  0.00000000000E+00  0.16132046499E+04  0.16132046499E+04  0.25500000920E-02 0.  1.
        2   -1    0    0  501    0  0.00000000000E+00  0.00000000000E+00 -0.14868234272E+04  0.14868234272E+04  0.25500000920E-02 0. -1.
    10030    2    1    2    0    0  0.00000000000E+00  0.00000000000E+00  0.12638122270E+03  0.31000280772E+04  0.30974508658E+04 0.  0.
        3    1    3    3  502    0 -0.11435697248E+04  0.26448888965E+03 -0.94801849014E+03  0.15087893014E+04  0.10100000352E+00 0. -1.
       -3    1    3    3    0  502  0.11435697248E+04 -0.26448888965E+03  0.10743997128E+04  0.15912387758E+04  0.10100000352E+00 0.  1.
</event>
<event>
 5   0  0.1318916E-07  0.3100859E+04  0.7818609E-02  0.8215502E-01
       -2   -1    0    0    0  501  0.00000000000E+00  0.00000000000E+00  0.15751040773E+04  0.15751040773E+04  0.25500000920E-02 0. -1.
        2   -1    0    0  501    0  0.00000000000E+00  0.00000000000E+00 -0.15261412836E+04  0.15261412836E+04  0.25500000920E-02 0.  1.
    10030    2    1    2    0    0  0.00000000000E+00  0.00000000000E+00  0.48962793757E+02  0.31012453609E+04  0.31008588219E+04 0.  0.
        5    1    3    3  502    0  0.49890443866E+03 -0.41815134921E+03  0.14318003935E+04  0.15728415834E+04  0.46999998093E+01 0. -1.
       -5    1    3    3    0  502 -0.49890443866E+03  0.41815134921E+03 -0.13828375997E+04  0.15284037775E+04  0.46999998093E+01 0.  1.
</event>
<event>
 5   0  0.1318916E-07  0.3087764E+04  0.7818609E-02  0.8219104E-01
       -2   -1    0    0    0  501  0.00000000000E+00  0.00000000000E+00  0.11474222021E+04  0.11474222022E+04  0.25500000920E-02 0.  1.
        2   -1    0    0  501    0  0.00000000000E+00  0.00000000000E+00 -0.20773268754E+04  0.20773268754E+04  0.25500000920E-02 0. -1.
    10030    2    1    2    0    0  0.00000000000E+00  0.00000000000E+00 -0.92990467324E+03  0.32247490775E+04  0.30877635777E+04 0.  0.
        5    1    3    3  502    0  0.61054975313E+03 -0.12847419391E+04 -0.10917587175E+04  0.17931235424E+04  0.46999998093E+01 0. -1.
       -5    1    3    3    0  502 -0.61054975313E+03  0.12847419391E+04  0.16185404431E+03  0.14316255351E+04  0.46999998093E+01 0.  1.
</event>
<event>
 5   0  0.1318916E-07  0.3100128E+04  0.7818609E-02  0.8215703E-01
        2   -1    0    0  501    0  0.00000000000E+00  0.00000000000E+00  0.18721201463E+04  0.18721201463E+04  0.25500000920E-02 0.  1.
       -2   -1    0    0    0  501  0.00000000000E+00  0.00000000000E+00 -0.12834102738E+04  0.12834102738E+04  0.25500000920E-02 0. -1.
    10030    2    1    2    0    0  0.00000000000E+00  0.00000000000E+00  0.58870987248E+03  0.31555304202E+04  0.31001278875E+04 0.  0.
        5    1    3    3  502    0  0.45452858425E+02  0.47178568960E+02  0.18707031287E+04  0.18718557812E+04  0.46999998093E+01 0.  1.
       -5    1    3    3    0  502 -0.45452858425E+02 -0.47178568960E+02 -0.12819932562E+04  0.12836746390E+04  0.46999998093E+01 0. -1.
</event>
<event>
 5   0  0.4838602E-08  0.3100406E+04  0.7818609E-02  0.8215626E-01
       -1   -1    0    0    0  501  0.00000000000E+00  0.00000000000E+00  0.13407048474E+04  0.13407048474E+04  0.50400001928E-02 0. -1.
        1   -1    0    0  501    0  0.00000000000E+00  0.00000000000E+00 -0.17924377818E+04  0.17924377818E+04  0.50400001928E-02 0.  1.
    10030    2    1    2    0    0  0.00000000000E+00  0.00000000000E+00 -0.45173293446E+03  0.31331426292E+04  0.31004064396E+04 0.  0.
        5    1    3    3  502    0  0.39428204532E+03 -0.79197930095E+03 -0.15122637581E+04  0.17520426103E+04  0.46999998093E+01 0.  1.
       -5    1    3    3    0  502 -0.39428204532E+03  0.79197930095E+03  0.10605308236E+04  0.13811000189E+04  0.46999998093E+01 0. -1.
</event>
<event>
 5   0  0.1329777E-07  0.3100031E+04  0.7818609E-02  0.8215729E-01
       -2   -1    0    0    0  501  0.00000000000E+00  0.00000000000E+00  0.88552015080E+03  0.88552015081E+03  0.25500000920E-02 0. -1.
        2   -1    0    0  501    0  0.00000000000E+00  0.00000000000E+00 -0.27131490270E+04  0.27131490270E+04  0.25500000920E-02 0.  1.
    10030    2    1    2    0    0  0.00000000000E+00  0.00000000000E+00 -0.18276288762E+04  0.35986691778E+04  0.31000310550E+04 0.  0.
        1    1    3    3  502    0  0.59025363997E+03  0.10677489891E+04  0.19603339673E+03  0.12356845697E+04  0.50400001928E-02 0. -1.
       -1    1    3    3    0  502 -0.59025363997E+03 -0.10677489891E+04 -0.20236622729E+04  0.23629846081E+04  0.50400001928E-02 0.  1.
</event>
<event>
 5   0  0.4517409E-08  0.3101860E+04  0.7818609E-02  0.8215228E-01
        1   -1    0    0  501    0  0.00000000000E+00  0.00000000000E+00  0.28080845670E+04  0.28080845670E+04  0.50400001928E-02 0. -1.
       -1   -1    0    0    0  501  0.00000000000E+00  0.00000000000E+00 -0.85659216865E+03  0.85659216866E+03  0.50400001928E-02 0.  1.
    10030    2    1    2    0    0  0.00000000000E+00  0.00000000000E+00  0.19514923984E+04  0.36646767357E+04  0.31018596029E+04 0.  0.
        2    1    3    3  502    0  0.54377814971E+03  0.11909558217E+04  0.19580613323E+04  0.23554351246E+04  0.25500000920E-02 0. -1.
       -2    1    3    3    0  502 -0.54377814971E+03 -0.11909558217E+04 -0.65689339482E+01  0.13092416111E+04  0.25500000920E-02 0.  1.
</event>
<event>
 5   0  0.4450600E-08  0.3101837E+04  0.7818609E-02  0.8215234E-01
       -1   -1    0    0    0  501  0.00000000000E+00  0.00000000000E+00  0.14692224027E+04  0.14692224027E+04  0.50400001928E-02 0. -1.
        1   -1    0    0  501    0  0.00000000000E+00  0.00000000000E+00 -0.16371578074E+04  0.16371578074E+04  0.50400001928E-02 0.  1.
    10030    2    1    2    0    0  0.00000000000E+00  0.00000000000E+00 -0.16793540467E+03  0.31063802101E+04  0.31018374731E+04 0.  0.
        4    1    3    3  502    0 -0.27099330073E+03  0.83101834665E+02  0.14430617990E+04  0.14706366827E+04  0.12699999809E+01 0. -1.
       -4    1    3    3    0  502  0.27099330073E+03 -0.83101834665E+02 -0.16109972037E+04  0.16357435273E+04  0.12699999809E+01 0.  1.
</event>
<event>
 5   0  0.4436241E-08  0.3098519E+04  0.7818609E-02  0.8216145E-01
       -1   -1    0    0    0  501  0.00000000000E+00  0.00000000000E+00  0.23096460548E+04  0.23096460548E+04  0.50400001928E-02 0. -1.
        1   -1    0    0  501    0  0.00000000000E+00  0.00000000000E+00 -0.10392087052E+04  0.10392087052E+04  0.50400001928E-02 0.  1.
    10030    2    1    2    0    0  0.00000000000E+00  0.00000000000E+00  0.12704373496E+04  0.33488547600E+04  0.30985185402E+04 0.  0.
        3    1    3    3  502    0 -0.38390321770E+03  0.14243560829E+04  0.12365750106E+03  0.14803591184E+04  0.10100000352E+00 0. -1.
       -3    1    3    3    0  502  0.38390321770E+03 -0.14243560829E+04  0.11467798485E+04  0.18684956416E+04  0.10100000352E+00 0.  1.
</event>
<event>
 5   0  0.1329777E-07  0.3099917E+04  0.7818609E-02  0.8215761E-01
       -2   -1    0    0    0  501  0.00000000000E+00  0.00000000000E+00  0.11378174081E+04  0.11378174081E+04  0.25500000920E-02 0. -1.
        2   -1    0    0  501    0  0.00000000000E+00  0.00000000000E+00 -0.21113851189E+04  0.21113851189E+04  0.25500000920E-02 0.  1.
    10030    2    1    2    0    0  0.00000000000E+00  0.00000000000E+00 -0.97356771084E+03  0.32492025270E+04  0.30999166075E+04 0.  0.
        1    1    3    3  502    0  0.69446460534E+03  0.13851266230E+04 -0.52756641301E+03  0.16368210562E+04  0.50400001928E-02 0.  1.
       -1    1    3    3    0  502 -0.69446460534E+03 -0.13851266230E+04 -0.44600129783E+03  0.16123814708E+04  0.50400001928E-02 0. -1.
</event>
<event>
 5   0  0.4450600E-08  0.3107970E+04  0.7818609E-02  0.8213554E-01
        1   -1    0    0  501    0  0.00000000000E+00  0.00000000000E+00  0.26560117510E+04  0.26560117510E+04  0.50400001928E-02 0. -1.
       -1   -1    0    0    0  501  0.00000000000E+00  0.00000000000E+00 -0.90920861853E+03  0.90920861854E+03  0.50400001928E-02 0.  1.
    10030    2    1    2    0    0  0.00000000000E+00  0.00000000000E+00  0.17468031325E+04  0.35652203696E+04  0.31079696105E+04 0.  0.
        4    1    3    3  502    0 -0.72127076404E+03 -0.13603120942E+04  0.63226938759E+03  0.16644658904E+04  0.12699999809E+01 0. -1.
       -4    1    3    3    0  502  0.72127076404E+03  0.13603120942E+04  0.11145337449E+04  0.19007544792E+04  0.12699999809E+01 0.  1.
</event>
<event>
 5   0  0.4450600E-08  0.3096385E+04  0.7818609E-02  0.8216731E-01
       -1   -1    0    0    0  501  0.00000000000E+00  0.00000000000E+00  0.11566928598E+04  0.11566928598E+04  0.50400001928E-02 0.  1.
        1   -1    0    0  501    0  0.00000000000E+00  0.00000000000E+00 -0.20722012090E+04  0.20722012090E+04  0.50400001928E-02 0. -1.
    10030    2    1    2    0    0  0.00000000000E+00  0.00000000000E+00 -0.91550834919E+03  0.32288940687E+04  0.30963852102E+04 0.  0.
        4    1    3    3  502    0 -0.32430080207E+03 -0.13438598757E+04  0.26904332088E+03  0.14083736355E+04  0.12699999809E+01 0.  1.
       -4    1    3    3    0  502  0.32430080207E+03  0.13438598757E+04 -0.11845516701E+04  0.18205204332E+04  0.12699999809E+01 0. -1.
</event>
<event>
 5   0  0.4838602E-08  0.3099337E+04  0.7818609E-02  0.8215920E-01
        1   -1    0    0  501    0  0.00000000000E+00  0.00000000000E+00  0.16490554326E+04  0.16490554326E+04  0.50400001928E-02 0.  1.
       -1   -1    0    0    0  501  0.00000000000E+00  0.00000000000E+00 -0.14562716010E+04  0.14562716010E+04  0.50400001928E-02 0. -1.
    10030    2    1    2    0    0  0.00000000000E+00  0.00000000000E+00  0.19278383160E+03  0.31053270335E+04  0.30993370871E+04 0.  0.
        5    1    3    3  502    0 -0.15386563266E+04  0.17079364489E+03  0.26855014632E+02  0.15483465511E+04  0.46999998093E+01 0. -1.
       -5    1    3    3    0  502  0.15386563266E+04 -0.17079364489E+03  0.16592881696E+03  0.15569804825E+04  0.46999998093E+01 0.  1.
</event>
<event>
 5   0  0.1377237E-07  0.3101013E+04  0.7818609E-02  0.8215460E-01
       -2   -1    0    0    0  501  0.00000000000E+00  0.00000000000E+00  0.18650739015E+04  0.18650739015E+04  0.25500000920E-02 0. -1.
        2   -1    0    0  501    0  0.00000000000E+00  0.00000000000E+00 -0.12889947002E+04  0.12889947002E+04  0.25500000920E-02 0.  1.
    10030    2    1    2    0    0  0.00000000000E+00  0.00000000000E+00  0.57607920130E+03  0.31540686016E+04  0.31010129793E+04 0.  0.
        2    1    3    3  502    0  0.23611933904E+03  0.12805596979E+04 -0.56807686131E+03  0.14206677312E+04  0.25500000920E-02 0.  1.
       -2    1    3    3    0  502 -0.23611933904E+03 -0.12805596979E+04  0.11441560626E+04  0.17334008705E+04  0.25500000920E-02 0. -1.
</event>
<event>
 5   0  0.1325713E-07  0.3100144E+04  0.7818609E-02  0.8215698E-01
        2   -1    0    0  501    0  0.00000000000E+00  0.00000000000E+00  0.14312702475E+04  0.14312702475E+04  0.25500000920E-02 0.  1.
       -2   -1    0    0    0  501  0.00000000000E+00  0.00000000000E+00 -0.16787351482E+04  0.16787351482E+04  0.25500000920E-02 0. -1.
    10030    2    1    2    0    0  0.00000000000E+00  0.00000000000E+00 -0.24746490068E+03  0.31100053957E+04  0.31001443006E+04 0.  0.
        4    1    3    3  502    0 -0.13996260739E+04  0.51798258097E+03 -0.54394784211E+03  0.15884394759E+04  0.12699999809E+01 0. -1.
       -4    1    3    3    0  502  0.13996260739E+04 -0.51798258097E+03  0.29648294142E+03  0.15215659198E+04  0.12699999809E+01 0.  1.
</event>
<event>
 5   0  0.1318916E-07  0.3104147E+04  0.7818609E-02  0.8214601E-01
       -2   -1    0    0    0  501  0.00000000000E+00  0.00000000000E+00  0.27257496439E+04  0.27257496439E+04  0.25500000920E-02 0. -1.
        2   -1    0    0  501    0  0.00000000000E+00  0.00000000000E+00 -0.88376872739E+03  0.88376872740E+03  0.25500000920E-02 0.  1.
    10030    2    1    2    0    0  0.00000000000E+00  0.00000000000E+00  0.18419809165E+04  0.36095183713E+04  0.31041470932E+04 0.  0.
        5    1    3    3  502    0 -0.15449529824E+04 -0.27441742821E+01  0.10935522994E+04  0.18928195820E+04  0.46999998093E+01 0. -1.
       -5    1    3    3    0  502  0.15449529824E+04  0.27441742821E+01  0.74842861712E+03  0.17166987893E+04  0.46999998093E+01 0.  1.
</event>
<event>
 5   0  0.1398931E-07  0.3100503E+04  0.7818609E-02  0.8215600E-01
        2   -1    0    0  501    0  0.00000000000E+00  0.00000000000E+00  0.21183137240E+04  0.21183137240E+04  0.25500000920E-02 0.  1.
       -2   -1    0    0    0  501  0.00000000000E+00  0.00000000000E+00 -0.11345247754E+04  0.11345247754E+04  0.25500000920E-02 0. -1.
    10030    2    1    2    0    0  0.00000000000E+00  0.00000000000E+00  0.98378894861E+03  0.32528384994E+04  0.31005027992E+04 0.  0.
        3    1    3    3  502    0  0.45856137743E+03 -0.66948448644E+03 -0.89391053499E+03  0.12072961812E+04  0.10100000352E+00 0. -1.
       -3    1    3    3    0  502 -0.45856137743E+03  0.66948448644E+03  0.18776994836E+04  0.20455423182E+04  0.10100000352E+00 0.  1.
</event>
<event>
 5   0  0.1318916E-07  0.3101185E+04  0.7818609E-02  0.8215413E-01
        2   -1    0    0  501    0  0.00000000000E+00  0.00000000000E+00  0.17932665132E+04  0.17932665132E+04  0.25500000920E-02 0. -1.
       -2   -1    0    0    0  501  0.00000000000E+00  0.00000000000E+00 -0.13407580272E+04  0.13407580272E+04  0.25500000920E-02 0.  1.
    10030    2    1    2    0    0  0.00000000000E+00  0.00000000000E+00  0.45250848604E+03  0.31340245404E+04  0.31011845947E+04 0.  0.
        5    1    3    3  502    0 -0.96040872465E+03  0.58303711894E+02 -0.10025702697E+04  0.13895875204E+04  0.46999998093E+01 0.  1.
       -5    1    3    3    0  502  0.96040872465E+03 -0.58303711894E+02  0.14550787558E+04  0.17444370200E+04  0.46999998093E+01 0. -1.
</event>
<event>
 5   0  0.1377237E-07  0.3100261E+04  0.7818609E-02  0.8215666E-01
        2   -1    0    0  501    0  0.00000000000E+00  0.00000000000E+00  0.17618311957E+04  0.17618311957E+04  0.25500000920E-02 0.  1.
       -2   -1    0    0    0  501  0.00000000000E+00  0.00000000000E+00 -0.13638674971E+04  0.13638674971E+04  0.25500000920E-02 0. -1.
    10030    2    1    2    0    0  0.00000000000E+00  0.00000000000E+00  0.39796369867E+03  0.31256986928E+04  0.31002608298E+04 0.  0.
        2    1    3    3  502    0 -0.34872282167E+02 -0.11331733032E+04  0.12648250911E+04  0.16985524197E+04  0.25500000920E-02 0.  1.
       -2    1    3    3    0  502  0.34872282167E+02  0.11331733032E+04 -0.86686139247E+03  0.14271462731E+04  0.25500000920E-02 0. -1.
</event>
<event>
 5   0  0.4470354E-08  0.3100263E+04  0.7818609E-02  0.8215666E-01
       -1   -1    0    0    0  501  0.00000000000E+00  0.00000000000E+00  0.12588340170E+04  0.12588340170E+04  0.50400001928E-02 0. -1.
        1   -1    0    0  501    0  0.00000000000E+00  0.00000000000E+00 -0.19088354300E+04  0.19088354300E+04  0.50400001928E-02 0.  1.
    10030    2    1    2    0    0  0.00000000000E+00  0.00000000000E+00 -0.65000141293E+03  0.31676694470E+04  0.31002625516E+04 0.  0.
        1    1    3    3  502    0 -0.10933032186E+03  0.99653794697E+02 -0.19016067036E+04  0.19073521053E+04  0.50400001928E-02 0.  1.
       -1    1    3    3    0  502  0.10933032186E+03 -0.99653794697E+02  0.12516052907E+04  0.12603173417E+04  0.50400001928E-02 0. -1.
</event>
<event>
 5   0  0.4450600E-08  0.3100871E+04  0.7818609E-02  0.8215499E-01
       -1   -1    0    0    0  501  0.00000000000E+00  0.00000000000E+00  0.84614154181E+03  0.84614154183E+03  0.50400001928E-02 0. -1.
        1   -1    0    0  501    0  0.00000000000E+00  0.00000000000E+00 -0.28409557940E+04  0.28409557940E+04  0.50400001928E-02 0.  1.
    10030    2    1    2    0    0  0.00000000000E+00  0.00000000000E+00 -0.19948142522E+04  0.36870973358E+04  0.31008713071E+04 0.  0.
        4    1    3    3  502    0  0.24810977637E+02  0.37391553746E+03 -0.27862965683E+04  0.28113837506E+04  0.12699999809E+01 0.  1.
       -4    1    3    3    0  502 -0.24810977637E+02 -0.37391553746E+03  0.79148231610E+03  0.87571358524E+03  0.12699999809E+01 0. -1.
</event>
<event>
 5   0  0.1325713E-07  0.3098600E+04  0.7818609E-02  0.8216122E-01
       -2   -1    0    0    0  501  0.00000000000E+00  0.00000000000E+00  0.10951202584E+04  0.10951202584E+04  0.25500000920E-02 0.  1.
        2   -1    0    0  501    0  0.00000000000E+00  0.00000000000E+00 -0.21918417901E+04  0.21918417901E+04  0.25500000920E-02 0. -1.
    10030    2    1    2    0    0  0.00000000000E+00  0.00000000000E+00 -0.10967215317E+04  0.32869620486E+04  0.30985999081E+04 0.  0.
        4    1    3    3  502    0  0.91125326786E+03 -0.97044974606E+03 -0.13891148664E+04  0.19240054451E+04  0.12699999809E+01 0. -1.
       -4    1    3    3    0  502 -0.91125326786E+03  0.97044974606E+03  0.29239333474E+03  0.13629566035E+04  0.12699999809E+01 0.  1.
</event>
<event>
 5   0  0.1325713E-07  0.3097628E+04  0.7818609E-02  0.8216389E-01
       -2   -1    0    0    0  501  0.00000000000E+00  0.00000000000E+00  0.81268819549E+03  0.81268819550E+03  0.25500000920E-02 0. -1.
        2   -1    0    0  501    0  0.00000000000E+00  0.00000000000E+00 -0.29517155683E+04  0.29517155683E+04  0.25500000920E-02 0.  1.
    10030    2    1    2    0    0  0.00000000000E+00  0.00000000000E+00 -0.21390273728E+04  0.37644037638E+04  0.30976277367E+04 0.  0.
        4    1    3    3  502    0  0.63873813650E+02 -0.10121132070E+04 -0.24921236979E+04  0.26905640944E+04  0.12699999809E+01 0.  1.
       -4    1    3    3    0  502 -0.63873813650E+02  0.10121132070E+04  0.35309632504E+03  0.10738396694E+04  0.12699999809E+01 0. -1.
</event>
<event>
 5   0  0.4517409E-08  0.3101288E+04  0.7818609E-02  0.8215385E-01
        1   -1    0    0  501    0  0.00000000000E+00  0.00000000000E+00  0.15229856836E+04  0.15229856836E+04  0.50400001928E-02 0. -1.
       -1   -1    0    0    0  501  0.00000000000E+00  0.00000000000E+00 -0.15788041343E+04  0.15788041343E+04  0.50400001928E-02 0.  1.
    10030    2    1    2    0    0  0.00000000000E+00  0.00000000000E+00 -0.55818450623E+02  0.31017898179E+04  0.31012875351E+04 0.  0.
        2    1    3    3  502    0  0.31033415240E+03  0.14735588228E+04 -0.39785181993E+03  0.15575522338E+04  0.25500000920E-02 0.  1.
       -2    1    3    3    0  502 -0.31033415240E+03 -0.14735588228E+04  0.34203336930E+03  0.15442375841E+04  0.25500000920E-02 0. -1.
</event>
<event>
 5   0  0.4517409E-08  0.3117252E+04  0.7818609E-02  0.8211019E-01
       -1   -1    0    0    0  501  0.00000000000E+00  0.00000000000E+00  0.12413148009E+04  0.12413148009E+04  0.50400001928E-02 0.  1.
        1   -1    0    0  501    0  0.00000000000E+00  0.00000000000E+00 -0.19570497369E+04  0.19570497369E+04  0.50400001928E-02 0. -1.
    10030    2    1    2    0    0  0.00000000000E+00  0.00000000000E+00 -0.71573493603E+03  0.31983645378E+04  0.31172518696E+04 0.  0.
        2    1    3    3  502    0 -0.13081676873E+03 -0.15522362828E+04 -0.41181215152E+03  0.16112540932E+04  0.25500000920E-02 0.  1.
       -2    1    3    3    0  502  0.13081676873E+03  0.15522362828E+04 -0.30392278451E+03  0.15871104447E+04  0.25500000920E-02 0. -1.
</event>
<event>
 5   0  0.1377237E-07  0.3099661E+04  0.7818609E-02  0.8215831E-01
       -2   -1    0    0    0  501  0.00000000000E+00  0.00000000000E+00  0.87843353848E+03  0.87843353848E+03  0.25500000920E-02 0. -1.
        2   -1    0    0  501    0  0.00000000000E+00  0.00000000000E+00 -0.27343837384E+04  0.27343837384E+04  0.25500000920E-02 0.  1.
    10030    2    1    2    0    0  0.00000000000E+00  0.00000000000E+00 -0.18559501999E+04  0.36128172768E+04  0.30996608736E+04 0.  0.
        2    1    3    3  502    0  0.11954334304E+04 -0.25675159091E+03 -0.20380020526E+04  0.23766436065E+04  0.25500000920E-02 0.  1.
       -2    1    3    3    0  502 -0.11954334304E+04  0.25675159091E+03  0.18205185274E+03  0.12361736703E+04  0.25500000920E-02 0. -1.
</event>
<event>
 5   0  0.1398931E-07  0.3101399E+04  0.7818609E-02  0.8215354E-01
        2   -1    0    0  501    0  0.00000000000E+00  0.00000000000E+00  0.17422339374E+04  0.17422339374E+04  0.25500000920E-02 0.  1.
       -2   -1    0    0    0  501  0.00000000000E+00  0.00000000000E+00 -0.13802212818E+04  0.13802212818E+04  0.25500000920E-02 0. -1.
    10030    2    1    2    0    0  0.00000000000E+00  0.00000000000E+00  0.36201265566E+03  0.31224552192E+04  0.31013986253E+04 0.  0.
        3    1    3    3  502    0  0.87854041000E+03 -0.26122936916E+03 -0.10783235356E+04  0.14152228421E+04  0.10100000352E+00 0. -1.
       -3    1    3    3    0  502 -0.87854041000E+03  0.26122936916E+03  0.14403361912E+04  0.17072323771E+04  0.10100000352E+00 0.  1.
</event>
<event>
 5   0  0.1377237E-07  0.3099618E+04  0.7818609E-02  0.8215843E-01
       -2   -1    0    0    0  501  0.00000000000E+00  0.00000000000E+00  0.13769622939E+04  0.13769622939E+04  0.25500000920E-02 0. -1.
        2   -1    0    0  501    0  0.00000000000E+00  0.00000000000E+00 -0.17443532468E+04  0.17443532468E+04  0.25500000920E-02 0.  1.
    10030    2    1    2    0    0  0.00000000000E+00  0.00000000000E+00 -0.36739095293E+03  0.31213155406E+04  0.30996184591E+04 0.  0.
        2    1    3    3  502    0  0.62919626792E+01 -0.68842469733E+03 -0.15819178554E+04  0.17252339708E+04  0.25500000920E-02 0.  1.
       -2    1    3    3    0  502 -0.62919626792E+01  0.68842469733E+03  0.12145269025E+04  0.13960815698E+04  0.25500000920E-02 0. -1.
</event>
<event>
 5   0  0.1329777E-07  0.3099360E+04  0.7818609E-02  0.8215914E-01
        2   -1    0    0  501    0  0.00000000000E+00  0.00000000000E+00  0.15273403381E+04  0.15273403381E+04  0.25500000920E-02 0. -1.
       -2   -1    0    0    0  501  0.00000000000E+00  0.00000000000E+00 -0.15723464311E+04  0.15723464311E+04  0.25500000920E-02 0.  1.
    10030    2    1    2    0    0  0.00000000000E+00  0.00000000000E+00 -0.45006092982E+02  0.30996867692E+04  0.30993600176E+04 0.  0.
        1    1    3    3  502    0 -0.41849895857E+03 -0.10011613891E+04 -0.11289842839E+04  0.15659090071E+04  0.50400001928E-02 0.  1.
       -1    1    3    3    0  502  0.41849895857E+03  0.10011613891E+04  0.10839781909E+04  0.15337777621E+04  0.50400001928E-02 0. -1.
</event>
<event>
 5   0  0.4838602E-08  0.3099096E+04  0.7818609E-02  0.8215986E-01
        1   -1    0    0  501    0  0.00000000000E+00  0.00000000000E+00  0.26591157783E+04  0.26591157783E+04  0.50400001928E-02 0.  1.
       -1   -1    0    0    0  501  0.00000000000E+00  0.00000000000E+00 -0.90296868727E+03  0.90296868728E+03  0.50400001928E-02 0. -1.
    10030    2    1    2    0    0  0.00000000000E+00  0.00000000000E+00  0.17561470910E+04  0.35620844656E+04  0.30990955349E+04 0.  0.
        5    1    3    3  502    0  0.23580798375E+03 -0.23781821195E+03 -0.86086373852E+03  0.92372689332E+03  0.46999998093E+01 0. -1.
       -5    1    3    3    0  502 -0.23580798375E+03  0.23781821195E+03  0.26170108295E+04  0.26383575722E+04  0.46999998093E+01 0.  1.
</event>
<event>
 5   0  0.1318916E-07  0.3102145E+04  0.7818609E-02  0.8215149E-01
        2   -1    0    0  501    0  0.00000000000E+00  0.00000000000E+00  0.11958775077E+04  0.11958775077E+04  0.25500000920E-02 0.  1.
       -2   -1    0    0    0  501  0.00000000000E+00  0.00000000000E+00 -0.20117661942E+04  0.20117661942E+04  0.25500000920E-02 0. -1.
    10030    2    1    2    0    0  0.00000000000E+00  0.00000000000E+00 -0.81588868651E+03  0.32076437018E+04  0.31021450271E+04 0.  0.
        5    1    3    3  502    0  0.96447786081E+03 -0.51355094816E+03 -0.15462234601E+04  0.18933518424E+04  0.46999998093E+01 0. -1.
       -5    1    3    3    0  502 -0.96447786081E+03  0.51355094816E+03  0.73033477359E+03  0.13142918595E+04  0.46999998093E+01 0.  1.
</event>
<event>
 5   0  0.1325713E-07  0.3100221E+04  0.7818609E-02  0.8215677E-01
        2   -1    0    0  501    0  0.00000000000E+00  0.00000000000E+00  0.20667911861E+04  0.20667911861E+04  0.25500000920E-02 0. -1.
       -2   -1    0    0    0  501  0.00000000000E+00  0.00000000000E+00 -0.11625959275E+04  0.11625959275E+04  0.25500000920E-02 0.  1.
    10030    2    1    2    0    0  0.00000000000E+00  0.00000000000E+00  0.90419525862E+03  0.32293871135E+04  0.31002212927E+04 0.  0.
        4    1    3    3  502    0 -0.13721934119E+04  0.35210321759E+03  0.11075597050E+04  0.17982162130E+04  0.12699999809E+01 0.  1.
       -4    1    3    3    0  502  0.13721934119E+04 -0.35210321759E+03 -0.20336444642E+03  0.14311709005E+04  0.12699999809E+01 0. -1.
</event>
<event>
 5   0  0.1377237E-07  0.3099449E+04  0.7818609E-02  0.8215889E-01
        2   -1    0    0  501    0  0.00000000000E+00  0.00000000000E+00  0.16688300987E+04  0.16688300987E+04  0.25500000920E-02 0. -1.
       -2   -1    0    0    0  501  0.00000000000E+00  0.00000000000E+00 -0.14391191359E+04  0.14391191359E+04  0.25500000920E-02 0.  1.
    10030    2    1    2    0    0  0.00000000000E+00  0.00000000000E+00  0.22971096279E+03  0.31079492346E+04  0.30994485507E+04 0.  0.
        2    1    3    3  502    0 -0.37578017223E+03  0.11701358034E+04 -0.83177648401E+03  0.14840083071E+04  0.25500000920E-02 0.  1.
       -2    1    3    3    0  502  0.37578017223E+03 -0.11701358034E+04  0.10614874468E+04  0.16239409275E+04  0.25500000920E-02 0. -1.
</event>
<event>
 5   0  0.4436241E-08  0.3100051E+04  0.7818609E-02  0.8215724E-01
        1   -1    0    0  501    0  0.00000000000E+00  0.00000000000E+00  0.21866958557E+04  0.21866958557E+04  0.50400001928E-02 0.  1.
       -1   -1    0    0    0  501  0.00000000000E+00  0.00000000000E+00 -0.10987260900E+04  0.10987260900E+04  0.50400001928E-02 0. -1.
    10030    2    1    2    0    0  0.00000000000E+00  0.00000000000E+00  0.10879697657E+04  0.32854219457E+04  0.31000514754E+04 0.  0.
        3    1    3    3  502    0 -0.52926218701E+03  0.13925789320E+04  0.90390697149E+02  0.14925029423E+04  0.10100000352E+00 0.  1.
       -3    1    3    3    0  502  0.52926218701E+03 -0.13925789320E+04  0.99757906854E+03  0.17929190034E+04  0.10100000352E+00 0. -1.
</event>
<event>
 5   0  0.4838602E-08  0.3099244E+04  0.7818609E-02  0.8215945E-01
       -1   -1    0    0    0  501  0.00000000000E+00  0.00000000000E+00  0.14843748249E+04  0.14843748249E+04  0.50400001928E-02 0. -1.
        1   -1    0    0  501    0  0.00000000000E+00  0.00000000000E+00 -0.16177374710E+04  0.16177374710E+04  0.50400001928E-02 0.  1.
    10030    2    1    2    0    0  0.00000000000E+00  0.00000000000E+00 -0.13336264607E+03  0.31021122960E+04  0.30992442791E+04 0.  0.
        5    1    3    3  502    0  0.52552999492E+03 -0.62977347978E+03 -0.13826261754E+04  0.16076298213E+04  0.46999998093E+01 0.  1.
       -5    1    3    3    0  502 -0.52552999492E+03  0.62977347978E+03  0.12492635293E+04  0.14944824747E+04  0.46999998093E+01 0. -1.
</event>
<event>
 5   0  0.1329777E-07  0.3100909E+04  0.7818609E-02  0.8215489E-01
        2   -1    0    0  501    0  0.00000000000E+00  0.00000000000E+00  0.29183714892E+04  0.29183714892E+04  0.25500000920E-02 0.  1.
       -2   -1    0    0    0  501  0.00000000000E+00  0.00000000000E+00 -0.82371578239E+03  0.82371578240E+03  0.25500000920E-02 0. -1.
    10030    2    1    2    0    0  0.00000000000E+00  0.00000000000E+00  0.20946557068E+04  0.37420872716E+04  0.31009086762E+04 0.  0.
        1    1    3    3  502    0 -0.47262108077E+03 -0.10198076197E+04  0.23361066015E+04  0.25924452397E+04  0.50400001928E-02 0. -1.
       -1    1    3    3    0  502  0.47262108077E+03  0.10198076197E+04 -0.24145089464E+03  0.11496420320E+04  0.50400001928E-02 0.  1.
</event>
<event>
 5   0  0.1318916E-07  0.3099574E+04  0.7818609E-02  0.8215855E-01
       -2   -1    0    0    0  501  0.00000000000E+00  0.00000000000E+00  0.29871077152E+04  0.29871077152E+04  0.25500000920E-02 0.  1.
        2   -1    0    0  501    0  0.00000000000E+00  0.00000000000E+00 -0.80406886811E+03  0.80406886811E+03  0.25500000920E-02 0. -1.
    10030    2    1    2    0    0  0.00000000000E+00  0.00000000000E+00  0.21830388471E+04  0.37911765833E+04  0.30995743705E+04 0.  0.
        5    1    3    3  502    0  0.50909230180E+03  0.23875543571E+03  0.28579294942E+04  0.29127241911E+04  0.46999998093E+01 0.  1.
       -5    1    3    3    0  502 -0.50909230180E+03 -0.23875543571E+03 -0.67489064709E+03  0.87845239220E+03  0.46999998093E+01 0. -1.
</event>
<event>
 5   0  0.1318916E-07  0.3099950E+04  0.7818609E-02  0.8215752E-01
        2   -1    0    0  501    0  0.00000000000E+00  0.00000000000E+00  0.17912739021E+04  0.17912739021E+04  0.25500000920E-02 0.  1.
       -2   -1    0    0    0  501  0.00000000000E+00  0.00000000000E+00 -0.13411808553E+04  0.13411808553E+04  0.25500000920E-02 0. -1.
    10030    2    1    2    0    0  0.00000000000E+00  0.00000000000E+00  0.45009304685E+03  0.31324547574E+04  0.30999498474E+04 0.  0.
        5    1    3    3  502    0  0.52262443906E+03  0.10185296780E+04 -0.83083173914E+03  0.14145113920E+04  0.46999998093E+01 0. -1.
       -5    1    3    3    0  502 -0.52262443906E+03 -0.10185296780E+04  0.12809247860E+04  0.17179433654E+04  0.46999998093E+01 0.  1.
</event>
<event>
 5   0  0.4450600E-08  0.3097765E+04  0.7818609E-02  0.8216352E-01
        1   -1    0    0  501    0  0.00000000000E+00  0.00000000000E+00  0.23700211983E+04  0.23700211983E+04  0.50400001928E-02 0.  1.
       -1   -1    0    0    0  501  0.00000000000E+00  0.00000000000E+00 -0.10122425265E+04  0.10122425266E+04  0.50400001928E-02 0. -1.
    10030    2    1    2    0    0  0.00000000000E+00  0.00000000000E+00  0.13577786717E+04  0.33822637248E+04  0.30977645138E+04 0.  0.
        4    1    3    3  502    0  0.39775057935E+01  0.99465635575E+03  0.19752294451E+04  0.22115356791E+04  0.12699999809E+01 0.  1.
       -4    1    3    3    0  502 -0.39775057935E+01 -0.99465635575E+03 -0.61745077332E+03  0.11707280457E+04  0.12699999809E+01 0. -1.
</event>
<event>
 5   0  0.4450600E-08  0.3100221E+04  0.7818609E-02  0.8215677E-01
        1   -1    0    0  501    0  0.00000000000E+00  0.00000000000E+00  0.15074270251E+04  0.15074270251E+04  0.50400001928E-02 0. -1.
       -1   -1    0    0    0  501  0.00000000000E+00  0.00000000000E+00 -0.15940024581E+04  0.15940024581E+04  0.50400001928E-02 0.  1.
    10030    2    1    2    0    0  0.00000000000E+00  0.00000000000E+00 -0.86575433010E+02  0.31014294832E+04  0.31002208847E+04 0.  0.
        4    1    3    3  502    0  0.50513743451E+03  0.29917014000E+03 -0.14784808085E+04  0.15907777074E+04  0.12699999809E+01 0.  1.
       -4    1    3    3    0  502 -0.50513743451E+03 -0.29917014000E+03  0.13919053755E+04  0.15106517758E+04  0.12699999809E+01 0. -1.
</event>
<event>
 5   0  0.4517409E-08  0.3099960E+04  0.7818609E-02  0.8215749E-01
       -1   -1    0    0    0  501  0.00000000000E+00  0.00000000000E+00  0.18070546053E+04  0.18070546054E+04  0.50400001928E-02 0.  1.
        1   -1    0    0  501    0  0.00000000000E+00  0.00000000000E+00 -0.13294773004E+04  0.13294773004E+04  0.50400001928E-02 0. -1.
    10030    2    1    2    0    0  0.00000000000E+00  0.00000000000E+00  0.47757730494E+03  0.31365319058E+04  0.30999600503E+04 0.  0.
        2    1    3    3  502    0  0.88705414170E+03  0.41568242984E+03 -0.97654029344E+03  0.13832164970E+04  0.25500000920E-02 0. -1.
       -2    1    3    3    0  502 -0.88705414170E+03 -0.41568242984E+03  0.14541175984E+04  0.17533154088E+04  0.25500000920E-02 0.  1.
</event>
<event>
 5   0  0.1329777E-07  0.3090223E+04  0.7818609E-02  0.8218426E-01
       -2   -1    0    0    0  501  0.00000000000E+00  0.00000000000E+00  0.25090268604E+04  0.25090268604E+04  0.25500000920E-02 0.  1.
        2   -1    0    0  501    0  0.00000000000E+00  0.00000000000E+00 -0.95151203071E+03  0.95151203071E+03  0.25500000920E-02 0. -1.
    10030    2    1    2    0    0  0.00000000000E+00  0.00000000000E+00  0.15575148297E+04  0.34605388912E+04  0.30902228030E+04 0.  0.
        1    1    3    3  502    0 -0.17173354555E+03 -0.38799634539E+03 -0.88499282871E+03  0.98145090636E+03  0.50400001928E-02 0. -1.
       -1    1    3    3    0  502  0.17173354555E+03  0.38799634539E+03  0.24425076584E+04  0.24790879848E+04  0.50400001928E-02 0.  1.
</event>
<event>
 5   0  0.1318916E-07  0.3099750E+04  0.7818609E-02  0.8215807E-01
        2   -1    0    0  501    0  0.00000000000E+00  0.00000000000E+00  0.23460882216E+04  0.23460882216E+04  0.25500000920E-02 0.  1.
       -2   -1    0    0    0  501  0.00000000000E+00  0.00000000000E+00 -0.10238796234E+04  0.10238796234E+04  0.25500000920E-02 0. -1.
    10030    2    1    2    0    0  0.00000000000E+00  0.00000000000E+00  0.13222085982E+04  0.33699678450E+04  0.30997496188E+04 0.  0.
        5    1    3    3  502    0  0.97451920465E+03  0.38563480287E+03 -0.58022203261E+03  0.11979489048E+04  0.46999998093E+01 0. -1.
       -5    1    3    3    0  502 -0.97451920465E+03 -0.38563480287E+03  0.19024306308E+04  0.21720189402E+04  0.46999998093E+01 0.  1.
</event>
<event>
 5   0  0.1398931E-07  0.3100067E+04  0.7818609E-02  0.8215720E-01
       -2   -1    0    0    0  501  0.00000000000E+00  0.00000000000E+00  0.14943811452E+04  0.14943811452E+04  0.25500000920E-02 0. -1.
        2   -1    0    0  501    0  0.00000000000E+00  0.00000000000E+00 -0.16077581564E+04  0.16077581564E+04  0.25500000920E-02 0.  1.
    10030    2    1    2    0    0  0.00000000000E+00  0.00000000000E+00 -0.11337701115E+03  0.31021393016E+04  0.31000667573E+04 0.  0.
        3    1    3    3  502    0  0.30393308717E+02 -0.12214512583E+03  0.14892586719E+04  0.14945683614E+04  0.10100000352E+00 0. -1.
       -3    1    3    3    0  502 -0.30393308717E+02  0.12214512583E+03 -0.16026356830E+04  0.16075709402E+04  0.10100000352E+00 0.  1.
</event>
<event>
 5   0  0.4470354E-08  0.3098139E+04  0.7818609E-02  0.8216249E-01
        1   -1    0    0  501    0  0.00000000000E+00  0.00000000000E+00  0.24360135767E+04  0.24360135767E+04  0.50400001928E-02 0.  1.
       -1   -1    0    0    0  501  0.00000000000E+00  0.00000000000E+00 -0.98505894134E+03  0.98505894136E+03  0.50400001928E-02 0. -1.
    10030    2    1    2    0    0  0.00000000000E+00  0.00000000000E+00  0.14509546354E+04  0.34210725181E+04  0.30981394126E+04 0.  0.
        1    1    3    3  502    0  0.94551146999E+03 -0.28759401712E+03  0.20426743880E+04  0.22691894840E+04  0.50400001928E-02 0.  1.
       -1    1    3    3    0  502 -0.94551146999E+03  0.28759401712E+03 -0.59171975267E+03  0.11518830341E+04  0.50400001928E-02 0. -1.
</event>
<event>
 5   0  0.1329777E-07  0.3099395E+04  0.7818609E-02  0.8215904E-01
        2   -1    0    0  501    0  0.00000000000E+00  0.00000000000E+00  0.19433745987E+04  0.19433745987E+04  0.25500000920E-02 0. -1.
       -2   -1    0    0    0  501  0.00000000000E+00  0.00000000000E+00 -0.12357694030E+04  0.12357694030E+04  0.25500000920E-02 0.  1.
    10030    2    1    2    0    0  0.00000000000E+00  0.00000000000E+00  0.70760519567E+03  0.31791440017E+04  0.30993953396E+04 0.  0.
        1    1    3    3  502    0 -0.13073093346E+04  0.13888624761E+02 -0.49965950440E+03  0.13996107354E+04  0.50400001928E-02 0.  1.
       -1    1    3    3    0  502  0.13073093346E+04 -0.13888624761E+02  0.12072647001E+04  0.17795332664E+04  0.50400001928E-02 0. -1.
</event>
<event>
 5   0  0.4450600E-08  0.3109795E+04  0.7818609E-02  0.8213055E-01
       -1   -1    0    0    0  501  0.00000000000E+00  0.00000000000E+00  0.10609624584E+04  0.10609624584E+04  0.50400001928E-02 0. -1.
        1   -1    0    0  501    0  0.00000000000E+00  0.00000000000E+00 -0.22787853662E+04  0.22787853662E+04  0.50400001928E-02 0.  1.
    10030    2    1    2    0    0  0.00000000000E+00  0.00000000000E+00 -0.12178229078E+04  0.33397478247E+04  0.31097946713E+04 0.  0.
        4    1    3    3  502    0  0.13340341425E+04  0.29000110608E+03 -0.14082297309E+04  0.19613414600E+04  0.12699999809E+01 0.  1.
       -4    1    3    3    0  502 -0.13340341425E+04 -0.29000110608E+03  0.19040682314E+03  0.13784063646E+04  0.12699999809E+01 0. -1.
</event>
<event>
 5   0  0.1398931E-07  0.3099523E+04  0.7818609E-02  0.8215869E-01
       -2   -1    0    0    0  501  0.00000000000E+00  0.00000000000E+00  0.10872365679E+04  0.10872365679E+04  0.25500000920E-02 0.  1.
        2   -1    0    0  501    0  0.00000000000E+00  0.00000000000E+00 -0.22090511961E+04  0.22090511961E+04  0.25500000920E-02 0. -1.
    10030    2    1    2    0    0  0.00000000000E+00  0.00000000000E+00 -0.11218146282E+04  0.32962877641E+04  0.30995233446E+04 0.  0.
        3    1    3    3  502    0 -0.80610396286E+03  0.12812930174E+04 -0.20779626838E+03  0.15279707768E+04  0.10100000352E+00 0.  1.
       -3    1    3    3    0  502  0.80610396286E+03 -0.12812930174E+04 -0.91401835981E+03  0.17683169873E+04  0.10100000352E+00 0. -1.
</event>
<event>
 5   0  0.1325713E-07  0.3098782E+04  0.7818609E-02  0.8216072E-01
       -2   -1    0    0    0  501  0.00000000000E+00  0.00000000000E+00  0.21473058186E+04  0.21473058186E+04  0.25500000920E-02 0.  1.
        2   -1    0    0  501    0  0.00000000000E+00  0.00000000000E+00 -0.11179649809E+04  0.11179649809E+04  0.25500000920E-02 0. -1.
    10030    2    1    2    0    0  0.00000000000E+00  0.00000000000E+00  0.10293408378E+04  0.32652707995E+04  0.30987821533E+04 0.  0.
        4    1    3    3  502    0 -0.88304982822E+02  0.73531612453E+03 -0.91937574535E+03  0.11805680612E+04  0.12699999809E+01 0. -1.
       -4    1    3    3    0  502  0.88304982822E+02 -0.73531612453E+03  0.19487165831E+04  0.20847027383E+04  0.12699999809E+01 0.  1.
</event>
<event>
 5   0  0.4470354E-08  0.3099807E+04  0.7818609E-02  0.8215791E-01
        1   -1    0    0  501    0  0.00000000000E+00  0.00000000000E+00  0.12707962870E+04  0.12707962870E+04  0.50400001928E-02 0. -1.
       -1   -1    0    0    0  501  0.00000000000E+00  0.00000000000E+00 -0.18903114468E+04  0.18903114469E+04  0.50400001928E-02 0.  1.
    10030    2    1    2    0    0  0.00000000000E+00  0.00000000000E+00 -0.61951515981E+03  0.31611077339E+04  0.30998069411E+04 0.  0.
        1    1    3    3  502    0  0.57479778673E+03 -0.50178662821E+03  0.10660020025E+04  0.13109319530E+04  0.50400001928E-02 0. -1.
       -1    1    3    3    0  502 -0.57479778673E+03  0.50178662821E+03 -0.16855171623E+04  0.18501757809E+04  0.50400001928E-02 0.  1.
</event>
<event>
 5   0  0.1329777E-07  0.3100032E+04  0.7818609E-02  0.8215729E-01
        2   -1    0    0  501    0  0.00000000000E+00  0.00000000000E+00  0.18295807250E+04  0.18295807250E+04  0.25500000920E-02 0.  1.
       -2   -1    0    0    0  501  0.00000000000E+00  0.00000000000E+00 -0.13131698041E+04  0.13131698041E+04  0.25500000920E-02 0. -1.
    10030    2    1    2    0    0  0.00000000000E+00  0.00000000000E+00  0.51641092083E+03  0.31427505291E+04  0.31000323626E+04 0.  0.
        1    1    3    3  502    0 -0.76528383072E+02  0.87401960011E+03 -0.10372066607E+04  0.13585155545E+04  0.50400001928E-02 0. -1.
       -1    1    3    3    0  502  0.76528383072E+02 -0.87401960011E+03  0.15536175816E+04  0.17842349746E+04  0.50400001928E-02 0.  1.
</event>
<event>
 5   0  0.4838602E-08  0.3101131E+04  0.7818609E-02  0.8215428E-01
        1   -1    0    0  501    0  0.00000000000E+00  0.00000000000E+00  0.19992748177E+04  0.19992748177E+04  0.50400001928E-02 0.  1.
       -1   -1    0    0    0  501  0.00000000000E+00  0.00000000000E+00 -0.12025627533E+04  0.12025627534E+04  0.50400001928E-02 0. -1.
    10030    2    1    2    0    0  0.00000000000E+00  0.00000000000E+00  0.79671206435E+03  0.32018375711E+04  0.31011310385E+04 0.  0.
        5    1    3    3  502    0  0.61904302078E+03  0.10671417306E+04 -0.57141455442E+03  0.13596111274E+04  0.46999998093E+01 0. -1.
       -5    1    3    3    0  502 -0.61904302078E+03 -0.10671417306E+04  0.13681266188E+04  0.18422264437E+04  0.46999998093E+01 0.  1.
</event>
<event>
 5   0  0.4838602E-08  0.3101574E+04  0.7818609E-02  0.8215306E-01
       -1   -1    0    0    0  501  0.00000000000E+00  0.00000000000E+00  0.21944005303E+04  0.21944005303E+04  0.50400001928E-02 0. -1.
        1   -1    0    0  501    0  0.00000000000E+00  0.00000000000E+00 -0.10959444381E+04  0.10959444381E+04  0.50400001928E-02 0.  1.
    10030    2    1    2    0    0  0.00000000000E+00  0.00000000000E+00  0.10984560922E+04  0.32903449684E+04  0.31015744752E+04 0.  0.
        5    1    3    3  502    0  0.14403319255E+04  0.45155728614E+03  0.17197394739E+03  0.15192291357E+04  0.46999998093E+01 0. -1.
       -5    1    3    3    0  502 -0.14403319255E+04 -0.45155728614E+03  0.92648214479E+03  0.17711158327E+04  0.46999998093E+01 0.  1.
</event>
<event>
 5   0  0.4470354E-08  0.3099248E+04  0.7818609E-02  0.8215944E-01
       -1   -1    0    0    0  501  0.00000000000E+00  0.00000000000E+00  0.17114891483E+04  0.17114891484E+04  0.50400001928E-02 0.  1.
        1   -1    0    0  501    0  0.00000000000E+00  0.00000000000E+00 -0.14030669860E+04  0.14030669860E+04  0.50400001928E-02 0. -1.
    10030    2    1    2    0    0  0.00000000000E+00  0.00000000000E+00  0.30842216234E+03  0.31145561344E+04  0.30992475997E+04 0.  0.
        1    1    3    3  502    0  0.11440524452E+04 -0.76885522336E+03 -0.55733966906E+03  0.14868160137E+04  0.50400001928E-02 0. -1.
       -1    1    3    3    0  502 -0.11440524452E+04  0.76885522336E+03  0.86576183139E+03  0.16277401207E+04  0.50400001928E-02 0.  1.
</event>
<event>
 5   0  0.4436241E-08  0.3101272E+04  0.7818609E-02  0.8215389E-01
       -1   -1    0    0    0  501  0.00000000000E+00  0.00000000000E+00  0.11096641837E+04  0.11096641837E+04  0.50400001928E-02 0.  1.
        1   -1    0    0  501    0  0.00000000000E+00  0.00000000000E+00 -0.21668462418E+04  0.21668462418E+04  0.50400001928E-02 0. -1.
    10030    2    1    2    0    0  0.00000000000E+00  0.00000000000E+00 -0.10571820580E+04  0.32765104255E+04  0.31012717818E+04 0.  0.
        3    1    3    3  502    0  0.46159972943E+02 -0.14817269941E+04 -0.48112127079E+02  0.14832263533E+04  0.10100000352E+00 0.  1.
       -3    1    3    3    0  502 -0.46159972943E+02  0.14817269941E+04 -0.10090699310E+04  0.17932840723E+04  0.10100000352E+00 0. -1.
</event>
<event>
 5   0  0.4436241E-08  0.3099202E+04  0.7818609E-02  0.8215957E-01
        1   -1    0    0  501    0  0.00000000000E+00  0.00000000000E+00  0.15881197325E+04  0.15881197326E+04  0.50400001928E-02 0. -1.
       -1   -1    0    0    0  501  0.00000000000E+00  0.00000000000E+00 -0.15120162692E+04  0.15120162692E+04  0.50400001928E-02 0.  1.
    10030    2    1    2    0    0  0.00000000000E+00  0.00000000000E+00  0.76103463335E+02  0.31001360018E+04  0.30992017508E+04 0.  0.
        3    1    3    3  502    0  0.33509999168E+03  0.25107945498E+03 -0.14543530982E+04  0.15134318094E+04  0.10100000352E+00 0.  1.
       -3    1    3    3    0  502 -0.33509999168E+03 -0.25107945498E+03  0.15304565616E+04  0.15867041924E+04  0.10100000352E+00 0. -1.
</event>
<event>
 5   0  0.4450600E-08  0.3099808E+04  0.7818609E-02  0.8215791E-01
        1   -1    0    0  501    0  0.00000000000E+00  0.00000000000E+00  0.25586879565E+04  0.25586879565E+04  0.50400001928E-02 0. -1.
       -1   -1    0    0    0  501  0.00000000000E+00  0.00000000000E+00 -0.93884157911E+03  0.93884157912E+03  0.50400001928E-02 0.  1.
    10030    2    1    2    0    0  0.00000000000E+00  0.00000000000E+00  0.16198463774E+04  0.34975295356E+04  0.30998081499E+04 0.  0.
        4    1    3    3  502    0  0.14653751522E+04 -0.13242071942E+03  0.26023884676E+03  0.14941838755E+04  0.12699999809E+01 0.  1.
       -4    1    3    3    0  502 -0.14653751522E+04  0.13242071942E+03  0.13596075306E+04  0.20033456601E+04  0.12699999809E+01 0. -1.
</event>
<event>
 5   0  0.4436241E-08  0.3100091E+04  0.7818609E-02  0.8215713E-01
        1   -1    0    0  501    0  0.00000000000E+00  0.00000000000E+00  0.11416745975E+04  0.11416745975E+04  0.50400001928E-02 0. -1.
       -1   -1    0    0    0  501  0.00000000000E+00  0.00000000000E+00 -0.21044889144E+04  0.21044889144E+04  0.50400001928E-02 0.  1.
    10030    2    1    2    0    0  0.00000000000E+00  0.00000000000E+00 -0.96281431690E+03  0.32461635119E+04  0.31000913111E+04 0.  0.
        3    1    3    3  502    0 -0.49719801387E+03  0.93027193185E+03 -0.16707190901E+04  0.19758324880E+04  0.10100000352E+00 0.  1.
       -3    1    3    3    0  502  0.49719801387E+03 -0.93027193185E+03  0.70790477324E+03  0.12703310239E+04  0.10100000352E+00 0. -1.
</event>
<event>
 5   0  0.4470354E-08  0.3100664E+04  0.7818609E-02  0.8215556E-01
        1   -1    0    0  501    0  0.00000000000E+00  0.00000000000E+00  0.14533290107E+04  0.14533290107E+04  0.50400001928E-02 0.  1.
       -1   -1    0    0    0  501  0.00000000000E+00  0.00000000000E+00 -0.16538093514E+04  0.16538093514E+04  0.50400001928E-02 0. -1.
    10030    2    1    2    0    0  0.00000000000E+00  0.00000000000E+00 -0.20048034074E+03  0.31071383621E+04  0.31006638699E+04 0.  0.
        1    1    3    3  502    0  0.80000218795E+03  0.12776974585E+04  0.26247532059E+03  0.15301658701E+04  0.50400001928E-02 0.  1.
       -1    1    3    3    0  502 -0.80000218795E+03 -0.12776974585E+04 -0.46295566133E+03  0.15769724920E+04  0.50400001928E-02 0. -1.
</event>
<event>
 5   0  0.4838602E-08  0.3100106E+04  0.7818609E-02  0.8215709E-01
       -1   -1    0    0    0  501  0.00000000000E+00  0.00000000000E+00  0.12917259479E+04  0.12917259479E+04  0.50400001928E-02 0. -1.
        1   -1    0    0  501    0  0.00000000000E+00  0.00000000000E+00 -0.18600415536E+04  0.18600415536E+04  0.50400001928E-02 0.  1.
    10030    2    1    2    0    0  0.00000000000E+00  0.00000000000E+00 -0.56831560573E+03  0.31517675016E+04  0.31001057653E+04 0.  0.
        5    1    3    3  502    0  0.88824925542E+02  0.60586045525E+03  0.11635400032E+04  0.13148399856E+04  0.46999998093E+01 0. -1.
       -5    1    3    3    0  502 -0.88824925542E+02 -0.60586045525E+03 -0.17318556090E+04  0.18369275160E+04  0.46999998093E+01 0.  1.
</event>
<event>
 5   0  0.1398931E-07  0.3104660E+04  0.7818609E-02  0.8214460E-01
        2   -1    0    0  501    0  0.00000000000E+00  0.00000000000E+00  0.21934335701E+04  0.21934335701E+04  0.25500000920E-02 0. -1.
       -2   -1    0    0    0  501  0.00000000000E+00  0.00000000000E+00 -0.10986100565E+04  0.10986100565E+04  0.25500000920E-02 0.  1.
    10030    2    1    2    0    0  0.00000000000E+00  0.00000000000E+00  0.10948235136E+04  0.32920436267E+04  0.31046598387E+04 0.  0.
        3    1    3    3  502    0  0.85867249929E+03  0.14782224478E+03 -0.81487015896E+03  0.11929724487E+04  0.10100000352E+00 0.  1.
       -3    1    3    3    0  502 -0.85867249929E+03 -0.14782224478E+03  0.19096936726E+04  0.20990711780E+04  0.10100000352E+00 0. -1.
</event>
<event>
 5   0  0.1377237E-07  0.3098978E+04  0.7818609E-02  0.8216018E-01
       -2   -1    0    0    0  501  0.00000000000E+00  0.00000000000E+00  0.11458743637E+04  0.11458743637E+04  0.25500000920E-02 0.  1.
        2   -1    0    0  501    0  0.00000000000E+00  0.00000000000E+00 -0.20952699175E+04  0.20952699175E+04  0.25500000920E-02 0. -1.
    10030    2    1    2    0    0  0.00000000000E+00  0.00000000000E+00 -0.94939555375E+03  0.32411442812E+04  0.30989779499E+04 0.  0.
        2    1    3    3  502    0 -0.11166117309E+04  0.67696735119E+03 -0.13471166756E+04  0.18761209689E+04  0.25500000920E-02 0. -1.
       -2    1    3    3    0  502  0.11166117309E+04 -0.67696735119E+03  0.39772112188E+03  0.13650233122E+04  0.25500000920E-02 0.  1.
</event>
<event>
 5   0  0.4838602E-08  0.3100990E+04  0.7818609E-02  0.8215466E-01
       -1   -1    0    0    0  501  0.00000000000E+00  0.00000000000E+00  0.99763547258E+03  0.99763547260E+03  0.50400001928E-02 0. -1.
        1   -1    0    0  501    0  0.00000000000E+00  0.00000000000E+00 -0.24097331159E+04  0.24097331159E+04  0.50400001928E-02 0.  1.
    10030    2    1    2    0    0  0.00000000000E+00  0.00000000000E+00 -0.14120976433E+04  0.34073685885E+04  0.31009903166E+04 0.  0.
        5    1    3    3  502    0  0.72606434825E+03  0.11716631212E+04  0.74059996119E+02  0.13803879456E+04  0.46999998093E+01 0. -1.
       -5    1    3    3    0  502 -0.72606434825E+03 -0.11716631212E+04 -0.14861576394E+04  0.20269806429E+04  0.46999998093E+01 0.  1.
</event>
<event>
 5   0  0.1398931E-07  0.3100672E+04  0.7818609E-02  0.8215553E-01
        2   -1    0    0  501    0  0.00000000000E+00  0.00000000000E+00  0.21461331944E+04  0.21461331944E+04  0.25500000920E-02 0. -1.
       -2   -1    0    0    0  501  0.00000000000E+00  0.00000000000E+00 -0.11199407941E+04  0.11199407941E+04  0.25500000920E-02 0.  1.
    10030    2    1    2    0    0  0.00000000000E+00  0.00000000000E+00  0.10261924003E+04  0.32660739886E+04  0.31006722588E+04 0.  0.
        3    1    3    3  502    0  0.34447907645E+03 -0.14545353348E+04  0.79810377169E+02  0.14968996562E+04  0.10100000352E+00 0. -1.
       -3    1    3    3    0  502 -0.34447907645E+03  0.14545353348E+04  0.94638202313E+03  0.17691743323E+04  0.10100000352E+00 0.  1.
</event>
<event>
 5   0  0.1329777E-07  0.3098224E+04  0.7818609E-02  0.8216226E-01
       -2   -1    0    0    0  501  0.00000000000E+00  0.00000000000E+00  0.19309105839E+04  0.19309105839E+04  0.25500000920E-02 0. -1.
        2   -1    0    0  501    0  0.00000000000E+00  0.00000000000E+00 -0.12428062703E+04  0.12428062703E+04  0.25500000920E-02 0.  1.
    10030    2    1    2    0    0  0.00000000000E+00  0.00000000000E+00  0.68810431353E+03  0.31737168542E+04  0.30982238661E+04 0.  0.
        1    1    3    3  502    0 -0.64157382315E+03 -0.14067802745E+04  0.44177087066E+03  0.16080451528E+04  0.50400001928E-02 0. -1.
       -1    1    3    3    0  502  0.64157382315E+03  0.14067802745E+04  0.24633344287E+03  0.15656717014E+04  0.50400001928E-02 0.  1.
</event>
<event>
 5   0  0.1325713E-07  0.3101072E+04  0.7818609E-02  0.8215444E-01
       -2   -1    0    0    0  501  0.00000000000E+00  0.00000000000E+00  0.11131476460E+04  0.11131476460E+04  0.25500000920E-02 0.  1.
        2   -1    0    0  501    0  0.00000000000E+00  0.00000000000E+00 -0.21597869466E+04  0.21597869466E+04  0.25500000920E-02 0. -1.
    10030    2    1    2    0    0  0.00000000000E+00  0.00000000000E+00 -0.10466393006E+04  0.32729345926E+04  0.31010719150E+04 0.  0.
        4    1    3    3  502    0  0.27706862880E+03 -0.17053268777E+03  0.10767170872E+04  0.11247976358E+04  0.12699999809E+01 0.  1.
       -4    1    3    3    0  502 -0.27706862880E+03  0.17053268777E+03 -0.21233563878E+04  0.21481369568E+04  0.12699999809E+01 0. -1.
</event>
<event>
 5   0  0.1377237E-07  0.3098658E+04  0.7818609E-02  0.8216106E-01
        2   -1    0    0  501    0  0.00000000000E+00  0.00000000000E+00  0.20964546668E+04  0.20964546668E+04  0.25500000920E-02 0. -1.
       -2   -1    0    0    0  501  0.00000000000E+00  0.00000000000E+00 -0.11449903890E+04  0.11449903890E+04  0.25500000920E-02 0.  1.
    10030    2    1    2    0    0  0.00000000000E+00  0.00000000000E+00  0.95146427781E+03  0.32414450558E+04  0.30986580608E+04 0.  0.
        2    1    3    3  502    0  0.36391195823E+03  0.13389429641E+04 -0.24539607677E+03  0.14090491152E+04  0.25500000920E-02 0.  1.
       -2    1    3    3    0  502 -0.36391195823E+03 -0.13389429641E+04  0.11968603546E+04  0.18323959405E+04  0.25500000920E-02 0. -1.
</event>
<event>
 5   0  0.4838602E-08  0.3099608E+04  0.7818609E-02  0.8215845E-01
       -1   -1    0    0    0  501  0.00000000000E+00  0.00000000000E+00  0.17020306746E+04  0.17020306746E+04  0.50400001928E-02 0. -1.
        1   -1    0    0  501    0  0.00000000000E+00  0.00000000000E+00 -0.14111925320E+04  0.14111925320E+04  0.50400001928E-02 0.  1.
    10030    2    1    2    0    0  0.00000000000E+00  0.00000000000E+00  0.29083814260E+03  0.31132232066E+04  0.30996083477E+04 0.  0.
        5    1    3    3  502    0  0.74947684749E+03 -0.12687250507E+04  0.62762378174E+03  0.16016592960E+04  0.46999998093E+01 0.  1.
       -5    1    3    3    0  502 -0.74947684749E+03  0.12687250507E+04 -0.33678563914E+03  0.15115639106E+04  0.46999998093E+01 0. -1.
</event>
<event>
 5   0  0.1377237E-07  0.3100136E+04  0.7818609E-02  0.8215701E-01
       -2   -1    0    0    0  501  0.00000000000E+00  0.00000000000E+00  0.13309523348E+04  0.13309523348E+04  0.25500000920E-02 0.  1.
        2   -1    0    0  501    0  0.00000000000E+00  0.00000000000E+00 -0.18052569855E+04  0.18052569855E+04  0.25500000920E-02 0. -1.
    10030    2    1    2    0    0  0.00000000000E+00  0.00000000000E+00 -0.47430465070E+03  0.31362093203E+04  0.31001361259E+04 0.  0.
        2    1    3    3  502    0 -0.35419486543E+03 -0.13938947339E+04 -0.82207958698E+03  0.16565661409E+04  0.25500000920E-02 0. -1.
       -2    1    3    3    0  502  0.35419486543E+03  0.13938947339E+04  0.34777493628E+03  0.14796431794E+04  0.25500000920E-02 0.  1.
</event>
<event>
 5   0  0.4838602E-08  0.3099520E+04  0.7818609E-02  0.8215870E-01
       -1   -1    0    0    0  501  0.00000000000E+00  0.00000000000E+00  0.25237439068E+04  0.25237439068E+04  0.50400001928E-02 0. -1.
        1   -1    0    0  501    0  0.00000000000E+00  0.00000000000E+00 -0.95166387858E+03  0.95166387860E+03  0.50400001928E-02 0.  1.
    10030    2    1    2    0    0  0.00000000000E+00  0.00000000000E+00  0.15720800282E+04  0.34754077854E+04  0.30995199080E+04 0.  0.
        5    1    3    3  502    0  0.86957993422E+02  0.15399535892E+04  0.95503290304E+03  0.18141468203E+04  0.46999998093E+01 0. -1.
       -5    1    3    3    0  502 -0.86957993422E+02 -0.15399535892E+04  0.61704712521E+03  0.16612609652E+04  0.46999998093E+01 0.  1.
</event>
<event>
 5   0  0.4450600E-08  0.3100393E+04  0.7818609E-02  0.8215630E-01
       -1   -1    0    0    0  501  0.00000000000E+00  0.00000000000E+00  0.14378135102E+04  0.14378135102E+04  0.50400001928E-02 0. -1.
        1   -1    0    0  501    0  0.00000000000E+00  0.00000000000E+00 -0.16713637420E+04  0.16713637420E+04  0.50400001928E-02 0.  1.
    10030    2    1    2    0    0  0.00000000000E+00  0.00000000000E+00 -0.23355023180E+03  0.31091772523E+04  0.31003931163E+04 0.  0.
        4    1    3    3  502    0  0.13289603846E+04  0.11686812917E+03  0.67496403487E+03  0.14951160239E+04  0.12699999809E+01 0.  1.
       -4    1    3    3    0  502 -0.13289603846E+04 -0.11686812917E+03 -0.90851426666E+03  0.16140612284E+04  0.12699999809E+01 0. -1.
</event>
<event>
 5   0  0.4517409E-08  0.3100410E+04  0.7818609E-02  0.8215625E-01
       -1   -1    0    0    0  501  0.00000000000E+00  0.00000000000E+00  0.14261884637E+04  0.14261884637E+04  0.50400001928E-02 0.  1.
        1   -1    0    0  501    0  0.00000000000E+00  0.00000000000E+00 -0.16850056446E+04  0.16850056446E+04  0.50400001928E-02 0. -1.
    10030    2    1    2    0    0  0.00000000000E+00  0.00000000000E+00 -0.25881718089E+03  0.31111941084E+04  0.31004100449E+04 0.  0.
        2    1    3    3  502    0 -0.49694010561E+03  0.36255696201E+03 -0.15572910309E+04  0.16743811914E+04  0.25500000920E-02 0. -1.
       -2    1    3    3    0  502  0.49694010561E+03 -0.36255696201E+03  0.12984738500E+04  0.14368129170E+04  0.25500000920E-02 0.  1.
</event>
<event>
 5   0  0.4450600E-08  0.3099891E+04  0.7818609E-02  0.8215768E-01
       -1   -1    0    0    0  501  0.00000000000E+00  0.00000000000E+00  0.11686048597E+04  0.11686048597E+04  0.50400001928E-02 0.  1.
        1   -1    0    0  501    0  0.00000000000E+00  0.00000000000E+00 -0.20557258324E+04  0.20557258324E+04  0.50400001928E-02 0. -1.
    10030    2    1    2    0    0  0.00000000000E+00  0.00000000000E+00 -0.88712097272E+03  0.32243306922E+04  0.30998910936E+04 0.  0.
        4    1    3    3  502    0 -0.10561339952E+04  0.46081217169E+03  0.63466358701E+03  0.13155099220E+04  0.12699999809E+01 0.  1.
       -4    1    3    3    0  502  0.10561339952E+04 -0.46081217169E+03 -0.15217845597E+04  0.19088207701E+04  0.12699999809E+01 0. -1.
</event>
<event>
 5   0  0.1329777E-07  0.3100386E+04  0.7818609E-02  0.8215632E-01
       -2   -1    0    0    0  501  0.00000000000E+00  0.00000000000E+00  0.29955356265E+04  0.29955356265E+04  0.25500000920E-02 0.  1.
        2   -1    0    0  501    0  0.00000000000E+00  0.00000000000E+00 -0.80222635299E+03  0.80222635299E+03  0.25500000920E-02 0. -1.
    10030    2    1    2    0    0  0.00000000000E+00  0.00000000000E+00  0.21933092735E+04  0.37977619795E+04  0.31003855379E+04 0.  0.
        1    1    3    3  502    0 -0.13631126673E+04 -0.59605104317E+03  0.56307802124E+03  0.15907262014E+04  0.50400001928E-02 0. -1.
       -1    1    3    3    0  502  0.13631126673E+04  0.59605104317E+03  0.16302312523E+04  0.22070357781E+04  0.50400001928E-02 0.  1.
</event>
<event>
 5   0  0.1325713E-07  0.3100696E+04  0.7818609E-02  0.8215547E-01
        2   -1    0    0  501    0  0.00000000000E+00  0.00000000000E+00  0.24056640570E+04  0.24056640570E+04  0.25500000920E-02 0.  1.
       -2   -1    0    0    0  501  0.00000000000E+00  0.00000000000E+00 -0.99913350634E+03  0.99913350634E+03  0.25500000920E-02 0. -1.
    10030    2    1    2    0    0  0.00000000000E+00  0.00000000000E+00  0.14065305506E+04  0.34047975633E+04  0.31006964149E+04 0.  0.
        4    1    3    3  502    0  0.14652265670E+04 -0.50078391902E+03  0.61888818659E+03  0.16675423913E+04  0.12699999809E+01 0.  1.
       -4    1    3    3    0  502 -0.14652265670E+04  0.50078391902E+03  0.78764236406E+03  0.17372551721E+04  0.12699999809E+01 0. -1.
</event>
<event>
 5   0  0.4436241E-08  0.3099748E+04  0.7818609E-02  0.8215807E-01
        1   -1    0    0  501    0  0.00000000000E+00  0.00000000000E+00  0.12241141705E+04  0.12241141705E+04  0.50400001928E-02 0.  1.
       -1   -1    0    0    0  501  0.00000000000E+00  0.00000000000E+00 -0.19623244348E+04  0.19623244348E+04  0.50400001928E-02 0. -1.
    10030    2    1    2    0    0  0.00000000000E+00  0.00000000000E+00 -0.73821026435E+03  0.31864386053E+04  0.30997478270E+04 0.  0.
        3    1    3    3  502    0 -0.98623302491E+03  0.10786840279E+04 -0.89917574286E+03  0.17160220973E+04  0.10100000352E+00 0. -1.
       -3    1    3    3    0  502  0.98623302491E+03 -0.10786840279E+04  0.16096547851E+03  0.14704165080E+04  0.10100000352E+00 0.  1.
</event>
<event>
 5   0  0.1398931E-07  0.3100575E+04  0.7818609E-02  0.8215580E-01
        2   -1    0    0  501    0  0.00000000000E+00  0.00000000000E+00  0.23023818801E+04  0.23023818801E+04  0.25500000920E-02 0. -1.
       -2   -1    0    0    0  501  0.00000000000E+00  0.00000000000E+00 -0.10438715586E+04  0.10438715586E+04  0.25500000920E-02 0.  1.
    10030    2    1    2    0    0  0.00000000000E+00  0.00000000000E+00  0.12585103216E+04  0.33462534387E+04  0.31005747607E+04 0.  0.
        3    1    3    3  502    0 -0.11005683523E+04 -0.10887997117E+04  0.71730023226E+03  0.17062400604E+04  0.10100000352E+00 0.  1.
       -3    1    3    3    0  502  0.11005683523E+04  0.10887997117E+04  0.54121008931E+03  0.16400133784E+04  0.10100000352E+00 0. -1.
</event>
<event>
 5   0  0.4436241E-08  0.3097750E+04  0.7818609E-02  0.8216356E-01
       -1   -1    0    0    0  501  0.00000000000E+00  0.00000000000E+00  0.13371188518E+04  0.13371188518E+04  0.50400001928E-02 0.  1.
        1   -1    0    0  501    0  0.00000000000E+00  0.00000000000E+00 -0.17941663139E+04  0.17941663139E+04  0.50400001928E-02 0. -1.
    10030    2    1    2    0    0  0.00000000000E+00  0.00000000000E+00 -0.45704746212E+03  0.31312851658E+04  0.30977498942E+04 0.  0.
        3    1    3    3  502    0 -0.88031479125E+03 -0.32461724108E+03 -0.14742133658E+04  0.17474654626E+04  0.10100000352E+00 0. -1.
       -3    1    3    3    0  502  0.88031479125E+03  0.32461724108E+03  0.10171659037E+04  0.13838197031E+04  0.10100000352E+00 0.  1.
</event>
<event>
 5   0  0.4517409E-08  0.3102206E+04  0.7818609E-02  0.8215133E-01
       -1   -1    0    0    0  501  0.00000000000E+00  0.00000000000E+00  0.99606017713E+03  0.99606017714E+03  0.50400001928E-02 0. -1.
        1   -1    0    0  501    0  0.00000000000E+00  0.00000000000E+00 -0.24154371978E+04  0.24154371978E+04  0.50400001928E-02 0.  1.
    10030    2    1    2    0    0  0.00000000000E+00  0.00000000000E+00 -0.14193770207E+04  0.34114973750E+04  0.31022061847E+04 0.  0.
        2    1    3    3  502    0  0.81908686704E+03  0.81154740355E+01 -0.21581870770E+04  0.23084065102E+04  0.25500000920E-02 0.  1.
       -2    1    3    3    0  502 -0.81908686704E+03 -0.81154740355E+01  0.73881005634E+03  0.11030908648E+04  0.25500000920E-02 0. -1.
</event>
<event>
 5   0  0.1377237E-07  0.3098626E+04  0.7818609E-02  0.8216115E-01
       -2   -1    0    0    0  501  0.00000000000E+00  0.00000000000E+00  0.14753715182E+04  0.14753715182E+04  0.25500000920E-02 0. -1.
        2   -1    0    0  501    0  0.00000000000E+00  0.00000000000E+00 -0.16269605413E+04  0.16269605413E+04  0.25500000920E-02 0.  1.
    10030    2    1    2    0    0  0.00000000000E+00  0.00000000000E+00 -0.15158902301E+03  0.31023320595E+04  0.30986263046E+04 0.  0.
        2    1    3    3  502    0  0.49183962046E+02  0.12743108190E+04 -0.95666722294E+03  0.15942080482E+04  0.25500000920E-02 0.  1.
       -2    1    3    3    0  502 -0.49183962046E+02 -0.12743108190E+04  0.80507819993E+03  0.15081240113E+04  0.25500000920E-02 0. -1.
</event>
<event>
 5   0  0.4305500E-08  0.3107152E+04  0.7818609E-02  0.8213778E-01
       -3   -1    0    0    0  501  0.00000000000E+00  0.00000000000E+00  0.12190360061E+04  0.12190360103E+04  0.10100000352E+00 0. -1.
        3   -1    0    0  501    0  0.00000000000E+00  0.00000000000E+00 -0.19799239016E+04  0.19799239042E+04  0.10100000352E+00 0.  1.
    10030    2    1    2    0    0  0.00000000000E+00  0.00000000000E+00 -0.76088789549E+03  0.31989599145E+04  0.31071520956E+04 0.  0.
        2    1    3    3  502    0  0.12377091841E+04 -0.18241199059E+02  0.58609300432E+03  0.13695845265E+04  0.25500000920E-02 0. -1.
       -2    1    3    3    0  502 -0.12377091841E+04  0.18241199059E+02 -0.13469808998E+04  0.18293753880E+04  0.25500000920E-02 0.  1.
</event>
<event>
 5   0  0.4470354E-08  0.3100425E+04  0.7818609E-02  0.8215621E-01
       -1   -1    0    0    0  501  0.00000000000E+00  0.00000000000E+00  0.14546867194E+04  0.14546867194E+04  0.50400001928E-02 0.  1.
        1   -1    0    0  501    0  0.00000000000E+00  0.00000000000E+00 -0.16520112055E+04  0.16520112055E+04  0.50400001928E-02 0. -1.
    10030    2    1    2    0    0  0.00000000000E+00  0.00000000000E+00 -0.19732448609E+03  0.31066979249E+04  0.31004249779E+04 0.  0.
        1    1    3    3  502    0  0.39705194756E+03 -0.12653964138E+04  0.70563257290E+03  0.15022635125E+04  0.50400001928E-02 0.  1.
       -1    1    3    3    0  502 -0.39705194756E+03  0.12653964138E+04 -0.90295705899E+03  0.16044344124E+04  0.50400001928E-02 0. -1.
</event>
<event>
 5   0  0.1325713E-07  0.3097398E+04  0.7818609E-02  0.8216452E-01
        2   -1    0    0  501    0  0.00000000000E+00  0.00000000000E+00  0.25289704430E+04  0.25289704431E+04  0.25500000920E-02 0. -1.
       -2   -1    0    0    0  501  0.00000000000E+00  0.00000000000E+00 -0.94839754135E+03  0.94839754136E+03  0.25500000920E-02 0.  1.
    10030    2    1    2    0    0  0.00000000000E+00  0.00000000000E+00  0.15805729017E+04  0.34773679844E+04  0.30973984893E+04 0.  0.
        4    1    3    3  502    0  0.13004547099E+03  0.48608592247E+03  0.24346399832E+04  0.24860942880E+04  0.12699999809E+01 0. -1.
       -4    1    3    3    0  502 -0.13004547099E+03 -0.48608592247E+03 -0.85406708146E+03  0.99127369636E+03  0.12699999809E+01 0.  1.
</event>
<event>
 5   0  0.4470354E-08  0.3099644E+04  0.7818609E-02  0.8215836E-01
       -1   -1    0    0    0  501  0.00000000000E+00  0.00000000000E+00  0.13301938349E+04  0.13301938349E+04  0.50400001928E-02 0. -1.
        1   -1    0    0  501    0  0.00000000000E+00  0.00000000000E+00 -0.18057125183E+04  0.18057125183E+04  0.50400001928E-02 0.  1.
    10030    2    1    2    0    0  0.00000000000E+00  0.00000000000E+00 -0.47551868340E+03  0.31359063532E+04  0.30996436307E+04 0.  0.
        1    1    3    3  502    0  0.14142075615E+04 -0.62307665491E+03 -0.35634891179E+03  0.15859357149E+04  0.50400001928E-02 0. -1.
       -1    1    3    3    0  502 -0.14142075615E+04  0.62307665491E+03 -0.11916977160E+03  0.15499706382E+04  0.50400001928E-02 0.  1.
</event>
<event>
 5   0  0.1325713E-07  0.3099521E+04  0.7818609E-02  0.8215869E-01
        2   -1    0    0  501    0  0.00000000000E+00  0.00000000000E+00  0.17003682489E+04  0.17003682489E+04  0.25500000920E-02 0. -1.
       -2   -1    0    0    0  501  0.00000000000E+00  0.00000000000E+00 -0.14124928210E+04  0.14124928210E+04  0.25500000920E-02 0.  1.
    10030    2    1    2    0    0  0.00000000000E+00  0.00000000000E+00  0.28787542797E+03  0.31128610699E+04  0.30995212176E+04 0.  0.
        4    1    3    3  502    0 -0.10420540945E+04  0.43984311019E+03 -0.92006409199E+03  0.14580323192E+04  0.12699999809E+01 0.  1.
       -4    1    3    3    0  502  0.10420540945E+04 -0.43984311019E+03  0.12079395200E+04  0.16548287507E+04  0.12699999809E+01 0. -1.
</event>
<event>
 5   0  0.1318916E-07  0.3100649E+04  0.7818609E-02  0.8215560E-01
        2   -1    0    0  501    0  0.00000000000E+00  0.00000000000E+00  0.22725088063E+04  0.22725088063E+04  0.25500000920E-02 0.  1.
       -2   -1    0    0    0  501  0.00000000000E+00  0.00000000000E+00 -0.10576444386E+04  0.10576444386E+04  0.25500000920E-02 0. -1.
    10030    2    1    2    0    0  0.00000000000E+00  0.00000000000E+00  0.12148643677E+04  0.33301532448E+04  0.31006491582E+04 0.  0.
        5    1    3    3  502    0 -0.55980155472E+03 -0.13882074711E+04  0.17383411719E+03  0.15068968624E+04  0.46999998093E+01 0.  1.
       -5    1    3    3    0  502  0.55980155472E+03  0.13882074711E+04  0.10410302505E+04  0.18232563824E+04  0.46999998093E+01 0. -1.
</event>
<event>
 5   0  0.4450600E-08  0.3100576E+04  0.7818609E-02  0.8215580E-01
        1   -1    0    0  501    0  0.00000000000E+00  0.00000000000E+00  0.20528602005E+04  0.20528602005E+04  0.50400001928E-02 0.  1.
       -1   -1    0    0    0  501  0.00000000000E+00  0.00000000000E+00 -0.11707531828E+04  0.11707531828E+04  0.50400001928E-02 0. -1.
    10030    2    1    2    0    0  0.00000000000E+00  0.00000000000E+00  0.88210701771E+03  0.32236133834E+04  0.31005758263E+04 0.  0.
        4    1    3    3  502    0 -0.90137685812E+03  0.10549217332E+04  0.11599024912E+04  0.18085119589E+04  0.12699999809E+01 0.  1.
       -4    1    3    3    0  502  0.90137685812E+03 -0.10549217332E+04 -0.27779547350E+03  0.14151014244E+04  0.12699999809E+01 0. -1.
</event>
<event>
 5   0  0.1318916E-07  0.3100553E+04  0.7818609E-02  0.8215586E-01
       -2   -1    0    0    0  501  0.00000000000E+00  0.00000000000E+00  0.28392145079E+04  0.28392145079E+04  0.25500000920E-02 0. -1.
        2   -1    0    0  501    0  0.00000000000E+00  0.00000000000E+00 -0.84648683394E+03  0.84648683394E+03  0.25500000920E-02 0.  1.
    10030    2    1    2    0    0  0.00000000000E+00  0.00000000000E+00  0.19927276740E+04  0.36857013419E+04  0.31005533053E+04 0.  0.
        5    1    3    3  502    0  0.51499378121E+03  0.14330080359E+04  0.65060052293E+03  0.16559087403E+04  0.46999998093E+01 0.  1.
       -5    1    3    3    0  502 -0.51499378121E+03 -0.14330080359E+04  0.13421271510E+04  0.20297926016E+04  0.46999998093E+01 0. -1.
</event>
<event>
 5   0  0.4517409E-08  0.3100761E+04  0.7818609E-02  0.8215529E-01
       -1   -1    0    0    0  501  0.00000000000E+00  0.00000000000E+00  0.23682627060E+04  0.23682627060E+04  0.50400001928E-02 0. -1.
        1   -1    0    0  501    0  0.00000000000E+00  0.00000000000E+00 -0.10149547095E+04  0.10149547095E+04  0.50400001928E-02 0.  1.
    10030    2    1    2    0    0  0.00000000000E+00  0.00000000000E+00  0.13533079965E+04  0.33832174155E+04  0.31007608013E+04 0.  0.
        2    1    3    3  502    0 -0.16246675773E+03  0.14324513309E+04  0.54284246908E+02  0.14426569385E+04  0.25500000920E-02 0.  1.
       -2    1    3    3    0  502  0.16246675773E+03 -0.14324513309E+04  0.12990237496E+04  0.19405604770E+04  0.25500000920E-02 0. -1.
</event>
<event>
 5   0  0.1377237E-07  0.3101396E+04  0.7818609E-02  0.8215355E-01
       -2   -1    0    0    0  501  0.00000000000E+00  0.00000000000E+00  0.11343867606E+04  0.11343867606E+04  0.25500000920E-02 0.  1.
        2   -1    0    0  501    0  0.00000000000E+00  0.00000000000E+00 -0.21197926864E+04  0.21197926864E+04  0.25500000920E-02 0. -1.
    10030    2    1    2    0    0  0.00000000000E+00  0.00000000000E+00 -0.98540592576E+03  0.32541794470E+04  0.31013963040E+04 0.  0.
        2    1    3    3  502    0 -0.97380116332E+03 -0.11478759631E+04 -0.10185179706E+03  0.15087351394E+04  0.25500000920E-02 0.  1.
       -2    1    3    3    0  502  0.97380116332E+03  0.11478759631E+04 -0.88355412870E+03  0.17454443076E+04  0.25500000920E-02 0. -1.
</event>
<event>
 5   0  0.4838602E-08  0.3099595E+04  0.7818609E-02  0.8215849E-01
       -1   -1    0    0    0  501  0.00000000000E+00  0.00000000000E+00  0.15198453323E+04  0.15198453323E+04  0.50400001928E-02 0.  1.
        1   -1    0    0  501    0  0.00000000000E+00  0.00000000000E+00 -0.15803397005E+04  0.15803397005E+04  0.50400001928E-02 0. -1.
    10030    2    1    2    0    0  0.00000000000E+00  0.00000000000E+00 -0.60494368183E+02  0.31001850329E+04  0.30995947589E+04 0.  0.
        5    1    3    3  502    0  0.45343988253E+03  0.78225097030E+03 -0.12891868180E+04  0.15746583913E+04  0.46999998093E+01 0. -1.
       -5    1    3    3    0  502 -0.45343988253E+03 -0.78225097030E+03  0.12286924499E+04  0.15255266415E+04  0.46999998093E+01 0.  1.
</event>
</LesHouchesEvents>
