<LesHouchesEvents version="3.0">
<header>
<!--
#*********************************************************************
#                                                                    *
#                        MadGraph5_aMC@NLO                           *
#                                                                    *
#                           Going Beyond                             *
#                                                                    *
#                   http://madgraph.hep.uiuc.edu                     *
#                   http://madgraph.phys.ucl.ac.be                   *
#                   http://amcatnlo.cern.ch                          *
#                                                                    *
#                     The MadGraph5_aMC@NLO team                     *
#                                                                    *
#....................................................................*
#                                                                    *
# This file contains all the information necessary to reproduce      *
# the events generated:                                              *
#                                                                    *
# 1. software version                                                *
# 2. proc_card          : code generation info including model       *
# 3. param_card         : model primary parameters in the LH format  *
# 4. run_card           : running parameters (collider and cuts)     *
# 5. pythia_card        : present only if pythia has been run        *
# 6. pgs_card           : present only if pgs has been run           *
# 7. delphes_cards      : present only if delphes has been run       *
#                                                                    *
#                                                                    *
#*********************************************************************
-->
<MGVersion>
#5.2.2.3
</MGVersion>
<MG5ProcCard>
#************************************************************
#*                     MadGraph5_aMC@NLO                    *
#*                                                          *
#*                *                       *                 *
#*                  *        * *        *                   *
#*                    * * * * 5 * * * *                     *
#*                  *        * *        *                   *
#*                *                       *                 *
#*                                                          *
#*                                                          *
#*         VERSION 2.2.3                 2015-02-10         *
#*                                                          *
#*    The MadGraph5_aMC@NLO Development Team - Find us at   *
#*    https://server06.fynu.ucl.ac.be/projects/madgraph     *
#*                                                          *
#************************************************************
#*                                                          *
#*               Command File for MadGraph5_aMC@NLO         *
#*                                                          *
#*     run as ./bin/mg5_aMC  filename                       *
#*                                                          *
#************************************************************
set group_subprocesses Auto
set ignore_six_quark_processes False
set loop_optimized_output True
set gauge unitary
set complex_mass_scheme False
import model sm
define p = g u c d s u~ c~ d~ s~
define j = g u c d s u~ c~ d~ s~
define l+ = e+ mu+
define l- = e- mu-
define vl = ve vm vt
define vl~ = ve~ vm~ vt~
import model Zprime_UFO
generate p p > zph, zph > j j
add process p p > zph, zph > b b~
output Dijet_signal
</MG5ProcCard>
<MGProcCard>
#*********************************************************************
#                        MadGraph/MadEvent                           *
#                   http://madgraph.hep.uiuc.edu                     *
#                                                                    *
#                          proc_card.dat                             *
#*********************************************************************
#                                                                    *
#            This Files is generated by MADGRAPH 5                   *
#                                                                    *
# WARNING: This Files is generated for MADEVENT (compatibility issue)*
#          This files is NOT a valid MG4 proc_card.dat               *
#          Running this in MG4 will NEVER reproduce the result of MG5*
#                                                                    *
#*********************************************************************
#*********************************************************************
# Process(es) requested : mg2 input                                  *
#*********************************************************************
# Begin PROCESS # This is TAG. Do not modify this line
p p > zph , zph > j j           #Process
# Be carefull the coupling are here in MG5 convention
          
end_coup           # End the couplings input

done               # this tells MG there are no more procs
# End PROCESS  # This is TAG. Do not modify this line
#*********************************************************************
# Model information                                                  *
#*********************************************************************
# Begin MODEL  # This is TAG. Do not modify this line
Zprime_UFO
# End   MODEL  # This is TAG. Do not modify this line
#*********************************************************************
# Start multiparticle definitions                                    *
#*********************************************************************
# Begin MULTIPARTICLES # This is TAG. Do not modify this line

# End  MULTIPARTICLES # This is TAG. Do not modify this line
</MGProcCard>
<MGRunCard>
#*********************************************************************
#                       MadGraph5_aMC@NLO                            *
#                                                                    *
#                     run_card.dat MadEvent                          *
#                                                                    *
#  This file is used to set the parameters of the run.               *
#                                                                    *
#  Some notation/conventions:                                        *
#                                                                    *
#   Lines starting with a '# ' are info or comments                  *
#                                                                    *
#   mind the format:   value    = variable     ! comment             *
#*********************************************************************
#
#*******************                                                 
# Running parameters
#*******************                                                 
#                                                                    
#*********************************************************************
# Tag name for the run (one word)                                    *
#*********************************************************************
  tag_1     = run_tag ! name of the run 
#*********************************************************************
# Run to generate the grid pack                                      *
#*********************************************************************
  .false.     = gridpack  !True = setting up the grid pack
#*********************************************************************
# Number of events and rnd seed                                      *
# Warning: Do not generate more than 1M events in a single run       *
# If you want to run Pythia, avoid more than 50k events in a run.    *
#*********************************************************************
  2000 = nevents ! Number of unweighted events requested 
 2550 = iseed   ! rnd seed (0=assigned automatically=default))
#*********************************************************************
# Collider type and energy                                           *
# lpp: 0=No PDF, 1=proton, -1=antiproton, 2=photon from proton,      *
#                                         3=photon from electron     *
#*********************************************************************
        1     = lpp1    ! beam 1 type 
        1     = lpp2    ! beam 2 type
     4000     = ebeam1  ! beam 1 total energy in GeV
     4000     = ebeam2  ! beam 2 total energy in GeV
#*********************************************************************
# Beam polarization from -100 (left-handed) to 100 (right-handed)    *
#*********************************************************************
        0     = polbeam1 ! beam polarization for beam 1
        0     = polbeam2 ! beam polarization for beam 2
#*********************************************************************
# PDF CHOICE: this automatically fixes also alpha_s and its evol.    *
#*********************************************************************
 'nn23lo1'    = pdlabel     ! PDF set                                     
 230000    = lhaid     ! if pdlabel=lhapdf, this is the lhapdf number
#*********************************************************************
# Renormalization and factorization scales                           *
#*********************************************************************
 F        = fixed_ren_scale  ! if .true. use fixed ren scale
 F        = fixed_fac_scale  ! if .true. use fixed fac scale
 91.1880  = scale            ! fixed ren scale
 91.1880  = dsqrt_q2fact1    ! fixed fact scale for pdf1
 91.1880  = dsqrt_q2fact2    ! fixed fact scale for pdf2
 1        = scalefact        ! scale factor for event-by-event scales
#*********************************************************************
# Matching - Warning! ickkw > 1 is still beta
#*********************************************************************
 0        = ickkw            ! 0 no matching, 1 MLM, 2 CKKW matching
 1        = highestmult      ! for ickkw=2, highest mult group
 1        = ktscheme         ! for ickkw=1, 1 Durham kT, 2 Pythia pTE
 1        = alpsfact         ! scale factor for QCD emission vx
 F        = chcluster        ! cluster only according to channel diag
 T        = pdfwgt           ! for ickkw=1, perform pdf reweighting
 5        = asrwgtflavor     ! highest quark flavor for a_s reweight
 T        = clusinfo         ! include clustering tag in output
 3.0      = lhe_version       ! Change the way clustering information pass to shower.        
#*********************************************************************
#**********************************************************
#
#**********************************************************
# Automatic ptj and mjj cuts if xqcut > 0
# (turn off for VBF and single top processes)
#**********************************************************
   T  = auto_ptj_mjj  ! Automatic setting of ptj and mjj
#**********************************************************
#                                                                    
#**********************************
# BW cutoff (M+/-bwcutoff*Gamma)
#**********************************
  15  = bwcutoff      ! (M+/-bwcutoff*Gamma)
#**********************************************************
# Apply pt/E/eta/dr/mij cuts on decay products or not
# (note that etmiss/ptll/ptheavy/ht/sorted cuts always apply)
#**********************************************************
   T  = cut_decays    ! Cut decay products 
#*************************************************************
# Number of helicities to sum per event (0 = all helicities)
# 0 gives more stable result, but longer run time (needed for
# long decay chains e.g.).
# Use >=2 if most helicities contribute, e.g. pure QCD.
#*************************************************************
   0  = nhel          ! Number of helicities used per event
#*******************                                                 
# Standard Cuts
#*******************                                                 
#                                                                    
#*********************************************************************
# Minimum and maximum pt's (for max, -1 means no cut)                *
#*********************************************************************
 20  = ptj       ! minimum pt for the jets 
  0  = ptb       ! minimum pt for the b 
 10  = pta       ! minimum pt for the photons 
 10  = ptl       ! minimum pt for the charged leptons 
  0  = misset    ! minimum missing Et (sum of neutrino's momenta)
  0  = ptheavy   ! minimum pt for one heavy final state
 1.0 = ptonium   ! minimum pt for the quarkonium states
 -1  = ptjmax    ! maximum pt for the jets
 -1  = ptbmax    ! maximum pt for the b
 -1  = ptamax    ! maximum pt for the photons
 -1  = ptlmax    ! maximum pt for the charged leptons
 -1  = missetmax ! maximum missing Et (sum of neutrino's momenta)
#*********************************************************************
# Minimum and maximum E's (in the center of mass frame)              *
#*********************************************************************
  0  = ej     ! minimum E for the jets 
  0  = eb     ! minimum E for the b 
  0  = ea     ! minimum E for the photons 
  0  = el     ! minimum E for the charged leptons 
 -1   = ejmax ! maximum E for the jets
 -1   = ebmax ! maximum E for the b
 -1   = eamax ! maximum E for the photons
 -1   = elmax ! maximum E for the charged leptons
#*********************************************************************
# Maximum and minimum absolute rapidity (for max, -1 means no cut)   *
#*********************************************************************
   5  = etaj    ! max rap for the jets 
  -1  = etab    ! max rap for the b
 2.5  = etaa    ! max rap for the photons 
 2.5  = etal    ! max rap for the charged leptons 
 0.6  = etaonium ! max rap for the quarkonium states
   0  = etajmin ! min rap for the jets
   0  = etabmin ! min rap for the b
   0  = etaamin ! min rap for the photons
   0  = etalmin ! main rap for the charged leptons
#*********************************************************************
# Minimum and maximum DeltaR distance                                *
#*********************************************************************
 0.4 = drjj    ! min distance between jets 
 0   = drbb    ! min distance between b's 
 0.4 = drll    ! min distance between leptons 
 0.4 = draa    ! min distance between gammas 
 0   = drbj    ! min distance between b and jet 
 0.4 = draj    ! min distance between gamma and jet 
 0.4 = drjl    ! min distance between jet and lepton 
 0   = drab    ! min distance between gamma and b 
 0   = drbl    ! min distance between b and lepton 
 0.4 = dral    ! min distance between gamma and lepton 
 -1  = drjjmax ! max distance between jets
 -1  = drbbmax ! max distance between b's
 -1  = drllmax ! max distance between leptons
 -1  = draamax ! max distance between gammas
 -1  = drbjmax ! max distance between b and jet
 -1  = drajmax ! max distance between gamma and jet
 -1  = drjlmax ! max distance between jet and lepton
 -1  = drabmax ! max distance between gamma and b
 -1  = drblmax ! max distance between b and lepton
 -1  = dralmax ! maxdistance between gamma and lepton
#*********************************************************************
# Minimum and maximum invariant mass for pairs                       *
# WARNING: for four lepton final state mmll cut require to have      *
#          different lepton masses for each flavor!                  *           
#*********************************************************************
 0   = mmjj    ! min invariant mass of a jet pair 
 0   = mmbb    ! min invariant mass of a b pair 
 0   = mmaa    ! min invariant mass of gamma gamma pair
 0   = mmll    ! min invariant mass of l+l- (same flavour) lepton pair
 -1  = mmjjmax ! max invariant mass of a jet pair
 -1  = mmbbmax ! max invariant mass of a b pair
 -1  = mmaamax ! max invariant mass of gamma gamma pair
 -1  = mmllmax ! max invariant mass of l+l- (same flavour) lepton pair
#*********************************************************************
# Minimum and maximum invariant mass for all letpons                 *
#*********************************************************************
 0   = mmnl    ! min invariant mass for all letpons (l+- and vl) 
 -1  = mmnlmax ! max invariant mass for all letpons (l+- and vl) 
#*********************************************************************
# Minimum and maximum pt for 4-momenta sum of leptons                *
#*********************************************************************
 0   = ptllmin  ! Minimum pt for 4-momenta sum of leptons(l and vl)
 -1  = ptllmax  ! Maximum pt for 4-momenta sum of leptons(l and vl)
#*********************************************************************
# Inclusive cuts                                                     *
#*********************************************************************
 0  = xptj ! minimum pt for at least one jet  
 0  = xptb ! minimum pt for at least one b 
 0  = xpta ! minimum pt for at least one photon 
 0  = xptl ! minimum pt for at least one charged lepton 
#*********************************************************************
# Control the pt's of the jets sorted by pt                          *
#*********************************************************************
 0   = ptj1min ! minimum pt for the leading jet in pt
 0   = ptj2min ! minimum pt for the second jet in pt
 0   = ptj3min ! minimum pt for the third jet in pt
 0   = ptj4min ! minimum pt for the fourth jet in pt
 -1  = ptj1max ! maximum pt for the leading jet in pt 
 -1  = ptj2max ! maximum pt for the second jet in pt
 -1  = ptj3max ! maximum pt for the third jet in pt
 -1  = ptj4max ! maximum pt for the fourth jet in pt
 0   = cutuse  ! reject event if fails any (0) / all (1) jet pt cuts
#*********************************************************************
# Control the pt's of leptons sorted by pt                           *
#*********************************************************************
 0   = ptl1min ! minimum pt for the leading lepton in pt
 0   = ptl2min ! minimum pt for the second lepton in pt
 0   = ptl3min ! minimum pt for the third lepton in pt
 0   = ptl4min ! minimum pt for the fourth lepton in pt
 -1  = ptl1max ! maximum pt for the leading lepton in pt 
 -1  = ptl2max ! maximum pt for the second lepton in pt
 -1  = ptl3max ! maximum pt for the third lepton in pt
 -1  = ptl4max ! maximum pt for the fourth lepton in pt
#*********************************************************************
# Control the Ht(k)=Sum of k leading jets                            *
#*********************************************************************
 0   = htjmin ! minimum jet HT=Sum(jet pt)
 -1  = htjmax ! maximum jet HT=Sum(jet pt)
 0   = ihtmin  !inclusive Ht for all partons (including b)
 -1  = ihtmax  !inclusive Ht for all partons (including b)
 0   = ht2min ! minimum Ht for the two leading jets
 0   = ht3min ! minimum Ht for the three leading jets
 0   = ht4min ! minimum Ht for the four leading jets
 -1  = ht2max ! maximum Ht for the two leading jets
 -1  = ht3max ! maximum Ht for the three leading jets
 -1  = ht4max ! maximum Ht for the four leading jets
#***********************************************************************
# Photon-isolation cuts, according to hep-ph/9801442                   *
# When ptgmin=0, all the other parameters are ignored                  *
# When ptgmin>0, pta and draj are not going to be used                 *
#***********************************************************************
   0 = ptgmin ! Min photon transverse momentum
 0.4 = R0gamma ! Radius of isolation code
 1.0 = xn ! n parameter of eq.(3.4) in hep-ph/9801442
 1.0 = epsgamma ! epsilon_gamma parameter of eq.(3.4) in hep-ph/9801442
 .true. = isoEM ! isolate photons from EM energy (photons and leptons)
#*********************************************************************
# WBF cuts                                                           *
#*********************************************************************
 0   = xetamin ! minimum rapidity for two jets in the WBF case  
 0   = deltaeta ! minimum rapidity for two jets in the WBF case 
#*********************************************************************
# KT DURHAM CUT                                                      *
#*********************************************************************
 -1    =  ktdurham        
 0.4  =  dparameter 
#*********************************************************************
# maximal pdg code for quark to be considered as a light jet         *
# (otherwise b cuts are applied)                                     *
#*********************************************************************
 4 = maxjetflavor    ! Maximum jet pdg code
#*********************************************************************
# Jet measure cuts                                                   *
#*********************************************************************
 0   = xqcut   ! minimum kt jet measure between partons
#*********************************************************************
#
#*********************************************************************
# Store info for systematics studies                                 *
# WARNING: If use_syst is T, matched Pythia output is                *
#          meaningful ONLY if plotted taking matchscale              *
#          reweighting into account!                                 *
#*********************************************************************
   F  = use_syst      ! Enable systematics studies
#
#**************************************
# Parameter of the systematics study
#  will be used by SysCalc (if installed)
#**************************************                                  
#
0.5 1 2 = sys_scalefact  # factorization/renormalization scale factor
0.5 1 2 = sys_alpsfact  # \alpha_s emission scale factors
30 50 = sys_matchscale # variation of merging scale
# PDF sets and number of members (0 or none for all members).
CT10nlo.LHgrid = sys_pdf # matching scales
# MSTW2008nlo68cl.LHgrid 1  = sys_pdf
</MGRunCard>
<slha>
######################################################################
## PARAM_CARD AUTOMATICALY GENERATED BY MG5 FOLLOWING UFO MODEL   ####
######################################################################
##                                                                  ##
##  Width set on Auto will be computed following the information    ##
##        present in the decay.py files of the model.               ##
##        See  arXiv:1402.1178 for more details.                    ##
##                                                                  ##
######################################################################

###################################
## INFORMATION FOR CKMBLOCK
###################################
Block ckmblock 
    1 2.277360e-01 # cabi 

###################################
## INFORMATION FOR FRBLOCK
###################################
Block frblock 
    1 1.400000e+00 # gz 

###################################
## INFORMATION FOR MASS
###################################
Block mass 
    1 5.040000e-03 # MD 
    2 2.550000e-03 # MU 
    3 1.010000e-01 # MS 
    4 1.270000e+00 # MC 
    5 4.700000e+00 # MB 
    6 1.720000e+02 # MT 
   11 5.110000e-04 # Me 
   13 1.056600e-01 # MM 
   15 1.777000e+00 # MTA 
   23 9.118760e+01 # MZ 
   25 1.200000e+02 # MH 
  10030 1.700000e+03 # MZph 
  10031 3.000000e+02 # MZpl 
## Dependent parameters, given by model restrictions.
## Those values should be edited following the 
## analytical expression. MG5 ignores those values 
## but they are important for interfacing the output of MG5
## to external program such as Pythia.
  12 0.000000 # ve : 0.0 
  14 0.000000 # vm : 0.0 
  16 0.000000 # vt : 0.0 
  21 0.000000 # g : 0.0 
  22 0.000000 # a : 0.0 
  24 79.824360 # w+ : cmath.sqrt(MZ__exp__2/2. + cmath.sqrt(MZ__exp__4/4. - (aEW*cmath.pi*MZ__exp__2)/(Gf*sqrt__2))) 

###################################
## INFORMATION FOR SMINPUTS
###################################
Block sminputs 
    1 1.279000e+02 # aEWM1 
    2 1.166370e-05 # Gf 
    3 1.184000e-01 # aS 

###################################
## INFORMATION FOR YUKAWA
###################################
Block yukawa 
    1 5.040000e-03 # ymdo 
    2 2.550000e-03 # ymup 
    3 1.010000e-01 # yms 
    4 1.270000e+00 # ymc 
    5 4.700000e+00 # ymb 
    6 1.720000e+02 # ymt 
   11 5.110000e-04 # yme 
   13 1.056600e-01 # ymm 
   15 1.777000e+00 # ymtau 

###################################
## INFORMATION FOR DECAY
###################################
DECAY   6 1.508336e+00 # WT 
DECAY  23 2.495200e+00 # WZ 
DECAY  24 2.085000e+00 # WW 
DECAY  25 5.753088e-03 # WH 
## Dependent parameters, given by model restrictions.
## Those values should be edited following the 
## analytical expression. MG5 ignores those values 
## but they are important for interfacing the output of MG5
## to external program such as Pythia.
DECAY  1 0.000000 # d : 0.0 
DECAY  2 0.000000 # u : 0.0 
DECAY  3 0.000000 # s : 0.0 
DECAY  4 0.000000 # c : 0.0 
DECAY  5 0.000000 # b : 0.0 
DECAY  11 0.000000 # e- : 0.0 
DECAY  12 0.000000 # ve : 0.0 
DECAY  13 0.000000 # mu- : 0.0 
DECAY  14 0.000000 # vm : 0.0 
DECAY  15 0.000000 # ta- : 0.0 
DECAY  16 0.000000 # vt : 0.0 
DECAY  21 0.000000 # g : 0.0 
DECAY  22 0.000000 # a : 0.0 
DECAY  10030 0.308725 # zph : (gz__exp__2*MZph*(5 + cmath.sqrt(1 - (4*MT__exp__2)/MZph__exp__2)))/(144.*cmath.pi) 
DECAY  10031 0.132629 # zpl : (5*gz__exp__2*MZpl)/(144.*cmath.pi) 
#===========================================================
# QUANTUM NUMBERS OF NEW STATE(S) (NON SM PDG CODE)
#===========================================================

Block QNUMBERS 10030  # zph 
        1 0  # 3 times electric charge
        2 3  # number of spin states (2S+1)
        3 1  # colour rep (1: singlet, 3: triplet, 8: octet)
        4 0  # Particle/Antiparticle distinction (0=own anti)
Block QNUMBERS 10031  # zpl 
        1 0  # 3 times electric charge
        2 3  # number of spin states (2S+1)
        3 1  # colour rep (1: singlet, 3: triplet, 8: octet)
        4 0  # Particle/Antiparticle distinction (0=own anti)
</slha>
## END BANNER##
<MGGenerationInfo>
#  Number of Events        :         3977
#  Integrated weight (pb)  :  0.21118E+00
#  Max wgt                 :  0.72421E-04
#  Average wgt             :  0.53100E-04
</MGGenerationInfo>
</header>
<init>
     2212     2212  0.40000000000E+04  0.40000000000E+04 0 0  247000  247000 2   1
  0.21133162749E+00  0.42226296778E-03  0.72421440000E-04   0
</init>
<event>
 5   0  0.7233728E-04  0.1500311E+04  0.7818609E-02  0.8884246E-01
        2   -1    0    0  501    0  0.00000000000E+00  0.00000000000E+00  0.28826363286E+04  0.28826363286E+04  0.25500000920E-02 0. -1.
       -2   -1    0    0    0  501  0.00000000000E+00  0.00000000000E+00 -0.19521469070E+03  0.19521469072E+03  0.25500000920E-02 0.  1.
    10030    2    1    2    0    0  0.00000000000E+00  0.00000000000E+00  0.26874216379E+04  0.30778510193E+04  0.15003105803E+04 0.  0.
        1    1    3    3  502    0  0.33995972384E+03 -0.22502533692E+03  0.26355282209E+04  0.26668742039E+04  0.50400001928E-02 0. -1.
       -1    1    3    3    0  502 -0.33995972384E+03  0.22502533692E+03  0.51893417009E+02  0.41097681546E+03  0.50400001928E-02 0.  1.
</event>
<event>
 5   0  0.7233728E-04  0.1737908E+04  0.7818609E-02  0.8740035E-01
       -2   -1    0    0    0  501  0.00000000000E+00  0.00000000000E+00  0.43731474846E+03  0.43731474847E+03  0.25500000920E-02 0.  1.
        2   -1    0    0  501    0  0.00000000000E+00  0.00000000000E+00 -0.17266304633E+04  0.17266304633E+04  0.25500000920E-02 0. -1.
    10030    2    1    2    0    0  0.00000000000E+00  0.00000000000E+00 -0.12893157149E+04  0.21639452118E+04  0.17379078995E+04 0.  0.
        1    1    3    3  502    0  0.63463027287E+03 -0.37473372232E+02  0.92947840685E+02  0.64249446534E+03  0.50400001928E-02 0.  1.
       -1    1    3    3    0  502 -0.63463027287E+03  0.37473372232E+02 -0.13822635556E+04  0.15214507465E+04  0.50400001928E-02 0. -1.
</event>
<event>
 5   0  0.7242144E-04  0.1681331E+04  0.7818609E-02  0.8772084E-01
        2   -1    0    0  501    0  0.00000000000E+00  0.00000000000E+00  0.93960383441E+03  0.93960383442E+03  0.25500000920E-02 0.  1.
       -2   -1    0    0    0  501  0.00000000000E+00  0.00000000000E+00 -0.75214558749E+03  0.75214558750E+03  0.25500000920E-02 0. -1.
    10030    2    1    2    0    0  0.00000000000E+00  0.00000000000E+00  0.18745824692E+03  0.16917494219E+04  0.16813314701E+04 0.  0.
        3    1    3    3  502    0 -0.31999829587E+03  0.50828870900E+03  0.68555948014E+03  0.91145385625E+03  0.10100000352E+00 0.  1.
       -3    1    3    3    0  502  0.31999829587E+03 -0.50828870900E+03 -0.49810123322E+03  0.78029556567E+03  0.10100000352E+00 0. -1.
</event>
<event>
 5   0  0.7233728E-04  0.1723369E+04  0.7818609E-02  0.8748147E-01
       -2   -1    0    0    0  501  0.00000000000E+00  0.00000000000E+00  0.67193719494E+03  0.67193719494E+03  0.25500000920E-02 0.  1.
        2   -1    0    0  501    0  0.00000000000E+00  0.00000000000E+00 -0.11050145966E+04  0.11050145966E+04  0.25500000920E-02 0. -1.
    10030    2    1    2    0    0  0.00000000000E+00  0.00000000000E+00 -0.43307740164E+03  0.17769517915E+04  0.17233692679E+04 0.  0.
        1    1    3    3  502    0  0.52188052747E+03  0.26963743161E+03 -0.86656559978E+03  0.10468999801E+04  0.50400001928E-02 0. -1.
       -1    1    3    3    0  502 -0.52188052747E+03 -0.26963743161E+03  0.43348819814E+03  0.73005181147E+03  0.50400001928E-02 0.  1.
</event>
<event>
 5   0  0.7242144E-04  0.1678593E+04  0.7818609E-02  0.8773669E-01
       -2   -1    0    0    0  501  0.00000000000E+00  0.00000000000E+00  0.96611794710E+03  0.96611794710E+03  0.25500000920E-02 0.  1.
        2   -1    0    0  501    0  0.00000000000E+00  0.00000000000E+00 -0.72912268580E+03  0.72912268581E+03  0.25500000920E-02 0. -1.
    10030    2    1    2    0    0  0.00000000000E+00  0.00000000000E+00  0.23699526130E+03  0.16952406329E+04  0.16785928779E+04 0.  0.
        3    1    3    3  502    0 -0.30391871187E+02  0.40032999315E+03 -0.62585399844E+03  0.74355968612E+03  0.10100000352E+00 0. -1.
       -3    1    3    3    0  502  0.30391871187E+02 -0.40032999315E+03  0.86284925974E+03  0.95168094679E+03  0.10100000352E+00 0.  1.
</event>
<event>
 5   0  0.3723500E-04  0.1727347E+04  0.7818609E-02  0.8745919E-01
        1   -1    0    0  501    0  0.00000000000E+00  0.00000000000E+00  0.56636363052E+03  0.56636363054E+03  0.50400001928E-02 0. -1.
       -1   -1    0    0    0  501  0.00000000000E+00  0.00000000000E+00 -0.13170552534E+04  0.13170552535E+04  0.50400001928E-02 0.  1.
    10030    2    1    2    0    0  0.00000000000E+00  0.00000000000E+00 -0.75069162293E+03  0.18834188840E+04  0.17273473246E+04 0.  0.
        1    1    3    3  502    0  0.77509971930E+03  0.33736990906E+03 -0.18233736784E+03  0.86478028778E+03  0.50400001928E-02 0. -1.
       -1    1    3    3    0  502 -0.77509971930E+03 -0.33736990906E+03 -0.56835425509E+03  0.10186385962E+04  0.50400001928E-02 0.  1.
</event>
<event>
 5   0  0.3635143E-04  0.1692970E+04  0.7818609E-02  0.8765384E-01
        1   -1    0    0  501    0  0.00000000000E+00  0.00000000000E+00  0.11724118786E+04  0.11724118786E+04  0.50400001928E-02 0. -1.
       -1   -1    0    0    0  501  0.00000000000E+00  0.00000000000E+00 -0.61116473635E+03  0.61116473637E+03  0.50400001928E-02 0.  1.
    10030    2    1    2    0    0  0.00000000000E+00  0.00000000000E+00  0.56124714222E+03  0.17835766150E+04  0.16929699308E+04 0.  0.
        3    1    3    3  502    0 -0.14140491383E+03 -0.24975278677E+03  0.11195882046E+04  0.11557895839E+04  0.10100000352E+00 0. -1.
       -3    1    3    3    0  502  0.14140491383E+03  0.24975278677E+03 -0.55834106241E+03  0.62778703103E+03  0.10100000352E+00 0.  1.
</event>
<event>
 5   0  0.7233728E-04  0.1685889E+04  0.7818609E-02  0.8769454E-01
        2   -1    0    0  501    0  0.00000000000E+00  0.00000000000E+00  0.11624498839E+04  0.11624498839E+04  0.25500000920E-02 0. -1.
       -2   -1    0    0    0  501  0.00000000000E+00  0.00000000000E+00 -0.61125667701E+03  0.61125667701E+03  0.25500000920E-02 0.  1.
    10030    2    1    2    0    0  0.00000000000E+00  0.00000000000E+00  0.55119320690E+03  0.17737065609E+04  0.16858887902E+04 0.  0.
        1    1    3    3  502    0  0.28245938324E+03 -0.63862278754E+03  0.77234893928E+03  0.10412229598E+04  0.50400001928E-02 0. -1.
       -1    1    3    3    0  502 -0.28245938324E+03  0.63862278754E+03 -0.22115573238E+03  0.73248360114E+03  0.50400001928E-02 0.  1.
</event>
<event>
 5   0  0.3915701E-04  0.1696545E+04  0.7818609E-02  0.8763337E-01
        1   -1    0    0  501    0  0.00000000000E+00  0.00000000000E+00  0.66457234608E+03  0.66457234610E+03  0.50400001928E-02 0.  1.
       -1   -1    0    0    0  501  0.00000000000E+00  0.00000000000E+00 -0.10827508513E+04  0.10827508513E+04  0.50400001928E-02 0. -1.
    10030    2    1    2    0    0  0.00000000000E+00  0.00000000000E+00 -0.41817850525E+03  0.17473231974E+04  0.16965450463E+04 0.  0.
        2    1    3    3  502    0  0.21930311581E+02 -0.37319927164E+03  0.57515223514E+03  0.68597283365E+03  0.25500000920E-02 0.  1.
       -2    1    3    3    0  502 -0.21930311581E+02  0.37319927164E+03 -0.99333074039E+03  0.10613503638E+04  0.25500000920E-02 0. -1.
</event>
<event>
 5   0  0.7233728E-04  0.1766934E+04  0.7818609E-02  0.8724084E-01
        2   -1    0    0  501    0  0.00000000000E+00  0.00000000000E+00  0.13504679371E+04  0.13504679371E+04  0.25500000920E-02 0. -1.
       -2   -1    0    0    0  501  0.00000000000E+00  0.00000000000E+00 -0.57795796378E+03  0.57795796378E+03  0.25500000920E-02 0.  1.
    10030    2    1    2    0    0  0.00000000000E+00  0.00000000000E+00  0.77250997337E+03  0.19284259009E+04  0.17669337272E+04 0.  0.
        1    1    3    3  502    0 -0.79495770583E+03 -0.38474834141E+03  0.41125390274E+03  0.97422729012E+03  0.50400001928E-02 0. -1.
       -1    1    3    3    0  502  0.79495770583E+03  0.38474834141E+03  0.36125607063E+03  0.95419861081E+03  0.50400001928E-02 0.  1.
</event>
<event>
 5   0  0.6746664E-04  0.1732941E+04  0.7818609E-02  0.8742797E-01
        2   -1    0    0  501    0  0.00000000000E+00  0.00000000000E+00  0.11999949486E+04  0.11999949486E+04  0.25500000920E-02 0.  1.
       -2   -1    0    0    0  501  0.00000000000E+00  0.00000000000E+00 -0.62564525091E+03  0.62564525092E+03  0.25500000920E-02 0. -1.
    10030    2    1    2    0    0  0.00000000000E+00  0.00000000000E+00  0.57434969772E+03  0.18256401996E+04  0.17329410154E+04 0.  0.
        5    1    3    3  502    0 -0.53521248647E+02  0.15228021476E+03 -0.60965307182E+03  0.63067641929E+03  0.46999998093E+01 0. -1.
       -5    1    3    3    0  502  0.53521248647E+02 -0.15228021476E+03  0.11840027695E+04  0.11949637803E+04  0.46999998093E+01 0.  1.
</event>
<event>
 5   0  0.6746664E-04  0.1713824E+04  0.7818609E-02  0.8753519E-01
        2   -1    0    0  501    0  0.00000000000E+00  0.00000000000E+00  0.46553054137E+03  0.46553054138E+03  0.25500000920E-02 0. -1.
       -2   -1    0    0    0  501  0.00000000000E+00  0.00000000000E+00 -0.15773366412E+04  0.15773366412E+04  0.25500000920E-02 0.  1.
    10030    2    1    2    0    0  0.00000000000E+00  0.00000000000E+00 -0.11118060998E+04  0.20428671825E+04  0.17138242389E+04 0.  0.
        5    1    3    3  502    0 -0.52475053999E+03  0.49365059474E+03 -0.29128481965E+01  0.72047526925E+03  0.46999998093E+01 0. -1.
       -5    1    3    3    0  502  0.52475053999E+03 -0.49365059474E+03 -0.11088932516E+04  0.13223919133E+04  0.46999998093E+01 0.  1.
</event>
<event>
 5   0  0.3713516E-04  0.1722641E+04  0.7818609E-02  0.8748556E-01
       -1   -1    0    0    0  501  0.00000000000E+00  0.00000000000E+00  0.63559328397E+03  0.63559328399E+03  0.50400001928E-02 0. -1.
        1   -1    0    0  501    0  0.00000000000E+00  0.00000000000E+00 -0.11672137831E+04  0.11672137831E+04  0.50400001928E-02 0.  1.
    10030    2    1    2    0    0  0.00000000000E+00  0.00000000000E+00 -0.53162049915E+03  0.18028070671E+04  0.17226412761E+04 0.  0.
        5    1    3    3  502    0 -0.84996670196E+03 -0.32569579637E+02 -0.40756469638E+03  0.94320477294E+03  0.46999998093E+01 0.  1.
       -5    1    3    3    0  502  0.84996670196E+03  0.32569579637E+02 -0.12405580277E+03  0.85960229418E+03  0.46999998093E+01 0. -1.
</event>
<event>
 5   0  0.2639750E-04  0.1675580E+04  0.7818609E-02  0.8775416E-01
       -3   -1    0    0    0  501  0.00000000000E+00  0.00000000000E+00  0.86718308461E+03  0.86718309050E+03  0.10100000352E+00 0. -1.
        3   -1    0    0  501    0  0.00000000000E+00  0.00000000000E+00 -0.80939316726E+03  0.80939317356E+03  0.10100000352E+00 0.  1.
    10030    2    1    2    0    0  0.00000000000E+00  0.00000000000E+00  0.57789917356E+02  0.16765762641E+04  0.16755799875E+04 0.  0.
        5    1    3    3  502    0 -0.46976306381E+03 -0.43555477910E+03 -0.51131926777E+03  0.81966748460E+03  0.46999998093E+01 0.  1.
       -5    1    3    3    0  502  0.46976306381E+03  0.43555477910E+03  0.56910918512E+03  0.85690877946E+03  0.46999998093E+01 0. -1.
</event>
<event>
 5   0  0.3723500E-04  0.1712740E+04  0.7818609E-02  0.8754131E-01
       -1   -1    0    0    0  501  0.00000000000E+00  0.00000000000E+00  0.11670025548E+04  0.11670025548E+04  0.50400001928E-02 0. -1.
        1   -1    0    0  501    0  0.00000000000E+00  0.00000000000E+00 -0.62842172145E+03  0.62842172147E+03  0.50400001928E-02 0.  1.
    10030    2    1    2    0    0  0.00000000000E+00  0.00000000000E+00  0.53858083330E+03  0.17954242762E+04  0.17127402073E+04 0.  0.
        1    1    3    3  502    0 -0.34256969593E+03  0.23156519850E+02 -0.55310826964E+03  0.65101380857E+03  0.50400001928E-02 0.  1.
       -1    1    3    3    0  502  0.34256969593E+03 -0.23156519850E+02  0.10916891029E+04  0.11444104677E+04  0.50400001928E-02 0. -1.
</event>
<event>
 5   0  0.3635143E-04  0.1716612E+04  0.7818609E-02  0.8751946E-01
        1   -1    0    0  501    0  0.00000000000E+00  0.00000000000E+00  0.11663362242E+04  0.11663362242E+04  0.50400001928E-02 0.  1.
       -1   -1    0    0    0  501  0.00000000000E+00  0.00000000000E+00 -0.63162670183E+03  0.63162670185E+03  0.50400001928E-02 0. -1.
    10030    2    1    2    0    0  0.00000000000E+00  0.00000000000E+00  0.53470952236E+03  0.17979629260E+04  0.17166118985E+04 0.  0.
        3    1    3    3  502    0 -0.46169768904E+03 -0.55132241347E+02 -0.48828121698E+03  0.67425727816E+03  0.10100000352E+00 0. -1.
       -3    1    3    3    0  502  0.46169768904E+03  0.55132241347E+02  0.10229907393E+04  0.11237056479E+04  0.10100000352E+00 0.  1.
</event>
<event>
 5   0  0.3635143E-04  0.1423455E+04  0.7818609E-02  0.8937013E-01
       -1   -1    0    0    0  501  0.00000000000E+00  0.00000000000E+00  0.25790704239E+03  0.25790704244E+03  0.50400001928E-02 0. -1.
        1   -1    0    0  501    0  0.00000000000E+00  0.00000000000E+00 -0.19641030017E+04  0.19641030017E+04  0.50400001928E-02 0.  1.
    10030    2    1    2    0    0  0.00000000000E+00  0.00000000000E+00 -0.17061959593E+04  0.22220100441E+04  0.14234549465E+04 0.  0.
        3    1    3    3  502    0  0.12800412683E+03  0.36209349908E+03 -0.17884720742E+04  0.18292427748E+04  0.10100000352E+00 0.  1.
       -3    1    3    3    0  502 -0.12800412683E+03 -0.36209349908E+03  0.82276114963E+02  0.39276726933E+03  0.10100000352E+00 0. -1.
</event>
<event>
 5   0  0.7233728E-04  0.1727409E+04  0.7818609E-02  0.8745885E-01
       -2   -1    0    0    0  501  0.00000000000E+00  0.00000000000E+00  0.48686122226E+03  0.48686122227E+03  0.25500000920E-02 0.  1.
        2   -1    0    0  501    0  0.00000000000E+00  0.00000000000E+00 -0.15322335369E+04  0.15322335369E+04  0.25500000920E-02 0. -1.
    10030    2    1    2    0    0  0.00000000000E+00  0.00000000000E+00 -0.10453723147E+04  0.20190947592E+04  0.17274085707E+04 0.  0.
        1    1    3    3  502    0 -0.60799442856E+03  0.61344064733E+03 -0.52770539070E+03  0.10121460529E+04  0.50400001928E-02 0.  1.
       -1    1    3    3    0  502  0.60799442856E+03 -0.61344064733E+03 -0.51766692395E+03  0.10069487063E+04  0.50400001928E-02 0. -1.
</event>
<event>
 5   0  0.3803253E-04  0.1716442E+04  0.7818609E-02  0.8752042E-01
       -1   -1    0    0    0  501  0.00000000000E+00  0.00000000000E+00  0.31802098770E+04  0.31802098770E+04  0.50400001928E-02 0. -1.
        1   -1    0    0  501    0  0.00000000000E+00  0.00000000000E+00 -0.23160200263E+03  0.23160200269E+03  0.50400001928E-02 0.  1.
    10030    2    1    2    0    0  0.00000000000E+00  0.00000000000E+00  0.29486078744E+04  0.34118118797E+04  0.17164416406E+04 0.  0.
        4    1    3    3  502    0  0.54164287638E+03 -0.54069689849E+03  0.22462249523E+04  0.23730272419E+04  0.12699999809E+01 0. -1.
       -4    1    3    3    0  502 -0.54164287638E+03  0.54069689849E+03  0.70238292202E+03  0.10387846377E+04  0.12699999809E+01 0.  1.
</event>
<event>
 5   0  0.3723500E-04  0.1665063E+04  0.7818609E-02  0.8781545E-01
        1   -1    0    0  501    0  0.00000000000E+00  0.00000000000E+00  0.72258268648E+03  0.72258268649E+03  0.50400001928E-02 0.  1.
       -1   -1    0    0    0  501  0.00000000000E+00  0.00000000000E+00 -0.95921052504E+03  0.95921052505E+03  0.50400001928E-02 0. -1.
    10030    2    1    2    0    0  0.00000000000E+00  0.00000000000E+00 -0.23662783856E+03  0.16817932115E+04  0.16650632638E+04 0.  0.
        1    1    3    3  502    0 -0.65721268241E+03 -0.10009063580E+03  0.38788248776E+03  0.76967491165E+03  0.50400001928E-02 0.  1.
       -1    1    3    3    0  502  0.65721268241E+03  0.10009063580E+03 -0.62451032632E+03  0.91211829989E+03  0.50400001928E-02 0. -1.
</event>
<event>
 5   0  0.7025426E-04  0.1710101E+04  0.7818609E-02  0.8755624E-01
       -2   -1    0    0    0  501  0.00000000000E+00  0.00000000000E+00  0.75817572475E+03  0.75817572476E+03  0.25500000920E-02 0.  1.
        2   -1    0    0  501    0  0.00000000000E+00  0.00000000000E+00 -0.96430382666E+03  0.96430382666E+03  0.25500000920E-02 0. -1.
    10030    2    1    2    0    0  0.00000000000E+00  0.00000000000E+00 -0.20612810191E+03  0.17224795514E+04  0.17101014621E+04 0.  0.
        2    1    3    3  502    0  0.22194227531E+02  0.20778794285E+03  0.73205934554E+03  0.76130105630E+03  0.25500000920E-02 0.  1.
       -2    1    3    3    0  502 -0.22194227531E+02 -0.20778794285E+03 -0.93818744744E+03  0.96117849512E+03  0.25500000920E-02 0. -1.
</event>
<event>
 5   0  0.3635143E-04  0.1712837E+04  0.7818609E-02  0.8754077E-01
       -1   -1    0    0    0  501  0.00000000000E+00  0.00000000000E+00  0.12950501280E+04  0.12950501280E+04  0.50400001928E-02 0. -1.
        1   -1    0    0  501    0  0.00000000000E+00  0.00000000000E+00 -0.56635070509E+03  0.56635070511E+03  0.50400001928E-02 0.  1.
    10030    2    1    2    0    0  0.00000000000E+00  0.00000000000E+00  0.72869942286E+03  0.18614008331E+04  0.17128368902E+04 0.  0.
        3    1    3    3  502    0  0.18325926978E+03 -0.28407592071E+03 -0.49077342588E+03  0.59593762630E+03  0.10100000352E+00 0.  1.
       -3    1    3    3    0  502 -0.18325926978E+03  0.28407592071E+03  0.12194728487E+04  0.12654632068E+04  0.10100000352E+00 0. -1.
</event>
<event>
 5   0  0.7242144E-04  0.1656185E+04  0.7818609E-02  0.8786756E-01
        2   -1    0    0  501    0  0.00000000000E+00  0.00000000000E+00  0.25225831440E+04  0.25225831440E+04  0.25500000920E-02 0. -1.
       -2   -1    0    0    0  501  0.00000000000E+00  0.00000000000E+00 -0.27183939419E+03  0.27183939421E+03  0.25500000920E-02 0.  1.
    10030    2    1    2    0    0  0.00000000000E+00  0.00000000000E+00  0.22507437498E+04  0.27944225382E+04  0.16561853443E+04 0.  0.
        3    1    3    3  502    0 -0.17636938280E+03  0.70761320700E+03  0.17873191595E+04  0.19303710519E+04  0.10100000352E+00 0.  1.
       -3    1    3    3    0  502  0.17636938280E+03 -0.70761320700E+03  0.46342459035E+03  0.86405148635E+03  0.10100000352E+00 0. -1.
</event>
<event>
 5   0  0.3723500E-04  0.1662402E+04  0.7818609E-02  0.8783103E-01
        1   -1    0    0  501    0  0.00000000000E+00  0.00000000000E+00  0.15134593073E+04  0.15134593073E+04  0.50400001928E-02 0.  1.
       -1   -1    0    0    0  501  0.00000000000E+00  0.00000000000E+00 -0.45650051164E+03  0.45650051167E+03  0.50400001928E-02 0. -1.
    10030    2    1    2    0    0  0.00000000000E+00  0.00000000000E+00  0.10569587957E+04  0.19699598190E+04  0.16624018145E+04 0.  0.
        1    1    3    3  502    0  0.58418968583E+03  0.44335429732E+03  0.64878606479E+02  0.73624035178E+03  0.50400001928E-02 0. -1.
       -1    1    3    3    0  502 -0.58418968583E+03 -0.44335429732E+03  0.99208018920E+03  0.12337194672E+04  0.50400001928E-02 0.  1.
</event>
<event>
 5   0  0.7025426E-04  0.1546028E+04  0.7818609E-02  0.8854409E-01
       -2   -1    0    0    0  501  0.00000000000E+00  0.00000000000E+00  0.23772695405E+03  0.23772695406E+03  0.25500000920E-02 0.  1.
        2   -1    0    0  501    0  0.00000000000E+00  0.00000000000E+00 -0.25136014832E+04  0.25136014832E+04  0.25500000920E-02 0. -1.
    10030    2    1    2    0    0  0.00000000000E+00  0.00000000000E+00 -0.22758745291E+04  0.27513284372E+04  0.15460282330E+04 0.  0.
        2    1    3    3  502    0  0.70162631708E+03  0.23176163866E+03 -0.73385244533E+03  0.10414088330E+04  0.25500000920E-02 0.  1.
       -2    1    3    3    0  502 -0.70162631708E+03 -0.23176163866E+03 -0.15420220838E+04  0.17099196042E+04  0.25500000920E-02 0. -1.
</event>
<event>
 5   0  0.3915701E-04  0.1703015E+04  0.7818609E-02  0.8759647E-01
        1   -1    0    0  501    0  0.00000000000E+00  0.00000000000E+00  0.60826515972E+03  0.60826515974E+03  0.50400001928E-02 0. -1.
       -1   -1    0    0    0  501  0.00000000000E+00  0.00000000000E+00 -0.11920208300E+04  0.11920208300E+04  0.50400001928E-02 0.  1.
    10030    2    1    2    0    0  0.00000000000E+00  0.00000000000E+00 -0.58375567026E+03  0.18002859897E+04  0.17030146688E+04 0.  0.
        2    1    3    3  502    0 -0.43975212736E+03 -0.57308311530E+03 -0.76847068719E+03  0.10546816523E+04  0.25500000920E-02 0.  1.
       -2    1    3    3    0  502  0.43975212736E+03  0.57308311530E+03  0.18471501693E+03  0.74560433746E+03  0.25500000920E-02 0. -1.
</event>
<event>
 5   0  0.7242144E-04  0.1692193E+04  0.7818609E-02  0.8765830E-01
       -2   -1    0    0    0  501  0.00000000000E+00  0.00000000000E+00  0.10881184723E+04  0.10881184723E+04  0.25500000920E-02 0. -1.
        2   -1    0    0  501    0  0.00000000000E+00  0.00000000000E+00 -0.65790531297E+03  0.65790531297E+03  0.25500000920E-02 0.  1.
    10030    2    1    2    0    0  0.00000000000E+00  0.00000000000E+00  0.43021315934E+03  0.17460237853E+04  0.16921925707E+04 0.  0.
        3    1    3    3  502    0 -0.49830735884E+03  0.53900765801E+03 -0.21903899503E+03  0.76604018877E+03  0.10100000352E+00 0.  1.
       -3    1    3    3    0  502  0.49830735884E+03 -0.53900765801E+03  0.64925215438E+03  0.97998359651E+03  0.10100000352E+00 0. -1.
</event>
<event>
 5   0  0.6746664E-04  0.1688648E+04  0.7818609E-02  0.8767866E-01
        2   -1    0    0  501    0  0.00000000000E+00  0.00000000000E+00  0.22068134273E+04  0.22068134273E+04  0.25500000920E-02 0.  1.
       -2   -1    0    0    0  501  0.00000000000E+00  0.00000000000E+00 -0.32303717516E+03  0.32303717517E+03  0.25500000920E-02 0. -1.
    10030    2    1    2    0    0  0.00000000000E+00  0.00000000000E+00  0.18837762521E+04  0.25298506025E+04  0.16886477142E+04 0.  0.
        5    1    3    3  502    0 -0.50793624647E+03  0.66898818894E+03  0.81374351942E+03  0.11695063201E+04  0.46999998093E+01 0. -1.
       -5    1    3    3    0  502  0.50793624647E+03 -0.66898818894E+03  0.10700327327E+04  0.13603442823E+04  0.46999998093E+01 0.  1.
</event>
<event>
 5   0  0.3915701E-04  0.1699864E+04  0.7818609E-02  0.8761442E-01
        1   -1    0    0  501    0  0.00000000000E+00  0.00000000000E+00  0.70838857259E+03  0.70838857261E+03  0.50400001928E-02 0.  1.
       -1   -1    0    0    0  501  0.00000000000E+00  0.00000000000E+00 -0.10197577929E+04  0.10197577929E+04  0.50400001928E-02 0. -1.
    10030    2    1    2    0    0  0.00000000000E+00  0.00000000000E+00 -0.31136922031E+03  0.17281463655E+04  0.16998644267E+04 0.  0.
        2    1    3    3  502    0 -0.48185403413E+03 -0.14236475898E+03  0.54123798807E+03  0.73850497259E+03  0.25500000920E-02 0.  1.
       -2    1    3    3    0  502  0.48185403413E+03  0.14236475898E+03 -0.85260720838E+03  0.98964139293E+03  0.25500000920E-02 0. -1.
</event>
<event>
 5   0  0.7242144E-04  0.1770990E+04  0.7818609E-02  0.8721880E-01
        2   -1    0    0  501    0  0.00000000000E+00  0.00000000000E+00  0.11432002503E+04  0.11432002503E+04  0.25500000920E-02 0.  1.
       -2   -1    0    0    0  501  0.00000000000E+00  0.00000000000E+00 -0.68588299969E+03  0.68588299969E+03  0.25500000920E-02 0. -1.
    10030    2    1    2    0    0  0.00000000000E+00  0.00000000000E+00  0.45731725057E+03  0.18290832499E+04  0.17709902506E+04 0.  0.
        3    1    3    3  502    0  0.59855000807E+03 -0.23782068606E+03  0.85627703712E+03  0.10714621624E+04  0.10100000352E+00 0.  1.
       -3    1    3    3    0  502 -0.59855000807E+03  0.23782068606E+03 -0.39895978655E+03  0.75762108759E+03  0.10100000352E+00 0. -1.
</event>
<event>
 5   0  0.7233728E-04  0.1664613E+04  0.7818609E-02  0.8781808E-01
       -2   -1    0    0    0  501  0.00000000000E+00  0.00000000000E+00  0.42337691226E+03  0.42337691227E+03  0.25500000920E-02 0. -1.
        2   -1    0    0  501    0  0.00000000000E+00  0.00000000000E+00 -0.16362105257E+04  0.16362105257E+04  0.25500000920E-02 0.  1.
    10030    2    1    2    0    0  0.00000000000E+00  0.00000000000E+00 -0.12128336135E+04  0.20595874380E+04  0.16646125798E+04 0.  0.
        1    1    3    3  502    0 -0.25903681243E+02 -0.48945916220E+03 -0.14387031122E+04  0.15199039172E+04  0.50400001928E-02 0.  1.
       -1    1    3    3    0  502  0.25903681243E+02  0.48945916220E+03  0.22586949878E+03  0.53968352084E+03  0.50400001928E-02 0. -1.
</event>
<event>
 5   0  0.3713516E-04  0.1708254E+04  0.7818609E-02  0.8756671E-01
       -1   -1    0    0    0  501  0.00000000000E+00  0.00000000000E+00  0.89655315193E+03  0.89655315194E+03  0.50400001928E-02 0. -1.
        1   -1    0    0  501    0  0.00000000000E+00  0.00000000000E+00 -0.81370811410E+03  0.81370811411E+03  0.50400001928E-02 0.  1.
    10030    2    1    2    0    0  0.00000000000E+00  0.00000000000E+00  0.82845037832E+02  0.17102612661E+04  0.17082535813E+04 0.  0.
        5    1    3    3  502    0  0.40539859572E+03  0.12906901463E+03  0.78290327146E+03  0.89104795292E+03  0.46999998093E+01 0. -1.
       -5    1    3    3    0  502 -0.40539859572E+03 -0.12906901463E+03 -0.70005823363E+03  0.81921331313E+03  0.46999998093E+01 0.  1.
</event>
<event>
 5   0  0.7242144E-04  0.1593766E+04  0.7818609E-02  0.8824387E-01
        2   -1    0    0  501    0  0.00000000000E+00  0.00000000000E+00  0.12050383650E+04  0.12050383650E+04  0.25500000920E-02 0. -1.
       -2   -1    0    0    0  501  0.00000000000E+00  0.00000000000E+00 -0.52697299730E+03  0.52697299731E+03  0.25500000920E-02 0.  1.
    10030    2    1    2    0    0  0.00000000000E+00  0.00000000000E+00  0.67806536769E+03  0.17320113623E+04  0.15937662050E+04 0.  0.
        3    1    3    3  502    0  0.39606937665E+02 -0.62699140876E+03 -0.19373183759E+03  0.65743362499E+03  0.10100000352E+00 0.  1.
       -3    1    3    3    0  502 -0.39606937665E+02  0.62699140876E+03  0.87179720529E+03  0.10745777373E+04  0.10100000352E+00 0. -1.
</event>
<event>
 5   0  0.3803253E-04  0.1698529E+04  0.7818609E-02  0.8762204E-01
        1   -1    0    0  501    0  0.00000000000E+00  0.00000000000E+00  0.69898314939E+03  0.69898314941E+03  0.50400001928E-02 0. -1.
       -1   -1    0    0    0  501  0.00000000000E+00  0.00000000000E+00 -0.10318559709E+04  0.10318559709E+04  0.50400001928E-02 0.  1.
    10030    2    1    2    0    0  0.00000000000E+00  0.00000000000E+00 -0.33287282153E+03  0.17308391203E+04  0.16985287001E+04 0.  0.
        4    1    3    3  502    0 -0.75699724407E+03 -0.14359799838E+03  0.19754600780E+03  0.79541891527E+03  0.12699999809E+01 0. -1.
       -4    1    3    3    0  502  0.75699724407E+03  0.14359799838E+03 -0.53041882933E+03  0.93542020508E+03  0.12699999809E+01 0.  1.
</event>
<event>
 5   0  0.3723500E-04  0.1649486E+04  0.7818609E-02  0.8790711E-01
        1   -1    0    0  501    0  0.00000000000E+00  0.00000000000E+00  0.95055457547E+03  0.95055457548E+03  0.50400001928E-02 0.  1.
       -1   -1    0    0    0  501  0.00000000000E+00  0.00000000000E+00 -0.71558292043E+03  0.71558292045E+03  0.50400001928E-02 0. -1.
    10030    2    1    2    0    0  0.00000000000E+00  0.00000000000E+00  0.23497165504E+03  0.16661374959E+04  0.16494855188E+04 0.  0.
        1    1    3    3  502    0 -0.45438061663E+03 -0.64957324435E+03 -0.11239346637E+03  0.80064938385E+03  0.50400001928E-02 0.  1.
       -1    1    3    3    0  502  0.45438061663E+03  0.64957324435E+03  0.34736512141E+03  0.86548811208E+03  0.50400001928E-02 0. -1.
</event>
<event>
 5   0  0.3635143E-04  0.1247925E+04  0.7818609E-02  0.9071912E-01
        1   -1    0    0  501    0  0.00000000000E+00  0.00000000000E+00  0.73741022807E+03  0.73741022808E+03  0.50400001928E-02 0. -1.
       -1   -1    0    0    0  501  0.00000000000E+00  0.00000000000E+00 -0.52796829388E+03  0.52796829391E+03  0.50400001928E-02 0.  1.
    10030    2    1    2    0    0  0.00000000000E+00  0.00000000000E+00  0.20944193418E+03  0.12653785220E+04  0.12479250298E+04 0.  0.
        3    1    3    3  502    0 -0.14233402452E+03 -0.39765814621E+03  0.57042458950E+03  0.70977122954E+03  0.10100000352E+00 0. -1.
       -3    1    3    3    0  502  0.14233402452E+03  0.39765814621E+03 -0.36098265532E+03  0.55560729245E+03  0.10100000352E+00 0.  1.
</event>
<event>
 5   0  0.7049044E-04  0.1720748E+04  0.7818609E-02  0.8749618E-01
       -2   -1    0    0    0  501  0.00000000000E+00  0.00000000000E+00  0.75382684019E+03  0.75382684020E+03  0.25500000920E-02 0. -1.
        2   -1    0    0  501    0  0.00000000000E+00  0.00000000000E+00 -0.98198118336E+03  0.98198118336E+03  0.25500000920E-02 0.  1.
    10030    2    1    2    0    0  0.00000000000E+00  0.00000000000E+00 -0.22815434317E+03  0.17358080236E+04  0.17207484099E+04 0.  0.
        4    1    3    3  502    0 -0.39677631155E+03 -0.42214274745E+03 -0.75573070703E+03  0.95224285509E+03  0.12699999809E+01 0.  1.
       -4    1    3    3    0  502  0.39677631155E+03  0.42214274745E+03  0.52757636386E+03  0.78356516847E+03  0.12699999809E+01 0. -1.
</event>
<event>
 5   0  0.7049044E-04  0.1801913E+04  0.7818609E-02  0.8705283E-01
        2   -1    0    0  501    0  0.00000000000E+00  0.00000000000E+00  0.12080131845E+04  0.12080131845E+04  0.25500000920E-02 0. -1.
       -2   -1    0    0    0  501  0.00000000000E+00  0.00000000000E+00 -0.67194842135E+03  0.67194842135E+03  0.25500000920E-02 0.  1.
    10030    2    1    2    0    0  0.00000000000E+00  0.00000000000E+00  0.53606476313E+03  0.18799616058E+04  0.18019129305E+04 0.  0.
        4    1    3    3  502    0 -0.36995010762E+02 -0.62921131515E+03 -0.40362664441E+03  0.74845947847E+03  0.12699999809E+01 0.  1.
       -4    1    3    3    0  502  0.36995010762E+02  0.62921131515E+03  0.93969140753E+03  0.11315021274E+04  0.12699999809E+01 0. -1.
</event>
<event>
 5   0  0.2639750E-04  0.1685214E+04  0.7818609E-02  0.8769842E-01
       -4   -1    0    0    0  501  0.00000000000E+00  0.00000000000E+00  0.12095318631E+04  0.12095325299E+04  0.12699999809E+01 0. -1.
        4   -1    0    0  501    0  0.00000000000E+00  0.00000000000E+00 -0.58699157474E+03  0.58699294861E+03  0.12699999809E+01 0.  1.
    10030    2    1    2    0    0  0.00000000000E+00  0.00000000000E+00  0.62254028838E+03  0.17965254785E+04  0.16852143437E+04 0.  0.
        4    1    3    3  502    0 -0.39889137724E+02  0.73060151311E+03  0.75674136611E+03  0.10526294801E+04  0.12699999809E+01 0.  1.
       -4    1    3    3    0  502  0.39889137724E+02 -0.73060151311E+03 -0.13420107773E+03  0.74389599839E+03  0.12699999809E+01 0. -1.
</event>
<event>
 5   0  0.3635143E-04  0.1687901E+04  0.7818609E-02  0.8768295E-01
       -1   -1    0    0    0  501  0.00000000000E+00  0.00000000000E+00  0.10320526105E+04  0.10320526105E+04  0.50400001928E-02 0.  1.
        1   -1    0    0  501    0  0.00000000000E+00  0.00000000000E+00 -0.69013207038E+03  0.69013207040E+03  0.50400001928E-02 0. -1.
    10030    2    1    2    0    0  0.00000000000E+00  0.00000000000E+00  0.34192054014E+03  0.17221846809E+04  0.16879011877E+04 0.  0.
        3    1    3    3  502    0 -0.62444381840E+03 -0.53214474690E+03 -0.30907957949E+02  0.82101365766E+03  0.10100000352E+00 0.  1.
       -3    1    3    3    0  502  0.62444381840E+03  0.53214474690E+03  0.37282849809E+03  0.90117102327E+03  0.10100000352E+00 0. -1.
</event>
<event>
 5   0  0.3713516E-04  0.1678383E+04  0.7818609E-02  0.8773790E-01
       -1   -1    0    0    0  501  0.00000000000E+00  0.00000000000E+00  0.74361970560E+03  0.74361970562E+03  0.50400001928E-02 0.  1.
        1   -1    0    0  501    0  0.00000000000E+00  0.00000000000E+00 -0.94704619758E+03  0.94704619759E+03  0.50400001928E-02 0. -1.
    10030    2    1    2    0    0  0.00000000000E+00  0.00000000000E+00 -0.20342649198E+03  0.16906659032E+04  0.16783828105E+04 0.  0.
        5    1    3    3  502    0  0.53697008130E+03 -0.55675973487E+03 -0.42952049476E+03  0.88477579985E+03  0.46999998093E+01 0. -1.
       -5    1    3    3    0  502 -0.53697008130E+03  0.55675973487E+03  0.22609400279E+03  0.80589010335E+03  0.46999998093E+01 0.  1.
</event>
<event>
 5   0  0.7025426E-04  0.1703920E+04  0.7818609E-02  0.8759132E-01
       -2   -1    0    0    0  501  0.00000000000E+00  0.00000000000E+00  0.27958458352E+03  0.27958458353E+03  0.25500000920E-02 0. -1.
        2   -1    0    0  501    0  0.00000000000E+00  0.00000000000E+00 -0.25961228153E+04  0.25961228153E+04  0.25500000920E-02 0.  1.
    10030    2    1    2    0    0  0.00000000000E+00  0.00000000000E+00 -0.23165382318E+04  0.28757073988E+04  0.17039200875E+04 0.  0.
        2    1    3    3  502    0 -0.51097562807E+03 -0.60846893878E+03 -0.63944073485E+03  0.10199093074E+04  0.25500000920E-02 0. -1.
       -2    1    3    3    0  502  0.51097562807E+03  0.60846893878E+03 -0.16770974969E+04  0.18557980914E+04  0.25500000920E-02 0.  1.
</event>
<event>
 5   0  0.7242144E-04  0.1710710E+04  0.7818609E-02  0.8755280E-01
       -2   -1    0    0    0  501  0.00000000000E+00  0.00000000000E+00  0.39367061722E+03  0.39367061722E+03  0.25500000920E-02 0.  1.
        2   -1    0    0  501    0  0.00000000000E+00  0.00000000000E+00 -0.18584879589E+04  0.18584879589E+04  0.25500000920E-02 0. -1.
    10030    2    1    2    0    0  0.00000000000E+00  0.00000000000E+00 -0.14648173417E+04  0.22521585762E+04  0.17107099133E+04 0.  0.
        3    1    3    3  502    0 -0.70683243797E+03 -0.47964792559E+03 -0.79066107201E+03  0.11639669965E+04  0.10100000352E+00 0.  1.
       -3    1    3    3    0  502  0.70683243797E+03  0.47964792559E+03 -0.67415626971E+03  0.10881915797E+04  0.10100000352E+00 0. -1.
</event>
<event>
 5   0  0.7233728E-04  0.1689723E+04  0.7818609E-02  0.8767247E-01
       -2   -1    0    0    0  501  0.00000000000E+00  0.00000000000E+00  0.46897193107E+03  0.46897193108E+03  0.25500000920E-02 0. -1.
        2   -1    0    0  501    0  0.00000000000E+00  0.00000000000E+00 -0.15220340769E+04  0.15220340769E+04  0.25500000920E-02 0.  1.
    10030    2    1    2    0    0  0.00000000000E+00  0.00000000000E+00 -0.10530621458E+04  0.19910060080E+04  0.16897233622E+04 0.  0.
        1    1    3    3  502    0  0.30792132114E+03 -0.46478632070E+02 -0.14519419205E+04  0.14849616641E+04  0.50400001928E-02 0.  1.
       -1    1    3    3    0  502 -0.30792132114E+03  0.46478632070E+02  0.39887977471E+03  0.50604434386E+03  0.50400001928E-02 0. -1.
</event>
<event>
 5   0  0.7025426E-04  0.1685938E+04  0.7818609E-02  0.8769425E-01
       -2   -1    0    0    0  501  0.00000000000E+00  0.00000000000E+00  0.39070169530E+03  0.39070169531E+03  0.25500000920E-02 0.  1.
        2   -1    0    0  501    0  0.00000000000E+00  0.00000000000E+00 -0.18187711964E+04  0.18187711964E+04  0.25500000920E-02 0. -1.
    10030    2    1    2    0    0  0.00000000000E+00  0.00000000000E+00 -0.14280695011E+04  0.22094728917E+04  0.16859383023E+04 0.  0.
        2    1    3    3  502    0 -0.41897937267E+02 -0.22326673879E+03 -0.17779023216E+04  0.17923560302E+04  0.25500000920E-02 0. -1.
       -2    1    3    3    0  502  0.41897937267E+02  0.22326673879E+03  0.34983282054E+03  0.41711686148E+03  0.25500000920E-02 0.  1.
</event>
<event>
 5   0  0.7242144E-04  0.1691071E+04  0.7818609E-02  0.8766473E-01
        2   -1    0    0  501    0  0.00000000000E+00  0.00000000000E+00  0.12830537024E+04  0.12830537024E+04  0.25500000920E-02 0. -1.
       -2   -1    0    0    0  501  0.00000000000E+00  0.00000000000E+00 -0.55721023758E+03  0.55721023758E+03  0.25500000920E-02 0.  1.
    10030    2    1    2    0    0  0.00000000000E+00  0.00000000000E+00  0.72584346483E+03  0.18402639400E+04  0.16910714454E+04 0.  0.
        3    1    3    3  502    0  0.15527526560E+03  0.80393550248E+03  0.59250326215E+03  0.10106843355E+04  0.10100000352E+00 0. -1.
       -3    1    3    3    0  502 -0.15527526560E+03 -0.80393550248E+03  0.13334020268E+03  0.82957960445E+03  0.10100000352E+00 0.  1.
</event>
<event>
 5   0  0.3635143E-04  0.1711330E+04  0.7818609E-02  0.8754929E-01
       -1   -1    0    0    0  501  0.00000000000E+00  0.00000000000E+00  0.82380430111E+03  0.82380430113E+03  0.50400001928E-02 0. -1.
        1   -1    0    0  501    0  0.00000000000E+00  0.00000000000E+00 -0.88875806425E+03  0.88875806427E+03  0.50400001928E-02 0.  1.
    10030    2    1    2    0    0  0.00000000000E+00  0.00000000000E+00 -0.64953763140E+02  0.17125623654E+04  0.17113301447E+04 0.  0.
        3    1    3    3  502    0 -0.21974169425E+03 -0.40651959452E+03  0.68819310535E+03  0.82894773863E+03  0.10100000352E+00 0. -1.
       -3    1    3    3    0  502  0.21974169425E+03  0.40651959452E+03 -0.75314686849E+03  0.88361462677E+03  0.10100000352E+00 0.  1.
</event>
<event>
 5   0  0.6746664E-04  0.1391427E+04  0.7818609E-02  0.8960048E-01
       -2   -1    0    0    0  501  0.00000000000E+00  0.00000000000E+00  0.37670785459E+03  0.37670785460E+03  0.25500000920E-02 0.  1.
        2   -1    0    0  501    0  0.00000000000E+00  0.00000000000E+00 -0.12848611493E+04  0.12848611493E+04  0.25500000920E-02 0. -1.
    10030    2    1    2    0    0  0.00000000000E+00  0.00000000000E+00 -0.90815329466E+03  0.16615690039E+04  0.13914270186E+04 0.  0.
        5    1    3    3  502    0 -0.57377471015E+03 -0.13816019073E+03 -0.14199767364E+02  0.59036376896E+03  0.46999998093E+01 0.  1.
       -5    1    3    3    0  502  0.57377471015E+03  0.13816019073E+03 -0.89395352729E+03  0.10712052349E+04  0.46999998093E+01 0. -1.
</event>
<event>
 5   0  0.3713516E-04  0.1686931E+04  0.7818609E-02  0.8768853E-01
        1   -1    0    0  501    0  0.00000000000E+00  0.00000000000E+00  0.62402725135E+03  0.62402725137E+03  0.50400001928E-02 0.  1.
       -1   -1    0    0    0  501  0.00000000000E+00  0.00000000000E+00 -0.11400694957E+04  0.11400694957E+04  0.50400001928E-02 0. -1.
    10030    2    1    2    0    0  0.00000000000E+00  0.00000000000E+00 -0.51604224432E+03  0.17640967471E+04  0.16869314553E+04 0.  0.
        5    1    3    3  502    0  0.17171803420E+03  0.55738531234E+03  0.37915041234E+03  0.69565982696E+03  0.46999998093E+01 0.  1.
       -5    1    3    3    0  502 -0.17171803420E+03 -0.55738531234E+03 -0.89519265666E+03  0.10684369201E+04  0.46999998093E+01 0. -1.
</event>
<event>
 5   0  0.3635143E-04  0.1711662E+04  0.7818609E-02  0.8754741E-01
        1   -1    0    0  501    0  0.00000000000E+00  0.00000000000E+00  0.61648397435E+03  0.61648397437E+03  0.50400001928E-02 0. -1.
       -1   -1    0    0    0  501  0.00000000000E+00  0.00000000000E+00 -0.11881030143E+04  0.11881030143E+04  0.50400001928E-02 0.  1.
    10030    2    1    2    0    0  0.00000000000E+00  0.00000000000E+00 -0.57161903991E+03  0.18045869886E+04  0.17116617285E+04 0.  0.
        3    1    3    3  502    0  0.26121121600E+03  0.11903946158E+03  0.56421511832E+03  0.63304060117E+03  0.10100000352E+00 0. -1.
       -3    1    3    3    0  502 -0.26121121600E+03 -0.11903946158E+03 -0.11358341582E+04  0.11715463875E+04  0.10100000352E+00 0.  1.
</event>
<event>
 5   0  0.7242144E-04  0.1687763E+04  0.7818609E-02  0.8768375E-01
        2   -1    0    0  501    0  0.00000000000E+00  0.00000000000E+00  0.11204942835E+04  0.11204942835E+04  0.25500000920E-02 0. -1.
       -2   -1    0    0    0  501  0.00000000000E+00  0.00000000000E+00 -0.63555498084E+03  0.63555498085E+03  0.25500000920E-02 0.  1.
    10030    2    1    2    0    0  0.00000000000E+00  0.00000000000E+00  0.48493930263E+03  0.17560492643E+04  0.16877626881E+04 0.  0.
        3    1    3    3  502    0  0.64652749280E+03 -0.12638253479E+03 -0.30628326809E+03  0.72648454530E+03  0.10100000352E+00 0.  1.
       -3    1    3    3    0  502 -0.64652749280E+03  0.12638253479E+03  0.79122257072E+03  0.10295647190E+04  0.10100000352E+00 0. -1.
</event>
<event>
 5   0  0.3723500E-04  0.1701287E+04  0.7818609E-02  0.8760631E-01
       -1   -1    0    0    0  501  0.00000000000E+00  0.00000000000E+00  0.63964826209E+03  0.63964826211E+03  0.50400001928E-02 0. -1.
        1   -1    0    0  501    0  0.00000000000E+00  0.00000000000E+00 -0.11312381574E+04  0.11312381574E+04  0.50400001928E-02 0.  1.
    10030    2    1    2    0    0  0.00000000000E+00  0.00000000000E+00 -0.49158989529E+03  0.17708864195E+04  0.17012871849E+04 0.  0.
        1    1    3    3  502    0 -0.36090074112E+03 -0.51247665352E+03  0.35280767564E+03  0.71927388480E+03  0.50400001928E-02 0. -1.
       -1    1    3    3    0  502  0.36090074112E+03  0.51247665352E+03 -0.84439757093E+03  0.10516125347E+04  0.50400001928E-02 0.  1.
</event>
<event>
 5   0  0.3635143E-04  0.1687815E+04  0.7818609E-02  0.8768345E-01
        1   -1    0    0  501    0  0.00000000000E+00  0.00000000000E+00  0.29378833176E+03  0.29378833180E+03  0.50400001928E-02 0. -1.
       -1   -1    0    0    0  501  0.00000000000E+00  0.00000000000E+00 -0.24241245561E+04  0.24241245561E+04  0.50400001928E-02 0.  1.
    10030    2    1    2    0    0  0.00000000000E+00  0.00000000000E+00 -0.21303362244E+04  0.27179128879E+04  0.16878145744E+04 0.  0.
        3    1    3    3  502    0 -0.72132697849E+03 -0.13771803092E+03 -0.17347583175E+04  0.18837901412E+04  0.10100000352E+00 0.  1.
       -3    1    3    3    0  502  0.72132697849E+03  0.13771803092E+03 -0.39557790688E+03  0.83412274670E+03  0.10100000352E+00 0. -1.
</event>
<event>
 5   0  0.3915701E-04  0.1682190E+04  0.7818609E-02  0.8771588E-01
        1   -1    0    0  501    0  0.00000000000E+00  0.00000000000E+00  0.55077533688E+03  0.55077533690E+03  0.50400001928E-02 0. -1.
       -1   -1    0    0    0  501  0.00000000000E+00  0.00000000000E+00 -0.12844446660E+04  0.12844446660E+04  0.50400001928E-02 0.  1.
    10030    2    1    2    0    0  0.00000000000E+00  0.00000000000E+00 -0.73366932907E+03  0.18352200029E+04  0.16821895774E+04 0.  0.
        2    1    3    3  502    0  0.76457991682E+03  0.34349209488E+03 -0.44297767962E+03  0.94804983682E+03  0.25500000920E-02 0.  1.
       -2    1    3    3    0  502 -0.76457991682E+03 -0.34349209488E+03 -0.29069164946E+03  0.88717016604E+03  0.25500000920E-02 0. -1.
</event>
<event>
 5   0  0.3713516E-04  0.1722721E+04  0.7818609E-02  0.8748511E-01
       -1   -1    0    0    0  501  0.00000000000E+00  0.00000000000E+00  0.45328343141E+03  0.45328343144E+03  0.50400001928E-02 0.  1.
        1   -1    0    0  501    0  0.00000000000E+00  0.00000000000E+00 -0.16368175744E+04  0.16368175744E+04  0.50400001928E-02 0. -1.
    10030    2    1    2    0    0  0.00000000000E+00  0.00000000000E+00 -0.11835341430E+04  0.20901010059E+04  0.17227214363E+04 0.  0.
        5    1    3    3  502    0 -0.26501058736E+03 -0.41577793886E+03 -0.14486537703E+04  0.15302685196E+04  0.46999998093E+01 0. -1.
       -5    1    3    3    0  502  0.26501058736E+03  0.41577793886E+03  0.26511962733E+03  0.55983248624E+03  0.46999998093E+01 0.  1.
</event>
<event>
 5   0  0.7049044E-04  0.1702310E+04  0.7818609E-02  0.8760048E-01
       -2   -1    0    0    0  501  0.00000000000E+00  0.00000000000E+00  0.38354525465E+03  0.38354525466E+03  0.25500000920E-02 0.  1.
        2   -1    0    0  501    0  0.00000000000E+00  0.00000000000E+00 -0.18888642596E+04  0.18888642596E+04  0.25500000920E-02 0. -1.
    10030    2    1    2    0    0  0.00000000000E+00  0.00000000000E+00 -0.15053190049E+04  0.22724095142E+04  0.17023101051E+04 0.  0.
        4    1    3    3  502    0 -0.32530477477E+03 -0.74715115698E+03 -0.10807436983E+04  0.13535385484E+04  0.12699999809E+01 0. -1.
       -4    1    3    3    0  502  0.32530477477E+03  0.74715115698E+03 -0.42457530667E+03  0.91887096580E+03  0.12699999809E+01 0.  1.
</event>
<event>
 5   0  0.7233728E-04  0.1703846E+04  0.7818609E-02  0.8759174E-01
       -2   -1    0    0    0  501  0.00000000000E+00  0.00000000000E+00  0.84590572824E+03  0.84590572824E+03  0.25500000920E-02 0.  1.
        2   -1    0    0  501    0  0.00000000000E+00  0.00000000000E+00 -0.85798320220E+03  0.85798320220E+03  0.25500000920E-02 0. -1.
    10030    2    1    2    0    0  0.00000000000E+00  0.00000000000E+00 -0.12077473958E+02  0.17038889304E+04  0.17038461262E+04 0.  0.
        1    1    3    3  502    0 -0.59147495636E+03  0.39393085610E+03  0.46381214740E+03  0.84861407688E+03  0.50400001928E-02 0. -1.
       -1    1    3    3    0  502  0.59147495636E+03 -0.39393085610E+03 -0.47588962136E+03  0.85527485356E+03  0.50400001928E-02 0.  1.
</event>
<event>
 5   0  0.3803253E-04  0.1700243E+04  0.7818609E-02  0.8761226E-01
       -1   -1    0    0    0  501  0.00000000000E+00  0.00000000000E+00  0.41770863999E+03  0.41770864002E+03  0.50400001928E-02 0.  1.
        1   -1    0    0  501    0  0.00000000000E+00  0.00000000000E+00 -0.17301682732E+04  0.17301682732E+04  0.50400001928E-02 0. -1.
    10030    2    1    2    0    0  0.00000000000E+00  0.00000000000E+00 -0.13124596332E+04  0.21478769132E+04  0.17002426137E+04 0.  0.
        4    1    3    3  502    0  0.34634521123E+03  0.24549306520E+03 -0.15866764500E+04  0.16424876317E+04  0.12699999809E+01 0. -1.
       -4    1    3    3    0  502 -0.34634521123E+03 -0.24549306520E+03  0.27421681677E+03  0.50538928155E+03  0.12699999809E+01 0.  1.
</event>
<event>
 5   0  0.7025426E-04  0.1691109E+04  0.7818609E-02  0.8766451E-01
        2   -1    0    0  501    0  0.00000000000E+00  0.00000000000E+00  0.82176474665E+03  0.82176474665E+03  0.25500000920E-02 0. -1.
       -2   -1    0    0    0  501  0.00000000000E+00  0.00000000000E+00 -0.87003316297E+03  0.87003316297E+03  0.25500000920E-02 0.  1.
    10030    2    1    2    0    0  0.00000000000E+00  0.00000000000E+00 -0.48268416319E+02  0.16917979096E+04  0.16911092002E+04 0.  0.
        2    1    3    3  502    0 -0.10368931826E+03 -0.63939357815E+03 -0.56785068090E+03  0.86141164278E+03  0.25500000920E-02 0.  1.
       -2    1    3    3    0  502  0.10368931826E+03  0.63939357815E+03  0.51958226458E+03  0.83038626685E+03  0.25500000920E-02 0. -1.
</event>
<event>
 5   0  0.3713516E-04  0.1566679E+04  0.7818609E-02  0.8841284E-01
       -1   -1    0    0    0  501  0.00000000000E+00  0.00000000000E+00  0.56000638152E+03  0.56000638155E+03  0.50400001928E-02 0.  1.
        1   -1    0    0  501    0  0.00000000000E+00  0.00000000000E+00 -0.10957387996E+04  0.10957387996E+04  0.50400001928E-02 0. -1.
    10030    2    1    2    0    0  0.00000000000E+00  0.00000000000E+00 -0.53573241808E+03  0.16557451812E+04  0.15666789337E+04 0.  0.
        5    1    3    3  502    0 -0.14440532905E+03  0.63784907161E+03 -0.72353210432E+03  0.97530771205E+03  0.46999998093E+01 0. -1.
       -5    1    3    3    0  502  0.14440532905E+03 -0.63784907161E+03  0.18779968625E+03  0.68043746910E+03  0.46999998093E+01 0.  1.
</event>
<event>
 5   0  0.7025426E-04  0.1405001E+04  0.7818609E-02  0.8950207E-01
        2   -1    0    0  501    0  0.00000000000E+00  0.00000000000E+00  0.44145990678E+03  0.44145990679E+03  0.25500000920E-02 0. -1.
       -2   -1    0    0    0  501  0.00000000000E+00  0.00000000000E+00 -0.11178967944E+04  0.11178967944E+04  0.25500000920E-02 0.  1.
    10030    2    1    2    0    0  0.00000000000E+00  0.00000000000E+00 -0.67643688759E+03  0.15593567012E+04  0.14050005191E+04 0.  0.
        2    1    3    3  502    0  0.39048633709E+03 -0.55981889713E+03 -0.15373467918E+03  0.69965071902E+03  0.25500000920E-02 0. -1.
       -2    1    3    3    0  502 -0.39048633709E+03  0.55981889713E+03 -0.52270220841E+03  0.85970598214E+03  0.25500000920E-02 0.  1.
</event>
<event>
 5   0  0.3803253E-04  0.1693033E+04  0.7818609E-02  0.8765348E-01
        1   -1    0    0  501    0  0.00000000000E+00  0.00000000000E+00  0.10560905082E+04  0.10560905082E+04  0.50400001928E-02 0. -1.
       -1   -1    0    0    0  501  0.00000000000E+00  0.00000000000E+00 -0.67853121721E+03  0.67853121723E+03  0.50400001928E-02 0.  1.
    10030    2    1    2    0    0  0.00000000000E+00  0.00000000000E+00  0.37755929101E+03  0.17346217255E+04  0.16930332283E+04 0.  0.
        4    1    3    3  502    0  0.59471121455E+03  0.60129106721E+03  0.15104576930E+03  0.85909767404E+03  0.12699999809E+01 0.  1.
       -4    1    3    3    0  502 -0.59471121455E+03 -0.60129106721E+03  0.22651352171E+03  0.87552405143E+03  0.12699999809E+01 0. -1.
</event>
<event>
 5   0  0.3915701E-04  0.1704869E+04  0.7818609E-02  0.8758592E-01
        1   -1    0    0  501    0  0.00000000000E+00  0.00000000000E+00  0.14692518637E+04  0.14692518637E+04  0.50400001928E-02 0. -1.
       -1   -1    0    0    0  501  0.00000000000E+00  0.00000000000E+00 -0.49456763767E+03  0.49456763770E+03  0.50400001928E-02 0.  1.
    10030    2    1    2    0    0  0.00000000000E+00  0.00000000000E+00  0.97468422599E+03  0.19638195014E+04  0.17048688201E+04 0.  0.
        2    1    3    3  502    0 -0.45515988710E+03  0.35978917460E+02 -0.34184144104E+03  0.57036880713E+03  0.25500000920E-02 0.  1.
       -2    1    3    3    0  502  0.45515988710E+03 -0.35978917460E+02  0.13165256670E+04  0.13934506942E+04  0.25500000920E-02 0. -1.
</event>
<event>
 5   0  0.3915701E-04  0.1768236E+04  0.7818609E-02  0.8723376E-01
        1   -1    0    0  501    0  0.00000000000E+00  0.00000000000E+00  0.22737739072E+04  0.22737739072E+04  0.50400001928E-02 0.  1.
       -1   -1    0    0    0  501  0.00000000000E+00  0.00000000000E+00 -0.34377409395E+03  0.34377409399E+03  0.50400001928E-02 0. -1.
    10030    2    1    2    0    0  0.00000000000E+00  0.00000000000E+00  0.19299998132E+04  0.26175480012E+04  0.17682359173E+04 0.  0.
        2    1    3    3  502    0  0.16635788271E+02 -0.16336993698E+03  0.22510002038E+04  0.22569821451E+04  0.25500000920E-02 0.  1.
       -2    1    3    3    0  502 -0.16635788271E+02  0.16336993698E+03 -0.32100039061E+03  0.36056585604E+03  0.25500000920E-02 0. -1.
</event>
<event>
 5   0  0.7025426E-04  0.1771736E+04  0.7818609E-02  0.8721476E-01
        2   -1    0    0  501    0  0.00000000000E+00  0.00000000000E+00  0.56468876266E+03  0.56468876267E+03  0.25500000920E-02 0. -1.
       -2   -1    0    0    0  501  0.00000000000E+00  0.00000000000E+00 -0.13897256973E+04  0.13897256973E+04  0.25500000920E-02 0.  1.
    10030    2    1    2    0    0  0.00000000000E+00  0.00000000000E+00 -0.82503693465E+03  0.19544144600E+04  0.17717364188E+04 0.  0.
        2    1    3    3  502    0  0.56239967412E+02  0.65005742340E+03  0.24844862510E+03  0.69818644141E+03  0.25500000920E-02 0. -1.
       -2    1    3    3    0  502 -0.56239967412E+02 -0.65005742340E+03 -0.10734855597E+04  0.12562280186E+04  0.25500000920E-02 0.  1.
</event>
<event>
 5   0  0.3713516E-04  0.1672150E+04  0.7818609E-02  0.8777410E-01
        1   -1    0    0  501    0  0.00000000000E+00  0.00000000000E+00  0.13498632665E+04  0.13498632665E+04  0.50400001928E-02 0.  1.
       -1   -1    0    0    0  501  0.00000000000E+00  0.00000000000E+00 -0.51784584741E+03  0.51784584744E+03  0.50400001928E-02 0. -1.
    10030    2    1    2    0    0  0.00000000000E+00  0.00000000000E+00  0.83201741913E+03  0.18677091140E+04  0.16721496191E+04 0.  0.
        5    1    3    3  502    0  0.36564020851E+03  0.20874081613E+03  0.12227949229E+04  0.12932575165E+04  0.46999998093E+01 0.  1.
       -5    1    3    3    0  502 -0.36564020851E+03 -0.20874081613E+03 -0.39077750381E+03  0.57445159750E+03  0.46999998093E+01 0. -1.
</event>
<event>
 5   0  0.6746664E-04  0.1690407E+04  0.7818609E-02  0.8766855E-01
       -2   -1    0    0    0  501  0.00000000000E+00  0.00000000000E+00  0.67595975863E+03  0.67595975863E+03  0.25500000920E-02 0.  1.
        2   -1    0    0  501    0  0.00000000000E+00  0.00000000000E+00 -0.10568217269E+04  0.10568217269E+04  0.25500000920E-02 0. -1.
    10030    2    1    2    0    0  0.00000000000E+00  0.00000000000E+00 -0.38086196823E+03  0.17327814855E+04  0.16904070035E+04 0.  0.
        5    1    3    3  502    0  0.22039944717E+03  0.17260971174E+03  0.62704154258E+03  0.68671188647E+03  0.46999998093E+01 0.  1.
       -5    1    3    3    0  502 -0.22039944717E+03 -0.17260971174E+03 -0.10079035108E+04  0.10460695990E+04  0.46999998093E+01 0. -1.
</event>
<event>
 5   0  0.6746664E-04  0.1167946E+04  0.7818609E-02  0.9141385E-01
       -2   -1    0    0    0  501  0.00000000000E+00  0.00000000000E+00  0.36025810662E+03  0.36025810663E+03  0.25500000920E-02 0.  1.
        2   -1    0    0  501    0  0.00000000000E+00  0.00000000000E+00 -0.94661134651E+03  0.94661134651E+03  0.25500000920E-02 0. -1.
    10030    2    1    2    0    0  0.00000000000E+00  0.00000000000E+00 -0.58635323989E+03  0.13068694531E+04  0.11679459087E+04 0.  0.
        5    1    3    3  502    0  0.29744286124E+03 -0.37974990762E+03 -0.66144459171E+03  0.81866555194E+03  0.46999998093E+01 0. -1.
       -5    1    3    3    0  502 -0.29744286124E+03  0.37974990762E+03  0.75091351818E+02  0.48820390121E+03  0.46999998093E+01 0.  1.
</event>
<event>
 5   0  0.7049044E-04  0.1686083E+04  0.7818609E-02  0.8769342E-01
       -2   -1    0    0    0  501  0.00000000000E+00  0.00000000000E+00  0.15636848992E+04  0.15636848992E+04  0.25500000920E-02 0.  1.
        2   -1    0    0  501    0  0.00000000000E+00  0.00000000000E+00 -0.45451569280E+03  0.45451569281E+03  0.25500000920E-02 0. -1.
    10030    2    1    2    0    0  0.00000000000E+00  0.00000000000E+00  0.11091692064E+04  0.20182005921E+04  0.16860834206E+04 0.  0.
        4    1    3    3  502    0  0.46930682460E+03 -0.46718538319E+03  0.11790877403E+04  0.13523167492E+04  0.12699999809E+01 0.  1.
       -4    1    3    3    0  502 -0.46930682460E+03  0.46718538319E+03 -0.69918533891E+02  0.66588384285E+03  0.12699999809E+01 0. -1.
</event>
<event>
 5   0  0.3803253E-04  0.1741896E+04  0.7818609E-02  0.8737824E-01
       -1   -1    0    0    0  501  0.00000000000E+00  0.00000000000E+00  0.58545829451E+03  0.58545829453E+03  0.50400001928E-02 0. -1.
        1   -1    0    0  501    0  0.00000000000E+00  0.00000000000E+00 -0.12956523327E+04  0.12956523327E+04  0.50400001928E-02 0.  1.
    10030    2    1    2    0    0  0.00000000000E+00  0.00000000000E+00 -0.71019403822E+03  0.18811106273E+04  0.17418959843E+04 0.  0.
        4    1    3    3  502    0 -0.29087333231E+01 -0.64365089099E+03  0.27852685058E+03  0.70133711551E+03  0.12699999809E+01 0. -1.
       -4    1    3    3    0  502  0.29087333231E+01  0.64365089099E+03 -0.98872088880E+03  0.11797735118E+04  0.12699999809E+01 0.  1.
</event>
<event>
 5   0  0.3915701E-04  0.1695875E+04  0.7818609E-02  0.8763721E-01
       -1   -1    0    0    0  501  0.00000000000E+00  0.00000000000E+00  0.54253030116E+03  0.54253030118E+03  0.50400001928E-02 0. -1.
        1   -1    0    0  501    0  0.00000000000E+00  0.00000000000E+00 -0.13252677178E+04  0.13252677178E+04  0.50400001928E-02 0.  1.
    10030    2    1    2    0    0  0.00000000000E+00  0.00000000000E+00 -0.78273741660E+03  0.18677980190E+04  0.16958748705E+04 0.  0.
        2    1    3    3  502    0 -0.92399763776E+02 -0.15563933704E+02 -0.13195481079E+04  0.13228708030E+04  0.25500000920E-02 0.  1.
       -2    1    3    3    0  502  0.92399763776E+02  0.15563933704E+02  0.53681069130E+03  0.54492721595E+03  0.25500000920E-02 0. -1.
</event>
<event>
 5   0  0.7025426E-04  0.1693923E+04  0.7818609E-02  0.8764838E-01
        2   -1    0    0  501    0  0.00000000000E+00  0.00000000000E+00  0.13780627268E+04  0.13780627268E+04  0.25500000920E-02 0. -1.
       -2   -1    0    0    0  501  0.00000000000E+00  0.00000000000E+00 -0.52054507649E+03  0.52054507650E+03  0.25500000920E-02 0.  1.
    10030    2    1    2    0    0  0.00000000000E+00  0.00000000000E+00  0.85751765032E+03  0.18986078033E+04  0.16939229824E+04 0.  0.
        2    1    3    3  502    0  0.74539316602E+03  0.21361800487E+03  0.81066614252E+03  0.11217946419E+04  0.25500000920E-02 0. -1.
       -2    1    3    3    0  502 -0.74539316602E+03 -0.21361800487E+03  0.46851507798E+02  0.77681316141E+03  0.25500000920E-02 0.  1.
</event>
<event>
 5   0  0.3915701E-04  0.1686006E+04  0.7818609E-02  0.8769386E-01
        1   -1    0    0  501    0  0.00000000000E+00  0.00000000000E+00  0.10340179414E+04  0.10340179414E+04  0.50400001928E-02 0.  1.
       -1   -1    0    0    0  501  0.00000000000E+00  0.00000000000E+00 -0.68727403545E+03  0.68727403547E+03  0.50400001928E-02 0. -1.
    10030    2    1    2    0    0  0.00000000000E+00  0.00000000000E+00  0.34674390593E+03  0.17212919769E+04  0.16860055555E+04 0.  0.
        2    1    3    3  502    0  0.58815461140E+03  0.45301088217E+01  0.78992121164E+03  0.98484612473E+03  0.25500000920E-02 0.  1.
       -2    1    3    3    0  502 -0.58815461140E+03 -0.45301088217E+01 -0.44317730571E+03  0.73644585212E+03  0.25500000920E-02 0. -1.
</event>
<event>
 5   0  0.7242144E-04  0.1638991E+04  0.7818609E-02  0.8796946E-01
       -2   -1    0    0    0  501  0.00000000000E+00  0.00000000000E+00  0.41378153936E+03  0.41378153936E+03  0.25500000920E-02 0. -1.
        2   -1    0    0  501    0  0.00000000000E+00  0.00000000000E+00 -0.16230135987E+04  0.16230135987E+04  0.25500000920E-02 0.  1.
    10030    2    1    2    0    0  0.00000000000E+00  0.00000000000E+00 -0.12092320594E+04  0.20367951381E+04  0.16389912328E+04 0.  0.
        3    1    3    3  502    0 -0.22719139560E+03 -0.20977078605E+03  0.33849835857E+03  0.45847667538E+03  0.10100000352E+00 0. -1.
       -3    1    3    3    0  502  0.22719139560E+03  0.20977078605E+03 -0.15477304179E+04  0.15783184627E+04  0.10100000352E+00 0.  1.
</event>
<event>
 5   0  0.6746664E-04  0.1689101E+04  0.7818609E-02  0.8767605E-01
       -2   -1    0    0    0  501  0.00000000000E+00  0.00000000000E+00  0.41444542417E+03  0.41444542418E+03  0.25500000920E-02 0. -1.
        2   -1    0    0  501    0  0.00000000000E+00  0.00000000000E+00 -0.17210126548E+04  0.17210126548E+04  0.25500000920E-02 0.  1.
    10030    2    1    2    0    0  0.00000000000E+00  0.00000000000E+00 -0.13065672306E+04  0.21354580789E+04  0.16891013228E+04 0.  0.
        5    1    3    3  502    0  0.16415911591E+03 -0.21927135020E+03  0.35671098591E+03  0.44976989430E+03  0.46999998093E+01 0. -1.
       -5    1    3    3    0  502 -0.16415911591E+03  0.21927135020E+03 -0.16632782165E+04  0.16856881846E+04  0.46999998093E+01 0.  1.
</event>
<event>
 5   0  0.3713516E-04  0.1696715E+04  0.7818609E-02  0.8763240E-01
       -1   -1    0    0    0  501  0.00000000000E+00  0.00000000000E+00  0.12337440353E+04  0.12337440353E+04  0.50400001928E-02 0. -1.
        1   -1    0    0  501    0  0.00000000000E+00  0.00000000000E+00 -0.58335442431E+03  0.58335442433E+03  0.50400001928E-02 0.  1.
    10030    2    1    2    0    0  0.00000000000E+00  0.00000000000E+00  0.65038961094E+03  0.18170984596E+04  0.16967145210E+04 0.  0.
        5    1    3    3  502    0  0.39868348049E+03 -0.69455167338E+03  0.62494141483E+03  0.10158368011E+04  0.46999998093E+01 0. -1.
       -5    1    3    3    0  502 -0.39868348049E+03  0.69455167338E+03  0.25448196117E+02  0.80126165844E+03  0.46999998093E+01 0.  1.
</event>
<event>
 5   0  0.3635143E-04  0.1667151E+04  0.7818609E-02  0.8780324E-01
       -1   -1    0    0    0  501  0.00000000000E+00  0.00000000000E+00  0.37341945384E+03  0.37341945387E+03  0.50400001928E-02 0. -1.
        1   -1    0    0  501    0  0.00000000000E+00  0.00000000000E+00 -0.18607710075E+04  0.18607710075E+04  0.50400001928E-02 0.  1.
    10030    2    1    2    0    0  0.00000000000E+00  0.00000000000E+00 -0.14873515537E+04  0.22341904614E+04  0.16671509750E+04 0.  0.
        3    1    3    3  502    0  0.20088681316E+03  0.18692270873E+03  0.31115868468E+03  0.41486786811E+03  0.10100000352E+00 0. -1.
       -3    1    3    3    0  502 -0.20088681316E+03 -0.18692270873E+03 -0.17985102384E+04  0.18193225933E+04  0.10100000352E+00 0.  1.
</event>
<event>
 5   0  0.7242144E-04  0.1716409E+04  0.7818609E-02  0.8752061E-01
        2   -1    0    0  501    0  0.00000000000E+00  0.00000000000E+00  0.12701059982E+04  0.12701059982E+04  0.25500000920E-02 0.  1.
       -2   -1    0    0    0  501  0.00000000000E+00  0.00000000000E+00 -0.57988477037E+03  0.57988477038E+03  0.25500000920E-02 0. -1.
    10030    2    1    2    0    0  0.00000000000E+00  0.00000000000E+00  0.69022122786E+03  0.18499907686E+04  0.17164091880E+04 0.  0.
        3    1    3    3  502    0 -0.18448601157E+03 -0.37357865263E+03  0.11537812822E+04  0.12267058961E+04  0.10100000352E+00 0.  1.
       -3    1    3    3    0  502  0.18448601157E+03  0.37357865263E+03 -0.46356005432E+03  0.62328487253E+03  0.10100000352E+00 0. -1.
</event>
<event>
 5   0  0.7233728E-04  0.1632029E+04  0.7818609E-02  0.8801109E-01
        2   -1    0    0  501    0  0.00000000000E+00  0.00000000000E+00  0.13466322791E+04  0.13466322791E+04  0.25500000920E-02 0.  1.
       -2   -1    0    0    0  501  0.00000000000E+00  0.00000000000E+00 -0.49447775651E+03  0.49447775651E+03  0.25500000920E-02 0. -1.
    10030    2    1    2    0    0  0.00000000000E+00  0.00000000000E+00  0.85215452255E+03  0.18411100356E+04  0.16320290539E+04 0.  0.
        1    1    3    3  502    0 -0.81454850419E+03  0.48101439852E+02  0.41619781721E+03  0.91598233458E+03  0.50400001928E-02 0. -1.
       -1    1    3    3    0  502  0.81454850419E+03 -0.48101439852E+02  0.43595670534E+03  0.92512770099E+03  0.50400001928E-02 0.  1.
</event>
<event>
 5   0  0.7233728E-04  0.1739974E+04  0.7818609E-02  0.8738888E-01
       -2   -1    0    0    0  501  0.00000000000E+00  0.00000000000E+00  0.42167535264E+03  0.42167535265E+03  0.25500000920E-02 0. -1.
        2   -1    0    0  501    0  0.00000000000E+00  0.00000000000E+00 -0.17949299639E+04  0.17949299639E+04  0.25500000920E-02 0.  1.
    10030    2    1    2    0    0  0.00000000000E+00  0.00000000000E+00 -0.13732546112E+04  0.22166053165E+04  0.17399743969E+04 0.  0.
        1    1    3    3  502    0 -0.68710297804E+03 -0.41471878378E+03 -0.11144393391E+04  0.13733452634E+04  0.50400001928E-02 0.  1.
       -1    1    3    3    0  502  0.68710297804E+03  0.41471878378E+03 -0.25881527217E+03  0.84326005312E+03  0.50400001928E-02 0. -1.
</event>
<event>
 5   0  0.7025426E-04  0.1728176E+04  0.7818609E-02  0.8745456E-01
       -2   -1    0    0    0  501  0.00000000000E+00  0.00000000000E+00  0.65412817649E+03  0.65412817649E+03  0.25500000920E-02 0.  1.
        2   -1    0    0  501    0  0.00000000000E+00  0.00000000000E+00 -0.11414393795E+04  0.11414393795E+04  0.25500000920E-02 0. -1.
    10030    2    1    2    0    0  0.00000000000E+00  0.00000000000E+00 -0.48731120304E+03  0.17955675560E+04  0.17281755234E+04 0.  0.
        2    1    3    3  502    0  0.55472928682E+03 -0.32248004065E+03  0.35764374385E+03  0.73459308859E+03  0.25500000920E-02 0.  1.
       -2    1    3    3    0  502 -0.55472928682E+03  0.32248004065E+03 -0.84495494689E+03  0.10609744674E+04  0.25500000920E-02 0. -1.
</event>
<event>
 5   0  0.3723500E-04  0.1626566E+04  0.7818609E-02  0.8804392E-01
        1   -1    0    0  501    0  0.00000000000E+00  0.00000000000E+00  0.64819493839E+03  0.64819493841E+03  0.50400001928E-02 0.  1.
       -1   -1    0    0    0  501  0.00000000000E+00  0.00000000000E+00 -0.10204167097E+04  0.10204167098E+04  0.50400001928E-02 0. -1.
    10030    2    1    2    0    0  0.00000000000E+00  0.00000000000E+00 -0.37222177135E+03  0.16686116482E+04  0.16265656413E+04 0.  0.
        1    1    3    3  502    0  0.52407397250E+03  0.17657324619E+03  0.42562352121E+03  0.69784455415E+03  0.50400001928E-02 0.  1.
       -1    1    3    3    0  502 -0.52407397250E+03 -0.17657324619E+03 -0.79784529257E+03  0.97076709401E+03  0.50400001928E-02 0. -1.
</event>
<event>
 5   0  0.7233728E-04  0.1707209E+04  0.7818609E-02  0.8757263E-01
        2   -1    0    0  501    0  0.00000000000E+00  0.00000000000E+00  0.88315484587E+03  0.88315484587E+03  0.25500000920E-02 0.  1.
       -2   -1    0    0    0  501  0.00000000000E+00  0.00000000000E+00 -0.82504321441E+03  0.82504321441E+03  0.25500000920E-02 0. -1.
    10030    2    1    2    0    0  0.00000000000E+00  0.00000000000E+00  0.58111631462E+02  0.17081980603E+04  0.17072093168E+04 0.  0.
        1    1    3    3  502    0  0.51282284000E+02 -0.10181744018E+03  0.87550335155E+03  0.88289454771E+03  0.50400001928E-02 0.  1.
       -1    1    3    3    0  502 -0.51282284000E+02  0.10181744018E+03 -0.81739172009E+03  0.82530351257E+03  0.50400001928E-02 0. -1.
</event>
<event>
 5   0  0.7049044E-04  0.1666238E+04  0.7818609E-02  0.8780858E-01
       -2   -1    0    0    0  501  0.00000000000E+00  0.00000000000E+00  0.51807327404E+03  0.51807327405E+03  0.25500000920E-02 0. -1.
        2   -1    0    0  501    0  0.00000000000E+00  0.00000000000E+00 -0.13397470440E+04  0.13397470440E+04  0.25500000920E-02 0.  1.
    10030    2    1    2    0    0  0.00000000000E+00  0.00000000000E+00 -0.82167376999E+03  0.18578203181E+04  0.16662378432E+04 0.  0.
        4    1    3    3  502    0 -0.70150935521E+03  0.37495179525E+03 -0.68707573467E+03  0.10510846314E+04  0.12699999809E+01 0.  1.
       -4    1    3    3    0  502  0.70150935521E+03 -0.37495179525E+03 -0.13459803531E+03  0.80673568672E+03  0.12699999809E+01 0. -1.
</event>
<event>
 5   0  0.7242144E-04  0.1603976E+04  0.7818609E-02  0.8818109E-01
       -2   -1    0    0    0  501  0.00000000000E+00  0.00000000000E+00  0.37881937481E+03  0.37881937482E+03  0.25500000920E-02 0. -1.
        2   -1    0    0  501    0  0.00000000000E+00  0.00000000000E+00 -0.16978655209E+04  0.16978655209E+04  0.25500000920E-02 0.  1.
    10030    2    1    2    0    0  0.00000000000E+00  0.00000000000E+00 -0.13190461461E+04  0.20766848957E+04  0.16039755050E+04 0.  0.
        3    1    3    3  502    0  0.33914230767E+03  0.40917564568E+03  0.11810388115E+03  0.54441780906E+03  0.10100000352E+00 0. -1.
       -3    1    3    3    0  502 -0.33914230767E+03 -0.40917564568E+03 -0.14371500273E+04  0.15322670867E+04  0.10100000352E+00 0.  1.
</event>
<event>
 5   0  0.3713516E-04  0.1680732E+04  0.7818609E-02  0.8772431E-01
       -1   -1    0    0    0  501  0.00000000000E+00  0.00000000000E+00  0.11082608443E+04  0.11082608443E+04  0.50400001928E-02 0. -1.
        1   -1    0    0  501    0  0.00000000000E+00  0.00000000000E+00 -0.63722818162E+03  0.63722818164E+03  0.50400001928E-02 0.  1.
    10030    2    1    2    0    0  0.00000000000E+00  0.00000000000E+00  0.47103266271E+03  0.17454890260E+04  0.16807320341E+04 0.  0.
        5    1    3    3  502    0 -0.21605809917E+03  0.40621521485E+03  0.96581793444E+03  0.10698216092E+04  0.46999998093E+01 0. -1.
       -5    1    3    3    0  502  0.21605809917E+03 -0.40621521485E+03 -0.49478527173E+03  0.67566741679E+03  0.46999998093E+01 0.  1.
</event>
<event>
 5   0  0.2639750E-04  0.1706609E+04  0.7818609E-02  0.8757604E-01
        4   -1    0    0  501    0  0.00000000000E+00  0.00000000000E+00  0.76747079814E+03  0.76747184893E+03  0.12699999809E+01 0.  1.
       -4   -1    0    0    0  501  0.00000000000E+00  0.00000000000E+00 -0.94873573015E+03  0.94873658018E+03  0.12699999809E+01 0. -1.
    10030    2    1    2    0    0  0.00000000000E+00  0.00000000000E+00 -0.18126493201E+03  0.17162084291E+04  0.17066090345E+04 0.  0.
        3    1    3    3  502    0  0.64141777800E+03  0.44565821831E+03 -0.43622312642E+03  0.89460529828E+03  0.10100000352E+00 0. -1.
       -3    1    3    3    0  502 -0.64141777800E+03 -0.44565821831E+03  0.25495819441E+03  0.82160313083E+03  0.10100000352E+00 0.  1.
</event>
<event>
 5   0  0.7233728E-04  0.1678174E+04  0.7818609E-02  0.8773911E-01
       -2   -1    0    0    0  501  0.00000000000E+00  0.00000000000E+00  0.42269476466E+03  0.42269476467E+03  0.25500000920E-02 0. -1.
        2   -1    0    0  501    0  0.00000000000E+00  0.00000000000E+00 -0.16656628358E+04  0.16656628358E+04  0.25500000920E-02 0.  1.
    10030    2    1    2    0    0  0.00000000000E+00  0.00000000000E+00 -0.12429680711E+04  0.20883576005E+04  0.16781739605E+04 0.  0.
        1    1    3    3  502    0  0.65409045478E+03  0.52556770119E+03 -0.62565401900E+03  0.10466607297E+04  0.50400001928E-02 0.  1.
       -1    1    3    3    0  502 -0.65409045478E+03 -0.52556770119E+03 -0.61731405214E+03  0.10416968708E+04  0.50400001928E-02 0. -1.
</event>
<event>
 5   0  0.7049044E-04  0.1704265E+04  0.7818609E-02  0.8758935E-01
       -2   -1    0    0    0  501  0.00000000000E+00  0.00000000000E+00  0.47018788669E+03  0.47018788669E+03  0.25500000920E-02 0.  1.
        2   -1    0    0  501    0  0.00000000000E+00  0.00000000000E+00 -0.15443403265E+04  0.15443403265E+04  0.25500000920E-02 0. -1.
    10030    2    1    2    0    0  0.00000000000E+00  0.00000000000E+00 -0.10741524398E+04  0.20145282132E+04  0.17042653719E+04 0.  0.
        4    1    3    3  502    0  0.29505752685E+03 -0.65926221297E+03 -0.10715447539E+04  0.12922443198E+04  0.12699999809E+01 0. -1.
       -4    1    3    3    0  502 -0.29505752685E+03  0.65926221297E+03 -0.26076858430E+01  0.72228389331E+03  0.12699999809E+01 0.  1.
</event>
<event>
 5   0  0.7242144E-04  0.1655392E+04  0.7818609E-02  0.8787223E-01
       -2   -1    0    0    0  501  0.00000000000E+00  0.00000000000E+00  0.48018460060E+03  0.48018460060E+03  0.25500000920E-02 0.  1.
        2   -1    0    0  501    0  0.00000000000E+00  0.00000000000E+00 -0.14267026204E+04  0.14267026204E+04  0.25500000920E-02 0. -1.
    10030    2    1    2    0    0  0.00000000000E+00  0.00000000000E+00 -0.94651801977E+03  0.19068872210E+04  0.16553919511E+04 0.  0.
        3    1    3    3  502    0  0.47546725164E+03  0.21225275793E+03 -0.12144045569E+04  0.13213246303E+04  0.10100000352E+00 0. -1.
       -3    1    3    3    0  502 -0.47546725164E+03 -0.21225275793E+03  0.26788653712E+03  0.58556259068E+03  0.10100000352E+00 0.  1.
</event>
<event>
 5   0  0.3723500E-04  0.1611702E+04  0.7818609E-02  0.8813391E-01
        1   -1    0    0  501    0  0.00000000000E+00  0.00000000000E+00  0.70833009357E+03  0.70833009359E+03  0.50400001928E-02 0.  1.
       -1   -1    0    0    0  501  0.00000000000E+00  0.00000000000E+00 -0.91679875743E+03  0.91679875745E+03  0.50400001928E-02 0. -1.
    10030    2    1    2    0    0  0.00000000000E+00  0.00000000000E+00 -0.20846866387E+03  0.16251288510E+04  0.16117023915E+04 0.  0.
        1    1    3    3  502    0 -0.17379273182E+03 -0.14752262598E+03 -0.88360886942E+03  0.91254121713E+03  0.50400001928E-02 0. -1.
       -1    1    3    3    0  502  0.17379273182E+03  0.14752262598E+03  0.67514020556E+03  0.71258763391E+03  0.50400001928E-02 0.  1.
</event>
<event>
 5   0  0.7025426E-04  0.1745068E+04  0.7818609E-02  0.8736070E-01
        2   -1    0    0  501    0  0.00000000000E+00  0.00000000000E+00  0.16800203563E+04  0.16800203563E+04  0.25500000920E-02 0. -1.
       -2   -1    0    0    0  501  0.00000000000E+00  0.00000000000E+00 -0.45315859307E+03  0.45315859308E+03  0.25500000920E-02 0.  1.
    10030    2    1    2    0    0  0.00000000000E+00  0.00000000000E+00  0.12268617632E+04  0.21331789494E+04  0.17450680915E+04 0.  0.
        2    1    3    3  502    0  0.25099200441E+02  0.65825817562E+03 -0.85995841171E+02  0.66432603467E+03  0.25500000920E-02 0.  1.
       -2    1    3    3    0  502 -0.25099200441E+02 -0.65825817562E+03  0.13128576044E+04  0.14688529147E+04  0.25500000920E-02 0. -1.
</event>
<event>
 5   0  0.3723500E-04  0.1717983E+04  0.7818609E-02  0.8751174E-01
        1   -1    0    0  501    0  0.00000000000E+00  0.00000000000E+00  0.13393572363E+04  0.13393572363E+04  0.50400001928E-02 0. -1.
       -1   -1    0    0    0  501  0.00000000000E+00  0.00000000000E+00 -0.55091100730E+03  0.55091100733E+03  0.50400001928E-02 0.  1.
    10030    2    1    2    0    0  0.00000000000E+00  0.00000000000E+00  0.78844622899E+03  0.18902682436E+04  0.17179832877E+04 0.  0.
        1    1    3    3  502    0 -0.54805726738E+03 -0.64990785355E+03  0.25893006563E+03  0.88870229287E+03  0.50400001928E-02 0.  1.
       -1    1    3    3    0  502  0.54805726738E+03  0.64990785355E+03  0.52951616335E+03  0.10015659508E+04  0.50400001928E-02 0. -1.
</event>
<event>
 5   0  0.3915701E-04  0.1702243E+04  0.7818609E-02  0.8760086E-01
        1   -1    0    0  501    0  0.00000000000E+00  0.00000000000E+00  0.11292363389E+04  0.11292363389E+04  0.50400001928E-02 0.  1.
       -1   -1    0    0    0  501  0.00000000000E+00  0.00000000000E+00 -0.64150247888E+03  0.64150247890E+03  0.50400001928E-02 0. -1.
    10030    2    1    2    0    0  0.00000000000E+00  0.00000000000E+00  0.48773386003E+03  0.17707388178E+04  0.17022431209E+04 0.  0.
        2    1    3    3  502    0 -0.58763808365E+03 -0.50043938352E+03  0.61697746012E+03  0.98813930204E+03  0.25500000920E-02 0.  1.
       -2    1    3    3    0  502  0.58763808365E+03  0.50043938352E+03 -0.12924360009E+03  0.78259951578E+03  0.25500000920E-02 0. -1.
</event>
<event>
 5   0  0.6746664E-04  0.1702941E+04  0.7818609E-02  0.8759689E-01
        2   -1    0    0  501    0  0.00000000000E+00  0.00000000000E+00  0.12594388740E+04  0.12594388740E+04  0.25500000920E-02 0.  1.
       -2   -1    0    0    0  501  0.00000000000E+00  0.00000000000E+00 -0.57565465461E+03  0.57565465462E+03  0.25500000920E-02 0. -1.
    10030    2    1    2    0    0  0.00000000000E+00  0.00000000000E+00  0.68378421939E+03  0.18350935286E+04  0.17029408093E+04 0.  0.
        5    1    3    3  502    0  0.17594730967E+03 -0.66315225440E+03 -0.20147121313E+03  0.71508118980E+03  0.46999998093E+01 0. -1.
       -5    1    3    3    0  502 -0.17594730967E+03  0.66315225440E+03  0.88525543252E+03  0.11200123388E+04  0.46999998093E+01 0.  1.
</event>
<event>
 5   0  0.3723500E-04  0.1666568E+04  0.7818609E-02  0.8780665E-01
        1   -1    0    0  501    0  0.00000000000E+00  0.00000000000E+00  0.10798444740E+04  0.10798444740E+04  0.50400001928E-02 0.  1.
       -1   -1    0    0    0  501  0.00000000000E+00  0.00000000000E+00 -0.64302063355E+03  0.64302063357E+03  0.50400001928E-02 0. -1.
    10030    2    1    2    0    0  0.00000000000E+00  0.00000000000E+00  0.43682384040E+03  0.17228651075E+04  0.16665680638E+04 0.  0.
        1    1    3    3  502    0 -0.66456814778E+02 -0.11249710890E+03  0.10691886574E+04  0.10771427449E+04  0.50400001928E-02 0.  1.
       -1    1    3    3    0  502  0.66456814778E+02  0.11249710890E+03 -0.63236481703E+03  0.64572236262E+03  0.50400001928E-02 0. -1.
</event>
<event>
 5   0  0.7049044E-04  0.1743587E+04  0.7818609E-02  0.8736888E-01
        2   -1    0    0  501    0  0.00000000000E+00  0.00000000000E+00  0.15139598301E+04  0.15139598301E+04  0.25500000920E-02 0.  1.
       -2   -1    0    0    0  501  0.00000000000E+00  0.00000000000E+00 -0.50201050489E+03  0.50201050490E+03  0.25500000920E-02 0. -1.
    10030    2    1    2    0    0  0.00000000000E+00  0.00000000000E+00  0.10119493252E+04  0.20159703350E+04  0.17435868074E+04 0.  0.
        4    1    3    3  502    0 -0.13031222443E+03 -0.61400714583E+03  0.12054984827E+04  0.13591226051E+04  0.12699999809E+01 0.  1.
       -4    1    3    3    0  502  0.13031222443E+03  0.61400714583E+03 -0.19354915752E+03  0.65684772988E+03  0.12699999809E+01 0. -1.
</event>
<event>
 5   0  0.2639750E-04  0.1604308E+04  0.7818609E-02  0.8817906E-01
        3   -1    0    0  501    0  0.00000000000E+00  0.00000000000E+00  0.13669539159E+04  0.13669539196E+04  0.10100000352E+00 0. -1.
       -3   -1    0    0    0  501  0.00000000000E+00  0.00000000000E+00 -0.47071874628E+03  0.47071875712E+03  0.10100000352E+00 0.  1.
    10030    2    1    2    0    0  0.00000000000E+00  0.00000000000E+00  0.89623516959E+03  0.18376726767E+04  0.16043077596E+04 0.  0.
        2    1    3    3  502    0 -0.11202803367E+03  0.53046479527E+03 -0.22906975136E+03  0.58857126191E+03  0.25500000920E-02 0.  1.
       -2    1    3    3    0  502  0.11202803367E+03 -0.53046479527E+03  0.11253049209E+04  0.12491014148E+04  0.25500000920E-02 0. -1.
</event>
<event>
 5   0  0.7242144E-04  0.1696538E+04  0.7818609E-02  0.8763341E-01
        2   -1    0    0  501    0  0.00000000000E+00  0.00000000000E+00  0.13481411352E+04  0.13481411352E+04  0.25500000920E-02 0.  1.
       -2   -1    0    0    0  501  0.00000000000E+00  0.00000000000E+00 -0.53374262404E+03  0.53374262404E+03  0.25500000920E-02 0. -1.
    10030    2    1    2    0    0  0.00000000000E+00  0.00000000000E+00  0.81439851117E+03  0.18818837593E+04  0.16965381070E+04 0.  0.
        3    1    3    3  502    0  0.20294795461E+03  0.18119098776E+03 -0.48403431748E+03  0.55525424539E+03  0.10100000352E+00 0. -1.
       -3    1    3    3    0  502 -0.20294795461E+03 -0.18119098776E+03  0.12984328287E+04  0.13266295139E+04  0.10100000352E+00 0.  1.
</event>
<event>
 5   0  0.7242144E-04  0.1688823E+04  0.7818609E-02  0.8767765E-01
        2   -1    0    0  501    0  0.00000000000E+00  0.00000000000E+00  0.22976051059E+04  0.22976051059E+04  0.25500000920E-02 0. -1.
       -2   -1    0    0    0  501  0.00000000000E+00  0.00000000000E+00 -0.31033641872E+03  0.31033641873E+03  0.25500000920E-02 0.  1.
    10030    2    1    2    0    0  0.00000000000E+00  0.00000000000E+00  0.19872686872E+04  0.26079415247E+04  0.16888227145E+04 0.  0.
        3    1    3    3  502    0  0.29882748833E+03  0.43844031269E+02  0.22113412403E+04  0.22318714699E+04  0.10100000352E+00 0. -1.
       -3    1    3    3    0  502 -0.29882748833E+03 -0.43844031269E+02 -0.22407255308E+03  0.37607005478E+03  0.10100000352E+00 0.  1.
</event>
<event>
 5   0  0.3635143E-04  0.1272682E+04  0.7818609E-02  0.9051513E-01
        1   -1    0    0  501    0  0.00000000000E+00  0.00000000000E+00  0.63715274225E+03  0.63715274227E+03  0.50400001928E-02 0.  1.
       -1   -1    0    0    0  501  0.00000000000E+00  0.00000000000E+00 -0.63553043093E+03  0.63553043095E+03  0.50400001928E-02 0. -1.
    10030    2    1    2    0    0  0.00000000000E+00  0.00000000000E+00  0.16223113152E+01  0.12726831732E+04  0.12726821392E+04 0.  0.
        3    1    3    3  502    0 -0.13781295711E+03 -0.30509481368E+03  0.54197209850E+03  0.63703141385E+03  0.10100000352E+00 0.  1.
       -3    1    3    3    0  502  0.13781295711E+03  0.30509481368E+03 -0.54034978718E+03  0.63565175937E+03  0.10100000352E+00 0. -1.
</event>
<event>
 5   0  0.7025426E-04  0.1671439E+04  0.7818609E-02  0.8777823E-01
        2   -1    0    0  501    0  0.00000000000E+00  0.00000000000E+00  0.72105194537E+03  0.72105194537E+03  0.25500000920E-02 0.  1.
       -2   -1    0    0    0  501  0.00000000000E+00  0.00000000000E+00 -0.96862256527E+03  0.96862256528E+03  0.25500000920E-02 0. -1.
    10030    2    1    2    0    0  0.00000000000E+00  0.00000000000E+00 -0.24757061990E+03  0.16896745107E+04  0.16714391225E+04 0.  0.
        2    1    3    3  502    0 -0.28778285011E+03  0.62541649812E+03  0.35515821908E+03  0.77466258817E+03  0.25500000920E-02 0.  1.
       -2    1    3    3    0  502  0.28778285011E+03 -0.62541649812E+03 -0.60272883898E+03  0.91501192248E+03  0.25500000920E-02 0. -1.
</event>
<event>
 5   0  0.7049044E-04  0.1703859E+04  0.7818609E-02  0.8759167E-01
       -2   -1    0    0    0  501  0.00000000000E+00  0.00000000000E+00  0.10017590118E+04  0.10017590119E+04  0.25500000920E-02 0. -1.
        2   -1    0    0  501    0  0.00000000000E+00  0.00000000000E+00 -0.72450903069E+03  0.72450903069E+03  0.25500000920E-02 0.  1.
    10030    2    1    2    0    0  0.00000000000E+00  0.00000000000E+00  0.27724998116E+03  0.17262680425E+04  0.17038585043E+04 0.  0.
        4    1    3    3  502    0  0.75168367593E+03 -0.13787569259E+03  0.52006541193E+03  0.92439585722E+03  0.12699999809E+01 0. -1.
       -4    1    3    3    0  502 -0.75168367593E+03  0.13787569259E+03 -0.24281543076E+03  0.80187218532E+03  0.12699999809E+01 0.  1.
</event>
<event>
 5   0  0.7049044E-04  0.1679289E+04  0.7818609E-02  0.8773266E-01
        2   -1    0    0  501    0  0.00000000000E+00  0.00000000000E+00  0.85035343401E+03  0.85035343401E+03  0.25500000920E-02 0. -1.
       -2   -1    0    0    0  501  0.00000000000E+00  0.00000000000E+00 -0.82907031403E+03  0.82907031403E+03  0.25500000920E-02 0.  1.
    10030    2    1    2    0    0  0.00000000000E+00  0.00000000000E+00  0.21283119983E+02  0.16794237480E+04  0.16792888835E+04 0.  0.
        4    1    3    3  502    0  0.20189504854E+02  0.68444756931E+03  0.49660762115E+03  0.84587045907E+03  0.12699999809E+01 0. -1.
       -4    1    3    3    0  502 -0.20189504854E+02 -0.68444756931E+03 -0.47532450117E+03  0.83355328897E+03  0.12699999809E+01 0.  1.
</event>
<event>
 5   0  0.3803253E-04  0.1732601E+04  0.7818609E-02  0.8742986E-01
        1   -1    0    0  501    0  0.00000000000E+00  0.00000000000E+00  0.99846657570E+03  0.99846657572E+03  0.50400001928E-02 0.  1.
       -1   -1    0    0    0  501  0.00000000000E+00  0.00000000000E+00 -0.75162882931E+03  0.75162882933E+03  0.50400001928E-02 0. -1.
    10030    2    1    2    0    0  0.00000000000E+00  0.00000000000E+00  0.24683774639E+03  0.17500954050E+04  0.17326006619E+04 0.  0.
        4    1    3    3  502    0  0.28355640104E+03 -0.25350113548E+03 -0.66277671873E+03  0.76416074883E+03  0.12699999809E+01 0. -1.
       -4    1    3    3    0  502 -0.28355640104E+03  0.25350113548E+03  0.90961446512E+03  0.98593465621E+03  0.12699999809E+01 0.  1.
</event>
<event>
 5   0  0.3635143E-04  0.1698426E+04  0.7818609E-02  0.8762262E-01
       -1   -1    0    0    0  501  0.00000000000E+00  0.00000000000E+00  0.55517359982E+03  0.55517359985E+03  0.50400001928E-02 0.  1.
        1   -1    0    0  501    0  0.00000000000E+00  0.00000000000E+00 -0.12989865918E+04  0.12989865918E+04  0.50400001928E-02 0. -1.
    10030    2    1    2    0    0  0.00000000000E+00  0.00000000000E+00 -0.74381299200E+03  0.18541601917E+04  0.16984264039E+04 0.  0.
        3    1    3    3  502    0 -0.13801172960E+03 -0.43346674611E+03 -0.11547519124E+04  0.12411255564E+04  0.10100000352E+00 0. -1.
       -3    1    3    3    0  502  0.13801172960E+03  0.43346674611E+03  0.41093892039E+03  0.61303463523E+03  0.10100000352E+00 0.  1.
</event>
<event>
 5   0  0.3723500E-04  0.1652005E+04  0.7818609E-02  0.8789221E-01
       -1   -1    0    0    0  501  0.00000000000E+00  0.00000000000E+00  0.44146051692E+03  0.44146051695E+03  0.50400001928E-02 0.  1.
        1   -1    0    0  501    0  0.00000000000E+00  0.00000000000E+00 -0.15455070975E+04  0.15455070975E+04  0.50400001928E-02 0. -1.
    10030    2    1    2    0    0  0.00000000000E+00  0.00000000000E+00 -0.11040465806E+04  0.19869676145E+04  0.16520052811E+04 0.  0.
        1    1    3    3  502    0  0.42835403120E+03  0.11316336000E+02  0.29732116523E+03  0.52155067906E+03  0.50400001928E-02 0.  1.
       -1    1    3    3    0  502 -0.42835403120E+03 -0.11316336000E+02 -0.14013677459E+04  0.14654169354E+04  0.50400001928E-02 0. -1.
</event>
<event>
 5   0  0.3803253E-04  0.1706307E+04  0.7818609E-02  0.8757775E-01
       -1   -1    0    0    0  501  0.00000000000E+00  0.00000000000E+00  0.38950334857E+03  0.38950334860E+03  0.50400001928E-02 0.  1.
        1   -1    0    0  501    0  0.00000000000E+00  0.00000000000E+00 -0.18687156622E+04  0.18687156622E+04  0.50400001928E-02 0. -1.
    10030    2    1    2    0    0  0.00000000000E+00  0.00000000000E+00 -0.14792123137E+04  0.22582190108E+04  0.17063071330E+04 0.  0.
        4    1    3    3  502    0 -0.31386630411E+03 -0.49273446786E+03  0.83248199801E+02  0.59011116609E+03  0.12699999809E+01 0.  1.
       -4    1    3    3    0  502  0.31386630411E+03  0.49273446786E+03 -0.15624605135E+04  0.16681078447E+04  0.12699999809E+01 0. -1.
</event>
<event>
 5   0  0.3723500E-04  0.1730916E+04  0.7818609E-02  0.8743926E-01
       -1   -1    0    0    0  501  0.00000000000E+00  0.00000000000E+00  0.56587916817E+03  0.56587916819E+03  0.50400001928E-02 0. -1.
        1   -1    0    0  501    0  0.00000000000E+00  0.00000000000E+00 -0.13236349376E+04  0.13236349376E+04  0.50400001928E-02 0.  1.
    10030    2    1    2    0    0  0.00000000000E+00  0.00000000000E+00 -0.75775576941E+03  0.18895141058E+04  0.17309158703E+04 0.  0.
        1    1    3    3  502    0  0.19565207291E+03 -0.43509820464E+02  0.54019445529E+03  0.57617956199E+03  0.50400001928E-02 0. -1.
       -1    1    3    3    0  502 -0.19565207291E+03  0.43509820464E+02 -0.12979502247E+04  0.13133345438E+04  0.50400001928E-02 0.  1.
</event>
<event>
 5   0  0.7025426E-04  0.1726566E+04  0.7818609E-02  0.8746356E-01
        2   -1    0    0  501    0  0.00000000000E+00  0.00000000000E+00  0.11622622938E+04  0.11622622938E+04  0.25500000920E-02 0. -1.
       -2   -1    0    0    0  501  0.00000000000E+00  0.00000000000E+00 -0.64121298412E+03  0.64121298412E+03  0.25500000920E-02 0.  1.
    10030    2    1    2    0    0  0.00000000000E+00  0.00000000000E+00  0.52104930965E+03  0.18034752779E+04  0.17265661571E+04 0.  0.
        2    1    3    3  502    0 -0.49447136985E+03 -0.50837887995E+03 -0.25364878432E+03  0.75318571878E+03  0.25500000920E-02 0.  1.
       -2    1    3    3    0  502  0.49447136985E+03  0.50837887995E+03  0.77469809396E+03  0.10502895591E+04  0.25500000920E-02 0. -1.
</event>
<event>
 5   0  0.3803253E-04  0.1684595E+04  0.7818609E-02  0.8770199E-01
       -1   -1    0    0    0  501  0.00000000000E+00  0.00000000000E+00  0.30943532459E+03  0.30943532463E+03  0.50400001928E-02 0. -1.
        1   -1    0    0  501    0  0.00000000000E+00  0.00000000000E+00 -0.22927742473E+04  0.22927742473E+04  0.50400001928E-02 0.  1.
    10030    2    1    2    0    0  0.00000000000E+00  0.00000000000E+00 -0.19833389227E+04  0.26022095720E+04  0.16845953146E+04 0.  0.
        4    1    3    3  502    0 -0.17413383091E+03 -0.37102852203E+03  0.14500860761E+03  0.43475724768E+03  0.12699999809E+01 0. -1.
       -4    1    3    3    0  502  0.17413383091E+03  0.37102852203E+03 -0.21283475304E+04  0.21674523243E+04  0.12699999809E+01 0.  1.
</event>
<event>
 5   0  0.7025426E-04  0.1698978E+04  0.7818609E-02  0.8761947E-01
       -2   -1    0    0    0  501  0.00000000000E+00  0.00000000000E+00  0.10790514396E+04  0.10790514396E+04  0.25500000920E-02 0.  1.
        2   -1    0    0  501    0  0.00000000000E+00  0.00000000000E+00 -0.66876476257E+03  0.66876476257E+03  0.25500000920E-02 0. -1.
    10030    2    1    2    0    0  0.00000000000E+00  0.00000000000E+00  0.41028667707E+03  0.17478162022E+04  0.16989780220E+04 0.  0.
        2    1    3    3  502    0  0.54390497014E+03 -0.40907382057E+03 -0.31785779561E+03  0.75113752766E+03  0.25500000920E-02 0. -1.
       -2    1    3    3    0  502 -0.54390497014E+03  0.40907382057E+03  0.72814447268E+03  0.99667867456E+03  0.25500000920E-02 0.  1.
</event>
<event>
 5   0  0.3723500E-04  0.1709197E+04  0.7818609E-02  0.8756137E-01
        1   -1    0    0  501    0  0.00000000000E+00  0.00000000000E+00  0.14007184460E+04  0.14007184460E+04  0.50400001928E-02 0.  1.
       -1   -1    0    0    0  501  0.00000000000E+00  0.00000000000E+00 -0.52140260588E+03  0.52140260590E+03  0.50400001928E-02 0. -1.
    10030    2    1    2    0    0  0.00000000000E+00  0.00000000000E+00  0.87931584014E+03  0.19221210519E+04  0.17091965924E+04 0.  0.
        1    1    3    3  502    0  0.20241118406E+03  0.59702415954E+03 -0.20922337674E+03  0.66421574500E+03  0.50400001928E-02 0. -1.
       -1    1    3    3    0  502 -0.20241118406E+03 -0.59702415954E+03  0.10885392169E+04  0.12579053069E+04  0.50400001928E-02 0.  1.
</event>
<event>
 5   0  0.3635143E-04  0.1695128E+04  0.7818609E-02  0.8764148E-01
       -1   -1    0    0    0  501  0.00000000000E+00  0.00000000000E+00  0.49971980675E+03  0.49971980678E+03  0.50400001928E-02 0. -1.
        1   -1    0    0  501    0  0.00000000000E+00  0.00000000000E+00 -0.14375348066E+04  0.14375348066E+04  0.50400001928E-02 0.  1.
    10030    2    1    2    0    0  0.00000000000E+00  0.00000000000E+00 -0.93781499984E+03  0.19372546134E+04  0.16951278604E+04 0.  0.
        3    1    3    3  502    0  0.55866719713E+03  0.28653554768E+03  0.18176017267E+03  0.65364243116E+03  0.10100000352E+00 0. -1.
       -3    1    3    3    0  502 -0.55866719713E+03 -0.28653554768E+03 -0.11195751725E+04  0.12836121822E+04  0.10100000352E+00 0.  1.
</event>
<event>
 5   0  0.7025426E-04  0.1664671E+04  0.7818609E-02  0.8781774E-01
       -2   -1    0    0    0  501  0.00000000000E+00  0.00000000000E+00  0.10728250444E+04  0.10728250444E+04  0.25500000920E-02 0. -1.
        2   -1    0    0  501    0  0.00000000000E+00  0.00000000000E+00 -0.64575500577E+03  0.64575500577E+03  0.25500000920E-02 0.  1.
    10030    2    1    2    0    0  0.00000000000E+00  0.00000000000E+00  0.42707003860E+03  0.17185800501E+04  0.16646707094E+04 0.  0.
        2    1    3    3  502    0 -0.42828294244E+03 -0.25608252173E+03 -0.47420471977E+03  0.68838554094E+03  0.25500000920E-02 0.  1.
       -2    1    3    3    0  502  0.42828294244E+03  0.25608252173E+03  0.90127475836E+03  0.10301945092E+04  0.25500000920E-02 0. -1.
</event>
<event>
 5   0  0.7233728E-04  0.1643920E+04  0.7818609E-02  0.8794012E-01
       -2   -1    0    0    0  501  0.00000000000E+00  0.00000000000E+00  0.47279111503E+03  0.47279111503E+03  0.25500000920E-02 0.  1.
        2   -1    0    0  501    0  0.00000000000E+00  0.00000000000E+00 -0.14289985788E+04  0.14289985788E+04  0.25500000920E-02 0. -1.
    10030    2    1    2    0    0  0.00000000000E+00  0.00000000000E+00 -0.95620746375E+03  0.19017896938E+04  0.16439195010E+04 0.  0.
        1    1    3    3  502    0 -0.61219060679E+03 -0.53388783351E+02  0.15341012176E+03  0.63337379699E+03  0.50400001928E-02 0.  1.
       -1    1    3    3    0  502  0.61219060679E+03  0.53388783351E+02 -0.11096175855E+04  0.12684158968E+04  0.50400001928E-02 0. -1.
</event>
<event>
 5   0  0.6746664E-04  0.1696247E+04  0.7818609E-02  0.8763508E-01
       -2   -1    0    0    0  501  0.00000000000E+00  0.00000000000E+00  0.84753399657E+03  0.84753399657E+03  0.25500000920E-02 0.  1.
        2   -1    0    0  501    0  0.00000000000E+00  0.00000000000E+00 -0.84871301069E+03  0.84871301070E+03  0.25500000920E-02 0. -1.
    10030    2    1    2    0    0  0.00000000000E+00  0.00000000000E+00 -0.11790141233E+01  0.16962470073E+04  0.16962465975E+04 0.  0.
        5    1    3    3  502    0 -0.63501749757E+03  0.45077223793E+03 -0.33651846043E+03  0.84835699851E+03  0.46999998093E+01 0. -1.
       -5    1    3    3    0  502  0.63501749757E+03 -0.45077223793E+03  0.33533944630E+03  0.84789000876E+03  0.46999998093E+01 0.  1.
</event>
<event>
 5   0  0.3803253E-04  0.1646841E+04  0.7818609E-02  0.8792277E-01
       -1   -1    0    0    0  501  0.00000000000E+00  0.00000000000E+00  0.89272557907E+03  0.89272557909E+03  0.50400001928E-02 0. -1.
        1   -1    0    0  501    0  0.00000000000E+00  0.00000000000E+00 -0.75949602260E+03  0.75949602262E+03  0.50400001928E-02 0.  1.
    10030    2    1    2    0    0  0.00000000000E+00  0.00000000000E+00  0.13322955647E+03  0.16522216017E+04  0.16468412511E+04 0.  0.
        4    1    3    3  502    0 -0.76232893465E+03  0.31068192204E+03  0.85417738070E+02  0.82762700788E+03  0.12699999809E+01 0. -1.
       -4    1    3    3    0  502  0.76232893465E+03 -0.31068192204E+03  0.47811818405E+02  0.82459459383E+03  0.12699999809E+01 0.  1.
</event>
<event>
 5   0  0.3723500E-04  0.1674533E+04  0.7818609E-02  0.8776024E-01
        1   -1    0    0  501    0  0.00000000000E+00  0.00000000000E+00  0.23275841540E+04  0.23275841540E+04  0.50400001928E-02 0. -1.
       -1   -1    0    0    0  501  0.00000000000E+00  0.00000000000E+00 -0.30117712765E+03  0.30117712769E+03  0.50400001928E-02 0.  1.
    10030    2    1    2    0    0  0.00000000000E+00  0.00000000000E+00  0.20264070263E+04  0.26287612817E+04  0.16745329019E+04 0.  0.
        1    1    3    3  502    0 -0.35756573073E+03  0.74271601930E+03  0.78283261730E+03  0.11367969229E+04  0.50400001928E-02 0.  1.
       -1    1    3    3    0  502  0.35756573073E+03 -0.74271601930E+03  0.12435744090E+04  0.14919643588E+04  0.50400001928E-02 0. -1.
</event>
<event>
 5   0  0.3635143E-04  0.1685866E+04  0.7818609E-02  0.8769467E-01
        1   -1    0    0  501    0  0.00000000000E+00  0.00000000000E+00  0.89265359972E+03  0.89265359974E+03  0.50400001928E-02 0.  1.
       -1   -1    0    0    0  501  0.00000000000E+00  0.00000000000E+00 -0.79598215018E+03  0.79598215020E+03  0.50400001928E-02 0. -1.
    10030    2    1    2    0    0  0.00000000000E+00  0.00000000000E+00  0.96671449542E+02  0.16886357499E+04  0.16858663431E+04 0.  0.
        3    1    3    3  502    0  0.12846658433E+03  0.15903245803E+03  0.86744514971E+03  0.89121045997E+03  0.10100000352E+00 0.  1.
       -3    1    3    3    0  502 -0.12846658433E+03 -0.15903245803E+03 -0.77077370017E+03  0.79742528996E+03  0.10100000352E+00 0. -1.
</event>
<event>
 5   0  0.7242144E-04  0.1675551E+04  0.7818609E-02  0.8775433E-01
       -2   -1    0    0    0  501  0.00000000000E+00  0.00000000000E+00  0.42514922538E+03  0.42514922539E+03  0.25500000920E-02 0. -1.
        2   -1    0    0  501    0  0.00000000000E+00  0.00000000000E+00 -0.16508743822E+04  0.16508743822E+04  0.25500000920E-02 0.  1.
    10030    2    1    2    0    0  0.00000000000E+00  0.00000000000E+00 -0.12257251569E+04  0.20760236076E+04  0.16755512106E+04 0.  0.
        3    1    3    3  502    0  0.55712822142E+02  0.18546650747E+03  0.39703737014E+03  0.44174701746E+03  0.10100000352E+00 0. -1.
       -3    1    3    3    0  502 -0.55712822142E+02 -0.18546650747E+03 -0.16227625270E+04  0.16342765902E+04  0.10100000352E+00 0.  1.
</event>
<event>
 5   0  0.7025426E-04  0.1701411E+04  0.7818609E-02  0.8760560E-01
        2   -1    0    0  501    0  0.00000000000E+00  0.00000000000E+00  0.10214936977E+04  0.10214936977E+04  0.25500000920E-02 0.  1.
       -2   -1    0    0    0  501  0.00000000000E+00  0.00000000000E+00 -0.70847231840E+03  0.70847231840E+03  0.25500000920E-02 0. -1.
    10030    2    1    2    0    0  0.00000000000E+00  0.00000000000E+00  0.31302137926E+03  0.17299660161E+04  0.17014111886E+04 0.  0.
        2    1    3    3  502    0 -0.54821045702E+02  0.27032535694E+03 -0.66174311276E+03  0.71692753675E+03  0.25500000920E-02 0. -1.
       -2    1    3    3    0  502  0.54821045702E+02 -0.27032535694E+03  0.97476449202E+03  0.10130384793E+04  0.25500000920E-02 0.  1.
</event>
<event>
 5   0  0.2639750E-04  0.1704121E+04  0.7818609E-02  0.8759017E-01
        4   -1    0    0  501    0  0.00000000000E+00  0.00000000000E+00  0.61166257237E+03  0.61166389082E+03  0.12699999809E+01 0.  1.
       -4   -1    0    0    0  501  0.00000000000E+00  0.00000000000E+00 -0.11869380314E+04  0.11869387108E+04  0.12699999809E+01 0. -1.
    10030    2    1    2    0    0  0.00000000000E+00  0.00000000000E+00 -0.57527545904E+03  0.17986026017E+04  0.17041213176E+04 0.  0.
        1    1    3    3  502    0  0.31704603147E+03 -0.36192226468E+03 -0.10298335334E+04  0.11366894995E+04  0.50400001928E-02 0. -1.
       -1    1    3    3    0  502 -0.31704603147E+03  0.36192226468E+03  0.45455807440E+03  0.66191310213E+03  0.50400001928E-02 0.  1.
</event>
<event>
 5   0  0.3915701E-04  0.1698256E+04  0.7818609E-02  0.8762360E-01
       -1   -1    0    0    0  501  0.00000000000E+00  0.00000000000E+00  0.58506099827E+03  0.58506099830E+03  0.50400001928E-02 0. -1.
        1   -1    0    0  501    0  0.00000000000E+00  0.00000000000E+00 -0.12323811565E+04  0.12323811566E+04  0.50400001928E-02 0.  1.
    10030    2    1    2    0    0  0.00000000000E+00  0.00000000000E+00 -0.64732015827E+03  0.18174421548E+04  0.16982557519E+04 0.  0.
        2    1    3    3  502    0  0.56638997997E+03  0.18878259864E+03  0.32252201336E+03  0.67856976655E+03  0.25500000920E-02 0. -1.
       -2    1    3    3    0  502 -0.56638997997E+03 -0.18878259864E+03 -0.96984217163E+03  0.11388723883E+04  0.25500000920E-02 0.  1.
</event>
<event>
 5   0  0.7049044E-04  0.1536957E+04  0.7818609E-02  0.8860242E-01
       -2   -1    0    0    0  501  0.00000000000E+00  0.00000000000E+00  0.48558866669E+03  0.48558866670E+03  0.25500000920E-02 0. -1.
        2   -1    0    0  501    0  0.00000000000E+00  0.00000000000E+00 -0.12161717963E+04  0.12161717963E+04  0.25500000920E-02 0.  1.
    10030    2    1    2    0    0  0.00000000000E+00  0.00000000000E+00 -0.73058312965E+03  0.17017604630E+04  0.15369570470E+04 0.  0.
        4    1    3    3  502    0 -0.72810800441E+03  0.99717914865E+02 -0.11654049012E+03  0.74408885718E+03  0.12699999809E+01 0.  1.
       -4    1    3    3    0  502  0.72810800441E+03 -0.99717914865E+02 -0.61404263952E+03  0.95767160587E+03  0.12699999809E+01 0. -1.
</event>
<event>
 5   0  0.3635143E-04  0.1455889E+04  0.7818609E-02  0.8914328E-01
        1   -1    0    0  501    0  0.00000000000E+00  0.00000000000E+00  0.85430942393E+03  0.85430942394E+03  0.50400001928E-02 0. -1.
       -1   -1    0    0    0  501  0.00000000000E+00  0.00000000000E+00 -0.62027043267E+03  0.62027043269E+03  0.50400001928E-02 0.  1.
    10030    2    1    2    0    0  0.00000000000E+00  0.00000000000E+00  0.23403899126E+03  0.14745798566E+04  0.14558885617E+04 0.  0.
        3    1    3    3  502    0 -0.56139574417E+03  0.32522901151E+03 -0.21731503382E+03  0.68422578556E+03  0.10100000352E+00 0. -1.
       -3    1    3    3    0  502  0.56139574417E+03 -0.32522901151E+03  0.45135402508E+03  0.79035407107E+03  0.10100000352E+00 0.  1.
</event>
<event>
 5   0  0.7233728E-04  0.1713313E+04  0.7818609E-02  0.8753808E-01
       -2   -1    0    0    0  501  0.00000000000E+00  0.00000000000E+00  0.51579262354E+03  0.51579262354E+03  0.25500000920E-02 0. -1.
        2   -1    0    0  501    0  0.00000000000E+00  0.00000000000E+00 -0.14227823566E+04  0.14227823566E+04  0.25500000920E-02 0.  1.
    10030    2    1    2    0    0  0.00000000000E+00  0.00000000000E+00 -0.90698973310E+03  0.19385749802E+04  0.17133133332E+04 0.  0.
        1    1    3    3  502    0  0.82769948344E+03 -0.21930022181E+03 -0.48303535612E+03  0.98310842610E+03  0.50400001928E-02 0.  1.
       -1    1    3    3    0  502 -0.82769948344E+03  0.21930022181E+03 -0.42395437698E+03  0.95546655408E+03  0.50400001928E-02 0. -1.
</event>
<event>
 5   0  0.2639750E-04  0.1543753E+04  0.7818609E-02  0.8855868E-01
       -4   -1    0    0    0  501  0.00000000000E+00  0.00000000000E+00  0.12510093986E+04  0.12510100432E+04  0.12699999809E+01 0. -1.
        4   -1    0    0  501    0  0.00000000000E+00  0.00000000000E+00 -0.47624832863E+03  0.47625002197E+03  0.12699999809E+01 0.  1.
    10030    2    1    2    0    0  0.00000000000E+00  0.00000000000E+00  0.77476106997E+03  0.17272600652E+04  0.15437527708E+04 0.  0.
        5    1    3    3  502    0 -0.60912664337E+03 -0.18570811774E+03 -0.10064254880E+03  0.64472768305E+03  0.46999998093E+01 0.  1.
       -5    1    3    3    0  502  0.60912664337E+03  0.18570811774E+03  0.87540361877E+03  0.10825323822E+04  0.46999998093E+01 0. -1.
</event>
<event>
 5   0  0.3803253E-04  0.1646814E+04  0.7818609E-02  0.8792294E-01
       -1   -1    0    0    0  501  0.00000000000E+00  0.00000000000E+00  0.62687027598E+03  0.62687027600E+03  0.50400001928E-02 0.  1.
        1   -1    0    0  501    0  0.00000000000E+00  0.00000000000E+00 -0.10815615258E+04  0.10815615258E+04  0.50400001928E-02 0. -1.
    10030    2    1    2    0    0  0.00000000000E+00  0.00000000000E+00 -0.45469124985E+03  0.17084318018E+04  0.16468136169E+04 0.  0.
        4    1    3    3  502    0  0.47252425635E+03 -0.23145082991E+03  0.42971551666E+03  0.67934210650E+03  0.12699999809E+01 0.  1.
       -4    1    3    3    0  502 -0.47252425635E+03  0.23145082991E+03 -0.88440676651E+03  0.10290896953E+04  0.12699999809E+01 0. -1.
</event>
<event>
 5   0  0.7049044E-04  0.1664996E+04  0.7818609E-02  0.8781584E-01
       -2   -1    0    0    0  501  0.00000000000E+00  0.00000000000E+00  0.43375119624E+03  0.43375119625E+03  0.25500000920E-02 0.  1.
        2   -1    0    0  501    0  0.00000000000E+00  0.00000000000E+00 -0.15978127757E+04  0.15978127757E+04  0.25500000920E-02 0. -1.
    10030    2    1    2    0    0  0.00000000000E+00  0.00000000000E+00 -0.11640615794E+04  0.20315639719E+04  0.16649963397E+04 0.  0.
        4    1    3    3  502    0  0.38516479567E+03  0.66605622224E+03 -0.19412547614E+03  0.79351693390E+03  0.12699999809E+01 0.  1.
       -4    1    3    3    0  502 -0.38516479567E+03 -0.66605622224E+03 -0.96993610330E+03  0.12380470380E+04  0.12699999809E+01 0. -1.
</event>
<event>
 5   0  0.7025426E-04  0.1773838E+04  0.7818609E-02  0.8720337E-01
        2   -1    0    0  501    0  0.00000000000E+00  0.00000000000E+00  0.59921663451E+03  0.59921663452E+03  0.25500000920E-02 0.  1.
       -2   -1    0    0    0  501  0.00000000000E+00  0.00000000000E+00 -0.13127555180E+04  0.13127555180E+04  0.25500000920E-02 0. -1.
    10030    2    1    2    0    0  0.00000000000E+00  0.00000000000E+00 -0.71353888353E+03  0.19119721526E+04  0.17738375838E+04 0.  0.
        2    1    3    3  502    0  0.66135721697E+03  0.57333579104E+03 -0.20237506686E+03  0.89836683233E+03  0.25500000920E-02 0. -1.
       -2    1    3    3    0  502 -0.66135721697E+03 -0.57333579104E+03 -0.51116381666E+03  0.10136053202E+04  0.25500000920E-02 0.  1.
</event>
<event>
 5   0  0.3713516E-04  0.1737964E+04  0.7818609E-02  0.8740004E-01
       -1   -1    0    0    0  501  0.00000000000E+00  0.00000000000E+00  0.13073489401E+04  0.13073489401E+04  0.50400001928E-02 0.  1.
        1   -1    0    0  501    0  0.00000000000E+00  0.00000000000E+00 -0.57760373041E+03  0.57760373043E+03  0.50400001928E-02 0. -1.
    10030    2    1    2    0    0  0.00000000000E+00  0.00000000000E+00  0.72974520971E+03  0.18849526706E+04  0.17379638947E+04 0.  0.
        5    1    3    3  502    0  0.18511635626E+03  0.19077845263E+03  0.12621533730E+04  0.12898518172E+04  0.46999998093E+01 0.  1.
       -5    1    3    3    0  502 -0.18511635626E+03 -0.19077845263E+03 -0.53240816329E+03  0.59510085337E+03  0.46999998093E+01 0. -1.
</event>
<event>
 5   0  0.6746664E-04  0.1686649E+04  0.7818609E-02  0.8769016E-01
       -2   -1    0    0    0  501  0.00000000000E+00  0.00000000000E+00  0.52435000441E+03  0.52435000442E+03  0.25500000920E-02 0. -1.
        2   -1    0    0  501    0  0.00000000000E+00  0.00000000000E+00 -0.13563393958E+04  0.13563393958E+04  0.25500000920E-02 0.  1.
    10030    2    1    2    0    0  0.00000000000E+00  0.00000000000E+00 -0.83198939134E+03  0.18806894002E+04  0.16866494220E+04 0.  0.
        5    1    3    3  502    0  0.18053145288E+03  0.30585546973E+03  0.43687619611E+03  0.56304713352E+03  0.46999998093E+01 0. -1.
       -5    1    3    3    0  502 -0.18053145288E+03 -0.30585546973E+03 -0.12688655875E+04  0.13176422666E+04  0.46999998093E+01 0.  1.
</event>
<event>
 5   0  0.7025426E-04  0.1708422E+04  0.7818609E-02  0.8756576E-01
        2   -1    0    0  501    0  0.00000000000E+00  0.00000000000E+00  0.10940124007E+04  0.10940124007E+04  0.25500000920E-02 0.  1.
       -2   -1    0    0    0  501  0.00000000000E+00  0.00000000000E+00 -0.66697270395E+03  0.66697270396E+03  0.25500000920E-02 0. -1.
    10030    2    1    2    0    0  0.00000000000E+00  0.00000000000E+00  0.42703969673E+03  0.17609851046E+04  0.17084219725E+04 0.  0.
        2    1    3    3  502    0  0.29387546174E+03  0.66715997561E+03 -0.24538708307E+03  0.76920741066E+03  0.25500000920E-02 0.  1.
       -2    1    3    3    0  502 -0.29387546174E+03 -0.66715997561E+03  0.67242677980E+03  0.99177769398E+03  0.25500000920E-02 0. -1.
</event>
<event>
 5   0  0.6746664E-04  0.1678931E+04  0.7818609E-02  0.8773473E-01
        2   -1    0    0  501    0  0.00000000000E+00  0.00000000000E+00  0.14592538605E+04  0.14592538605E+04  0.25500000920E-02 0. -1.
       -2   -1    0    0    0  501  0.00000000000E+00  0.00000000000E+00 -0.48291942905E+03  0.48291942906E+03  0.25500000920E-02 0.  1.
    10030    2    1    2    0    0  0.00000000000E+00  0.00000000000E+00  0.97633443147E+03  0.19421732896E+04  0.16789306611E+04 0.  0.
        5    1    3    3  502    0  0.21723843735E+03  0.17328276451E+03  0.14044898428E+04  0.14317238783E+04  0.46999998093E+01 0. -1.
       -5    1    3    3    0  502 -0.21723843735E+03 -0.17328276451E+03 -0.42815541138E+03  0.51044941124E+03  0.46999998093E+01 0.  1.
</event>
<event>
 5   0  0.3635143E-04  0.1686221E+04  0.7818609E-02  0.8769263E-01
        1   -1    0    0  501    0  0.00000000000E+00  0.00000000000E+00  0.71567285162E+03  0.71567285164E+03  0.50400001928E-02 0.  1.
       -1   -1    0    0    0  501  0.00000000000E+00  0.00000000000E+00 -0.99324002681E+03  0.99324002683E+03  0.50400001928E-02 0. -1.
    10030    2    1    2    0    0  0.00000000000E+00  0.00000000000E+00 -0.27756717520E+03  0.17089128785E+04  0.16862205340E+04 0.  0.
        3    1    3    3  502    0  0.43153368100E+03  0.72223387489E+03 -0.19421725228E+03  0.86346015493E+03  0.10100000352E+00 0. -1.
       -3    1    3    3    0  502 -0.43153368100E+03 -0.72223387489E+03 -0.83349922917E+02  0.84545272353E+03  0.10100000352E+00 0.  1.
</event>
<event>
 5   0  0.7233728E-04  0.1692285E+04  0.7818609E-02  0.8765777E-01
       -2   -1    0    0    0  501  0.00000000000E+00  0.00000000000E+00  0.52360964862E+03  0.52360964862E+03  0.25500000920E-02 0. -1.
        2   -1    0    0  501    0  0.00000000000E+00  0.00000000000E+00 -0.13673492955E+04  0.13673492955E+04  0.25500000920E-02 0.  1.
    10030    2    1    2    0    0  0.00000000000E+00  0.00000000000E+00 -0.84373964685E+03  0.18909589441E+04  0.16922851818E+04 0.  0.
        1    1    3    3  502    0  0.47543062318E+03 -0.67654617154E+03 -0.62240582182E+03  0.10349579734E+04  0.50400001928E-02 0.  1.
       -1    1    3    3    0  502 -0.47543062318E+03  0.67654617154E+03 -0.22133382503E+03  0.85600097068E+03  0.50400001928E-02 0. -1.
</event>
<event>
 5   0  0.3635143E-04  0.1737801E+04  0.7818609E-02  0.8740094E-01
       -1   -1    0    0    0  501  0.00000000000E+00  0.00000000000E+00  0.36457533117E+03  0.36457533121E+03  0.50400001928E-02 0. -1.
        1   -1    0    0  501    0  0.00000000000E+00  0.00000000000E+00 -0.20708690219E+04  0.20708690219E+04  0.50400001928E-02 0.  1.
    10030    2    1    2    0    0  0.00000000000E+00  0.00000000000E+00 -0.17062936907E+04  0.24354443531E+04  0.17378006324E+04 0.  0.
        3    1    3    3  502    0  0.37959499559E+03 -0.41338182211E+03 -0.17827764735E+04  0.18690288538E+04  0.10100000352E+00 0.  1.
       -3    1    3    3    0  502 -0.37959499559E+03  0.41338182211E+03  0.76482782867E+02  0.56641549926E+03  0.10100000352E+00 0. -1.
</event>
<event>
 5   0  0.7025426E-04  0.1647836E+04  0.7818609E-02  0.8791688E-01
       -2   -1    0    0    0  501  0.00000000000E+00  0.00000000000E+00  0.68492765753E+03  0.68492765754E+03  0.25500000920E-02 0.  1.
        2   -1    0    0  501    0  0.00000000000E+00  0.00000000000E+00 -0.99111276458E+03  0.99111276458E+03  0.25500000920E-02 0. -1.
    10030    2    1    2    0    0  0.00000000000E+00  0.00000000000E+00 -0.30618510705E+03  0.16760404221E+04  0.16478356037E+04 0.  0.
        2    1    3    3  502    0  0.33030817103E+03  0.44628675615E+03  0.46606748018E+03  0.72490982380E+03  0.25500000920E-02 0. -1.
       -2    1    3    3    0  502 -0.33030817103E+03 -0.44628675615E+03 -0.77225258722E+03  0.95113059831E+03  0.25500000920E-02 0.  1.
</event>
<event>
 5   0  0.7242144E-04  0.1712334E+04  0.7818609E-02  0.8754361E-01
        2   -1    0    0  501    0  0.00000000000E+00  0.00000000000E+00  0.15501755351E+04  0.15501755351E+04  0.25500000920E-02 0. -1.
       -2   -1    0    0    0  501  0.00000000000E+00  0.00000000000E+00 -0.47286400962E+03  0.47286400963E+03  0.25500000920E-02 0.  1.
    10030    2    1    2    0    0  0.00000000000E+00  0.00000000000E+00  0.10773115254E+04  0.20230395447E+04  0.17123343355E+04 0.  0.
        3    1    3    3  502    0  0.57756781287E+02 -0.11029578056E+03 -0.46211169946E+03  0.47858984316E+03  0.10100000352E+00 0.  1.
       -3    1    3    3    0  502 -0.57756781287E+02  0.11029578056E+03  0.15394232249E+04  0.15444497015E+04  0.10100000352E+00 0. -1.
</event>
<event>
 5   0  0.7233728E-04  0.1709372E+04  0.7818609E-02  0.8756037E-01
        2   -1    0    0  501    0  0.00000000000E+00  0.00000000000E+00  0.86287254359E+03  0.86287254360E+03  0.25500000920E-02 0.  1.
       -2   -1    0    0    0  501  0.00000000000E+00  0.00000000000E+00 -0.84657720454E+03  0.84657720455E+03  0.25500000920E-02 0. -1.
    10030    2    1    2    0    0  0.00000000000E+00  0.00000000000E+00  0.16295339050E+02  0.17094497481E+04  0.17093720787E+04 0.  0.
        1    1    3    3  502    0  0.78397391767E+02 -0.67218204486E+03  0.53019952377E+03  0.85970133622E+03  0.50400001928E-02 0.  1.
       -1    1    3    3    0  502 -0.78397391767E+02  0.67218204486E+03 -0.51390418472E+03  0.84974841192E+03  0.50400001928E-02 0. -1.
</event>
<event>
 5   0  0.6746664E-04  0.1204059E+04  0.7818609E-02  0.9109311E-01
       -2   -1    0    0    0  501  0.00000000000E+00  0.00000000000E+00  0.93111105332E+03  0.93111105332E+03  0.25500000920E-02 0.  1.
        2   -1    0    0  501    0  0.00000000000E+00  0.00000000000E+00 -0.38925472759E+03  0.38925472760E+03  0.25500000920E-02 0. -1.
    10030    2    1    2    0    0  0.00000000000E+00  0.00000000000E+00  0.54185632572E+03  0.13203657809E+04  0.12040587684E+04 0.  0.
        5    1    3    3  502    0  0.36107647790E+03 -0.11977218825E+01  0.79916375432E+03  0.87696205942E+03  0.46999998093E+01 0.  1.
       -5    1    3    3    0  502 -0.36107647790E+03  0.11977218825E+01 -0.25730742860E+03  0.44340372150E+03  0.46999998093E+01 0. -1.
</event>
<event>
 5   0  0.3803253E-04  0.1679958E+04  0.7818609E-02  0.8772878E-01
       -1   -1    0    0    0  501  0.00000000000E+00  0.00000000000E+00  0.39235340891E+03  0.39235340894E+03  0.50400001928E-02 0. -1.
        1   -1    0    0  501    0  0.00000000000E+00  0.00000000000E+00 -0.17982888498E+04  0.17982888498E+04  0.50400001928E-02 0.  1.
    10030    2    1    2    0    0  0.00000000000E+00  0.00000000000E+00 -0.14059354409E+04  0.21906422588E+04  0.16799580477E+04 0.  0.
        4    1    3    3  502    0  0.35805493473E+03 -0.22914351413E+03 -0.16476633190E+04  0.17016186741E+04  0.12699999809E+01 0.  1.
       -4    1    3    3    0  502 -0.35805493473E+03  0.22914351413E+03  0.24172787813E+03  0.48902358463E+03  0.12699999809E+01 0. -1.
</event>
<event>
 5   0  0.3713516E-04  0.1717476E+04  0.7818609E-02  0.8751459E-01
       -1   -1    0    0    0  501  0.00000000000E+00  0.00000000000E+00  0.66337962240E+03  0.66337962242E+03  0.50400001928E-02 0.  1.
        1   -1    0    0  501    0  0.00000000000E+00  0.00000000000E+00 -0.11116279181E+04  0.11116279181E+04  0.50400001928E-02 0. -1.
    10030    2    1    2    0    0  0.00000000000E+00  0.00000000000E+00 -0.44824829571E+03  0.17750075405E+04  0.17174764145E+04 0.  0.
        5    1    3    3  502    0 -0.10375881206E+03 -0.55567874867E+03  0.44395379910E+03  0.71879192298E+03  0.46999998093E+01 0.  1.
       -5    1    3    3    0  502  0.10375881206E+03  0.55567874867E+03 -0.89220209481E+03  0.10562156176E+04  0.46999998093E+01 0. -1.
</event>
<event>
 5   0  0.7049044E-04  0.1713378E+04  0.7818609E-02  0.8753771E-01
        2   -1    0    0  501    0  0.00000000000E+00  0.00000000000E+00  0.30558429001E+04  0.30558429001E+04  0.25500000920E-02 0. -1.
       -2   -1    0    0    0  501  0.00000000000E+00  0.00000000000E+00 -0.24016812456E+03  0.24016812458E+03  0.25500000920E-02 0.  1.
    10030    2    1    2    0    0  0.00000000000E+00  0.00000000000E+00  0.28156747755E+04  0.32960110246E+04  0.17133780182E+04 0.  0.
        4    1    3    3  502    0  0.50196192259E+03 -0.29686439902E+03  0.26150519354E+04  0.26792895478E+04  0.12699999809E+01 0. -1.
       -4    1    3    3    0  502 -0.50196192259E+03  0.29686439902E+03  0.20062284009E+03  0.61672147684E+03  0.12699999809E+01 0.  1.
</event>
<event>
 5   0  0.3803253E-04  0.1473006E+04  0.7818609E-02  0.8902604E-01
        1   -1    0    0  501    0  0.00000000000E+00  0.00000000000E+00  0.86065236501E+03  0.86065236503E+03  0.50400001928E-02 0. -1.
       -1   -1    0    0    0  501  0.00000000000E+00  0.00000000000E+00 -0.63026262136E+03  0.63026262138E+03  0.50400001928E-02 0.  1.
    10030    2    1    2    0    0  0.00000000000E+00  0.00000000000E+00  0.23038974365E+03  0.14909149864E+04  0.14730064707E+04 0.  0.
        4    1    3    3  502    0 -0.26626645864E+03 -0.34228494202E+03  0.71772943738E+03  0.83856661436E+03  0.12699999809E+01 0. -1.
       -4    1    3    3    0  502  0.26626645864E+03  0.34228494202E+03 -0.48733969373E+03  0.65234837205E+03  0.12699999809E+01 0.  1.
</event>
<event>
 5   0  0.3723500E-04  0.1729031E+04  0.7818609E-02  0.8744978E-01
       -1   -1    0    0    0  501  0.00000000000E+00  0.00000000000E+00  0.97792932417E+03  0.97792932418E+03  0.50400001928E-02 0.  1.
        1   -1    0    0  501    0  0.00000000000E+00  0.00000000000E+00 -0.76425438062E+03  0.76425438064E+03  0.50400001928E-02 0. -1.
    10030    2    1    2    0    0  0.00000000000E+00  0.00000000000E+00  0.21367494355E+03  0.17421837048E+04  0.17290306764E+04 0.  0.
        1    1    3    3  502    0  0.65624042150E+03  0.56277427518E+03  0.11138783164E+03  0.87164994389E+03  0.50400001928E-02 0.  1.
       -1    1    3    3    0  502 -0.65624042150E+03 -0.56277427518E+03  0.10228711191E+03  0.87053376092E+03  0.50400001928E-02 0. -1.
</event>
<event>
 5   0  0.7233728E-04  0.1596654E+04  0.7818609E-02  0.8822606E-01
       -2   -1    0    0    0  501  0.00000000000E+00  0.00000000000E+00  0.10592233660E+04  0.10592233660E+04  0.25500000920E-02 0.  1.
        2   -1    0    0  501    0  0.00000000000E+00  0.00000000000E+00 -0.60169207171E+03  0.60169207171E+03  0.25500000920E-02 0. -1.
    10030    2    1    2    0    0  0.00000000000E+00  0.00000000000E+00  0.45753129430E+03  0.16609154377E+04  0.15966543790E+04 0.  0.
        1    1    3    3  502    0 -0.79261893996E+02  0.71672297523E+03 -0.12758857552E+03  0.73229305315E+03  0.50400001928E-02 0. -1.
       -1    1    3    3    0  502  0.79261893996E+02 -0.71672297523E+03  0.58511986982E+03  0.92862238458E+03  0.50400001928E-02 0.  1.
</event>
<event>
 5   0  0.3713516E-04  0.1634606E+04  0.7818609E-02  0.8799566E-01
       -1   -1    0    0    0  501  0.00000000000E+00  0.00000000000E+00  0.62105891945E+03  0.62105891948E+03  0.50400001928E-02 0.  1.
        1   -1    0    0  501    0  0.00000000000E+00  0.00000000000E+00 -0.10755568064E+04  0.10755568064E+04  0.50400001928E-02 0. -1.
    10030    2    1    2    0    0  0.00000000000E+00  0.00000000000E+00 -0.45449788696E+03  0.16966157259E+04  0.16346059440E+04 0.  0.
        5    1    3    3  502    0 -0.44470921161E+02  0.64862844238E+03 -0.74127919688E+03  0.98600885230E+03  0.46999998093E+01 0. -1.
       -5    1    3    3    0  502  0.44470921161E+02 -0.64862844238E+03  0.28678130992E+03  0.71060687360E+03  0.46999998093E+01 0.  1.
</event>
<event>
 5   0  0.7049044E-04  0.1695510E+04  0.7818609E-02  0.8763929E-01
       -2   -1    0    0    0  501  0.00000000000E+00  0.00000000000E+00  0.62014991579E+03  0.62014991579E+03  0.25500000920E-02 0.  1.
        2   -1    0    0  501    0  0.00000000000E+00  0.00000000000E+00 -0.11588950364E+04  0.11588950364E+04  0.25500000920E-02 0. -1.
    10030    2    1    2    0    0  0.00000000000E+00  0.00000000000E+00 -0.53874512061E+03  0.17790449522E+04  0.16955101406E+04 0.  0.
        4    1    3    3  502    0 -0.22399905866E+03 -0.63347087004E+03 -0.81178043644E+03  0.10537789196E+04  0.12699999809E+01 0. -1.
       -4    1    3    3    0  502  0.22399905866E+03  0.63347087004E+03  0.27303531583E+03  0.72526603261E+03  0.12699999809E+01 0.  1.
</event>
<event>
 5   0  0.7233728E-04  0.1651844E+04  0.7818609E-02  0.8789317E-01
        2   -1    0    0  501    0  0.00000000000E+00  0.00000000000E+00  0.17250823774E+04  0.17250823774E+04  0.25500000920E-02 0.  1.
       -2   -1    0    0    0  501  0.00000000000E+00  0.00000000000E+00 -0.39542857655E+03  0.39542857656E+03  0.25500000920E-02 0. -1.
    10030    2    1    2    0    0  0.00000000000E+00  0.00000000000E+00  0.13296538009E+04  0.21205109540E+04  0.16518436596E+04 0.  0.
        1    1    3    3  502    0  0.46025492013E+03  0.12099793458E+03  0.15313849182E+04  0.16036255359E+04  0.50400001928E-02 0.  1.
       -1    1    3    3    0  502 -0.46025492013E+03 -0.12099793458E+03 -0.20173111735E+03  0.51688541807E+03  0.50400001928E-02 0. -1.
</event>
<event>
 5   0  0.7242144E-04  0.1702184E+04  0.7818609E-02  0.8760120E-01
       -2   -1    0    0    0  501  0.00000000000E+00  0.00000000000E+00  0.76043625675E+03  0.76043625675E+03  0.25500000920E-02 0.  1.
        2   -1    0    0  501    0  0.00000000000E+00  0.00000000000E+00 -0.95255535079E+03  0.95255535080E+03  0.25500000920E-02 0. -1.
    10030    2    1    2    0    0  0.00000000000E+00  0.00000000000E+00 -0.19211909404E+03  0.17129916076E+04  0.17021840386E+04 0.  0.
        3    1    3    3  502    0  0.58535376631E+03 -0.10917830088E+02  0.52559992339E+03  0.78677412287E+03  0.10100000352E+00 0.  1.
       -3    1    3    3    0  502 -0.58535376631E+03  0.10917830088E+02 -0.71771901744E+03  0.92621748468E+03  0.10100000352E+00 0. -1.
</event>
<event>
 5   0  0.7025426E-04  0.1735376E+04  0.7818609E-02  0.8741441E-01
       -2   -1    0    0    0  501  0.00000000000E+00  0.00000000000E+00  0.12042328746E+04  0.12042328746E+04  0.25500000920E-02 0. -1.
        2   -1    0    0  501    0  0.00000000000E+00  0.00000000000E+00 -0.62519662735E+03  0.62519662735E+03  0.25500000920E-02 0.  1.
    10030    2    1    2    0    0  0.00000000000E+00  0.00000000000E+00  0.57903624729E+03  0.18294295020E+04  0.17353758461E+04 0.  0.
        2    1    3    3  502    0 -0.27497106810E+03  0.56493658385E+03  0.92038301236E+03  0.11143910093E+04  0.25500000920E-02 0. -1.
       -2    1    3    3    0  502  0.27497106810E+03 -0.56493658385E+03 -0.34134676507E+03  0.71503849274E+03  0.25500000920E-02 0.  1.
</event>
<event>
 5   0  0.7233728E-04  0.1528652E+04  0.7818609E-02  0.8865620E-01
        2   -1    0    0  501    0  0.00000000000E+00  0.00000000000E+00  0.54977109727E+03  0.54977109728E+03  0.25500000920E-02 0. -1.
       -2   -1    0    0    0  501  0.00000000000E+00  0.00000000000E+00 -0.10626129181E+04  0.10626129181E+04  0.25500000920E-02 0.  1.
    10030    2    1    2    0    0  0.00000000000E+00  0.00000000000E+00 -0.51284182084E+03  0.16123840154E+04  0.15286515234E+04 0.  0.
        1    1    3    3  502    0  0.93439252176E+02 -0.70211926085E+03 -0.55936650592E+03  0.90254819166E+03  0.50400001928E-02 0.  1.
       -1    1    3    3    0  502 -0.93439252176E+02  0.70211926085E+03  0.46524685072E+02  0.70983582373E+03  0.50400001928E-02 0. -1.
</event>
<event>
 5   0  0.6746664E-04  0.1710317E+04  0.7818609E-02  0.8755502E-01
       -2   -1    0    0    0  501  0.00000000000E+00  0.00000000000E+00  0.66357763772E+03  0.66357763772E+03  0.25500000920E-02 0. -1.
        2   -1    0    0  501    0  0.00000000000E+00  0.00000000000E+00 -0.11020506207E+04  0.11020506207E+04  0.25500000920E-02 0.  1.
    10030    2    1    2    0    0  0.00000000000E+00  0.00000000000E+00 -0.43847298296E+03  0.17656282584E+04  0.17103171022E+04 0.  0.
        5    1    3    3  502    0  0.29292389968E+03  0.68172943178E+03  0.21961672624E+03  0.77383010125E+03  0.46999998093E+01 0. -1.
       -5    1    3    3    0  502 -0.29292389968E+03 -0.68172943178E+03 -0.65808970921E+03  0.99179815715E+03  0.46999998093E+01 0.  1.
</event>
<event>
 5   0  0.7025426E-04  0.1659217E+04  0.7818609E-02  0.8784973E-01
       -2   -1    0    0    0  501  0.00000000000E+00  0.00000000000E+00  0.37157503910E+03  0.37157503911E+03  0.25500000920E-02 0.  1.
        2   -1    0    0  501    0  0.00000000000E+00  0.00000000000E+00 -0.18522507139E+04  0.18522507139E+04  0.25500000920E-02 0. -1.
    10030    2    1    2    0    0  0.00000000000E+00  0.00000000000E+00 -0.14806756748E+04  0.22238257530E+04  0.16592168411E+04 0.  0.
        2    1    3    3  502    0  0.16727638779E+03  0.27499649326E+03  0.28447363129E+03  0.42956921226E+03  0.25500000920E-02 0.  1.
       -2    1    3    3    0  502 -0.16727638779E+03 -0.27499649326E+03 -0.17651493061E+04  0.17942565407E+04  0.25500000920E-02 0. -1.
</event>
<event>
 5   0  0.3635143E-04  0.1771884E+04  0.7818609E-02  0.8721396E-01
       -1   -1    0    0    0  501  0.00000000000E+00  0.00000000000E+00  0.55227997367E+03  0.55227997369E+03  0.50400001928E-02 0.  1.
        1   -1    0    0  501    0  0.00000000000E+00  0.00000000000E+00 -0.14211877096E+04  0.14211877096E+04  0.50400001928E-02 0. -1.
    10030    2    1    2    0    0  0.00000000000E+00  0.00000000000E+00 -0.86890773593E+03  0.19734676833E+04  0.17718843200E+04 0.  0.
        3    1    3    3  502    0 -0.15504728522E+03 -0.87031773071E+03 -0.36950212727E+03  0.95813592214E+03  0.10100000352E+00 0.  1.
       -3    1    3    3    0  502  0.15504728522E+03  0.87031773071E+03 -0.49940560866E+03  0.10153317612E+04  0.10100000352E+00 0. -1.
</event>
<event>
 5   0  0.3723500E-04  0.1676980E+04  0.7818609E-02  0.8774604E-01
       -1   -1    0    0    0  501  0.00000000000E+00  0.00000000000E+00  0.73568284562E+03  0.73568284564E+03  0.50400001928E-02 0.  1.
        1   -1    0    0  501    0  0.00000000000E+00  0.00000000000E+00 -0.95566369503E+03  0.95566369504E+03  0.50400001928E-02 0. -1.
    10030    2    1    2    0    0  0.00000000000E+00  0.00000000000E+00 -0.21998084941E+03  0.16913465407E+04  0.16769798885E+04 0.  0.
        1    1    3    3  502    0 -0.48848146232E+03  0.63363930797E+03 -0.36304322626E+03  0.87858596380E+03  0.50400001928E-02 0. -1.
       -1    1    3    3    0  502  0.48848146232E+03 -0.63363930797E+03  0.14306237685E+03  0.81276057688E+03  0.50400001928E-02 0.  1.
</event>
<event>
 5   0  0.7025426E-04  0.1683844E+04  0.7818609E-02  0.8770633E-01
        2   -1    0    0  501    0  0.00000000000E+00  0.00000000000E+00  0.76855633676E+03  0.76855633676E+03  0.25500000920E-02 0. -1.
       -2   -1    0    0    0  501  0.00000000000E+00  0.00000000000E+00 -0.92229121325E+03  0.92229121326E+03  0.25500000920E-02 0.  1.
    10030    2    1    2    0    0  0.00000000000E+00  0.00000000000E+00 -0.15373487650E+03  0.16908475500E+04  0.16838441214E+04 0.  0.
        2    1    3    3  502    0  0.43711628183E+03  0.22046427864E+03 -0.76466709080E+03  0.90795974677E+03  0.25500000920E-02 0.  1.
       -2    1    3    3    0  502 -0.43711628183E+03 -0.22046427864E+03  0.61093221430E+03  0.78288780325E+03  0.25500000920E-02 0. -1.
</event>
<event>
 5   0  0.6746664E-04  0.1702878E+04  0.7818609E-02  0.8759724E-01
        2   -1    0    0  501    0  0.00000000000E+00  0.00000000000E+00  0.15855206523E+04  0.15855206523E+04  0.25500000920E-02 0. -1.
       -2   -1    0    0    0  501  0.00000000000E+00  0.00000000000E+00 -0.45723068320E+03  0.45723068321E+03  0.25500000920E-02 0.  1.
    10030    2    1    2    0    0  0.00000000000E+00  0.00000000000E+00  0.11282899691E+04  0.20427513355E+04  0.17028783763E+04 0.  0.
        5    1    3    3  502    0 -0.60236437270E+03  0.25153916176E+03  0.12198835922E+04  0.13835652698E+04  0.46999998093E+01 0. -1.
       -5    1    3    3    0  502  0.60236437270E+03 -0.25153916176E+03 -0.91593623097E+02  0.65918606568E+03  0.46999998093E+01 0.  1.
</event>
<event>
 5   0  0.6746664E-04  0.1706167E+04  0.7818609E-02  0.8757855E-01
        2   -1    0    0  501    0  0.00000000000E+00  0.00000000000E+00  0.62132968880E+03  0.62132968881E+03  0.25500000920E-02 0.  1.
       -2   -1    0    0    0  501  0.00000000000E+00  0.00000000000E+00 -0.11712801813E+04  0.11712801813E+04  0.25500000920E-02 0. -1.
    10030    2    1    2    0    0  0.00000000000E+00  0.00000000000E+00 -0.54995049248E+03  0.17926098701E+04  0.17061666396E+04 0.  0.
        5    1    3    3  502    0 -0.54855247639E+03  0.15739668190E+02  0.41123983326E+03  0.68578265286E+03  0.46999998093E+01 0.  1.
       -5    1    3    3    0  502  0.54855247639E+03 -0.15739668190E+02 -0.96119032573E+03  0.11068272172E+04  0.46999998093E+01 0. -1.
</event>
<event>
 5   0  0.3803253E-04  0.1742332E+04  0.7818609E-02  0.8737582E-01
        1   -1    0    0  501    0  0.00000000000E+00  0.00000000000E+00  0.10174815994E+04  0.10174815994E+04  0.50400001928E-02 0. -1.
       -1   -1    0    0    0  501  0.00000000000E+00  0.00000000000E+00 -0.74589117994E+03  0.74589117996E+03  0.50400001928E-02 0.  1.
    10030    2    1    2    0    0  0.00000000000E+00  0.00000000000E+00  0.27159041949E+03  0.17633727794E+04  0.17423324032E+04 0.  0.
        4    1    3    3  502    0 -0.51657842588E+03  0.69930510243E+03  0.19167098470E+03  0.89029224170E+03  0.12699999809E+01 0.  1.
       -4    1    3    3    0  502  0.51657842588E+03 -0.69930510243E+03  0.79919434793E+02  0.87308053770E+03  0.12699999809E+01 0. -1.
</event>
<event>
 5   0  0.3713516E-04  0.1705786E+04  0.7818609E-02  0.8758071E-01
       -1   -1    0    0    0  501  0.00000000000E+00  0.00000000000E+00  0.56037232873E+03  0.56037232875E+03  0.50400001928E-02 0. -1.
        1   -1    0    0  501    0  0.00000000000E+00  0.00000000000E+00 -0.12981125097E+04  0.12981125097E+04  0.50400001928E-02 0.  1.
    10030    2    1    2    0    0  0.00000000000E+00  0.00000000000E+00 -0.73774018098E+03  0.18584848385E+04  0.17057858365E+04 0.  0.
        5    1    3    3  502    0  0.21433392857E+02 -0.37072420725E+03 -0.12053962405E+04  0.12613080571E+04  0.46999998093E+01 0.  1.
       -5    1    3    3    0  502 -0.21433392857E+02  0.37072420725E+03  0.46765605956E+03  0.59717678138E+03  0.46999998093E+01 0. -1.
</event>
<event>
 5   0  0.7233728E-04  0.1729649E+04  0.7818609E-02  0.8744633E-01
       -2   -1    0    0    0  501  0.00000000000E+00  0.00000000000E+00  0.30890051160E+03  0.30890051161E+03  0.25500000920E-02 0.  1.
        2   -1    0    0  501    0  0.00000000000E+00  0.00000000000E+00 -0.24212363002E+04  0.24212363002E+04  0.25500000920E-02 0. -1.
    10030    2    1    2    0    0  0.00000000000E+00  0.00000000000E+00 -0.21123357886E+04  0.27301368118E+04  0.17296486717E+04 0.  0.
        1    1    3    3  502    0 -0.23807873909E+03  0.82514912170E+03 -0.12168938452E+04  0.14894237777E+04  0.50400001928E-02 0.  1.
       -1    1    3    3    0  502  0.23807873909E+03 -0.82514912170E+03 -0.89544194348E+03  0.12407130342E+04  0.50400001928E-02 0. -1.
</event>
<event>
 5   0  0.7049044E-04  0.1712775E+04  0.7818609E-02  0.8754112E-01
       -2   -1    0    0    0  501  0.00000000000E+00  0.00000000000E+00  0.58626835753E+03  0.58626835754E+03  0.25500000920E-02 0.  1.
        2   -1    0    0  501    0  0.00000000000E+00  0.00000000000E+00 -0.12509614704E+04  0.12509614704E+04  0.25500000920E-02 0. -1.
    10030    2    1    2    0    0  0.00000000000E+00  0.00000000000E+00 -0.66469311285E+03  0.18372298279E+04  0.17127745054E+04 0.  0.
        4    1    3    3  502    0  0.20305658544E+03  0.19486171238E+03  0.53524781423E+03  0.60472712804E+03  0.12699999809E+01 0.  1.
       -4    1    3    3    0  502 -0.20305658544E+03 -0.19486171238E+03 -0.11999409271E+04  0.12325026999E+04  0.12699999809E+01 0. -1.
</event>
<event>
 5   0  0.7025426E-04  0.1699136E+04  0.7818609E-02  0.8761857E-01
       -2   -1    0    0    0  501  0.00000000000E+00  0.00000000000E+00  0.64534080093E+03  0.64534080094E+03  0.25500000920E-02 0. -1.
        2   -1    0    0  501    0  0.00000000000E+00  0.00000000000E+00 -0.11184256777E+04  0.11184256777E+04  0.25500000920E-02 0.  1.
    10030    2    1    2    0    0  0.00000000000E+00  0.00000000000E+00 -0.47308487675E+03  0.17637664786E+04  0.16991359247E+04 0.  0.
        2    1    3    3  502    0  0.45020403660E+03  0.51008342769E+01 -0.98440205450E+03  0.10824772968E+04  0.25500000920E-02 0.  1.
       -2    1    3    3    0  502 -0.45020403660E+03 -0.51008342769E+01  0.51131717774E+03  0.68128918187E+03  0.25500000920E-02 0. -1.
</event>
<event>
 5   0  0.7025426E-04  0.1578732E+04  0.7818609E-02  0.8833721E-01
        2   -1    0    0  501    0  0.00000000000E+00  0.00000000000E+00  0.22697131658E+04  0.22697131658E+04  0.25500000920E-02 0. -1.
       -2   -1    0    0    0  501  0.00000000000E+00  0.00000000000E+00 -0.27452763362E+03  0.27452763363E+03  0.25500000920E-02 0.  1.
    10030    2    1    2    0    0  0.00000000000E+00  0.00000000000E+00  0.19951855322E+04  0.25442407994E+04  0.15787323832E+04 0.  0.
        2    1    3    3  502    0 -0.34244042655E+03 -0.47760393172E+03  0.18468896814E+04  0.19381363359E+04  0.25500000920E-02 0. -1.
       -2    1    3    3    0  502  0.34244042655E+03  0.47760393172E+03  0.14829585079E+03  0.60610446352E+03  0.25500000920E-02 0.  1.
</event>
<event>
 5   0  0.2639750E-04  0.1719195E+04  0.7818609E-02  0.8750492E-01
        4   -1    0    0  501    0  0.00000000000E+00  0.00000000000E+00  0.95359414947E+03  0.95359499517E+03  0.12699999809E+01 0. -1.
       -4   -1    0    0    0  501  0.00000000000E+00  0.00000000000E+00 -0.77486457748E+03  0.77486561824E+03  0.12699999809E+01 0.  1.
    10030    2    1    2    0    0  0.00000000000E+00  0.00000000000E+00  0.17872957199E+03  0.17284606134E+04  0.17191951117E+04 0.  0.
        4    1    3    3  502    0  0.46990502265E+02 -0.21450554177E+03  0.92491878883E+03  0.95062985098E+03  0.12699999809E+01 0. -1.
       -4    1    3    3    0  502 -0.46990502265E+02  0.21450554177E+03 -0.74618921683E+03  0.77783076242E+03  0.12699999809E+01 0.  1.
</event>
<event>
 5   0  0.3635143E-04  0.1691026E+04  0.7818609E-02  0.8766499E-01
       -1   -1    0    0    0  501  0.00000000000E+00  0.00000000000E+00  0.31182258700E+03  0.31182258705E+03  0.50400001928E-02 0. -1.
        1   -1    0    0  501    0  0.00000000000E+00  0.00000000000E+00 -0.22926255515E+04  0.22926255515E+04  0.50400001928E-02 0.  1.
    10030    2    1    2    0    0  0.00000000000E+00  0.00000000000E+00 -0.19808029645E+04  0.26044481386E+04  0.16910262335E+04 0.  0.
        3    1    3    3  502    0  0.15604499074E+03 -0.31617385902E+03  0.19319438340E+03  0.40204480875E+03  0.10100000352E+00 0. -1.
       -3    1    3    3    0  502 -0.15604499074E+03  0.31617385902E+03 -0.21739973479E+04  0.22024033298E+04  0.10100000352E+00 0.  1.
</event>
<event>
 5   0  0.6746664E-04  0.1712491E+04  0.7818609E-02  0.8754272E-01
        2   -1    0    0  501    0  0.00000000000E+00  0.00000000000E+00  0.16933237767E+04  0.16933237767E+04  0.25500000920E-02 0.  1.
       -2   -1    0    0    0  501  0.00000000000E+00  0.00000000000E+00 -0.43296892686E+03  0.43296892687E+03  0.25500000920E-02 0. -1.
    10030    2    1    2    0    0  0.00000000000E+00  0.00000000000E+00  0.12603548499E+04  0.21262927036E+04  0.17124912595E+04 0.  0.
        5    1    3    3  502    0 -0.64343969159E+03  0.41198648314E+03  0.11100777819E+04  0.13476061260E+04  0.46999998093E+01 0.  1.
       -5    1    3    3    0  502  0.64343969159E+03 -0.41198648314E+03  0.15027706802E+03  0.77868657763E+03  0.46999998093E+01 0. -1.
</event>
<event>
 5   0  0.7233728E-04  0.1690209E+04  0.7818609E-02  0.8766968E-01
       -2   -1    0    0    0  501  0.00000000000E+00  0.00000000000E+00  0.32391954556E+03  0.32391954557E+03  0.25500000920E-02 0.  1.
        2   -1    0    0  501    0  0.00000000000E+00  0.00000000000E+00 -0.22048741887E+04  0.22048741887E+04  0.25500000920E-02 0. -1.
    10030    2    1    2    0    0  0.00000000000E+00  0.00000000000E+00 -0.18809546431E+04  0.25287937343E+04  0.16902092713E+04 0.  0.
        1    1    3    3  502    0  0.19609624110E+03  0.81938790845E+03 -0.10391724374E+04  0.13378077720E+04  0.50400001928E-02 0. -1.
       -1    1    3    3    0  502 -0.19609624110E+03 -0.81938790845E+03 -0.84178220576E+03  0.11909859622E+04  0.50400001928E-02 0.  1.
</event>
<event>
 5   0  0.3803253E-04  0.1197094E+04  0.7818609E-02  0.9115404E-01
        1   -1    0    0  501    0  0.00000000000E+00  0.00000000000E+00  0.56653724055E+03  0.56653724057E+03  0.50400001928E-02 0.  1.
       -1   -1    0    0    0  501  0.00000000000E+00  0.00000000000E+00 -0.63236500369E+03  0.63236500371E+03  0.50400001928E-02 0. -1.
    10030    2    1    2    0    0  0.00000000000E+00  0.00000000000E+00 -0.65827763139E+02  0.11989022443E+04  0.11970936876E+04 0.  0.
        4    1    3    3  502    0  0.23435621160E+03 -0.43567985303E+03  0.30451789319E+03  0.58092385768E+03  0.12699999809E+01 0.  1.
       -4    1    3    3    0  502 -0.23435621160E+03  0.43567985303E+03 -0.37034565633E+03  0.61797838660E+03  0.12699999809E+01 0. -1.
</event>
<event>
 5   0  0.3635143E-04  0.1687628E+04  0.7818609E-02  0.8768452E-01
       -1   -1    0    0    0  501  0.00000000000E+00  0.00000000000E+00  0.51340170653E+03  0.51340170655E+03  0.50400001928E-02 0. -1.
        1   -1    0    0  501    0  0.00000000000E+00  0.00000000000E+00 -0.13868709109E+04  0.13868709109E+04  0.50400001928E-02 0.  1.
    10030    2    1    2    0    0  0.00000000000E+00  0.00000000000E+00 -0.87346920435E+03  0.19002726174E+04  0.16876277936E+04 0.  0.
        3    1    3    3  502    0 -0.16689464257E+03 -0.36284611927E+03 -0.12737040575E+04  0.13348532369E+04  0.10100000352E+00 0.  1.
       -3    1    3    3    0  502  0.16689464257E+03  0.36284611927E+03  0.40023485311E+03  0.56541938049E+03  0.10100000352E+00 0. -1.
</event>
<event>
 5   0  0.6746664E-04  0.1710857E+04  0.7818609E-02  0.8755197E-01
        2   -1    0    0  501    0  0.00000000000E+00  0.00000000000E+00  0.24357593200E+04  0.24357593200E+04  0.25500000920E-02 0. -1.
       -2   -1    0    0    0  501  0.00000000000E+00  0.00000000000E+00 -0.30042276386E+03  0.30042276388E+03  0.25500000920E-02 0.  1.
    10030    2    1    2    0    0  0.00000000000E+00  0.00000000000E+00  0.21353365562E+04  0.27361820839E+04  0.17108565656E+04 0.  0.
        5    1    3    3  502    0  0.39209554994E+03 -0.47790076868E+03  0.12203728572E+03  0.63011368346E+03  0.46999998093E+01 0.  1.
       -5    1    3    3    0  502 -0.39209554994E+03  0.47790076868E+03  0.20132992704E+04  0.21060684004E+04  0.46999998093E+01 0. -1.
</event>
<event>
 5   0  0.6746664E-04  0.1752191E+04  0.7818609E-02  0.8732145E-01
        2   -1    0    0  501    0  0.00000000000E+00  0.00000000000E+00  0.16920086360E+04  0.16920086360E+04  0.25500000920E-02 0.  1.
       -2   -1    0    0    0  501  0.00000000000E+00  0.00000000000E+00 -0.45362847868E+03  0.45362847868E+03  0.25500000920E-02 0. -1.
    10030    2    1    2    0    0  0.00000000000E+00  0.00000000000E+00  0.12383801573E+04  0.21456371146E+04  0.17521909753E+04 0.  0.
        5    1    3    3  502    0  0.42967028784E+03 -0.75887118314E+03  0.72178318164E+03  0.11320313954E+04  0.46999998093E+01 0. -1.
       -5    1    3    3    0  502 -0.42967028784E+03  0.75887118314E+03  0.51659697564E+03  0.10136057192E+04  0.46999998093E+01 0.  1.
</event>
<event>
 5   0  0.7025426E-04  0.1682995E+04  0.7818609E-02  0.8771123E-01
       -2   -1    0    0    0  501  0.00000000000E+00  0.00000000000E+00  0.12283676672E+04  0.12283676672E+04  0.25500000920E-02 0. -1.
        2   -1    0    0  501    0  0.00000000000E+00  0.00000000000E+00 -0.57647081182E+03  0.57647081182E+03  0.25500000920E-02 0.  1.
    10030    2    1    2    0    0  0.00000000000E+00  0.00000000000E+00  0.65189685541E+03  0.18048384791E+04  0.16829950759E+04 0.  0.
        2    1    3    3  502    0  0.18051519509E+03  0.50203380459E+03  0.10238261700E+04  0.11544885028E+04  0.25500000920E-02 0. -1.
       -2    1    3    3    0  502 -0.18051519509E+03 -0.50203380459E+03 -0.37192931460E+03  0.65034997630E+03  0.25500000920E-02 0.  1.
</event>
<event>
 5   0  0.7049044E-04  0.1698758E+04  0.7818609E-02  0.8762073E-01
        2   -1    0    0  501    0  0.00000000000E+00  0.00000000000E+00  0.54370807421E+03  0.54370807422E+03  0.25500000920E-02 0.  1.
       -2   -1    0    0    0  501  0.00000000000E+00  0.00000000000E+00 -0.13268978748E+04  0.13268978748E+04  0.25500000920E-02 0. -1.
    10030    2    1    2    0    0  0.00000000000E+00  0.00000000000E+00 -0.78318980054E+03  0.18706059490E+04  0.16987584739E+04 0.  0.
        4    1    3    3  502    0  0.77301642013E+03  0.21859675478E+03 -0.87817136129E+02  0.80811656912E+03  0.12699999809E+01 0.  1.
       -4    1    3    3    0  502 -0.77301642013E+03 -0.21859675478E+03 -0.69537266441E+03  0.10624893799E+04  0.12699999809E+01 0. -1.
</event>
<event>
 5   0  0.3723500E-04  0.1706517E+04  0.7818609E-02  0.8757656E-01
        1   -1    0    0  501    0  0.00000000000E+00  0.00000000000E+00  0.66310608872E+03  0.66310608874E+03  0.50400001928E-02 0. -1.
       -1   -1    0    0    0  501  0.00000000000E+00  0.00000000000E+00 -0.10979390120E+04  0.10979390120E+04  0.50400001928E-02 0.  1.
    10030    2    1    2    0    0  0.00000000000E+00  0.00000000000E+00 -0.43483292325E+03  0.17610451007E+04  0.17065169720E+04 0.  0.
        1    1    3    3  502    0  0.46215700347E+03 -0.65298690251E+03  0.88830317824E+02  0.80490484910E+03  0.50400001928E-02 0. -1.
       -1    1    3    3    0  502 -0.46215700347E+03  0.65298690251E+03 -0.52366324108E+03  0.95614025163E+03  0.50400001928E-02 0.  1.
</event>
<event>
 5   0  0.3723500E-04  0.1698421E+04  0.7818609E-02  0.8762265E-01
       -1   -1    0    0    0  501  0.00000000000E+00  0.00000000000E+00  0.10885926227E+04  0.10885926227E+04  0.50400001928E-02 0.  1.
        1   -1    0    0  501    0  0.00000000000E+00  0.00000000000E+00 -0.66246880038E+03  0.66246880040E+03  0.50400001928E-02 0. -1.
    10030    2    1    2    0    0  0.00000000000E+00  0.00000000000E+00  0.42612382232E+03  0.17510614231E+04  0.16984212068E+04 0.  0.
        1    1    3    3  502    0  0.25991695965E+03 -0.10871689455E+03  0.10390045716E+04  0.10765252848E+04  0.50400001928E-02 0.  1.
       -1    1    3    3    0  502 -0.25991695965E+03  0.10871689455E+03 -0.61288074924E+03  0.67453613831E+03  0.50400001928E-02 0. -1.
</event>
<event>
 5   0  0.3635143E-04  0.1685298E+04  0.7818609E-02  0.8769794E-01
        1   -1    0    0  501    0  0.00000000000E+00  0.00000000000E+00  0.67688620044E+03  0.67688620046E+03  0.50400001928E-02 0. -1.
       -1   -1    0    0    0  501  0.00000000000E+00  0.00000000000E+00 -0.10490055071E+04  0.10490055071E+04  0.50400001928E-02 0.  1.
    10030    2    1    2    0    0  0.00000000000E+00  0.00000000000E+00 -0.37211930662E+03  0.17258917075E+04  0.16852980175E+04 0.  0.
        3    1    3    3  502    0 -0.25876384416E+03 -0.15134726104E+03 -0.99255177564E+03  0.10368335247E+04  0.10100000352E+00 0.  1.
       -3    1    3    3    0  502  0.25876384416E+03  0.15134726104E+03  0.62043246902E+03  0.68905818280E+03  0.10100000352E+00 0. -1.
</event>
<event>
 5   0  0.7233728E-04  0.1682083E+04  0.7818609E-02  0.8771650E-01
       -2   -1    0    0    0  501  0.00000000000E+00  0.00000000000E+00  0.27219635688E+03  0.27219635689E+03  0.25500000920E-02 0.  1.
        2   -1    0    0  501    0  0.00000000000E+00  0.00000000000E+00 -0.25986772319E+04  0.25986772319E+04  0.25500000920E-02 0. -1.
    10030    2    1    2    0    0  0.00000000000E+00  0.00000000000E+00 -0.23264808750E+04  0.28708735888E+04  0.16820826082E+04 0.  0.
        1    1    3    3  502    0 -0.73465001031E+03 -0.14718335016E+03 -0.18153323535E+04  0.19638750291E+04  0.50400001928E-02 0. -1.
       -1    1    3    3    0  502  0.73465001031E+03  0.14718335016E+03 -0.51114852154E+03  0.90699855971E+03  0.50400001928E-02 0.  1.
</event>
<event>
 5   0  0.2639750E-04  0.1874389E+04  0.7818609E-02  0.8667711E-01
       -3   -1    0    0    0  501  0.00000000000E+00  0.00000000000E+00  0.45897630171E+03  0.45897631282E+03  0.10100000352E+00 0. -1.
        3   -1    0    0  501    0  0.00000000000E+00  0.00000000000E+00 -0.19136792461E+04  0.19136792487E+04  0.10100000352E+00 0.  1.
    10030    2    1    2    0    0  0.00000000000E+00  0.00000000000E+00 -0.14547029444E+04  0.23726555616E+04  0.18743889024E+04 0.  0.
        3    1    3    3  502    0 -0.44450161167E+03 -0.33645349096E+03  0.22627293970E+03  0.60164947253E+03  0.10100000352E+00 0. -1.
       -3    1    3    3    0  502  0.44450161167E+03  0.33645349096E+03 -0.16809758841E+04  0.17710060890E+04  0.10100000352E+00 0.  1.
</event>
<event>
 5   0  0.7049044E-04  0.1119321E+04  0.7818609E-02  0.9186563E-01
        2   -1    0    0  501    0  0.00000000000E+00  0.00000000000E+00  0.20020654829E+04  0.20020654829E+04  0.25500000920E-02 0.  1.
       -2   -1    0    0    0  501  0.00000000000E+00  0.00000000000E+00 -0.15644828705E+03  0.15644828707E+03  0.25500000920E-02 0. -1.
    10030    2    1    2    0    0  0.00000000000E+00  0.00000000000E+00  0.18456171959E+04  0.21585137700E+04  0.11193207143E+04 0.  0.
        4    1    3    3  502    0  0.39461813838E+03 -0.30262132376E+03  0.42770932927E+03  0.65592684346E+03  0.12699999809E+01 0. -1.
       -4    1    3    3    0  502 -0.39461813838E+03  0.30262132376E+03  0.14179078666E+04  0.15025869265E+04  0.12699999809E+01 0.  1.
</event>
<event>
 5   0  0.3803253E-04  0.1714638E+04  0.7818609E-02  0.8753059E-01
       -1   -1    0    0    0  501  0.00000000000E+00  0.00000000000E+00  0.48348218995E+03  0.48348218998E+03  0.50400001928E-02 0. -1.
        1   -1    0    0  501    0  0.00000000000E+00  0.00000000000E+00 -0.15202132648E+04  0.15202132648E+04  0.50400001928E-02 0.  1.
    10030    2    1    2    0    0  0.00000000000E+00  0.00000000000E+00 -0.10367310748E+04  0.20036954548E+04  0.17146381991E+04 0.  0.
        4    1    3    3  502    0  0.14015582028E+03  0.17623079209E+03 -0.14850403860E+04  0.15020144830E+04  0.12699999809E+01 0.  1.
       -4    1    3    3    0  502 -0.14015582028E+03 -0.17623079209E+03  0.44830931121E+03  0.50168097178E+03  0.12699999809E+01 0. -1.
</event>
<event>
 5   0  0.3713516E-04  0.1674745E+04  0.7818609E-02  0.8775901E-01
       -1   -1    0    0    0  501  0.00000000000E+00  0.00000000000E+00  0.58210181260E+03  0.58210181262E+03  0.50400001928E-02 0.  1.
        1   -1    0    0  501    0  0.00000000000E+00  0.00000000000E+00 -0.12045875736E+04  0.12045875736E+04  0.50400001928E-02 0. -1.
    10030    2    1    2    0    0  0.00000000000E+00  0.00000000000E+00 -0.62248576103E+03  0.17866893863E+04  0.16747448881E+04 0.  0.
        5    1    3    3  502    0  0.22466659340E+03  0.77772894455E+03 -0.82846005081E+02  0.81377081536E+03  0.46999998093E+01 0.  1.
       -5    1    3    3    0  502 -0.22466659340E+03 -0.77772894455E+03 -0.53963975595E+03  0.97291857089E+03  0.46999998093E+01 0. -1.
</event>
<event>
 5   0  0.7233728E-04  0.1759226E+04  0.7818609E-02  0.8728288E-01
       -2   -1    0    0    0  501  0.00000000000E+00  0.00000000000E+00  0.15200832038E+04  0.15200832038E+04  0.25500000920E-02 0.  1.
        2   -1    0    0  501    0  0.00000000000E+00  0.00000000000E+00 -0.50899786709E+03  0.50899786709E+03  0.25500000920E-02 0. -1.
    10030    2    1    2    0    0  0.00000000000E+00  0.00000000000E+00  0.10110853367E+04  0.20290810709E+04  0.17592260895E+04 0.  0.
        1    1    3    3  502    0  0.52929028185E+03 -0.93389087937E+02  0.13086640097E+04  0.14147336196E+04  0.50400001928E-02 0.  1.
       -1    1    3    3    0  502 -0.52929028185E+03  0.93389087937E+02 -0.29757867300E+03  0.61434745125E+03  0.50400001928E-02 0. -1.
</event>
<event>
 5   0  0.3635143E-04  0.1698830E+04  0.7818609E-02  0.8762032E-01
       -1   -1    0    0    0  501  0.00000000000E+00  0.00000000000E+00  0.58962444429E+03  0.58962444431E+03  0.50400001928E-02 0. -1.
        1   -1    0    0  501    0  0.00000000000E+00  0.00000000000E+00 -0.12236702271E+04  0.12236702271E+04  0.50400001928E-02 0.  1.
    10030    2    1    2    0    0  0.00000000000E+00  0.00000000000E+00 -0.63404578283E+03  0.18132946714E+04  0.16988300417E+04 0.  0.
        3    1    3    3  502    0  0.26427541874E+03 -0.13773632074E+02 -0.11785465656E+04  0.12078920595E+04  0.10100000352E+00 0.  1.
       -3    1    3    3    0  502 -0.26427541874E+03  0.13773632074E+02  0.54450078278E+03  0.60540261193E+03  0.10100000352E+00 0. -1.
</event>
<event>
 5   0  0.7025426E-04  0.1699003E+04  0.7818609E-02  0.8761933E-01
       -2   -1    0    0    0  501  0.00000000000E+00  0.00000000000E+00  0.11554448674E+04  0.11554448674E+04  0.25500000920E-02 0.  1.
        2   -1    0    0  501    0  0.00000000000E+00  0.00000000000E+00 -0.62456692139E+03  0.62456692139E+03  0.25500000920E-02 0. -1.
    10030    2    1    2    0    0  0.00000000000E+00  0.00000000000E+00  0.53087794599E+03  0.17800117888E+04  0.16990028177E+04 0.  0.
        2    1    3    3  502    0  0.72579593936E+03 -0.51344100428E+02 -0.19391440007E+03  0.75300647859E+03  0.25500000920E-02 0. -1.
       -2    1    3    3    0  502 -0.72579593936E+03  0.51344100428E+02  0.72479234606E+03  0.10270053102E+04  0.25500000920E-02 0.  1.
</event>
<event>
 5   0  0.7025426E-04  0.1698036E+04  0.7818609E-02  0.8762485E-01
        2   -1    0    0  501    0  0.00000000000E+00  0.00000000000E+00  0.16320401753E+04  0.16320401753E+04  0.25500000920E-02 0.  1.
       -2   -1    0    0    0  501  0.00000000000E+00  0.00000000000E+00 -0.44167501953E+03  0.44167501954E+03  0.25500000920E-02 0. -1.
    10030    2    1    2    0    0  0.00000000000E+00  0.00000000000E+00  0.11903651558E+04  0.20737151949E+04  0.16980357786E+04 0.  0.
        2    1    3    3  502    0  0.47614993904E+03 -0.49286943844E+03  0.12072587304E+04  0.13882048443E+04  0.25500000920E-02 0.  1.
       -2    1    3    3    0  502 -0.47614993904E+03  0.49286943844E+03 -0.16893574585E+02  0.68551035052E+03  0.25500000920E-02 0. -1.
</event>
<event>
 5   0  0.7049044E-04  0.1751608E+04  0.7818609E-02  0.8732465E-01
        2   -1    0    0  501    0  0.00000000000E+00  0.00000000000E+00  0.26792256918E+04  0.26792256918E+04  0.25500000920E-02 0. -1.
       -2   -1    0    0    0  501  0.00000000000E+00  0.00000000000E+00 -0.28628904462E+03  0.28628904463E+03  0.25500000920E-02 0.  1.
    10030    2    1    2    0    0  0.00000000000E+00  0.00000000000E+00  0.23929366472E+04  0.29655147364E+04  0.17516083622E+04 0.  0.
        4    1    3    3  502    0 -0.78696883322E+03  0.88923949474E+01  0.54595856497E+03  0.95784726691E+03  0.12699999809E+01 0.  1.
       -4    1    3    3    0  502  0.78696883322E+03 -0.88923949474E+01  0.18469780822E+04  0.20076674695E+04  0.12699999809E+01 0. -1.
</event>
<event>
 5   0  0.7242144E-04  0.1714224E+04  0.7818609E-02  0.8753293E-01
       -2   -1    0    0    0  501  0.00000000000E+00  0.00000000000E+00  0.53673011281E+03  0.53673011281E+03  0.25500000920E-02 0.  1.
        2   -1    0    0  501    0  0.00000000000E+00  0.00000000000E+00 -0.13687339629E+04  0.13687339629E+04  0.25500000920E-02 0. -1.
    10030    2    1    2    0    0  0.00000000000E+00  0.00000000000E+00 -0.83200385010E+03  0.19054640757E+04  0.17142237127E+04 0.  0.
        3    1    3    3  502    0 -0.12322676916E+03 -0.55896257686E+03  0.29315017732E+03  0.64308711357E+03  0.10100000352E+00 0.  1.
       -3    1    3    3    0  502  0.12322676916E+03  0.55896257686E+03 -0.11251540274E+04  0.12623769622E+04  0.10100000352E+00 0. -1.
</event>
<event>
 5   0  0.7233728E-04  0.1670107E+04  0.7818609E-02  0.8778599E-01
        2   -1    0    0  501    0  0.00000000000E+00  0.00000000000E+00  0.72688215181E+03  0.72688215181E+03  0.25500000920E-02 0. -1.
       -2   -1    0    0    0  501  0.00000000000E+00  0.00000000000E+00 -0.95932256200E+03  0.95932256201E+03  0.25500000920E-02 0.  1.
    10030    2    1    2    0    0  0.00000000000E+00  0.00000000000E+00 -0.23244041020E+03  0.16862047138E+04  0.16701071201E+04 0.  0.
        1    1    3    3  502    0 -0.38254935802E+03  0.57781428748E+03 -0.58665232809E+03  0.90795061332E+03  0.50400001928E-02 0.  1.
       -1    1    3    3    0  502  0.38254935802E+03 -0.57781428748E+03  0.35421191789E+03  0.77825410050E+03  0.50400001928E-02 0. -1.
</event>
<event>
 5   0  0.6746664E-04  0.1619631E+04  0.7818609E-02  0.8808578E-01
       -2   -1    0    0    0  501  0.00000000000E+00  0.00000000000E+00  0.11311988724E+04  0.11311988724E+04  0.25500000920E-02 0. -1.
        2   -1    0    0  501    0  0.00000000000E+00  0.00000000000E+00 -0.57973995382E+03  0.57973995382E+03  0.25500000920E-02 0.  1.
    10030    2    1    2    0    0  0.00000000000E+00  0.00000000000E+00  0.55145891856E+03  0.17109388262E+04  0.16196310469E+04 0.  0.
        5    1    3    3  502    0 -0.36583934270E+03 -0.24994638144E+03 -0.44032454036E+03  0.62467544301E+03  0.46999998093E+01 0.  1.
       -5    1    3    3    0  502  0.36583934270E+03  0.24994638144E+03  0.99178345892E+03  0.10862633832E+04  0.46999998093E+01 0. -1.
</event>
<event>
 5   0  0.3803253E-04  0.1705767E+04  0.7818609E-02  0.8758082E-01
       -1   -1    0    0    0  501  0.00000000000E+00  0.00000000000E+00  0.59204077314E+03  0.59204077316E+03  0.50400001928E-02 0.  1.
        1   -1    0    0  501    0  0.00000000000E+00  0.00000000000E+00 -0.12286491965E+04  0.12286491965E+04  0.50400001928E-02 0. -1.
    10030    2    1    2    0    0  0.00000000000E+00  0.00000000000E+00 -0.63660842336E+03  0.18206899697E+04  0.17057671825E+04 0.  0.
        4    1    3    3  502    0  0.17530677346E+02 -0.19757609068E+03  0.56707848966E+03  0.60076889283E+03  0.12699999809E+01 0.  1.
       -4    1    3    3    0  502 -0.17530677346E+02  0.19757609068E+03 -0.12036869130E+04  0.12199210768E+04  0.12699999809E+01 0. -1.
</event>
<event>
 5   0  0.3713516E-04  0.1687573E+04  0.7818609E-02  0.8768484E-01
       -1   -1    0    0    0  501  0.00000000000E+00  0.00000000000E+00  0.43098743743E+03  0.43098743746E+03  0.50400001928E-02 0.  1.
        1   -1    0    0  501    0  0.00000000000E+00  0.00000000000E+00 -0.16519633612E+04  0.16519633612E+04  0.50400001928E-02 0. -1.
    10030    2    1    2    0    0  0.00000000000E+00  0.00000000000E+00 -0.12209759238E+04  0.20829507987E+04  0.16875727609E+04 0.  0.
        5    1    3    3  502    0 -0.44772981462E+03  0.67773496117E+03 -0.89239972165E+03  0.12067253282E+04  0.46999998093E+01 0. -1.
       -5    1    3    3    0  502  0.44772981462E+03 -0.67773496117E+03 -0.32857620211E+03  0.87622547046E+03  0.46999998093E+01 0.  1.
</event>
<event>
 5   0  0.7049044E-04  0.1714879E+04  0.7818609E-02  0.8752923E-01
       -2   -1    0    0    0  501  0.00000000000E+00  0.00000000000E+00  0.51794183728E+03  0.51794183728E+03  0.25500000920E-02 0. -1.
        2   -1    0    0  501    0  0.00000000000E+00  0.00000000000E+00 -0.14194698492E+04  0.14194698492E+04  0.25500000920E-02 0.  1.
    10030    2    1    2    0    0  0.00000000000E+00  0.00000000000E+00 -0.90152801194E+03  0.19374116865E+04  0.17148793796E+04 0.  0.
        4    1    3    3  502    0 -0.23799950078E+03 -0.14069591545E+03  0.46620074523E+03  0.54201831219E+03  0.12699999809E+01 0. -1.
       -4    1    3    3    0  502  0.23799950078E+03  0.14069591545E+03 -0.13677287572E+04  0.13953933743E+04  0.12699999809E+01 0.  1.
</event>
<event>
 5   0  0.7025426E-04  0.1671813E+04  0.7818609E-02  0.8777606E-01
       -2   -1    0    0    0  501  0.00000000000E+00  0.00000000000E+00  0.35568233698E+03  0.35568233699E+03  0.25500000920E-02 0.  1.
        2   -1    0    0  501    0  0.00000000000E+00  0.00000000000E+00 -0.19645045133E+04  0.19645045133E+04  0.25500000920E-02 0. -1.
    10030    2    1    2    0    0  0.00000000000E+00  0.00000000000E+00 -0.16088221763E+04  0.23201868503E+04  0.16718128559E+04 0.  0.
        2    1    3    3  502    0  0.71180888453E+03  0.13098273497E+03 -0.13848334010E+04  0.15625594112E+04  0.25500000920E-02 0. -1.
       -2    1    3    3    0  502 -0.71180888453E+03 -0.13098273497E+03 -0.22398877527E+03  0.75762743905E+03  0.25500000920E-02 0.  1.
</event>
<event>
 5   0  0.3713516E-04  0.1636175E+04  0.7818609E-02  0.8798627E-01
        1   -1    0    0  501    0  0.00000000000E+00  0.00000000000E+00  0.91324042780E+03  0.91324042781E+03  0.50400001928E-02 0. -1.
       -1   -1    0    0    0  501  0.00000000000E+00  0.00000000000E+00 -0.73284885358E+03  0.73284885360E+03  0.50400001928E-02 0.  1.
    10030    2    1    2    0    0  0.00000000000E+00  0.00000000000E+00  0.18039157422E+03  0.16460892814E+04  0.16361750525E+04 0.  0.
        5    1    3    3  502    0  0.42894541026E+03  0.21088148573E+03 -0.57773972391E+03  0.74984694744E+03  0.46999998093E+01 0.  1.
       -5    1    3    3    0  502 -0.42894541026E+03 -0.21088148573E+03  0.75813129813E+03  0.89624233397E+03  0.46999998093E+01 0. -1.
</event>
<event>
 5   0  0.3915701E-04  0.1692018E+04  0.7818609E-02  0.8765930E-01
        1   -1    0    0  501    0  0.00000000000E+00  0.00000000000E+00  0.15641878636E+04  0.15641878636E+04  0.50400001928E-02 0. -1.
       -1   -1    0    0    0  501  0.00000000000E+00  0.00000000000E+00 -0.45757372610E+03  0.45757372613E+03  0.50400001928E-02 0.  1.
    10030    2    1    2    0    0  0.00000000000E+00  0.00000000000E+00  0.11066141375E+04  0.20217615898E+04  0.16920180485E+04 0.  0.
        2    1    3    3  502    0  0.33262967955E+03 -0.73303065727E+03  0.86433189125E+03  0.11811206824E+04  0.25500000920E-02 0. -1.
       -2    1    3    3    0  502 -0.33262967955E+03  0.73303065727E+03  0.24228224628E+03  0.84064090733E+03  0.25500000920E-02 0.  1.
</event>
<event>
 5   0  0.6746664E-04  0.1743061E+04  0.7818609E-02  0.8737179E-01
       -2   -1    0    0    0  501  0.00000000000E+00  0.00000000000E+00  0.28781908345E+03  0.28781908347E+03  0.25500000920E-02 0.  1.
        2   -1    0    0  501    0  0.00000000000E+00  0.00000000000E+00 -0.26390367693E+04  0.26390367693E+04  0.25500000920E-02 0. -1.
    10030    2    1    2    0    0  0.00000000000E+00  0.00000000000E+00 -0.23512176858E+04  0.29268558528E+04  0.17430606922E+04 0.  0.
        5    1    3    3  502    0 -0.80926961143E+03  0.13191915873E+03 -0.67969692190E+03  0.10650492778E+04  0.46999998093E+01 0.  1.
       -5    1    3    3    0  502  0.80926961143E+03 -0.13191915873E+03 -0.16715207639E+04  0.18618065750E+04  0.46999998093E+01 0. -1.
</event>
<event>
 5   0  0.3915701E-04  0.1709472E+04  0.7818609E-02  0.8755981E-01
       -1   -1    0    0    0  501  0.00000000000E+00  0.00000000000E+00  0.61620306971E+03  0.61620306973E+03  0.50400001928E-02 0.  1.
        1   -1    0    0  501    0  0.00000000000E+00  0.00000000000E+00 -0.11856052877E+04  0.11856052877E+04  0.50400001928E-02 0. -1.
    10030    2    1    2    0    0  0.00000000000E+00  0.00000000000E+00 -0.56940221799E+03  0.18018083574E+04  0.17094719860E+04 0.  0.
        2    1    3    3  502    0 -0.76080360424E+03 -0.37418812046E+03 -0.17052284922E+03  0.86482189833E+03  0.25500000920E-02 0. -1.
       -2    1    3    3    0  502  0.76080360424E+03  0.37418812046E+03 -0.39887936876E+03  0.93698645911E+03  0.25500000920E-02 0.  1.
</event>
<event>
 5   0  0.3635143E-04  0.1725233E+04  0.7818609E-02  0.8747103E-01
       -1   -1    0    0    0  501  0.00000000000E+00  0.00000000000E+00  0.12267226945E+04  0.12267226945E+04  0.50400001928E-02 0. -1.
        1   -1    0    0  501    0  0.00000000000E+00  0.00000000000E+00 -0.60658124569E+03  0.60658124571E+03  0.50400001928E-02 0.  1.
    10030    2    1    2    0    0  0.00000000000E+00  0.00000000000E+00  0.62014144877E+03  0.18333039402E+04  0.17252327149E+04 0.  0.
        3    1    3    3  502    0 -0.10222418367E+03  0.76335003952E+03  0.72293657325E+03  0.10563097868E+04  0.10100000352E+00 0. -1.
       -3    1    3    3    0  502  0.10222418367E+03 -0.76335003952E+03 -0.10279512448E+03  0.77699415337E+03  0.10100000352E+00 0.  1.
</event>
<event>
 5   0  0.3723500E-04  0.1665847E+04  0.7818609E-02  0.8781086E-01
        1   -1    0    0  501    0  0.00000000000E+00  0.00000000000E+00  0.80255340116E+03  0.80255340118E+03  0.50400001928E-02 0.  1.
       -1   -1    0    0    0  501  0.00000000000E+00  0.00000000000E+00 -0.86444332953E+03  0.86444332955E+03  0.50400001928E-02 0. -1.
    10030    2    1    2    0    0  0.00000000000E+00  0.00000000000E+00 -0.61889928371E+02  0.16669967307E+04  0.16658474531E+04 0.  0.
        1    1    3    3  502    0 -0.54995657757E+03 -0.49588546517E+03 -0.41253113572E+03  0.84766536425E+03  0.50400001928E-02 0.  1.
       -1    1    3    3    0  502  0.54995657757E+03  0.49588546517E+03  0.35064120735E+03  0.81933136648E+03  0.50400001928E-02 0. -1.
</event>
<event>
 5   0  0.7233728E-04  0.1755377E+04  0.7818609E-02  0.8730396E-01
       -2   -1    0    0    0  501  0.00000000000E+00  0.00000000000E+00  0.10122971434E+04  0.10122971434E+04  0.25500000920E-02 0. -1.
        2   -1    0    0  501    0  0.00000000000E+00  0.00000000000E+00 -0.76097963808E+03  0.76097963808E+03  0.25500000920E-02 0.  1.
    10030    2    1    2    0    0  0.00000000000E+00  0.00000000000E+00  0.25131750528E+03  0.17732767814E+04  0.17553774680E+04 0.  0.
        1    1    3    3  502    0  0.12242454386E+03  0.64802288081E+03 -0.45939794395E+03  0.80372127875E+03  0.50400001928E-02 0.  1.
       -1    1    3    3    0  502 -0.12242454386E+03 -0.64802288081E+03  0.71071544923E+03  0.96955550269E+03  0.50400001928E-02 0. -1.
</event>
<event>
 5   0  0.2639750E-04  0.1707730E+04  0.7818609E-02  0.8756968E-01
        3   -1    0    0  501    0  0.00000000000E+00  0.00000000000E+00  0.37154656132E+03  0.37154657505E+03  0.10100000352E+00 0. -1.
       -3   -1    0    0    0  501  0.00000000000E+00  0.00000000000E+00 -0.19622988886E+04  0.19622988912E+04  0.10100000352E+00 0.  1.
    10030    2    1    2    0    0  0.00000000000E+00  0.00000000000E+00 -0.15907523273E+04  0.23338454663E+04  0.17077299826E+04 0.  0.
        5    1    3    3  502    0 -0.26227966626E+03 -0.38344899784E+03 -0.17744444012E+04  0.18342570104E+04  0.46999998093E+01 0.  1.
       -5    1    3    3    0  502  0.26227966626E+03  0.38344899784E+03  0.18369207386E+03  0.49958845590E+03  0.46999998093E+01 0. -1.
</event>
<event>
 5   0  0.7242144E-04  0.1722313E+04  0.7818609E-02  0.8748740E-01
       -2   -1    0    0    0  501  0.00000000000E+00  0.00000000000E+00  0.68726081786E+03  0.68726081787E+03  0.25500000920E-02 0.  1.
        2   -1    0    0  501    0  0.00000000000E+00  0.00000000000E+00 -0.10790529993E+04  0.10790529993E+04  0.25500000920E-02 0. -1.
    10030    2    1    2    0    0  0.00000000000E+00  0.00000000000E+00 -0.39179218144E+03  0.17663138172E+04  0.17223133824E+04 0.  0.
        3    1    3    3  502    0 -0.66757089529E+03 -0.23565662514E+03 -0.69873426788E+03  0.99469318511E+03  0.10100000352E+00 0. -1.
       -3    1    3    3    0  502  0.66757089529E+03  0.23565662514E+03  0.30694208643E+03  0.77162063207E+03  0.10100000352E+00 0.  1.
</event>
<event>
 5   0  0.6746664E-04  0.1695513E+04  0.7818609E-02  0.8763928E-01
        2   -1    0    0  501    0  0.00000000000E+00  0.00000000000E+00  0.11020335283E+04  0.11020335283E+04  0.25500000920E-02 0.  1.
       -2   -1    0    0    0  501  0.00000000000E+00  0.00000000000E+00 -0.65214973300E+03  0.65214973300E+03  0.25500000920E-02 0. -1.
    10030    2    1    2    0    0  0.00000000000E+00  0.00000000000E+00  0.44988379532E+03  0.17541832613E+04  0.16955127499E+04 0.  0.
        5    1    3    3  502    0 -0.11074397025E+02  0.26159743953E+03 -0.60925448204E+03  0.66315079471E+03  0.46999998093E+01 0. -1.
       -5    1    3    3    0  502  0.11074397025E+02 -0.26159743953E+03  0.10591382774E+04  0.10910324666E+04  0.46999998093E+01 0.  1.
</event>
<event>
 5   0  0.7049044E-04  0.1760983E+04  0.7818609E-02  0.8727328E-01
        2   -1    0    0  501    0  0.00000000000E+00  0.00000000000E+00  0.25187646247E+04  0.25187646247E+04  0.25500000920E-02 0.  1.
       -2   -1    0    0    0  501  0.00000000000E+00  0.00000000000E+00 -0.30779596333E+03  0.30779596334E+03  0.25500000920E-02 0. -1.
    10030    2    1    2    0    0  0.00000000000E+00  0.00000000000E+00  0.22109686614E+04  0.28265605881E+04  0.17609833436E+04 0.  0.
        4    1    3    3  502    0 -0.44468252932E+03  0.38961877451E+03  0.58200547230E+02  0.59408270294E+03  0.12699999809E+01 0. -1.
       -4    1    3    3    0  502  0.44468252932E+03 -0.38961877451E+03  0.21527681142E+04  0.22324778851E+04  0.12699999809E+01 0.  1.
</event>
<event>
 5   0  0.7233728E-04  0.1187917E+04  0.7818609E-02  0.9123499E-01
        2   -1    0    0  501    0  0.00000000000E+00  0.00000000000E+00  0.54343345335E+03  0.54343345336E+03  0.25500000920E-02 0.  1.
       -2   -1    0    0    0  501  0.00000000000E+00  0.00000000000E+00 -0.64918105182E+03  0.64918105182E+03  0.25500000920E-02 0. -1.
    10030    2    1    2    0    0  0.00000000000E+00  0.00000000000E+00 -0.10574759846E+03  0.11926145052E+04  0.11879170019E+04 0.  0.
        1    1    3    3  502    0  0.28794858200E+03  0.50089742272E+03  0.85417364449E+02  0.58404515249E+03  0.50400001928E-02 0.  1.
       -1    1    3    3    0  502 -0.28794858200E+03 -0.50089742272E+03 -0.19116496291E+03  0.60856935269E+03  0.50400001928E-02 0. -1.
</event>
<event>
 5   0  0.3915701E-04  0.1718728E+04  0.7818609E-02  0.8750755E-01
       -1   -1    0    0    0  501  0.00000000000E+00  0.00000000000E+00  0.76843603508E+03  0.76843603510E+03  0.50400001928E-02 0.  1.
        1   -1    0    0  501    0  0.00000000000E+00  0.00000000000E+00 -0.96105122164E+03  0.96105122166E+03  0.50400001928E-02 0. -1.
    10030    2    1    2    0    0  0.00000000000E+00  0.00000000000E+00 -0.19261518656E+03  0.17294872568E+04  0.17187278904E+04 0.  0.
        2    1    3    3  502    0 -0.40987263161E+03 -0.48062291624E+03  0.49001695882E+03  0.79944392030E+03  0.25500000920E-02 0.  1.
       -2    1    3    3    0  502  0.40987263161E+03  0.48062291624E+03 -0.68263214538E+03  0.93004333645E+03  0.25500000920E-02 0. -1.
</event>
<event>
 5   0  0.3635143E-04  0.1532244E+04  0.7818609E-02  0.8863289E-01
       -1   -1    0    0    0  501  0.00000000000E+00  0.00000000000E+00  0.75032274082E+03  0.75032274083E+03  0.50400001928E-02 0. -1.
        1   -1    0    0  501    0  0.00000000000E+00  0.00000000000E+00 -0.78225442593E+03  0.78225442594E+03  0.50400001928E-02 0.  1.
    10030    2    1    2    0    0  0.00000000000E+00  0.00000000000E+00 -0.31931685108E+02  0.15325771668E+04  0.15322444778E+04 0.  0.
        3    1    3    3  502    0 -0.17460371420E+03 -0.63659009431E+03 -0.40490740580E+03  0.77439229248E+03  0.10100000352E+00 0.  1.
       -3    1    3    3    0  502  0.17460371420E+03  0.63659009431E+03  0.37297572070E+03  0.75818487429E+03  0.10100000352E+00 0. -1.
</event>
<event>
 5   0  0.7242144E-04  0.1703552E+04  0.7818609E-02  0.8759341E-01
        2   -1    0    0  501    0  0.00000000000E+00  0.00000000000E+00  0.18269903553E+04  0.18269903553E+04  0.25500000920E-02 0.  1.
       -2   -1    0    0    0  501  0.00000000000E+00  0.00000000000E+00 -0.39711347554E+03  0.39711347555E+03  0.25500000920E-02 0. -1.
    10030    2    1    2    0    0  0.00000000000E+00  0.00000000000E+00  0.14298768797E+04  0.22241038308E+04  0.17035521592E+04 0.  0.
        3    1    3    3  502    0 -0.20241988925E+03 -0.14971667065E+03  0.17773002048E+04  0.17950445458E+04  0.10100000352E+00 0.  1.
       -3    1    3    3    0  502  0.20241988925E+03  0.14971667065E+03 -0.34742332512E+03  0.42905928503E+03  0.10100000352E+00 0. -1.
</event>
<event>
 5   0  0.7242144E-04  0.1697276E+04  0.7818609E-02  0.8762920E-01
       -2   -1    0    0    0  501  0.00000000000E+00  0.00000000000E+00  0.10180024088E+04  0.10180024088E+04  0.25500000920E-02 0.  1.
        2   -1    0    0  501    0  0.00000000000E+00  0.00000000000E+00 -0.70745046489E+03  0.70745046490E+03  0.25500000920E-02 0. -1.
    10030    2    1    2    0    0  0.00000000000E+00  0.00000000000E+00  0.31055194387E+03  0.17254528737E+04  0.16972757906E+04 0.  0.
        3    1    3    3  502    0 -0.69164685599E+03 -0.21046938000E+03 -0.29652703308E+03  0.78140963960E+03  0.10100000352E+00 0. -1.
       -3    1    3    3    0  502  0.69164685599E+03  0.21046938000E+03  0.60707897695E+03  0.94404323406E+03  0.10100000352E+00 0.  1.
</event>
<event>
 5   0  0.3915701E-04  0.1684696E+04  0.7818609E-02  0.8770141E-01
       -1   -1    0    0    0  501  0.00000000000E+00  0.00000000000E+00  0.70685359056E+03  0.70685359058E+03  0.50400001928E-02 0.  1.
        1   -1    0    0  501    0  0.00000000000E+00  0.00000000000E+00 -0.10038148109E+04  0.10038148110E+04  0.50400001928E-02 0. -1.
    10030    2    1    2    0    0  0.00000000000E+00  0.00000000000E+00 -0.29696122039E+03  0.17106684015E+04  0.16846959410E+04 0.  0.
        2    1    3    3  502    0  0.49039707510E+03  0.47076243462E+03  0.35662520211E+03  0.76765102482E+03  0.25500000920E-02 0.  1.
       -2    1    3    3    0  502 -0.49039707510E+03 -0.47076243462E+03 -0.65358642250E+03  0.94301737672E+03  0.25500000920E-02 0. -1.
</event>
<event>
 5   0  0.3723500E-04  0.1710621E+04  0.7818609E-02  0.8755330E-01
        1   -1    0    0  501    0  0.00000000000E+00  0.00000000000E+00  0.88651828321E+03  0.88651828322E+03  0.50400001928E-02 0. -1.
       -1   -1    0    0    0  501  0.00000000000E+00  0.00000000000E+00 -0.82520103662E+03  0.82520103663E+03  0.50400001928E-02 0.  1.
    10030    2    1    2    0    0  0.00000000000E+00  0.00000000000E+00  0.61317246592E+02  0.17117193199E+04  0.17106207134E+04 0.  0.
        1    1    3    3  502    0  0.83055919824E+03 -0.18928865882E+03  0.10750005114E+03  0.85861227522E+03  0.50400001928E-02 0. -1.
       -1    1    3    3    0  502 -0.83055919824E+03  0.18928865882E+03 -0.46182804549E+02  0.85310704463E+03  0.50400001928E-02 0.  1.
</event>
<event>
 5   0  0.6746664E-04  0.1698772E+04  0.7818609E-02  0.8762065E-01
        2   -1    0    0  501    0  0.00000000000E+00  0.00000000000E+00  0.41676687330E+03  0.41676687331E+03  0.25500000920E-02 0. -1.
       -2   -1    0    0    0  501  0.00000000000E+00  0.00000000000E+00 -0.17310790425E+04  0.17310790425E+04  0.25500000920E-02 0.  1.
    10030    2    1    2    0    0  0.00000000000E+00  0.00000000000E+00 -0.13143121692E+04  0.21478459158E+04  0.16987717916E+04 0.  0.
        5    1    3    3  502    0 -0.28386627778E+03 -0.56525888479E+03 -0.13738739090E+04  0.15124976953E+04  0.46999998093E+01 0.  1.
       -5    1    3    3    0  502  0.28386627778E+03  0.56525888479E+03  0.59561739762E+02  0.63534822054E+03  0.46999998093E+01 0. -1.
</event>
<event>
 5   0  0.3803253E-04  0.1733500E+04  0.7818609E-02  0.8742485E-01
       -1   -1    0    0    0  501  0.00000000000E+00  0.00000000000E+00  0.50010390210E+03  0.50010390213E+03  0.50400001928E-02 0.  1.
        1   -1    0    0  501    0  0.00000000000E+00  0.00000000000E+00 -0.15021995222E+04  0.15021995222E+04  0.50400001928E-02 0. -1.
    10030    2    1    2    0    0  0.00000000000E+00  0.00000000000E+00 -0.10020956201E+04  0.20023034244E+04  0.17335003234E+04 0.  0.
        4    1    3    3  502    0  0.28087998756E+03  0.72517476158E+03 -0.94312532992E+03  0.12223988723E+04  0.12699999809E+01 0. -1.
       -4    1    3    3    0  502 -0.28087998756E+03 -0.72517476158E+03 -0.58970290207E+02  0.77990455203E+03  0.12699999809E+01 0.  1.
</event>
<event>
 5   0  0.3723500E-04  0.1762945E+04  0.7818609E-02  0.8726257E-01
        1   -1    0    0  501    0  0.00000000000E+00  0.00000000000E+00  0.10311599802E+04  0.10311599802E+04  0.50400001928E-02 0. -1.
       -1   -1    0    0    0  501  0.00000000000E+00  0.00000000000E+00 -0.75351403662E+03  0.75351403664E+03  0.50400001928E-02 0.  1.
    10030    2    1    2    0    0  0.00000000000E+00  0.00000000000E+00  0.27764594356E+03  0.17846740168E+04  0.17629447173E+04 0.  0.
        1    1    3    3  502    0 -0.25939616796E+03 -0.71073935253E+03 -0.31903110175E+03  0.82110757096E+03  0.50400001928E-02 0.  1.
       -1    1    3    3    0  502  0.25939616796E+03  0.71073935253E+03  0.59667704531E+03  0.96356644587E+03  0.50400001928E-02 0. -1.
</event>
<event>
 5   0  0.7049044E-04  0.1573583E+04  0.7818609E-02  0.8836943E-01
       -2   -1    0    0    0  501  0.00000000000E+00  0.00000000000E+00  0.47779505466E+03  0.47779505467E+03  0.25500000920E-02 0. -1.
        2   -1    0    0  501    0  0.00000000000E+00  0.00000000000E+00 -0.12956197172E+04  0.12956197172E+04  0.25500000920E-02 0.  1.
    10030    2    1    2    0    0  0.00000000000E+00  0.00000000000E+00 -0.81782466252E+03  0.17734147718E+04  0.15735827828E+04 0.  0.
        4    1    3    3  502    0  0.63289987888E+03  0.45758809803E+03 -0.30146351628E+03  0.83715648996E+03  0.12699999809E+01 0. -1.
       -4    1    3    3    0  502 -0.63289987888E+03 -0.45758809803E+03 -0.51636114624E+03  0.93625828188E+03  0.12699999809E+01 0.  1.
</event>
<event>
 5   0  0.3635143E-04  0.1709526E+04  0.7818609E-02  0.8755950E-01
        1   -1    0    0  501    0  0.00000000000E+00  0.00000000000E+00  0.14183803607E+04  0.14183803607E+04  0.50400001928E-02 0.  1.
       -1   -1    0    0    0  501  0.00000000000E+00  0.00000000000E+00 -0.51510847969E+03  0.51510847971E+03  0.50400001928E-02 0. -1.
    10030    2    1    2    0    0  0.00000000000E+00  0.00000000000E+00  0.90327188097E+03  0.19334888404E+04  0.17095259591E+04 0.  0.
        3    1    3    3  502    0 -0.17001001238E+03  0.29633781829E+03 -0.43452962316E+03  0.55275266663E+03  0.10100000352E+00 0. -1.
       -3    1    3    3    0  502  0.17001001238E+03 -0.29633781829E+03  0.13378015041E+04  0.13807361738E+04  0.10100000352E+00 0.  1.
</event>
<event>
 5   0  0.3723500E-04  0.1732693E+04  0.7818609E-02  0.8742935E-01
       -1   -1    0    0    0  501  0.00000000000E+00  0.00000000000E+00  0.39962210506E+03  0.39962210509E+03  0.50400001928E-02 0. -1.
        1   -1    0    0  501    0  0.00000000000E+00  0.00000000000E+00 -0.18781639340E+04  0.18781639340E+04  0.50400001928E-02 0.  1.
    10030    2    1    2    0    0  0.00000000000E+00  0.00000000000E+00 -0.14785418290E+04  0.22777860391E+04  0.17326925001E+04 0.  0.
        1    1    3    3  502    0 -0.73825280388E+03 -0.28264480522E+03 -0.12052577042E+04  0.14413713685E+04  0.50400001928E-02 0.  1.
       -1    1    3    3    0  502  0.73825280388E+03  0.28264480522E+03 -0.27328412475E+03  0.83641467061E+03  0.50400001928E-02 0. -1.
</event>
<event>
 5   0  0.3723500E-04  0.1702380E+04  0.7818609E-02  0.8760008E-01
       -1   -1    0    0    0  501  0.00000000000E+00  0.00000000000E+00  0.58380049599E+03  0.58380049601E+03  0.50400001928E-02 0.  1.
        1   -1    0    0  501    0  0.00000000000E+00  0.00000000000E+00 -0.12410485605E+04  0.12410485605E+04  0.50400001928E-02 0. -1.
    10030    2    1    2    0    0  0.00000000000E+00  0.00000000000E+00 -0.65724806454E+03  0.18248490566E+04  0.17023804102E+04 0.  0.
        1    1    3    3  502    0 -0.43360524614E+03  0.16858624255E+03  0.43545913098E+03  0.63722796975E+03  0.50400001928E-02 0.  1.
       -1    1    3    3    0  502  0.43360524614E+03 -0.16858624255E+03 -0.10927071955E+04  0.11876210868E+04  0.50400001928E-02 0. -1.
</event>
<event>
 5   0  0.3713516E-04  0.1724230E+04  0.7818609E-02  0.8747664E-01
       -1   -1    0    0    0  501  0.00000000000E+00  0.00000000000E+00  0.66363582432E+03  0.66363582434E+03  0.50400001928E-02 0. -1.
        1   -1    0    0  501    0  0.00000000000E+00  0.00000000000E+00 -0.11199553837E+04  0.11199553837E+04  0.50400001928E-02 0.  1.
    10030    2    1    2    0    0  0.00000000000E+00  0.00000000000E+00 -0.45631955939E+03  0.17835912081E+04  0.17242302796E+04 0.  0.
        5    1    3    3  502    0  0.38024624642E+03  0.20277459508E+03  0.54421591434E+03  0.69418858803E+03  0.46999998093E+01 0. -1.
       -5    1    3    3    0  502 -0.38024624642E+03 -0.20277459508E+03 -0.10005354737E+04  0.10894026200E+04  0.46999998093E+01 0.  1.
</event>
<event>
 5   0  0.3713516E-04  0.1695433E+04  0.7818609E-02  0.8763973E-01
        1   -1    0    0  501    0  0.00000000000E+00  0.00000000000E+00  0.67475466734E+03  0.67475466736E+03  0.50400001928E-02 0.  1.
       -1   -1    0    0    0  501  0.00000000000E+00  0.00000000000E+00 -0.10650141975E+04  0.10650141976E+04  0.50400001928E-02 0. -1.
    10030    2    1    2    0    0  0.00000000000E+00  0.00000000000E+00 -0.39025953020E+03  0.17397688649E+04  0.16954330427E+04 0.  0.
        5    1    3    3  502    0  0.34993064677E+03 -0.40533889842E+02 -0.98633528572E+03  0.10473651892E+04  0.46999998093E+01 0. -1.
       -5    1    3    3    0  502 -0.34993064677E+03  0.40533889842E+02  0.59607575552E+03  0.69240367567E+03  0.46999998093E+01 0.  1.
</event>
<event>
 5   0  0.3915701E-04  0.1668249E+04  0.7818609E-02  0.8779683E-01
        1   -1    0    0  501    0  0.00000000000E+00  0.00000000000E+00  0.10780422666E+04  0.10780422666E+04  0.50400001928E-02 0.  1.
       -1   -1    0    0    0  501  0.00000000000E+00  0.00000000000E+00 -0.64539544152E+03  0.64539544154E+03  0.50400001928E-02 0. -1.
    10030    2    1    2    0    0  0.00000000000E+00  0.00000000000E+00  0.43264682510E+03  0.17234377082E+04  0.16682488599E+04 0.  0.
        2    1    3    3  502    0 -0.29508432585E+03 -0.27719945377E+03  0.96972934772E+03  0.10508517043E+04  0.25500000920E-02 0.  1.
       -2    1    3    3    0  502  0.29508432585E+03  0.27719945377E+03 -0.53708252262E+03  0.67258600390E+03  0.25500000920E-02 0. -1.
</event>
<event>
 5   0  0.3915701E-04  0.1700473E+04  0.7818609E-02  0.8761095E-01
        1   -1    0    0  501    0  0.00000000000E+00  0.00000000000E+00  0.11814460176E+04  0.11814460176E+04  0.50400001928E-02 0. -1.
       -1   -1    0    0    0  501  0.00000000000E+00  0.00000000000E+00 -0.61187880746E+03  0.61187880748E+03  0.50400001928E-02 0.  1.
    10030    2    1    2    0    0  0.00000000000E+00  0.00000000000E+00  0.56956721011E+03  0.17933248251E+04  0.17004726171E+04 0.  0.
        2    1    3    3  502    0 -0.28389906913E+03 -0.33009123499E+03  0.10549641903E+04  0.11412748782E+04  0.25500000920E-02 0. -1.
       -2    1    3    3    0  502  0.28389906913E+03  0.33009123499E+03 -0.48539698015E+03  0.65204994687E+03  0.25500000920E-02 0.  1.
</event>
<event>
 5   0  0.3915701E-04  0.1710601E+04  0.7818609E-02  0.8755341E-01
        1   -1    0    0  501    0  0.00000000000E+00  0.00000000000E+00  0.10361640378E+04  0.10361640378E+04  0.50400001928E-02 0.  1.
       -1   -1    0    0    0  501  0.00000000000E+00  0.00000000000E+00 -0.70600651081E+03  0.70600651082E+03  0.50400001928E-02 0. -1.
    10030    2    1    2    0    0  0.00000000000E+00  0.00000000000E+00  0.33015752701E+03  0.17421705487E+04  0.17106005460E+04 0.  0.
        2    1    3    3  502    0 -0.74644070282E+03 -0.25716731148E+03 -0.16997577536E+03  0.80758932208E+03  0.25500000920E-02 0. -1.
       -2    1    3    3    0  502  0.74644070282E+03  0.25716731148E+03  0.50013330237E+03  0.93458122657E+03  0.25500000920E-02 0.  1.
</event>
<event>
 5   0  0.6746664E-04  0.1777248E+04  0.7818609E-02  0.8718493E-01
        2   -1    0    0  501    0  0.00000000000E+00  0.00000000000E+00  0.17148860037E+04  0.17148860037E+04  0.25500000920E-02 0.  1.
       -2   -1    0    0    0  501  0.00000000000E+00  0.00000000000E+00 -0.46046944207E+03  0.46046944208E+03  0.25500000920E-02 0. -1.
    10030    2    1    2    0    0  0.00000000000E+00  0.00000000000E+00  0.12544165617E+04  0.21753554458E+04  0.17772479865E+04 0.  0.
        5    1    3    3  502    0 -0.36647383234E+03  0.80744468702E+03  0.55625289354E+03  0.10467613692E+04  0.46999998093E+01 0.  1.
       -5    1    3    3    0  502  0.36647383234E+03 -0.80744468702E+03  0.69816366812E+03  0.11285940767E+04  0.46999998093E+01 0. -1.
</event>
<event>
 5   0  0.3723500E-04  0.1672105E+04  0.7818609E-02  0.8777436E-01
       -1   -1    0    0    0  501  0.00000000000E+00  0.00000000000E+00  0.65424230314E+03  0.65424230315E+03  0.50400001928E-02 0.  1.
        1   -1    0    0  501    0  0.00000000000E+00  0.00000000000E+00 -0.10683871486E+04  0.10683871486E+04  0.50400001928E-02 0. -1.
    10030    2    1    2    0    0  0.00000000000E+00  0.00000000000E+00 -0.41414484550E+03  0.17226294518E+04  0.16721053421E+04 0.  0.
        1    1    3    3  502    0 -0.80426165262E+03  0.20587209758E+03 -0.10527404987E+03  0.83684093592E+03  0.50400001928E-02 0.  1.
       -1    1    3    3    0  502  0.80426165262E+03 -0.20587209758E+03 -0.30887079563E+03  0.88578851587E+03  0.50400001928E-02 0. -1.
</event>
<event>
 5   0  0.2639750E-04  0.1629965E+04  0.7818609E-02  0.8802348E-01
        3   -1    0    0  501    0  0.00000000000E+00  0.00000000000E+00  0.30943706730E+03  0.30943708379E+03  0.10100000352E+00 0. -1.
       -3   -1    0    0    0  501  0.00000000000E+00  0.00000000000E+00 -0.21464674734E+04  0.21464674758E+04  0.10100000352E+00 0.  1.
    10030    2    1    2    0    0  0.00000000000E+00  0.00000000000E+00 -0.18370304061E+04  0.24559045596E+04  0.16299651815E+04 0.  0.
        4    1    3    3  502    0 -0.83475912653E+02  0.33719616328E+02 -0.21389505884E+04  0.21408448036E+04  0.12699999809E+01 0.  1.
       -4    1    3    3    0  502  0.83475912653E+02 -0.33719616328E+02  0.30192018225E+03  0.31505975603E+03  0.12699999809E+01 0. -1.
</event>
<event>
 5   0  0.7242144E-04  0.1708553E+04  0.7818609E-02  0.8756501E-01
       -2   -1    0    0    0  501  0.00000000000E+00  0.00000000000E+00  0.33236514675E+03  0.33236514676E+03  0.25500000920E-02 0. -1.
        2   -1    0    0  501    0  0.00000000000E+00  0.00000000000E+00 -0.21957439654E+04  0.21957439654E+04  0.25500000920E-02 0.  1.
    10030    2    1    2    0    0  0.00000000000E+00  0.00000000000E+00 -0.18633788186E+04  0.25281091122E+04  0.17085534997E+04 0.  0.
        3    1    3    3  502    0 -0.81201243815E+03  0.10713454851E+03 -0.57243910732E+03  0.99926400565E+03  0.10100000352E+00 0. -1.
       -3    1    3    3    0  502  0.81201243815E+03 -0.10713454851E+03 -0.12909397113E+04  0.15288451065E+04  0.10100000352E+00 0.  1.
</event>
<event>
 5   0  0.3803253E-04  0.1715931E+04  0.7818609E-02  0.8752330E-01
       -1   -1    0    0    0  501  0.00000000000E+00  0.00000000000E+00  0.10560533954E+04  0.10560533954E+04  0.50400001928E-02 0. -1.
        1   -1    0    0  501    0  0.00000000000E+00  0.00000000000E+00 -0.69703387724E+03  0.69703387726E+03  0.50400001928E-02 0.  1.
    10030    2    1    2    0    0  0.00000000000E+00  0.00000000000E+00  0.35901951819E+03  0.17530872727E+04  0.17159312257E+04 0.  0.
        4    1    3    3  502    0 -0.38863724412E+03 -0.64558251892E+03 -0.23960198043E+03  0.79071260150E+03  0.12699999809E+01 0.  1.
       -4    1    3    3    0  502  0.38863724412E+03  0.64558251892E+03  0.59862149862E+03  0.96237467119E+03  0.12699999809E+01 0. -1.
</event>
<event>
 5   0  0.7049044E-04  0.1389103E+04  0.7818609E-02  0.8961744E-01
       -2   -1    0    0    0  501  0.00000000000E+00  0.00000000000E+00  0.42771901689E+03  0.42771901689E+03  0.25500000920E-02 0. -1.
        2   -1    0    0  501    0  0.00000000000E+00  0.00000000000E+00 -0.11278478373E+04  0.11278478373E+04  0.25500000920E-02 0.  1.
    10030    2    1    2    0    0  0.00000000000E+00  0.00000000000E+00 -0.70012882044E+03  0.15555668542E+04  0.13891032621E+04 0.  0.
        4    1    3    3  502    0  0.33787507148E+02  0.45206159282E+03  0.23920636480E+03  0.51256470538E+03  0.12699999809E+01 0. -1.
       -4    1    3    3    0  502 -0.33787507148E+02 -0.45206159282E+03 -0.93933518524E+03  0.10430021488E+04  0.12699999809E+01 0.  1.
</event>
<event>
 5   0  0.7233728E-04  0.1841984E+04  0.7818609E-02  0.8684286E-01
        2   -1    0    0  501    0  0.00000000000E+00  0.00000000000E+00  0.23836752657E+04  0.23836752657E+04  0.25500000920E-02 0.  1.
       -2   -1    0    0    0  501  0.00000000000E+00  0.00000000000E+00 -0.35584808678E+03  0.35584808679E+03  0.25500000920E-02 0. -1.
    10030    2    1    2    0    0  0.00000000000E+00  0.00000000000E+00  0.20278271789E+04  0.27395233525E+04  0.18419840204E+04 0.  0.
        1    1    3    3  502    0 -0.32407862711E+03 -0.50123183265E+02 -0.26607620682E+03  0.42229828073E+03  0.50400001928E-02 0. -1.
       -1    1    3    3    0  502  0.32407862711E+03  0.50123183265E+02  0.22939033857E+04  0.23172250718E+04  0.50400001928E-02 0.  1.
</event>
<event>
 5   0  0.3635143E-04  0.1682077E+04  0.7818609E-02  0.8771653E-01
        1   -1    0    0  501    0  0.00000000000E+00  0.00000000000E+00  0.17498763150E+04  0.17498763150E+04  0.50400001928E-02 0. -1.
       -1   -1    0    0    0  501  0.00000000000E+00  0.00000000000E+00 -0.40422628213E+03  0.40422628216E+03  0.50400001928E-02 0.  1.
    10030    2    1    2    0    0  0.00000000000E+00  0.00000000000E+00  0.13456500328E+04  0.21541025971E+04  0.16820772836E+04 0.  0.
        3    1    3    3  502    0 -0.81480376615E+03  0.20102327078E+03  0.60232742265E+03  0.10330120362E+04  0.10100000352E+00 0. -1.
       -3    1    3    3    0  502  0.81480376615E+03 -0.20102327078E+03  0.74332261019E+03  0.11210905609E+04  0.10100000352E+00 0.  1.
</event>
<event>
 5   0  0.7242144E-04  0.1681839E+04  0.7818609E-02  0.8771791E-01
       -2   -1    0    0    0  501  0.00000000000E+00  0.00000000000E+00  0.10504059520E+04  0.10504059520E+04  0.25500000920E-02 0. -1.
        2   -1    0    0  501    0  0.00000000000E+00  0.00000000000E+00 -0.67321163498E+03  0.67321163498E+03  0.25500000920E-02 0.  1.
    10030    2    1    2    0    0  0.00000000000E+00  0.00000000000E+00  0.37719431704E+03  0.17236175870E+04  0.16818388845E+04 0.  0.
        3    1    3    3  502    0  0.53015739429E+03  0.57175025989E+03  0.51134933771E+03  0.93243947673E+03  0.10100000352E+00 0. -1.
       -3    1    3    3    0  502 -0.53015739429E+03 -0.57175025989E+03 -0.13415502067E+03  0.79117811027E+03  0.10100000352E+00 0.  1.
</event>
<event>
 5   0  0.3803253E-04  0.1712417E+04  0.7818609E-02  0.8754314E-01
       -1   -1    0    0    0  501  0.00000000000E+00  0.00000000000E+00  0.18184644844E+04  0.18184644844E+04  0.50400001928E-02 0. -1.
        1   -1    0    0  501    0  0.00000000000E+00  0.00000000000E+00 -0.40313827162E+03  0.40313827165E+03  0.50400001928E-02 0.  1.
    10030    2    1    2    0    0  0.00000000000E+00  0.00000000000E+00  0.14153262128E+04  0.22216027561E+04  0.17124165723E+04 0.  0.
        4    1    3    3  502    0 -0.70025418306E+03  0.48566605675E+03  0.60018197432E+03  0.10423279018E+04  0.12699999809E+01 0. -1.
       -4    1    3    3    0  502  0.70025418306E+03 -0.48566605675E+03  0.81514423846E+03  0.11792748543E+04  0.12699999809E+01 0.  1.
</event>
<event>
 5   0  0.7025426E-04  0.1635473E+04  0.7818609E-02  0.8799047E-01
        2   -1    0    0  501    0  0.00000000000E+00  0.00000000000E+00  0.15680577550E+04  0.15680577550E+04  0.25500000920E-02 0.  1.
       -2   -1    0    0    0  501  0.00000000000E+00  0.00000000000E+00 -0.42644646440E+03  0.42644646440E+03  0.25500000920E-02 0. -1.
    10030    2    1    2    0    0  0.00000000000E+00  0.00000000000E+00  0.11416112906E+04  0.19945042194E+04  0.16354726358E+04 0.  0.
        2    1    3    3  502    0 -0.79793051086E+03 -0.11468258260E+03  0.73822992772E+03  0.10930821658E+04  0.25500000920E-02 0.  1.
       -2    1    3    3    0  502  0.79793051086E+03  0.11468258260E+03  0.40338136293E+03  0.90142205369E+03  0.25500000920E-02 0. -1.
</event>
<event>
 5   0  0.3803253E-04  0.1678280E+04  0.7818609E-02  0.8773850E-01
        1   -1    0    0  501    0  0.00000000000E+00  0.00000000000E+00  0.16234409438E+04  0.16234409438E+04  0.50400001928E-02 0. -1.
       -1   -1    0    0    0  501  0.00000000000E+00  0.00000000000E+00 -0.43374284135E+03  0.43374284138E+03  0.50400001928E-02 0.  1.
    10030    2    1    2    0    0  0.00000000000E+00  0.00000000000E+00  0.11896981024E+04  0.20571837851E+04  0.16782799382E+04 0.  0.
        4    1    3    3  502    0  0.74747311864E+03  0.11578180696E+03  0.14944969873E+03  0.77101122901E+03  0.12699999809E+01 0.  1.
       -4    1    3    3    0  502 -0.74747311864E+03 -0.11578180696E+03  0.10402484037E+04  0.12861725561E+04  0.12699999809E+01 0. -1.
</event>
<event>
 5   0  0.3803253E-04  0.1678108E+04  0.7818609E-02  0.8773949E-01
        1   -1    0    0  501    0  0.00000000000E+00  0.00000000000E+00  0.12227156681E+04  0.12227156681E+04  0.50400001928E-02 0.  1.
       -1   -1    0    0    0  501  0.00000000000E+00  0.00000000000E+00 -0.57577728811E+03  0.57577728813E+03  0.50400001928E-02 0. -1.
    10030    2    1    2    0    0  0.00000000000E+00  0.00000000000E+00  0.64693838002E+03  0.17984929563E+04  0.16781083535E+04 0.  0.
        4    1    3    3  502    0 -0.19965408226E+03 -0.54978115910E+02  0.11948958551E+04  0.12127085649E+04  0.12699999809E+01 0.  1.
       -4    1    3    3    0  502  0.19965408226E+03  0.54978115910E+02 -0.54795747511E+03  0.58578439141E+03  0.12699999809E+01 0. -1.
</event>
<event>
 5   0  0.3915701E-04  0.1667984E+04  0.7818609E-02  0.8779838E-01
        1   -1    0    0  501    0  0.00000000000E+00  0.00000000000E+00  0.95820197924E+03  0.95820197925E+03  0.50400001928E-02 0.  1.
       -1   -1    0    0    0  501  0.00000000000E+00  0.00000000000E+00 -0.72588300994E+03  0.72588300995E+03  0.50400001928E-02 0. -1.
    10030    2    1    2    0    0  0.00000000000E+00  0.00000000000E+00  0.23231896930E+03  0.16840849892E+04  0.16679838570E+04 0.  0.
        2    1    3    3  502    0  0.27846591753E+03 -0.78200208889E+03  0.19738481807E+03  0.85324750258E+03  0.25500000920E-02 0.  1.
       -2    1    3    3    0  502 -0.27846591753E+03  0.78200208889E+03  0.34934151227E+02  0.83083748662E+03  0.25500000920E-02 0. -1.
</event>
<event>
 5   0  0.7025426E-04  0.1717847E+04  0.7818609E-02  0.8751250E-01
       -2   -1    0    0    0  501  0.00000000000E+00  0.00000000000E+00  0.91401232120E+03  0.91401232120E+03  0.25500000920E-02 0.  1.
        2   -1    0    0  501    0  0.00000000000E+00  0.00000000000E+00 -0.80715533999E+03  0.80715534000E+03  0.25500000920E-02 0. -1.
    10030    2    1    2    0    0  0.00000000000E+00  0.00000000000E+00  0.10685698120E+03  0.17211676612E+04  0.17178474040E+04 0.  0.
        2    1    3    3  502    0  0.21830963580E+03  0.77941552988E+03 -0.23453309819E+03  0.84270602196E+03  0.25500000920E-02 0. -1.
       -2    1    3    3    0  502 -0.21830963580E+03 -0.77941552988E+03  0.34139007939E+03  0.87846163924E+03  0.25500000920E-02 0.  1.
</event>
<event>
 5   0  0.7233728E-04  0.1701078E+04  0.7818609E-02  0.8760750E-01
       -2   -1    0    0    0  501  0.00000000000E+00  0.00000000000E+00  0.54823978542E+03  0.54823978543E+03  0.25500000920E-02 0. -1.
        2   -1    0    0  501    0  0.00000000000E+00  0.00000000000E+00 -0.13195258861E+04  0.13195258861E+04  0.25500000920E-02 0.  1.
    10030    2    1    2    0    0  0.00000000000E+00  0.00000000000E+00 -0.77128610068E+03  0.18677656715E+04  0.17010779978E+04 0.  0.
        1    1    3    3  502    0 -0.61968548966E+02 -0.61486169686E+03  0.25602030517E+03  0.66891060988E+03  0.50400001928E-02 0. -1.
       -1    1    3    3    0  502  0.61968548966E+02  0.61486169686E+03 -0.10273064058E+04  0.11988550617E+04  0.50400001928E-02 0.  1.
</event>
<event>
 5   0  0.6746664E-04  0.1698922E+04  0.7818609E-02  0.8761979E-01
       -2   -1    0    0    0  501  0.00000000000E+00  0.00000000000E+00  0.38243397684E+03  0.38243397685E+03  0.25500000920E-02 0.  1.
        2   -1    0    0  501    0  0.00000000000E+00  0.00000000000E+00 -0.18868201916E+04  0.18868201916E+04  0.25500000920E-02 0. -1.
    10030    2    1    2    0    0  0.00000000000E+00  0.00000000000E+00 -0.15043862148E+04  0.22692541685E+04  0.16989221871E+04 0.  0.
        5    1    3    3  502    0 -0.71434101695E+02 -0.66725976972E+03 -0.14478152769E+04  0.15957849471E+04  0.46999998093E+01 0. -1.
       -5    1    3    3    0  502  0.71434101695E+02  0.66725976972E+03 -0.56570937832E+02  0.67346922140E+03  0.46999998093E+01 0.  1.
</event>
<event>
 5   0  0.7233728E-04  0.1700151E+04  0.7818609E-02  0.8761278E-01
       -2   -1    0    0    0  501  0.00000000000E+00  0.00000000000E+00  0.17727317202E+04  0.17727317202E+04  0.25500000920E-02 0. -1.
        2   -1    0    0  501    0  0.00000000000E+00  0.00000000000E+00 -0.40763570569E+03  0.40763570570E+03  0.25500000920E-02 0.  1.
    10030    2    1    2    0    0  0.00000000000E+00  0.00000000000E+00  0.13650960145E+04  0.21803674259E+04  0.17001514589E+04 0.  0.
        1    1    3    3  502    0  0.14763998840E+03 -0.69473879285E+03  0.12815645022E+04  0.14652191405E+04  0.50400001928E-02 0. -1.
       -1    1    3    3    0  502 -0.14763998840E+03  0.69473879285E+03  0.83531512288E+02  0.71514828535E+03  0.50400001928E-02 0.  1.
</event>
<event>
 5   0  0.3723500E-04  0.1788573E+04  0.7818609E-02  0.8712400E-01
        1   -1    0    0  501    0  0.00000000000E+00  0.00000000000E+00  0.95369572240E+03  0.95369572241E+03  0.50400001928E-02 0.  1.
       -1   -1    0    0    0  501  0.00000000000E+00  0.00000000000E+00 -0.83857853640E+03  0.83857853641E+03  0.50400001928E-02 0. -1.
    10030    2    1    2    0    0  0.00000000000E+00  0.00000000000E+00  0.11511718600E+03  0.17922742588E+04  0.17885734685E+04 0.  0.
        1    1    3    3  502    0 -0.58326892188E+03  0.61884138735E+03 -0.21974756803E+03  0.87832584592E+03  0.50400001928E-02 0.  1.
       -1    1    3    3    0  502  0.58326892188E+03 -0.61884138735E+03  0.33486475403E+03  0.91394841291E+03  0.50400001928E-02 0. -1.
</event>
<event>
 5   0  0.6746664E-04  0.1711892E+04  0.7818609E-02  0.8754611E-01
        2   -1    0    0  501    0  0.00000000000E+00  0.00000000000E+00  0.73053631746E+03  0.73053631746E+03  0.25500000920E-02 0. -1.
       -2   -1    0    0    0  501  0.00000000000E+00  0.00000000000E+00 -0.10028843288E+04  0.10028843288E+04  0.25500000920E-02 0.  1.
    10030    2    1    2    0    0  0.00000000000E+00  0.00000000000E+00 -0.27234801131E+03  0.17334206462E+04  0.17118918475E+04 0.  0.
        5    1    3    3  502    0 -0.49329471466E+03 -0.29545579088E+02  0.57147735301E+03  0.75552701590E+03  0.46999998093E+01 0. -1.
       -5    1    3    3    0  502  0.49329471466E+03  0.29545579088E+02 -0.84382536432E+03  0.97789363032E+03  0.46999998093E+01 0.  1.
</event>
<event>
 5   0  0.2639750E-04  0.1671488E+04  0.7818609E-02  0.8777795E-01
        3   -1    0    0  501    0  0.00000000000E+00  0.00000000000E+00  0.10572546692E+04  0.10572546740E+04  0.10100000352E+00 0. -1.
       -3   -1    0    0    0  501  0.00000000000E+00  0.00000000000E+00 -0.66064285676E+03  0.66064286448E+03  0.10100000352E+00 0.  1.
    10030    2    1    2    0    0  0.00000000000E+00  0.00000000000E+00  0.39661181246E+03  0.17178975385E+04  0.16714876676E+04 0.  0.
        1    1    3    3  502    0 -0.78201460382E+02  0.82851258141E+03  0.11923345300E+03  0.84069327481E+03  0.50400001928E-02 0.  1.
       -1    1    3    3    0  502  0.78201460382E+02 -0.82851258141E+03  0.27737835947E+03  0.87720426372E+03  0.50400001928E-02 0. -1.
</event>
<event>
 5   0  0.7049044E-04  0.1689667E+04  0.7818609E-02  0.8767280E-01
        2   -1    0    0  501    0  0.00000000000E+00  0.00000000000E+00  0.10109708112E+04  0.10109708112E+04  0.25500000920E-02 0.  1.
       -2   -1    0    0    0  501  0.00000000000E+00  0.00000000000E+00 -0.70599838438E+03  0.70599838438E+03  0.25500000920E-02 0. -1.
    10030    2    1    2    0    0  0.00000000000E+00  0.00000000000E+00  0.30497242680E+03  0.17169691956E+04  0.16896671381E+04 0.  0.
        4    1    3    3  502    0  0.27778316270E+03 -0.58563970200E+02  0.96104999122E+03  0.10021037484E+04  0.12699999809E+01 0.  1.
       -4    1    3    3    0  502 -0.27778316270E+03  0.58563970200E+02 -0.65607756442E+03  0.71486544714E+03  0.12699999809E+01 0. -1.
</event>
<event>
 5   0  0.7049044E-04  0.1687057E+04  0.7818609E-02  0.8768781E-01
        2   -1    0    0  501    0  0.00000000000E+00  0.00000000000E+00  0.61677988787E+03  0.61677988787E+03  0.25500000920E-02 0.  1.
       -2   -1    0    0    0  501  0.00000000000E+00  0.00000000000E+00 -0.11536379707E+04  0.11536379707E+04  0.25500000920E-02 0. -1.
    10030    2    1    2    0    0  0.00000000000E+00  0.00000000000E+00 -0.53685808283E+03  0.17704178586E+04  0.16870574361E+04 0.  0.
        4    1    3    3  502    0  0.36906089776E+03 -0.12671407180E+03 -0.10532295395E+04  0.11231903125E+04  0.12699999809E+01 0. -1.
       -4    1    3    3    0  502 -0.36906089776E+03  0.12671407180E+03  0.51637145668E+03  0.64722754609E+03  0.12699999809E+01 0.  1.
</event>
<event>
 5   0  0.3915701E-04  0.1708602E+04  0.7818609E-02  0.8756474E-01
       -1   -1    0    0    0  501  0.00000000000E+00  0.00000000000E+00  0.80682659071E+03  0.80682659072E+03  0.50400001928E-02 0.  1.
        1   -1    0    0  501    0  0.00000000000E+00  0.00000000000E+00 -0.90456839139E+03  0.90456839141E+03  0.50400001928E-02 0. -1.
    10030    2    1    2    0    0  0.00000000000E+00  0.00000000000E+00 -0.97741800686E+02  0.17113949821E+04  0.17086015701E+04 0.  0.
        2    1    3    3  502    0 -0.47535313230E+03 -0.66390377909E+03 -0.30048071889E+03  0.87006752077E+03  0.25500000920E-02 0. -1.
       -2    1    3    3    0  502  0.47535313230E+03  0.66390377909E+03  0.20273891821E+03  0.84132746136E+03  0.25500000920E-02 0.  1.
</event>
<event>
 5   0  0.3635143E-04  0.1692319E+04  0.7818609E-02  0.8765757E-01
        1   -1    0    0  501    0  0.00000000000E+00  0.00000000000E+00  0.12182108763E+04  0.12182108763E+04  0.50400001928E-02 0. -1.
       -1   -1    0    0    0  501  0.00000000000E+00  0.00000000000E+00 -0.58773588619E+03  0.58773588621E+03  0.50400001928E-02 0.  1.
    10030    2    1    2    0    0  0.00000000000E+00  0.00000000000E+00  0.63047499012E+03  0.18059467625E+04  0.16923194131E+04 0.  0.
        3    1    3    3  502    0 -0.81520416282E+03 -0.21808015896E+03  0.24885591864E+03  0.87979887545E+03  0.10100000352E+00 0.  1.
       -3    1    3    3    0  502  0.81520416282E+03  0.21808015896E+03  0.38161907148E+03  0.92614788707E+03  0.10100000352E+00 0. -1.
</event>
<event>
 5   0  0.3713516E-04  0.1688767E+04  0.7818609E-02  0.8767797E-01
       -1   -1    0    0    0  501  0.00000000000E+00  0.00000000000E+00  0.38657230973E+03  0.38657230976E+03  0.50400001928E-02 0.  1.
        1   -1    0    0  501    0  0.00000000000E+00  0.00000000000E+00 -0.18443736849E+04  0.18443736850E+04  0.50400001928E-02 0. -1.
    10030    2    1    2    0    0  0.00000000000E+00  0.00000000000E+00 -0.14578013752E+04  0.22309459947E+04  0.16887673557E+04 0.  0.
        5    1    3    3  502    0 -0.48597152233E+03 -0.64304708203E+03 -0.10612276879E+04  0.13326305436E+04  0.46999998093E+01 0. -1.
       -5    1    3    3    0  502  0.48597152233E+03  0.64304708203E+03 -0.39657368735E+03  0.89831545112E+03  0.46999998093E+01 0.  1.
</event>
<event>
 5   0  0.7049044E-04  0.1810565E+04  0.7818609E-02  0.8700701E-01
        2   -1    0    0  501    0  0.00000000000E+00  0.00000000000E+00  0.16374383390E+04  0.16374383390E+04  0.25500000920E-02 0. -1.
       -2   -1    0    0    0  501  0.00000000000E+00  0.00000000000E+00 -0.50049898119E+03  0.50049898120E+03  0.25500000920E-02 0.  1.
    10030    2    1    2    0    0  0.00000000000E+00  0.00000000000E+00  0.11369393578E+04  0.21379373202E+04  0.18105647964E+04 0.  0.
        4    1    3    3  502    0 -0.13768148766E+03  0.81329822834E+00  0.16250016793E+04  0.16308246148E+04  0.12699999809E+01 0. -1.
       -4    1    3    3    0  502  0.13768148766E+03 -0.81329822834E+00 -0.48806232147E+03  0.50711270546E+03  0.12699999809E+01 0.  1.
</event>
<event>
 5   0  0.6746664E-04  0.1372628E+04  0.7818609E-02  0.8973873E-01
        2   -1    0    0  501    0  0.00000000000E+00  0.00000000000E+00  0.14124015330E+04  0.14124015330E+04  0.25500000920E-02 0.  1.
       -2   -1    0    0    0  501  0.00000000000E+00  0.00000000000E+00 -0.33349386379E+03  0.33349386380E+03  0.25500000920E-02 0. -1.
    10030    2    1    2    0    0  0.00000000000E+00  0.00000000000E+00  0.10789076692E+04  0.17458953968E+04  0.13726284923E+04 0.  0.
        5    1    3    3  502    0 -0.54217657165E+02 -0.10228557729E+03 -0.32096471694E+03  0.34123647693E+03  0.46999998093E+01 0. -1.
       -5    1    3    3    0  502  0.54217657165E+02  0.10228557729E+03  0.13998723861E+04  0.14046589199E+04  0.46999998093E+01 0.  1.
</event>
<event>
 5   0  0.7233728E-04  0.1696111E+04  0.7818609E-02  0.8763585E-01
        2   -1    0    0  501    0  0.00000000000E+00  0.00000000000E+00  0.49063861063E+03  0.49063861064E+03  0.25500000920E-02 0. -1.
       -2   -1    0    0    0  501  0.00000000000E+00  0.00000000000E+00 -0.14658415811E+04  0.14658415811E+04  0.25500000920E-02 0.  1.
    10030    2    1    2    0    0  0.00000000000E+00  0.00000000000E+00 -0.97520297045E+03  0.19564801917E+04  0.16961114076E+04 0.  0.
        1    1    3    3  502    0 -0.76483312572E+03  0.34344792486E+03 -0.63474645173E+03  0.10515841599E+04  0.50400001928E-02 0.  1.
       -1    1    3    3    0  502  0.76483312572E+03 -0.34344792486E+03 -0.34045651872E+03  0.90489603185E+03  0.50400001928E-02 0. -1.
</event>
<event>
 5   0  0.7233728E-04  0.1702873E+04  0.7818609E-02  0.8759727E-01
       -2   -1    0    0    0  501  0.00000000000E+00  0.00000000000E+00  0.34585226434E+03  0.34585226435E+03  0.25500000920E-02 0.  1.
        2   -1    0    0  501    0  0.00000000000E+00  0.00000000000E+00 -0.20961094716E+04  0.20961094716E+04  0.25500000920E-02 0. -1.
    10030    2    1    2    0    0  0.00000000000E+00  0.00000000000E+00 -0.17502572073E+04  0.24419617360E+04  0.17028731099E+04 0.  0.
        1    1    3    3  502    0  0.79375707027E+03 -0.21881122396E+03 -0.11860691905E+04  0.14438451313E+04  0.50400001928E-02 0. -1.
       -1    1    3    3    0  502 -0.79375707027E+03  0.21881122396E+03 -0.56418801677E+03  0.99811660473E+03  0.50400001928E-02 0.  1.
</event>
<event>
 5   0  0.3713516E-04  0.1615730E+04  0.7818609E-02  0.8810942E-01
        1   -1    0    0  501    0  0.00000000000E+00  0.00000000000E+00  0.54812192940E+03  0.54812192942E+03  0.50400001928E-02 0. -1.
       -1   -1    0    0    0  501  0.00000000000E+00  0.00000000000E+00 -0.11906951300E+04  0.11906951300E+04  0.50400001928E-02 0.  1.
    10030    2    1    2    0    0  0.00000000000E+00  0.00000000000E+00 -0.64257320061E+03  0.17388170594E+04  0.16157303141E+04 0.  0.
        5    1    3    3  502    0  0.24300109508E+03 -0.48409868402E+03 -0.96629750807E+03  0.11077698462E+04  0.46999998093E+01 0.  1.
       -5    1    3    3    0  502 -0.24300109508E+03  0.48409868402E+03  0.32372430746E+03  0.63104721322E+03  0.46999998093E+01 0. -1.
</event>
<event>
 5   0  0.3713516E-04  0.1668158E+04  0.7818609E-02  0.8779737E-01
        1   -1    0    0  501    0  0.00000000000E+00  0.00000000000E+00  0.89873042956E+03  0.89873042957E+03  0.50400001928E-02 0. -1.
       -1   -1    0    0    0  501  0.00000000000E+00  0.00000000000E+00 -0.77407798903E+03  0.77407798905E+03  0.50400001928E-02 0.  1.
    10030    2    1    2    0    0  0.00000000000E+00  0.00000000000E+00  0.12465244052E+03  0.16728084186E+04  0.16681575988E+04 0.  0.
        5    1    3    3  502    0  0.18628803062E+03 -0.57310322132E+02  0.87556048546E+03  0.89700387795E+03  0.46999998093E+01 0. -1.
       -5    1    3    3    0  502 -0.18628803062E+03  0.57310322132E+02 -0.75090804493E+03  0.77580454066E+03  0.46999998093E+01 0.  1.
</event>
<event>
 5   0  0.7049044E-04  0.1707943E+04  0.7818609E-02  0.8756847E-01
        2   -1    0    0  501    0  0.00000000000E+00  0.00000000000E+00  0.26158834722E+04  0.26158834722E+04  0.25500000920E-02 0.  1.
       -2   -1    0    0    0  501  0.00000000000E+00  0.00000000000E+00 -0.27878444497E+03  0.27878444498E+03  0.25500000920E-02 0. -1.
    10030    2    1    2    0    0  0.00000000000E+00  0.00000000000E+00  0.23370990273E+04  0.28946679172E+04  0.17079433503E+04 0.  0.
        4    1    3    3  502    0 -0.57372472948E+03 -0.14988542536E+03  0.12703709018E+03  0.60643692263E+03  0.12699999809E+01 0. -1.
       -4    1    3    3    0  502  0.57372472948E+03  0.14988542536E+03  0.22100619371E+04  0.22882309946E+04  0.12699999809E+01 0.  1.
</event>
<event>
 5   0  0.3803253E-04  0.1732728E+04  0.7818609E-02  0.8742916E-01
       -1   -1    0    0    0  501  0.00000000000E+00  0.00000000000E+00  0.65188613573E+03  0.65188613575E+03  0.50400001928E-02 0.  1.
        1   -1    0    0  501    0  0.00000000000E+00  0.00000000000E+00 -0.11514070436E+04  0.11514070436E+04  0.50400001928E-02 0. -1.
    10030    2    1    2    0    0  0.00000000000E+00  0.00000000000E+00 -0.49952090785E+03  0.18032931793E+04  0.17327276628E+04 0.  0.
        4    1    3    3  502    0  0.25667662268E+03 -0.39612179520E+03 -0.10058379746E+04  0.11110837094E+04  0.12699999809E+01 0. -1.
       -4    1    3    3    0  502 -0.25667662268E+03  0.39612179520E+03  0.50631706676E+03  0.69220946993E+03  0.12699999809E+01 0.  1.
</event>
<event>
 5   0  0.7049044E-04  0.1698474E+04  0.7818609E-02  0.8762235E-01
        2   -1    0    0  501    0  0.00000000000E+00  0.00000000000E+00  0.15274465743E+04  0.15274465743E+04  0.25500000920E-02 0. -1.
       -2   -1    0    0    0  501  0.00000000000E+00  0.00000000000E+00 -0.47216267938E+03  0.47216267938E+03  0.25500000920E-02 0.  1.
    10030    2    1    2    0    0  0.00000000000E+00  0.00000000000E+00  0.10552838949E+04  0.19996092537E+04  0.16984737468E+04 0.  0.
        4    1    3    3  502    0  0.74793814768E+03 -0.19918039120E+03  0.11623180802E+03  0.78268496031E+03  0.12699999809E+01 0.  1.
       -4    1    3    3    0  502 -0.74793814768E+03  0.19918039120E+03  0.93905208689E+03  0.12169242934E+04  0.12699999809E+01 0. -1.
</event>
<event>
 5   0  0.3635143E-04  0.1731555E+04  0.7818609E-02  0.8743569E-01
       -1   -1    0    0    0  501  0.00000000000E+00  0.00000000000E+00  0.59900158093E+03  0.59900158096E+03  0.50400001928E-02 0.  1.
        1   -1    0    0  501    0  0.00000000000E+00  0.00000000000E+00 -0.12513662793E+04  0.12513662793E+04  0.50400001928E-02 0. -1.
    10030    2    1    2    0    0  0.00000000000E+00  0.00000000000E+00 -0.65236469836E+03  0.18503678603E+04  0.17315546537E+04 0.  0.
        3    1    3    3  502    0  0.33498390302E+02  0.78633234140E+03  0.59304926300E+02  0.78927674346E+03  0.10100000352E+00 0.  1.
       -3    1    3    3    0  502 -0.33498390302E+02 -0.78633234140E+03 -0.71166962466E+03  0.10610911168E+04  0.10100000352E+00 0. -1.
</event>
<event>
 5   0  0.3803253E-04  0.1739903E+04  0.7818609E-02  0.8738928E-01
        1   -1    0    0  501    0  0.00000000000E+00  0.00000000000E+00  0.12277903528E+04  0.12277903528E+04  0.50400001928E-02 0.  1.
       -1   -1    0    0    0  501  0.00000000000E+00  0.00000000000E+00 -0.61640483038E+03  0.61640483040E+03  0.50400001928E-02 0. -1.
    10030    2    1    2    0    0  0.00000000000E+00  0.00000000000E+00  0.61138552237E+03  0.18441951832E+04  0.17399033354E+04 0.  0.
        4    1    3    3  502    0 -0.74616010622E+03 -0.14821240675E+02 -0.16813736172E+03  0.76501395974E+03  0.12699999809E+01 0. -1.
       -4    1    3    3    0  502  0.74616010622E+03  0.14821240675E+02  0.77952288409E+03  0.10791812234E+04  0.12699999809E+01 0.  1.
</event>
<event>
 5   0  0.3915701E-04  0.1705662E+04  0.7818609E-02  0.8758142E-01
       -1   -1    0    0    0  501  0.00000000000E+00  0.00000000000E+00  0.81727173168E+03  0.81727173169E+03  0.50400001928E-02 0. -1.
        1   -1    0    0  501    0  0.00000000000E+00  0.00000000000E+00 -0.88993709198E+03  0.88993709200E+03  0.50400001928E-02 0.  1.
    10030    2    1    2    0    0  0.00000000000E+00  0.00000000000E+00 -0.72665360307E+02  0.17072088237E+04  0.17056616643E+04 0.  0.
        2    1    3    3  502    0 -0.43406317488E+03  0.41427927499E+03  0.57025521664E+03  0.82778570269E+03  0.25500000920E-02 0. -1.
       -2    1    3    3    0  502  0.43406317488E+03 -0.41427927499E+03 -0.64292057695E+03  0.87942312099E+03  0.25500000920E-02 0.  1.
</event>
<event>
 5   0  0.7233728E-04  0.1696304E+04  0.7818609E-02  0.8763475E-01
        2   -1    0    0  501    0  0.00000000000E+00  0.00000000000E+00  0.23028669800E+04  0.23028669800E+04  0.25500000920E-02 0.  1.
       -2   -1    0    0    0  501  0.00000000000E+00  0.00000000000E+00 -0.31237663177E+03  0.31237663178E+03  0.25500000920E-02 0. -1.
    10030    2    1    2    0    0  0.00000000000E+00  0.00000000000E+00  0.19904903482E+04  0.26152436118E+04  0.16963040183E+04 0.  0.
        1    1    3    3  502    0 -0.17489987491E+03  0.38429022844E+03 -0.13883659908E+03  0.44445983754E+03  0.50400001928E-02 0. -1.
       -1    1    3    3    0  502  0.17489987491E+03 -0.38429022844E+03  0.21293269473E+04  0.21707837742E+04  0.50400001928E-02 0.  1.
</event>
<event>
 5   0  0.3723500E-04  0.1638374E+04  0.7818609E-02  0.8797314E-01
        1   -1    0    0  501    0  0.00000000000E+00  0.00000000000E+00  0.10858717749E+04  0.10858717749E+04  0.50400001928E-02 0.  1.
       -1   -1    0    0    0  501  0.00000000000E+00  0.00000000000E+00 -0.61799837334E+03  0.61799837336E+03  0.50400001928E-02 0. -1.
    10030    2    1    2    0    0  0.00000000000E+00  0.00000000000E+00  0.46787340152E+03  0.17038701482E+04  0.16383735722E+04 0.  0.
        1    1    3    3  502    0 -0.39365104310E+03  0.43028079197E+03 -0.36435658182E+03  0.68764701876E+03  0.50400001928E-02 0. -1.
       -1    1    3    3    0  502  0.39365104310E+03 -0.43028079197E+03  0.83222998333E+03  0.10162231295E+04  0.50400001928E-02 0.  1.
</event>
<event>
 5   0  0.7233728E-04  0.1702461E+04  0.7818609E-02  0.8759962E-01
        2   -1    0    0  501    0  0.00000000000E+00  0.00000000000E+00  0.11923855845E+04  0.11923855845E+04  0.25500000920E-02 0. -1.
       -2   -1    0    0    0  501  0.00000000000E+00  0.00000000000E+00 -0.60768396766E+03  0.60768396767E+03  0.25500000920E-02 0.  1.
    10030    2    1    2    0    0  0.00000000000E+00  0.00000000000E+00  0.58470161686E+03  0.18000695522E+04  0.17024612806E+04 0.  0.
        1    1    3    3  502    0  0.42265286478E+03 -0.64842385851E+03 -0.82226932235E+02  0.77836380492E+03  0.50400001928E-02 0.  1.
       -1    1    3    3    0  502 -0.42265286478E+03  0.64842385851E+03  0.66692854909E+03  0.10217057473E+04  0.50400001928E-02 0. -1.
</event>
<event>
 5   0  0.7025426E-04  0.1649790E+04  0.7818609E-02  0.8790531E-01
        2   -1    0    0  501    0  0.00000000000E+00  0.00000000000E+00  0.50145033808E+03  0.50145033808E+03  0.25500000920E-02 0. -1.
       -2   -1    0    0    0  501  0.00000000000E+00  0.00000000000E+00 -0.13569668833E+04  0.13569668833E+04  0.25500000920E-02 0.  1.
    10030    2    1    2    0    0  0.00000000000E+00  0.00000000000E+00 -0.85551654525E+03  0.18584172214E+04  0.16497896865E+04 0.  0.
        2    1    3    3  502    0 -0.49219467841E+03 -0.48814615206E+03 -0.93141085585E+03  0.11610634994E+04  0.25500000920E-02 0. -1.
       -2    1    3    3    0  502  0.49219467841E+03  0.48814615206E+03  0.75894310600E+02  0.69735372202E+03  0.25500000920E-02 0.  1.
</event>
<event>
 5   0  0.7049044E-04  0.1769625E+04  0.7818609E-02  0.8722621E-01
       -2   -1    0    0    0  501  0.00000000000E+00  0.00000000000E+00  0.40027097188E+03  0.40027097189E+03  0.25500000920E-02 0. -1.
        2   -1    0    0  501    0  0.00000000000E+00  0.00000000000E+00 -0.19559075166E+04  0.19559075166E+04  0.25500000920E-02 0.  1.
    10030    2    1    2    0    0  0.00000000000E+00  0.00000000000E+00 -0.15556365448E+04  0.23561784885E+04  0.17696248219E+04 0.  0.
        4    1    3    3  502    0 -0.68267744792E+03 -0.13703976067E+03 -0.15047288966E+04  0.16580226353E+04  0.12699999809E+01 0.  1.
       -4    1    3    3    0  502  0.68267744792E+03  0.13703976067E+03 -0.50907648142E+02  0.69815585326E+03  0.12699999809E+01 0. -1.
</event>
<event>
 5   0  0.3915701E-04  0.1712430E+04  0.7818609E-02  0.8754307E-01
       -1   -1    0    0    0  501  0.00000000000E+00  0.00000000000E+00  0.18839248320E+04  0.18839248320E+04  0.50400001928E-02 0.  1.
        1   -1    0    0  501    0  0.00000000000E+00  0.00000000000E+00 -0.38913655712E+03  0.38913655715E+03  0.50400001928E-02 0. -1.
    10030    2    1    2    0    0  0.00000000000E+00  0.00000000000E+00  0.14947882749E+04  0.22730613892E+04  0.17124298795E+04 0.  0.
        2    1    3    3  502    0 -0.75597475884E+03 -0.25242816428E+03  0.33209682336E+03  0.86342695940E+03  0.25500000920E-02 0.  1.
       -2    1    3    3    0  502  0.75597475884E+03  0.25242816428E+03  0.11626914515E+04  0.14096344298E+04  0.25500000920E-02 0. -1.
</event>
<event>
 5   0  0.3723500E-04  0.1661829E+04  0.7818609E-02  0.8783439E-01
        1   -1    0    0  501    0  0.00000000000E+00  0.00000000000E+00  0.12173690016E+04  0.12173690016E+04  0.50400001928E-02 0. -1.
       -1   -1    0    0    0  501  0.00000000000E+00  0.00000000000E+00 -0.56714010671E+03  0.56714010673E+03  0.50400001928E-02 0.  1.
    10030    2    1    2    0    0  0.00000000000E+00  0.00000000000E+00  0.65022889486E+03  0.17845091083E+04  0.16618288546E+04 0.  0.
        1    1    3    3  502    0  0.44313224946E+03  0.51803951173E+02 -0.42761052841E+03  0.61798107083E+03  0.50400001928E-02 0.  1.
       -1    1    3    3    0  502 -0.44313224946E+03 -0.51803951173E+02  0.10778394233E+04  0.11665280375E+04  0.50400001928E-02 0. -1.
</event>
<event>
 5   0  0.7049044E-04  0.1760004E+04  0.7818609E-02  0.8727863E-01
       -2   -1    0    0    0  501  0.00000000000E+00  0.00000000000E+00  0.58898419517E+03  0.58898419517E+03  0.25500000920E-02 0.  1.
        2   -1    0    0  501    0  0.00000000000E+00  0.00000000000E+00 -0.13148123116E+04  0.13148123116E+04  0.25500000920E-02 0. -1.
    10030    2    1    2    0    0  0.00000000000E+00  0.00000000000E+00 -0.72582811646E+03  0.19037965068E+04  0.17600041718E+04 0.  0.
        4    1    3    3  502    0 -0.78047930854E+03 -0.11542979063E+03  0.58713217453E+02  0.79115159258E+03  0.12699999809E+01 0.  1.
       -4    1    3    3    0  502  0.78047930854E+03  0.11542979063E+03 -0.78454133391E+03  0.11126449142E+04  0.12699999809E+01 0. -1.
</event>
<event>
 5   0  0.6746664E-04  0.1934574E+04  0.7818609E-02  0.8637836E-01
        2   -1    0    0  501    0  0.00000000000E+00  0.00000000000E+00  0.59650701675E+03  0.59650701676E+03  0.25500000920E-02 0. -1.
       -2   -1    0    0    0  501  0.00000000000E+00  0.00000000000E+00 -0.15685377169E+04  0.15685377169E+04  0.25500000920E-02 0.  1.
    10030    2    1    2    0    0  0.00000000000E+00  0.00000000000E+00 -0.97203070012E+03  0.21650447336E+04  0.19345736007E+04 0.  0.
        5    1    3    3  502    0 -0.51172243981E+03 -0.61770383224E+03  0.11894169005E+03  0.81091744055E+03  0.46999998093E+01 0. -1.
       -5    1    3    3    0  502  0.51172243981E+03  0.61770383224E+03 -0.10909723902E+04  0.13541272931E+04  0.46999998093E+01 0.  1.
</event>
<event>
 5   0  0.3915701E-04  0.1865997E+04  0.7818609E-02  0.8671970E-01
        1   -1    0    0  501    0  0.00000000000E+00  0.00000000000E+00  0.14026633965E+04  0.14026633965E+04  0.50400001928E-02 0. -1.
       -1   -1    0    0    0  501  0.00000000000E+00  0.00000000000E+00 -0.62059506024E+03  0.62059506026E+03  0.50400001928E-02 0.  1.
    10030    2    1    2    0    0  0.00000000000E+00  0.00000000000E+00  0.78206833624E+03  0.20232584567E+04  0.18659967578E+04 0.  0.
        2    1    3    3  502    0  0.90000525665E+03  0.62857867183E+02  0.13324639925E+03  0.91198419744E+03  0.25500000920E-02 0. -1.
       -2    1    3    3    0  502 -0.90000525665E+03 -0.62857867183E+02  0.64882193699E+03  0.11112742593E+04  0.25500000920E-02 0.  1.
</event>
<event>
 5   0  0.2639750E-04  0.1717331E+04  0.7818609E-02  0.8751541E-01
       -3   -1    0    0    0  501  0.00000000000E+00  0.00000000000E+00  0.13223834473E+04  0.13223834511E+04  0.10100000352E+00 0.  1.
        3   -1    0    0  501    0  0.00000000000E+00  0.00000000000E+00 -0.55755900540E+03  0.55755901455E+03  0.10100000352E+00 0. -1.
    10030    2    1    2    0    0  0.00000000000E+00  0.00000000000E+00  0.76482444186E+03  0.18799424657E+04  0.17173314320E+04 0.  0.
        5    1    3    3  502    0  0.44770721938E+03  0.24486220920E+03 -0.37354545771E+03  0.63242197524E+03  0.46999998093E+01 0. -1.
       -5    1    3    3    0  502 -0.44770721938E+03 -0.24486220920E+03  0.11383698996E+04  0.12475204904E+04  0.46999998093E+01 0.  1.
</event>
<event>
 5   0  0.3635143E-04  0.1699825E+04  0.7818609E-02  0.8761464E-01
        1   -1    0    0  501    0  0.00000000000E+00  0.00000000000E+00  0.82319234330E+03  0.82319234331E+03  0.50400001928E-02 0. -1.
       -1   -1    0    0    0  501  0.00000000000E+00  0.00000000000E+00 -0.87749957820E+03  0.87749957821E+03  0.50400001928E-02 0.  1.
    10030    2    1    2    0    0  0.00000000000E+00  0.00000000000E+00 -0.54307234904E+02  0.17006919215E+04  0.16998246192E+04 0.  0.
        3    1    3    3  502    0  0.13784180840E+03  0.39098401804E+03  0.71516972589E+03  0.82664176856E+03  0.10100000352E+00 0. -1.
       -3    1    3    3    0  502 -0.13784180840E+03 -0.39098401804E+03 -0.76947696079E+03  0.87405015296E+03  0.10100000352E+00 0.  1.
</event>
<event>
 5   0  0.7025426E-04  0.1618860E+04  0.7818609E-02  0.8809045E-01
        2   -1    0    0  501    0  0.00000000000E+00  0.00000000000E+00  0.56722140395E+03  0.56722140396E+03  0.25500000920E-02 0.  1.
       -2   -1    0    0    0  501  0.00000000000E+00  0.00000000000E+00 -0.11550632541E+04  0.11550632541E+04  0.25500000920E-02 0. -1.
    10030    2    1    2    0    0  0.00000000000E+00  0.00000000000E+00 -0.58784185019E+03  0.17222846581E+04  0.16188595994E+04 0.  0.
        2    1    3    3  502    0 -0.71804527154E+03  0.33176851783E+03 -0.11113884476E+03  0.79875603548E+03  0.25500000920E-02 0. -1.
       -2    1    3    3    0  502  0.71804527154E+03 -0.33176851783E+03 -0.47670300543E+03  0.92352862262E+03  0.25500000920E-02 0.  1.
</event>
<event>
 5   0  0.7049044E-04  0.1693454E+04  0.7818609E-02  0.8765107E-01
        2   -1    0    0  501    0  0.00000000000E+00  0.00000000000E+00  0.10340719354E+04  0.10340719354E+04  0.25500000920E-02 0.  1.
       -2   -1    0    0    0  501  0.00000000000E+00  0.00000000000E+00 -0.69332367995E+03  0.69332367996E+03  0.25500000920E-02 0. -1.
    10030    2    1    2    0    0  0.00000000000E+00  0.00000000000E+00  0.34074825549E+03  0.17273956154E+04  0.16934539375E+04 0.  0.
        4    1    3    3  502    0 -0.17192555100E+02  0.19795303247E+03 -0.66920478637E+03  0.69808140357E+03  0.12699999809E+01 0. -1.
       -4    1    3    3    0  502  0.17192555100E+02 -0.19795303247E+03  0.10099530419E+04  0.10293142118E+04  0.12699999809E+01 0.  1.
</event>
<event>
 5   0  0.3723500E-04  0.1668224E+04  0.7818609E-02  0.8779698E-01
       -1   -1    0    0    0  501  0.00000000000E+00  0.00000000000E+00  0.47334607375E+03  0.47334607377E+03  0.50400001928E-02 0. -1.
        1   -1    0    0  501    0  0.00000000000E+00  0.00000000000E+00 -0.14698401587E+04  0.14698401587E+04  0.50400001928E-02 0.  1.
    10030    2    1    2    0    0  0.00000000000E+00  0.00000000000E+00 -0.99649408496E+03  0.19431862325E+04  0.16682242873E+04 0.  0.
        1    1    3    3  502    0  0.91347495187E+02  0.26758473143E+03 -0.14123156838E+04  0.14403407736E+04  0.50400001928E-02 0.  1.
       -1    1    3    3    0  502 -0.91347495187E+02 -0.26758473143E+03  0.41582159887E+03  0.50284545885E+03  0.50400001928E-02 0. -1.
</event>
<event>
 5   0  0.3723500E-04  0.1756993E+04  0.7818609E-02  0.8729510E-01
       -1   -1    0    0    0  501  0.00000000000E+00  0.00000000000E+00  0.86933540974E+03  0.86933540976E+03  0.50400001928E-02 0.  1.
        1   -1    0    0  501    0  0.00000000000E+00  0.00000000000E+00 -0.88775444591E+03  0.88775444592E+03  0.50400001928E-02 0. -1.
    10030    2    1    2    0    0  0.00000000000E+00  0.00000000000E+00 -0.18419036166E+02  0.17570898557E+04  0.17569933125E+04 0.  0.
        1    1    3    3  502    0 -0.38119488142E+03 -0.72283020029E+03 -0.33166069947E+03  0.88192508507E+03  0.50400001928E-02 0.  1.
       -1    1    3    3    0  502  0.38119488142E+03  0.72283020029E+03  0.31324166330E+03  0.87516477062E+03  0.50400001928E-02 0. -1.
</event>
<event>
 5   0  0.7242144E-04  0.1703625E+04  0.7818609E-02  0.8759300E-01
       -2   -1    0    0    0  501  0.00000000000E+00  0.00000000000E+00  0.79138578445E+03  0.79138578445E+03  0.25500000920E-02 0. -1.
        2   -1    0    0  501    0  0.00000000000E+00  0.00000000000E+00 -0.91685300417E+03  0.91685300417E+03  0.25500000920E-02 0.  1.
    10030    2    1    2    0    0  0.00000000000E+00  0.00000000000E+00 -0.12546721972E+03  0.17082387886E+04  0.17036248812E+04 0.  0.
        3    1    3    3  502    0 -0.12413885943E+03 -0.19981779815E+03 -0.88363687718E+03  0.91441333641E+03  0.10100000352E+00 0.  1.
       -3    1    3    3    0  502  0.12413885943E+03  0.19981779815E+03  0.75816965747E+03  0.79382545222E+03  0.10100000352E+00 0. -1.
</event>
<event>
 5   0  0.3803253E-04  0.1611368E+04  0.7818609E-02  0.8813595E-01
       -1   -1    0    0    0  501  0.00000000000E+00  0.00000000000E+00  0.90882227483E+03  0.90882227485E+03  0.50400001928E-02 0. -1.
        1   -1    0    0  501    0  0.00000000000E+00  0.00000000000E+00 -0.71425022831E+03  0.71425022832E+03  0.50400001928E-02 0.  1.
    10030    2    1    2    0    0  0.00000000000E+00  0.00000000000E+00  0.19457204653E+03  0.16230725032E+04  0.16113677635E+04 0.  0.
        4    1    3    3  502    0  0.65314780746E+03 -0.19987611663E+03 -0.33310260967E+03  0.75994176215E+03  0.12699999809E+01 0.  1.
       -4    1    3    3    0  502 -0.65314780746E+03  0.19987611663E+03  0.52767465620E+03  0.86313074102E+03  0.12699999809E+01 0. -1.
</event>
<event>
 5   0  0.3723500E-04  0.1736112E+04  0.7818609E-02  0.8741032E-01
       -1   -1    0    0    0  501  0.00000000000E+00  0.00000000000E+00  0.15084952444E+04  0.15084952444E+04  0.50400001928E-02 0. -1.
        1   -1    0    0  501    0  0.00000000000E+00  0.00000000000E+00 -0.49951836994E+03  0.49951836997E+03  0.50400001928E-02 0.  1.
    10030    2    1    2    0    0  0.00000000000E+00  0.00000000000E+00  0.10089768745E+04  0.20080136144E+04  0.17361118461E+04 0.  0.
        1    1    3    3  502    0 -0.59167224935E+03 -0.27133780566E+03  0.11687329765E+04  0.13377731593E+04  0.50400001928E-02 0.  1.
       -1    1    3    3    0  502  0.59167224935E+03  0.27133780566E+03 -0.15975610203E+03  0.67024045506E+03  0.50400001928E-02 0. -1.
</event>
<event>
 5   0  0.3723500E-04  0.1754829E+04  0.7818609E-02  0.8730697E-01
        1   -1    0    0  501    0  0.00000000000E+00  0.00000000000E+00  0.95986243163E+03  0.95986243165E+03  0.50400001928E-02 0. -1.
       -1   -1    0    0    0  501  0.00000000000E+00  0.00000000000E+00 -0.80204835786E+03  0.80204835788E+03  0.50400001928E-02 0.  1.
    10030    2    1    2    0    0  0.00000000000E+00  0.00000000000E+00  0.15781407377E+03  0.17619107895E+04  0.17548288658E+04 0.  0.
        1    1    3    3  502    0 -0.77880231265E+03 -0.39815031823E+03  0.93499771985E+01  0.87472517981E+03  0.50400001928E-02 0.  1.
       -1    1    3    3    0  502  0.77880231265E+03  0.39815031823E+03  0.14846409657E+03  0.88718560972E+03  0.50400001928E-02 0. -1.
</event>
<event>
 5   0  0.3635143E-04  0.1711025E+04  0.7818609E-02  0.8755101E-01
        1   -1    0    0  501    0  0.00000000000E+00  0.00000000000E+00  0.63375954783E+03  0.63375954785E+03  0.50400001928E-02 0.  1.
       -1   -1    0    0    0  501  0.00000000000E+00  0.00000000000E+00 -0.11548572904E+04  0.11548572904E+04  0.50400001928E-02 0. -1.
    10030    2    1    2    0    0  0.00000000000E+00  0.00000000000E+00 -0.52109774255E+03  0.17886168382E+04  0.17110252297E+04 0.  0.
        3    1    3    3  502    0 -0.24784899724E+03 -0.81355289530E+03 -0.16358257191E+03  0.86605814292E+03  0.10100000352E+00 0.  1.
       -3    1    3    3    0  502  0.24784899724E+03  0.81355289530E+03 -0.35751517064E+03  0.92255869532E+03  0.10100000352E+00 0. -1.
</event>
<event>
 5   0  0.6746664E-04  0.1714634E+04  0.7818609E-02  0.8753062E-01
       -2   -1    0    0    0  501  0.00000000000E+00  0.00000000000E+00  0.65924110638E+03  0.65924110638E+03  0.25500000920E-02 0. -1.
        2   -1    0    0  501    0  0.00000000000E+00  0.00000000000E+00 -0.11149063719E+04  0.11149063719E+04  0.25500000920E-02 0.  1.
    10030    2    1    2    0    0  0.00000000000E+00  0.00000000000E+00 -0.45566526555E+03  0.17741474783E+04  0.17146336170E+04 0.  0.
        5    1    3    3  502    0  0.28246807691E+03  0.26721632158E+03  0.56274034295E+03  0.68402599407E+03  0.46999998093E+01 0. -1.
       -5    1    3    3    0  502 -0.28246807691E+03 -0.26721632158E+03 -0.10184056085E+04  0.10901214842E+04  0.46999998093E+01 0.  1.
</event>
<event>
 5   0  0.3803253E-04  0.1700274E+04  0.7818609E-02  0.8761208E-01
       -1   -1    0    0    0  501  0.00000000000E+00  0.00000000000E+00  0.61190705958E+03  0.61190705960E+03  0.50400001928E-02 0. -1.
        1   -1    0    0  501    0  0.00000000000E+00  0.00000000000E+00 -0.11811150949E+04  0.11811150949E+04  0.50400001928E-02 0.  1.
    10030    2    1    2    0    0  0.00000000000E+00  0.00000000000E+00 -0.56920803531E+03  0.17930221545E+04  0.17002737012E+04 0.  0.
        4    1    3    3  502    0  0.82655830901E+03 -0.19252988953E+03 -0.33695742031E+03  0.91313104895E+03  0.12699999809E+01 0. -1.
       -4    1    3    3    0  502 -0.82655830901E+03  0.19252988953E+03 -0.23225061500E+03  0.87989110555E+03  0.12699999809E+01 0.  1.
</event>
<event>
 5   0  0.3723500E-04  0.1754524E+04  0.7818609E-02  0.8730864E-01
        1   -1    0    0  501    0  0.00000000000E+00  0.00000000000E+00  0.24160931700E+04  0.24160931700E+04  0.50400001928E-02 0. -1.
       -1   -1    0    0    0  501  0.00000000000E+00  0.00000000000E+00 -0.31852622772E+03  0.31852622776E+03  0.50400001928E-02 0.  1.
    10030    2    1    2    0    0  0.00000000000E+00  0.00000000000E+00  0.20975669423E+04  0.27346193978E+04  0.17545244864E+04 0.  0.
        1    1    3    3  502    0  0.24686519601E+03  0.63667093065E+03  0.19041979571E+03  0.70890901924E+03  0.50400001928E-02 0.  1.
       -1    1    3    3    0  502 -0.24686519601E+03 -0.63667093065E+03  0.19071471466E+04  0.20257103786E+04  0.50400001928E-02 0. -1.
</event>
<event>
 5   0  0.3723500E-04  0.1680081E+04  0.7818609E-02  0.8772807E-01
       -1   -1    0    0    0  501  0.00000000000E+00  0.00000000000E+00  0.20494529431E+03  0.20494529438E+03  0.50400001928E-02 0.  1.
        1   -1    0    0  501    0  0.00000000000E+00  0.00000000000E+00 -0.34432007521E+04  0.34432007521E+04  0.50400001928E-02 0. -1.
    10030    2    1    2    0    0  0.00000000000E+00  0.00000000000E+00 -0.32382554577E+04  0.36481460464E+04  0.16800807024E+04 0.  0.
        1    1    3    3  502    0 -0.41428445996E+02 -0.82072349644E+03 -0.19975045745E+04  0.21599370127E+04  0.50400001928E-02 0.  1.
       -1    1    3    3    0  502  0.41428445996E+02  0.82072349644E+03 -0.12407508832E+04  0.14882090337E+04  0.50400001928E-02 0. -1.
</event>
<event>
 5   0  0.6746664E-04  0.1674786E+04  0.7818609E-02  0.8775877E-01
        2   -1    0    0  501    0  0.00000000000E+00  0.00000000000E+00  0.73170344902E+03  0.73170344903E+03  0.25500000920E-02 0.  1.
       -2   -1    0    0    0  501  0.00000000000E+00  0.00000000000E+00 -0.95834851747E+03  0.95834851747E+03  0.25500000920E-02 0. -1.
    10030    2    1    2    0    0  0.00000000000E+00  0.00000000000E+00 -0.22664506844E+03  0.16900519665E+04  0.16747858557E+04 0.  0.
        5    1    3    3  502    0  0.43938002989E+03 -0.51409536164E+03  0.38499649758E+03  0.77819871799E+03  0.46999998093E+01 0.  1.
       -5    1    3    3    0  502 -0.43938002989E+03  0.51409536164E+03 -0.61164156603E+03  0.91185324851E+03  0.46999998093E+01 0. -1.
</event>
<event>
 5   0  0.7049044E-04  0.1671217E+04  0.7818609E-02  0.8777953E-01
        2   -1    0    0  501    0  0.00000000000E+00  0.00000000000E+00  0.10360330240E+04  0.10360330240E+04  0.25500000920E-02 0.  1.
       -2   -1    0    0    0  501  0.00000000000E+00  0.00000000000E+00 -0.67395692802E+03  0.67395692803E+03  0.25500000920E-02 0. -1.
    10030    2    1    2    0    0  0.00000000000E+00  0.00000000000E+00  0.36207609598E+03  0.17099899520E+04  0.16712170825E+04 0.  0.
        4    1    3    3  502    0  0.44332997920E+03  0.12226692239E+03  0.89489859864E+03  0.10061489877E+04  0.12699999809E+01 0.  1.
       -4    1    3    3    0  502 -0.44332997920E+03 -0.12226692239E+03 -0.53282250266E+03  0.70384096429E+03  0.12699999809E+01 0. -1.
</event>
<event>
 5   0  0.3713516E-04  0.1058569E+04  0.7818609E-02  0.9246542E-01
       -1   -1    0    0    0  501  0.00000000000E+00  0.00000000000E+00  0.41581068794E+03  0.41581068797E+03  0.50400001928E-02 0. -1.
        1   -1    0    0  501    0  0.00000000000E+00  0.00000000000E+00 -0.67372472405E+03  0.67372472407E+03  0.50400001928E-02 0.  1.
    10030    2    1    2    0    0  0.00000000000E+00  0.00000000000E+00 -0.25791403612E+03  0.10895354120E+04  0.10585687337E+04 0.  0.
        5    1    3    3  502    0 -0.37320297344E+03  0.37528544860E+03 -0.12944382563E+03  0.54488294276E+03  0.46999998093E+01 0.  1.
       -5    1    3    3    0  502  0.37320297344E+03 -0.37528544860E+03 -0.12847021049E+03  0.54465246928E+03  0.46999998093E+01 0. -1.
</event>
<event>
 5   0  0.7049044E-04  0.1742012E+04  0.7818609E-02  0.8737760E-01
        2   -1    0    0  501    0  0.00000000000E+00  0.00000000000E+00  0.11739042908E+04  0.11739042908E+04  0.25500000920E-02 0.  1.
       -2   -1    0    0    0  501  0.00000000000E+00  0.00000000000E+00 -0.64626317360E+03  0.64626317361E+03  0.25500000920E-02 0. -1.
    10030    2    1    2    0    0  0.00000000000E+00  0.00000000000E+00  0.52764111721E+03  0.18201674644E+04  0.17420116102E+04 0.  0.
        4    1    3    3  502    0 -0.73278975643E+03 -0.33249786545E+03 -0.84472151028E+02  0.80911854191E+03  0.12699999809E+01 0. -1.
       -4    1    3    3    0  502  0.73278975643E+03  0.33249786545E+03  0.61211326824E+03  0.10110489225E+04  0.12699999809E+01 0.  1.
</event>
<event>
 5   0  0.3635143E-04  0.1704888E+04  0.7818609E-02  0.8758582E-01
       -1   -1    0    0    0  501  0.00000000000E+00  0.00000000000E+00  0.49461747273E+03  0.49461747276E+03  0.50400001928E-02 0.  1.
        1   -1    0    0  501    0  0.00000000000E+00  0.00000000000E+00 -0.14691365967E+04  0.14691365967E+04  0.50400001928E-02 0. -1.
    10030    2    1    2    0    0  0.00000000000E+00  0.00000000000E+00 -0.97451912395E+03  0.19637540694E+04  0.17048878328E+04 0.  0.
        3    1    3    3  502    0  0.69659575442E+03 -0.46279495603E+03 -0.67735048811E+03  0.10762102538E+04  0.10100000352E+00 0.  1.
       -3    1    3    3    0  502 -0.69659575442E+03  0.46279495603E+03 -0.29716863584E+03  0.88754381567E+03  0.10100000352E+00 0. -1.
</event>
<event>
 5   0  0.7025426E-04  0.1418263E+04  0.7818609E-02  0.8940704E-01
       -2   -1    0    0    0  501  0.00000000000E+00  0.00000000000E+00  0.34790278433E+03  0.34790278434E+03  0.25500000920E-02 0.  1.
        2   -1    0    0  501    0  0.00000000000E+00  0.00000000000E+00 -0.14454244048E+04  0.14454244048E+04  0.25500000920E-02 0. -1.
    10030    2    1    2    0    0  0.00000000000E+00  0.00000000000E+00 -0.10975216204E+04  0.17933271891E+04  0.14182625638E+04 0.  0.
        2    1    3    3  502    0 -0.16735676467E+03 -0.39188734304E+03  0.16795486165E+03  0.45803145293E+03  0.25500000920E-02 0.  1.
       -2    1    3    3    0  502  0.16735676467E+03  0.39188734304E+03 -0.12654764821E+04  0.13352957362E+04  0.25500000920E-02 0. -1.
</event>
<event>
 5   0  0.7233728E-04  0.1646916E+04  0.7818609E-02  0.8792233E-01
        2   -1    0    0  501    0  0.00000000000E+00  0.00000000000E+00  0.64023195868E+03  0.64023195869E+03  0.25500000920E-02 0.  1.
       -2   -1    0    0    0  501  0.00000000000E+00  0.00000000000E+00 -0.10591214818E+04  0.10591214818E+04  0.25500000920E-02 0. -1.
    10030    2    1    2    0    0  0.00000000000E+00  0.00000000000E+00 -0.41888952309E+03  0.16993534405E+04  0.16469164165E+04 0.  0.
        1    1    3    3  502    0  0.63405371607E+03 -0.92872373145E+02 -0.74305049758E+03  0.98121018876E+03  0.50400001928E-02 0. -1.
       -1    1    3    3    0  502 -0.63405371607E+03  0.92872373145E+02  0.32416097448E+03  0.71814325170E+03  0.50400001928E-02 0.  1.
</event>
<event>
 5   0  0.3803253E-04  0.1732158E+04  0.7818609E-02  0.8743233E-01
        1   -1    0    0  501    0  0.00000000000E+00  0.00000000000E+00  0.62992126073E+03  0.62992126075E+03  0.50400001928E-02 0.  1.
       -1   -1    0    0    0  501  0.00000000000E+00  0.00000000000E+00 -0.11907722915E+04  0.11907722915E+04  0.50400001928E-02 0. -1.
    10030    2    1    2    0    0  0.00000000000E+00  0.00000000000E+00 -0.56085103080E+03  0.18206935523E+04  0.17321579410E+04 0.  0.
        4    1    3    3  502    0  0.22312805825E+03 -0.37822214940E+03 -0.10650748132E+04  0.11520521235E+04  0.12699999809E+01 0. -1.
       -4    1    3    3    0  502 -0.22312805825E+03  0.37822214940E+03  0.50422378239E+03  0.66864142880E+03  0.12699999809E+01 0.  1.
</event>
<event>
 5   0  0.7233728E-04  0.1631439E+04  0.7818609E-02  0.8801463E-01
       -2   -1    0    0    0  501  0.00000000000E+00  0.00000000000E+00  0.47089673848E+03  0.47089673848E+03  0.25500000920E-02 0.  1.
        2   -1    0    0  501    0  0.00000000000E+00  0.00000000000E+00 -0.14130448178E+04  0.14130448178E+04  0.25500000920E-02 0. -1.
    10030    2    1    2    0    0  0.00000000000E+00  0.00000000000E+00 -0.94214807931E+03  0.18839415563E+04  0.16314388692E+04 0.  0.
        1    1    3    3  502    0 -0.51281425329E+03 -0.55917195464E+03 -0.12513044725E+03  0.76896642455E+03  0.50400001928E-02 0.  1.
       -1    1    3    3    0  502  0.51281425329E+03  0.55917195464E+03 -0.81701763206E+03  0.11149751317E+04  0.50400001928E-02 0. -1.
</event>
<event>
 5   0  0.2639750E-04  0.1745145E+04  0.7818609E-02  0.8736027E-01
       -4   -1    0    0    0  501  0.00000000000E+00  0.00000000000E+00  0.89831799281E+03  0.89831889054E+03  0.12699999809E+01 0. -1.
        4   -1    0    0  501    0  0.00000000000E+00  0.00000000000E+00 -0.84756335412E+03  0.84756430562E+03  0.12699999809E+01 0.  1.
    10030    2    1    2    0    0  0.00000000000E+00  0.00000000000E+00  0.50754638687E+02  0.17458831962E+04  0.17451452952E+04 0.  0.
        3    1    3    3  502    0  0.65727515383E+03  0.10720574887E+03 -0.53866894629E+03  0.85654418703E+03  0.10100000352E+00 0.  1.
       -3    1    3    3    0  502 -0.65727515383E+03 -0.10720574887E+03  0.58942358497E+03  0.88933900913E+03  0.10100000352E+00 0. -1.
</event>
<event>
 5   0  0.7049044E-04  0.1179422E+04  0.7818609E-02  0.9131062E-01
        2   -1    0    0  501    0  0.00000000000E+00  0.00000000000E+00  0.74222910391E+03  0.74222910392E+03  0.25500000920E-02 0. -1.
       -2   -1    0    0    0  501  0.00000000000E+00  0.00000000000E+00 -0.46853310251E+03  0.46853310252E+03  0.25500000920E-02 0.  1.
    10030    2    1    2    0    0  0.00000000000E+00  0.00000000000E+00  0.27369600140E+03  0.12107622064E+04  0.11794217309E+04 0.  0.
        4    1    3    3  502    0 -0.44252990762E+02  0.51300535355E+03 -0.15823492396E+03  0.53867682707E+03  0.12699999809E+01 0.  1.
       -4    1    3    3    0  502  0.44252990762E+02 -0.51300535355E+03  0.43193092536E+03  0.67208537936E+03  0.12699999809E+01 0. -1.
</event>
<event>
 5   0  0.7242144E-04  0.1728634E+04  0.7818609E-02  0.8745200E-01
       -2   -1    0    0    0  501  0.00000000000E+00  0.00000000000E+00  0.85286753108E+03  0.85286753108E+03  0.25500000920E-02 0. -1.
        2   -1    0    0  501    0  0.00000000000E+00  0.00000000000E+00 -0.87592051253E+03  0.87592051253E+03  0.25500000920E-02 0.  1.
    10030    2    1    2    0    0  0.00000000000E+00  0.00000000000E+00 -0.23052981447E+02  0.17287880436E+04  0.17286343337E+04 0.  0.
        3    1    3    3  502    0  0.47749325144E+03 -0.30133885153E+03  0.64293161141E+03  0.85566697713E+03  0.10100000352E+00 0. -1.
       -3    1    3    3    0  502 -0.47749325144E+03  0.30133885153E+03 -0.66598459285E+03  0.87312106648E+03  0.10100000352E+00 0.  1.
</event>
<event>
 5   0  0.3915701E-04  0.1698184E+04  0.7818609E-02  0.8762401E-01
       -1   -1    0    0    0  501  0.00000000000E+00  0.00000000000E+00  0.61199552524E+03  0.61199552526E+03  0.50400001928E-02 0. -1.
        1   -1    0    0  501    0  0.00000000000E+00  0.00000000000E+00 -0.11780435675E+04  0.11780435675E+04  0.50400001928E-02 0.  1.
    10030    2    1    2    0    0  0.00000000000E+00  0.00000000000E+00 -0.56604804221E+03  0.17900390927E+04  0.16981841971E+04 0.  0.
        2    1    3    3  502    0  0.46341446923E+03  0.54870854845E+03 -0.76042716125E+03  0.10459844688E+04  0.25500000920E-02 0.  1.
       -2    1    3    3    0  502 -0.46341446923E+03 -0.54870854845E+03  0.19437911905E+03  0.74405462391E+03  0.25500000920E-02 0. -1.
</event>
<event>
 5   0  0.3803253E-04  0.1695289E+04  0.7818609E-02  0.8764056E-01
        1   -1    0    0  501    0  0.00000000000E+00  0.00000000000E+00  0.11121055221E+04  0.11121055221E+04  0.50400001928E-02 0. -1.
       -1   -1    0    0    0  501  0.00000000000E+00  0.00000000000E+00 -0.64607306069E+03  0.64607306071E+03  0.50400001928E-02 0.  1.
    10030    2    1    2    0    0  0.00000000000E+00  0.00000000000E+00  0.46603246139E+03  0.17581785828E+04  0.16952892597E+04 0.  0.
        4    1    3    3  502    0  0.63762106851E+03 -0.17198914634E+03 -0.31807046291E+03  0.73301522886E+03  0.12699999809E+01 0.  1.
       -4    1    3    3    0  502 -0.63762106851E+03  0.17198914634E+03  0.78410292431E+03  0.10251633539E+04  0.12699999809E+01 0. -1.
</event>
<event>
 5   0  0.3635143E-04  0.1705558E+04  0.7818609E-02  0.8758201E-01
        1   -1    0    0  501    0  0.00000000000E+00  0.00000000000E+00  0.83435924488E+03  0.83435924489E+03  0.50400001928E-02 0. -1.
       -1   -1    0    0    0  501  0.00000000000E+00  0.00000000000E+00 -0.87160579502E+03  0.87160579504E+03  0.50400001928E-02 0.  1.
    10030    2    1    2    0    0  0.00000000000E+00  0.00000000000E+00 -0.37246550143E+02  0.17059650399E+04  0.17055583871E+04 0.  0.
        3    1    3    3  502    0 -0.43392616113E+03 -0.61781272999E+03  0.37801617537E+03  0.84432264076E+03  0.10100000352E+00 0.  1.
       -3    1    3    3    0  502  0.43392616113E+03  0.61781272999E+03 -0.41526272551E+03  0.86164239917E+03  0.10100000352E+00 0. -1.
</event>
<event>
 5   0  0.3635143E-04  0.1712691E+04  0.7818609E-02  0.8754159E-01
        1   -1    0    0  501    0  0.00000000000E+00  0.00000000000E+00  0.11914714867E+04  0.11914714868E+04  0.50400001928E-02 0. -1.
       -1   -1    0    0    0  501  0.00000000000E+00  0.00000000000E+00 -0.61548044903E+03  0.61548044905E+03  0.50400001928E-02 0.  1.
    10030    2    1    2    0    0  0.00000000000E+00  0.00000000000E+00  0.57599103771E+03  0.18069519358E+04  0.17126907552E+04 0.  0.
        3    1    3    3  502    0  0.52149041920E+03 -0.43980614550E+03  0.83411923541E+03  0.10775604911E+04  0.10100000352E+00 0. -1.
       -3    1    3    3    0  502 -0.52149041920E+03  0.43980614550E+03 -0.25812819770E+03  0.72939144469E+03  0.10100000352E+00 0.  1.
</event>
<event>
 5   0  0.7233728E-04  0.1686890E+04  0.7818609E-02  0.8768877E-01
        2   -1    0    0  501    0  0.00000000000E+00  0.00000000000E+00  0.97792672473E+03  0.97792672473E+03  0.25500000920E-02 0. -1.
       -2   -1    0    0    0  501  0.00000000000E+00  0.00000000000E+00 -0.72745675778E+03  0.72745675779E+03  0.25500000920E-02 0.  1.
    10030    2    1    2    0    0  0.00000000000E+00  0.00000000000E+00  0.25046996694E+03  0.17053834825E+04  0.16868899247E+04 0.  0.
        1    1    3    3  502    0 -0.45434994843E+03 -0.71024397227E+03  0.14826694887E+03  0.85607445000E+03  0.50400001928E-02 0. -1.
       -1    1    3    3    0  502  0.45434994843E+03  0.71024397227E+03  0.10220301807E+03  0.84930903252E+03  0.50400001928E-02 0.  1.
</event>
<event>
 5   0  0.6746664E-04  0.1710185E+04  0.7818609E-02  0.8755577E-01
       -2   -1    0    0    0  501  0.00000000000E+00  0.00000000000E+00  0.67492574226E+03  0.67492574226E+03  0.25500000920E-02 0. -1.
        2   -1    0    0  501    0  0.00000000000E+00  0.00000000000E+00 -0.10833532510E+04  0.10833532510E+04  0.25500000920E-02 0.  1.
    10030    2    1    2    0    0  0.00000000000E+00  0.00000000000E+00 -0.40842750875E+03  0.17582789933E+04  0.17101847819E+04 0.  0.
        5    1    3    3  502    0  0.26121081954E+03  0.11995324623E+02  0.63279767661E+03  0.68471159591E+03  0.46999998093E+01 0. -1.
       -5    1    3    3    0  502 -0.26121081954E+03 -0.11995324623E+02 -0.10412251854E+04  0.10735673974E+04  0.46999998093E+01 0.  1.
</event>
<event>
 5   0  0.7025426E-04  0.1704243E+04  0.7818609E-02  0.8758948E-01
       -2   -1    0    0    0  501  0.00000000000E+00  0.00000000000E+00  0.90952822305E+03  0.90952822305E+03  0.25500000920E-02 0.  1.
        2   -1    0    0  501    0  0.00000000000E+00  0.00000000000E+00 -0.79833850095E+03  0.79833850095E+03  0.25500000920E-02 0. -1.
    10030    2    1    2    0    0  0.00000000000E+00  0.00000000000E+00  0.11118972210E+03  0.17078667240E+04  0.17042434077E+04 0.  0.
        2    1    3    3  502    0  0.53596198930E+03 -0.55509474491E+03 -0.30673429955E+03  0.83034412163E+03  0.25500000920E-02 0. -1.
       -2    1    3    3    0  502 -0.53596198930E+03  0.55509474491E+03  0.41792402165E+03  0.87752260237E+03  0.25500000920E-02 0.  1.
</event>
<event>
 5   0  0.3723500E-04  0.1653873E+04  0.7818609E-02  0.8788119E-01
       -1   -1    0    0    0  501  0.00000000000E+00  0.00000000000E+00  0.11840204378E+04  0.11840204378E+04  0.50400001928E-02 0. -1.
        1   -1    0    0  501    0  0.00000000000E+00  0.00000000000E+00 -0.57754393048E+03  0.57754393050E+03  0.50400001928E-02 0.  1.
    10030    2    1    2    0    0  0.00000000000E+00  0.00000000000E+00  0.60647650732E+03  0.17615643683E+04  0.16538728094E+04 0.  0.
        1    1    3    3  502    0  0.25648571700E+03 -0.62454106433E+03 -0.20533297634E+03  0.70568980102E+03  0.50400001928E-02 0.  1.
       -1    1    3    3    0  502 -0.25648571700E+03  0.62454106433E+03  0.81180948365E+03  0.10558745673E+04  0.50400001928E-02 0. -1.
</event>
<event>
 5   0  0.7025426E-04  0.1684352E+04  0.7818609E-02  0.8770340E-01
        2   -1    0    0  501    0  0.00000000000E+00  0.00000000000E+00  0.10001478654E+04  0.10001478654E+04  0.25500000920E-02 0. -1.
       -2   -1    0    0    0  501  0.00000000000E+00  0.00000000000E+00 -0.70915559831E+03  0.70915559832E+03  0.25500000920E-02 0.  1.
    10030    2    1    2    0    0  0.00000000000E+00  0.00000000000E+00  0.29099226709E+03  0.17093034637E+04  0.16843520510E+04 0.  0.
        2    1    3    3  502    0  0.15635008373E+03 -0.77245586721E+03  0.44675573734E+03  0.90593824532E+03  0.25500000920E-02 0. -1.
       -2    1    3    3    0  502 -0.15635008373E+03  0.77245586721E+03 -0.15576347025E+03  0.80336521841E+03  0.25500000920E-02 0.  1.
</event>
<event>
 5   0  0.3723500E-04  0.1671246E+04  0.7818609E-02  0.8777936E-01
        1   -1    0    0  501    0  0.00000000000E+00  0.00000000000E+00  0.11470347519E+04  0.11470347519E+04  0.50400001928E-02 0. -1.
       -1   -1    0    0    0  501  0.00000000000E+00  0.00000000000E+00 -0.60875721176E+03  0.60875721178E+03  0.50400001928E-02 0.  1.
    10030    2    1    2    0    0  0.00000000000E+00  0.00000000000E+00  0.53827754013E+03  0.17557919637E+04  0.16712458555E+04 0.  0.
        1    1    3    3  502    0 -0.19322002537E+03  0.65882219090E+03  0.76955988357E+03  0.10313113360E+04  0.50400001928E-02 0. -1.
       -1    1    3    3    0  502  0.19322002537E+03 -0.65882219090E+03 -0.23128234343E+03  0.72448062765E+03  0.50400001928E-02 0.  1.
</event>
<event>
 5   0  0.3713516E-04  0.1718376E+04  0.7818609E-02  0.8750953E-01
        1   -1    0    0  501    0  0.00000000000E+00  0.00000000000E+00  0.12245848360E+04  0.12245848360E+04  0.50400001928E-02 0. -1.
       -1   -1    0    0    0  501  0.00000000000E+00  0.00000000000E+00 -0.60281948440E+03  0.60281948442E+03  0.50400001928E-02 0.  1.
    10030    2    1    2    0    0  0.00000000000E+00  0.00000000000E+00  0.62176535157E+03  0.18274043204E+04  0.17183755113E+04 0.  0.
        5    1    3    3  502    0 -0.83950009660E+03  0.46501369765E+01  0.11653185337E+03  0.84757524670E+03  0.46999998093E+01 0.  1.
       -5    1    3    3    0  502  0.83950009660E+03 -0.46501369765E+01  0.50523349819E+03  0.97982907370E+03  0.46999998093E+01 0. -1.
</event>
<event>
 5   0  0.7049044E-04  0.1681737E+04  0.7818609E-02  0.8771849E-01
       -2   -1    0    0    0  501  0.00000000000E+00  0.00000000000E+00  0.34163844485E+03  0.34163844486E+03  0.25500000920E-02 0. -1.
        2   -1    0    0  501    0  0.00000000000E+00  0.00000000000E+00 -0.20696147595E+04  0.20696147595E+04  0.25500000920E-02 0.  1.
    10030    2    1    2    0    0  0.00000000000E+00  0.00000000000E+00 -0.17279763147E+04  0.24112532044E+04  0.16817371589E+04 0.  0.
        4    1    3    3  502    0 -0.18731995977E+03 -0.80963829044E+03 -0.68006379178E+03  0.10738208894E+04  0.12699999809E+01 0. -1.
       -4    1    3    3    0  502  0.18731995977E+03  0.80963829044E+03 -0.10479125229E+04  0.13374323150E+04  0.12699999809E+01 0.  1.
</event>
<event>
 5   0  0.3635143E-04  0.1653291E+04  0.7818609E-02  0.8788462E-01
       -1   -1    0    0    0  501  0.00000000000E+00  0.00000000000E+00  0.11824154570E+04  0.11824154570E+04  0.50400001928E-02 0.  1.
        1   -1    0    0  501    0  0.00000000000E+00  0.00000000000E+00 -0.57792091703E+03  0.57792091705E+03  0.50400001928E-02 0. -1.
    10030    2    1    2    0    0  0.00000000000E+00  0.00000000000E+00  0.60449454000E+03  0.17603363741E+04  0.16532908096E+04 0.  0.
        3    1    3    3  502    0 -0.66651064247E+03 -0.38034163275E+03 -0.24972220302E+02  0.76780193808E+03  0.10100000352E+00 0.  1.
       -3    1    3    3    0  502  0.66651064247E+03  0.38034163275E+03  0.62946676030E+03  0.99253443601E+03  0.10100000352E+00 0. -1.
</event>
<event>
 5   0  0.2639750E-04  0.1748618E+04  0.7818609E-02  0.8734112E-01
        3   -1    0    0  501    0  0.00000000000E+00  0.00000000000E+00  0.14953631143E+04  0.14953631177E+04  0.10100000352E+00 0.  1.
       -3   -1    0    0    0  501  0.00000000000E+00  0.00000000000E+00 -0.51119086354E+03  0.51119087352E+03  0.10100000352E+00 0. -1.
    10030    2    1    2    0    0  0.00000000000E+00  0.00000000000E+00  0.98417225075E+03  0.20065539912E+04  0.17486177114E+04 0.  0.
        4    1    3    3  502    0 -0.84428297076E+03  0.14369529700E+03  0.29020191021E+03  0.90425706228E+03  0.12699999809E+01 0. -1.
       -4    1    3    3    0  502  0.84428297076E+03 -0.14369529700E+03  0.69397034054E+03  0.11022969289E+04  0.12699999809E+01 0.  1.
</event>
<event>
 5   0  0.3723500E-04  0.1672128E+04  0.7818609E-02  0.8777423E-01
       -1   -1    0    0    0  501  0.00000000000E+00  0.00000000000E+00  0.10086429312E+04  0.10086429312E+04  0.50400001928E-02 0.  1.
        1   -1    0    0  501    0  0.00000000000E+00  0.00000000000E+00 -0.69301299285E+03  0.69301299287E+03  0.50400001928E-02 0. -1.
    10030    2    1    2    0    0  0.00000000000E+00  0.00000000000E+00  0.31562993836E+03  0.17016559241E+04  0.16721275747E+04 0.  0.
        1    1    3    3  502    0  0.49203148449E+03 -0.58998695908E+03 -0.17789389894E+03  0.78855934014E+03  0.50400001928E-02 0. -1.
       -1    1    3    3    0  502 -0.49203148449E+03  0.58998695908E+03  0.49352383730E+03  0.91309658396E+03  0.50400001928E-02 0.  1.
</event>
<event>
 5   0  0.3915701E-04  0.1712769E+04  0.7818609E-02  0.8754115E-01
        1   -1    0    0  501    0  0.00000000000E+00  0.00000000000E+00  0.93134779449E+03  0.93134779450E+03  0.50400001928E-02 0.  1.
       -1   -1    0    0    0  501  0.00000000000E+00  0.00000000000E+00 -0.78745470377E+03  0.78745470378E+03  0.50400001928E-02 0. -1.
    10030    2    1    2    0    0  0.00000000000E+00  0.00000000000E+00  0.14389309072E+03  0.17188024983E+04  0.17127687545E+04 0.  0.
        2    1    3    3  502    0 -0.56420715909E+03 -0.64255442778E+03  0.11889050752E+03  0.86333125961E+03  0.25500000920E-02 0. -1.
       -2    1    3    3    0  502  0.56420715909E+03  0.64255442778E+03  0.25002583201E+02  0.85547123868E+03  0.25500000920E-02 0.  1.
</event>
<event>
 5   0  0.3803253E-04  0.1629053E+04  0.7818609E-02  0.8802895E-01
        1   -1    0    0  501    0  0.00000000000E+00  0.00000000000E+00  0.13449980406E+04  0.13449980406E+04  0.50400001928E-02 0. -1.
       -1   -1    0    0    0  501  0.00000000000E+00  0.00000000000E+00 -0.49327493530E+03  0.49327493532E+03  0.50400001928E-02 0.  1.
    10030    2    1    2    0    0  0.00000000000E+00  0.00000000000E+00  0.85172310528E+03  0.18382729759E+04  0.16290534939E+04 0.  0.
        4    1    3    3  502    0 -0.50509332333E+03  0.60293305738E+03  0.18700546941E+03  0.80846780730E+03  0.12699999809E+01 0.  1.
       -4    1    3    3    0  502  0.50509332333E+03 -0.60293305738E+03  0.66471763587E+03  0.10298051686E+04  0.12699999809E+01 0. -1.
</event>
<event>
 5   0  0.3713516E-04  0.1707830E+04  0.7818609E-02  0.8756911E-01
        1   -1    0    0  501    0  0.00000000000E+00  0.00000000000E+00  0.14831320382E+04  0.14831320382E+04  0.50400001928E-02 0. -1.
       -1   -1    0    0    0  501  0.00000000000E+00  0.00000000000E+00 -0.49164230882E+03  0.49164230885E+03  0.50400001928E-02 0.  1.
    10030    2    1    2    0    0  0.00000000000E+00  0.00000000000E+00  0.99148972936E+03  0.19747743470E+04  0.17078295695E+04 0.  0.
        5    1    3    3  502    0 -0.24253695776E+03  0.10282164639E+03  0.14349560887E+04  0.14589439789E+04  0.46999998093E+01 0. -1.
       -5    1    3    3    0  502  0.24253695776E+03 -0.10282164639E+03 -0.44346635937E+03  0.51583036818E+03  0.46999998093E+01 0.  1.
</event>
<event>
 5   0  0.7233728E-04  0.1725996E+04  0.7818609E-02  0.8746675E-01
        2   -1    0    0  501    0  0.00000000000E+00  0.00000000000E+00  0.12089291835E+04  0.12089291835E+04  0.25500000920E-02 0. -1.
       -2   -1    0    0    0  501  0.00000000000E+00  0.00000000000E+00 -0.61605392840E+03  0.61605392840E+03  0.25500000920E-02 0.  1.
    10030    2    1    2    0    0  0.00000000000E+00  0.00000000000E+00  0.59287525514E+03  0.18249831119E+04  0.17259960286E+04 0.  0.
        1    1    3    3  502    0 -0.20192744197E+03  0.62850077477E+03 -0.29129878201E+03  0.72155588566E+03  0.50400001928E-02 0.  1.
       -1    1    3    3    0  502  0.20192744197E+03 -0.62850077477E+03  0.88417403715E+03  0.11034272263E+04  0.50400001928E-02 0. -1.
</event>
<event>
 5   0  0.3915701E-04  0.1692316E+04  0.7818609E-02  0.8765759E-01
        1   -1    0    0  501    0  0.00000000000E+00  0.00000000000E+00  0.67547370708E+03  0.67547370710E+03  0.50400001928E-02 0.  1.
       -1   -1    0    0    0  501  0.00000000000E+00  0.00000000000E+00 -0.10599725027E+04  0.10599725027E+04  0.50400001928E-02 0. -1.
    10030    2    1    2    0    0  0.00000000000E+00  0.00000000000E+00 -0.38449879561E+03  0.17354462098E+04  0.16923162303E+04 0.  0.
        2    1    3    3  502    0  0.59933277476E+03  0.58771593698E+03 -0.30161522343E+03  0.89195377711E+03  0.25500000920E-02 0. -1.
       -2    1    3    3    0  502 -0.59933277476E+03 -0.58771593698E+03 -0.82883572176E+02  0.84349243270E+03  0.25500000920E-02 0.  1.
</event>
<event>
 5   0  0.7242144E-04  0.1699975E+04  0.7818609E-02  0.8761379E-01
        2   -1    0    0  501    0  0.00000000000E+00  0.00000000000E+00  0.10239853615E+04  0.10239853616E+04  0.25500000920E-02 0.  1.
       -2   -1    0    0    0  501  0.00000000000E+00  0.00000000000E+00 -0.70555564384E+03  0.70555564384E+03  0.25500000920E-02 0. -1.
    10030    2    1    2    0    0  0.00000000000E+00  0.00000000000E+00  0.31842971771E+03  0.17295410054E+04  0.16999748834E+04 0.  0.
        3    1    3    3  502    0 -0.44929374532E+03 -0.14404943696E+03  0.87852152407E+03  0.99720368447E+03  0.10100000352E+00 0.  1.
       -3    1    3    3    0  502  0.44929374532E+03  0.14404943696E+03 -0.56009180636E+03  0.73233732093E+03  0.10100000352E+00 0. -1.
</event>
<event>
 5   0  0.3803253E-04  0.1397820E+04  0.7818609E-02  0.8955398E-01
        1   -1    0    0  501    0  0.00000000000E+00  0.00000000000E+00  0.11535249032E+04  0.11535249032E+04  0.50400001928E-02 0. -1.
       -1   -1    0    0    0  501  0.00000000000E+00  0.00000000000E+00 -0.42346292790E+03  0.42346292793E+03  0.50400001928E-02 0.  1.
    10030    2    1    2    0    0  0.00000000000E+00  0.00000000000E+00  0.73006197530E+03  0.15769878311E+04  0.13978197780E+04 0.  0.
        4    1    3    3  502    0 -0.65592545508E+03 -0.15756310782E+03  0.57124085758E+03  0.88395818104E+03  0.12699999809E+01 0. -1.
       -4    1    3    3    0  502  0.65592545508E+03  0.15756310782E+03  0.15882111772E+03  0.69302965009E+03  0.12699999809E+01 0.  1.
</event>
<event>
 5   0  0.7233728E-04  0.1713013E+04  0.7818609E-02  0.8753977E-01
        2   -1    0    0  501    0  0.00000000000E+00  0.00000000000E+00  0.16545263367E+04  0.16545263367E+04  0.25500000920E-02 0.  1.
       -2   -1    0    0    0  501  0.00000000000E+00  0.00000000000E+00 -0.44339180392E+03  0.44339180393E+03  0.25500000920E-02 0. -1.
    10030    2    1    2    0    0  0.00000000000E+00  0.00000000000E+00  0.12111345328E+04  0.20979181407E+04  0.17130130380E+04 0.  0.
        1    1    3    3  502    0 -0.21258816335E+03 -0.39046476649E+03 -0.29101217068E+03  0.53136103035E+03  0.50400001928E-02 0. -1.
       -1    1    3    3    0  502  0.21258816335E+03  0.39046476649E+03  0.15021467035E+04  0.15665571103E+04  0.50400001928E-02 0.  1.
</event>
<event>
 5   0  0.3635143E-04  0.1690400E+04  0.7818609E-02  0.8766859E-01
        1   -1    0    0  501    0  0.00000000000E+00  0.00000000000E+00  0.20133629703E+04  0.20133629703E+04  0.50400001928E-02 0. -1.
       -1   -1    0    0    0  501  0.00000000000E+00  0.00000000000E+00 -0.35481083093E+03  0.35481083096E+03  0.50400001928E-02 0.  1.
    10030    2    1    2    0    0  0.00000000000E+00  0.00000000000E+00  0.16585521394E+04  0.23681738013E+04  0.16903999391E+04 0.  0.
        3    1    3    3  502    0 -0.30398233847E+03  0.41770009934E+03  0.17664345214E+04  0.18404264624E+04  0.10100000352E+00 0. -1.
       -3    1    3    3    0  502  0.30398233847E+03 -0.41770009934E+03 -0.10788238202E+03  0.52774733883E+03  0.10100000352E+00 0.  1.
</event>
<event>
 5   0  0.7049044E-04  0.1698958E+04  0.7818609E-02  0.8761959E-01
       -2   -1    0    0    0  501  0.00000000000E+00  0.00000000000E+00  0.46924096203E+03  0.46924096204E+03  0.25500000920E-02 0.  1.
        2   -1    0    0  501    0  0.00000000000E+00  0.00000000000E+00 -0.15378344103E+04  0.15378344103E+04  0.25500000920E-02 0. -1.
    10030    2    1    2    0    0  0.00000000000E+00  0.00000000000E+00 -0.10685934483E+04  0.20070753723E+04  0.16989583846E+04 0.  0.
        4    1    3    3  502    0 -0.44107904422E+03  0.21109561255E+03 -0.13548941339E+04  0.14404345899E+04  0.12699999809E+01 0. -1.
       -4    1    3    3    0  502  0.44107904422E+03 -0.21109561255E+03  0.28630068558E+03  0.56664078246E+03  0.12699999809E+01 0.  1.
</event>
<event>
 5   0  0.2639750E-04  0.1719610E+04  0.7818609E-02  0.8750259E-01
        3   -1    0    0  501    0  0.00000000000E+00  0.00000000000E+00  0.10279660530E+04  0.10279660580E+04  0.10100000352E+00 0.  1.
       -3   -1    0    0    0  501  0.00000000000E+00  0.00000000000E+00 -0.71915254446E+03  0.71915255156E+03  0.10100000352E+00 0. -1.
    10030    2    1    2    0    0  0.00000000000E+00  0.00000000000E+00  0.30881350856E+03  0.17471186095E+04  0.17196097385E+04 0.  0.
        5    1    3    3  502    0  0.63143314382E+03  0.28554564764E+02  0.74658507601E+03  0.97823031236E+03  0.46999998093E+01 0.  1.
       -5    1    3    3    0  502 -0.63143314382E+03 -0.28554564764E+02 -0.43777156745E+03  0.76888829719E+03  0.46999998093E+01 0. -1.
</event>
<event>
 5   0  0.7049044E-04  0.1693445E+04  0.7818609E-02  0.8765112E-01
       -2   -1    0    0    0  501  0.00000000000E+00  0.00000000000E+00  0.93974503914E+03  0.93974503914E+03  0.25500000920E-02 0.  1.
        2   -1    0    0  501    0  0.00000000000E+00  0.00000000000E+00 -0.76290777364E+03  0.76290777364E+03  0.25500000920E-02 0. -1.
    10030    2    1    2    0    0  0.00000000000E+00  0.00000000000E+00  0.17683726550E+03  0.17026528128E+04  0.16934447680E+04 0.  0.
        4    1    3    3  502    0 -0.75927066707E+03 -0.35921747884E+03 -0.18970559561E+02  0.84017298100E+03  0.12699999809E+01 0. -1.
       -4    1    3    3    0  502  0.75927066707E+03  0.35921747884E+03  0.19580782506E+03  0.86247983178E+03  0.12699999809E+01 0.  1.
</event>
<event>
 5   0  0.6746664E-04  0.1612286E+04  0.7818609E-02  0.8813036E-01
       -2   -1    0    0    0  501  0.00000000000E+00  0.00000000000E+00  0.12538434698E+04  0.12538434698E+04  0.25500000920E-02 0. -1.
        2   -1    0    0  501    0  0.00000000000E+00  0.00000000000E+00 -0.51829931234E+03  0.51829931235E+03  0.25500000920E-02 0.  1.
    10030    2    1    2    0    0  0.00000000000E+00  0.00000000000E+00  0.73554415748E+03  0.17721427822E+04  0.16122855928E+04 0.  0.
        5    1    3    3  502    0  0.17491193360E+03 -0.12908073935E+03  0.12210038354E+04  0.12402130776E+04  0.46999998093E+01 0. -1.
       -5    1    3    3    0  502 -0.17491193360E+03  0.12908073935E+03 -0.48545967789E+03  0.53192970460E+03  0.46999998093E+01 0.  1.
</event>
<event>
 5   0  0.7025426E-04  0.1669436E+04  0.7818609E-02  0.8778991E-01
        2   -1    0    0  501    0  0.00000000000E+00  0.00000000000E+00  0.12751821159E+04  0.12751821159E+04  0.25500000920E-02 0. -1.
       -2   -1    0    0    0  501  0.00000000000E+00  0.00000000000E+00 -0.54639556090E+03  0.54639556091E+03  0.25500000920E-02 0.  1.
    10030    2    1    2    0    0  0.00000000000E+00  0.00000000000E+00  0.72878655504E+03  0.18215776769E+04  0.16694356502E+04 0.  0.
        2    1    3    3  502    0 -0.24863111465E+02  0.57605437572E+03 -0.29418261165E+03  0.64730226873E+03  0.25500000920E-02 0.  1.
       -2    1    3    3    0  502  0.24863111465E+02 -0.57605437572E+03  0.10229691667E+04  0.11742754081E+04  0.25500000920E-02 0. -1.
</event>
<event>
 5   0  0.7242144E-04  0.1463024E+04  0.7818609E-02  0.8909421E-01
        2   -1    0    0  501    0  0.00000000000E+00  0.00000000000E+00  0.16588329827E+04  0.16588329827E+04  0.25500000920E-02 0. -1.
       -2   -1    0    0    0  501  0.00000000000E+00  0.00000000000E+00 -0.32258210608E+03  0.32258210609E+03  0.25500000920E-02 0.  1.
    10030    2    1    2    0    0  0.00000000000E+00  0.00000000000E+00  0.13362508766E+04  0.19814150888E+04  0.14630240424E+04 0.  0.
        3    1    3    3  502    0 -0.71006476071E+03 -0.12429180349E+03  0.83657150728E+03  0.11043062591E+04  0.10100000352E+00 0.  1.
       -3    1    3    3    0  502  0.71006476071E+03  0.12429180349E+03  0.49967936930E+03  0.87710882969E+03  0.10100000352E+00 0. -1.
</event>
<event>
 5   0  0.7242144E-04  0.1665591E+04  0.7818609E-02  0.8781236E-01
       -2   -1    0    0    0  501  0.00000000000E+00  0.00000000000E+00  0.12203538956E+04  0.12203538956E+04  0.25500000920E-02 0.  1.
        2   -1    0    0  501    0  0.00000000000E+00  0.00000000000E+00 -0.56831768308E+03  0.56831768308E+03  0.25500000920E-02 0. -1.
    10030    2    1    2    0    0  0.00000000000E+00  0.00000000000E+00  0.65203621255E+03  0.17886715787E+04  0.16655914247E+04 0.  0.
        3    1    3    3  502    0 -0.93121697764E+02  0.54650549393E+03 -0.34136191741E+03  0.65105136076E+03  0.10100000352E+00 0. -1.
       -3    1    3    3    0  502  0.93121697764E+02 -0.54650549393E+03  0.99339812996E+03  0.11376202180E+04  0.10100000352E+00 0.  1.
</event>
<event>
 5   0  0.7025426E-04  0.1450335E+04  0.7818609E-02  0.8918168E-01
       -2   -1    0    0    0  501  0.00000000000E+00  0.00000000000E+00  0.89610968350E+03  0.89610968350E+03  0.25500000920E-02 0.  1.
        2   -1    0    0  501    0  0.00000000000E+00  0.00000000000E+00 -0.58683411822E+03  0.58683411823E+03  0.25500000920E-02 0. -1.
    10030    2    1    2    0    0  0.00000000000E+00  0.00000000000E+00  0.30927556527E+03  0.14829438017E+04  0.14503347696E+04 0.  0.
        2    1    3    3  502    0 -0.71577217461E+03 -0.64592948500E+02  0.55685432051E+02  0.72083487866E+03  0.25500000920E-02 0. -1.
       -2    1    3    3    0  502  0.71577217461E+03  0.64592948500E+02  0.25359013322E+03  0.76210892307E+03  0.25500000920E-02 0.  1.
</event>
<event>
 5   0  0.2639750E-04  0.1694997E+04  0.7818609E-02  0.8764223E-01
        3   -1    0    0  501    0  0.00000000000E+00  0.00000000000E+00  0.15350613825E+04  0.15350613858E+04  0.10100000352E+00 0. -1.
       -3   -1    0    0    0  501  0.00000000000E+00  0.00000000000E+00 -0.46789901816E+03  0.46789902906E+03  0.10100000352E+00 0.  1.
    10030    2    1    2    0    0  0.00000000000E+00  0.00000000000E+00  0.10671623643E+04  0.20029604149E+04  0.16949970241E+04 0.  0.
        1    1    3    3  502    0  0.72337298794E+03  0.18710427440E+03  0.60938950295E+02  0.74965995282E+03  0.50400001928E-02 0. -1.
       -1    1    3    3    0  502 -0.72337298794E+03 -0.18710427440E+03  0.10062234140E+04  0.12533004620E+04  0.50400001928E-02 0.  1.
</event>
<event>
 5   0  0.6746664E-04  0.1705043E+04  0.7818609E-02  0.8758493E-01
       -2   -1    0    0    0  501  0.00000000000E+00  0.00000000000E+00  0.34432479921E+03  0.34432479922E+03  0.25500000920E-02 0. -1.
        2   -1    0    0  501    0  0.00000000000E+00  0.00000000000E+00 -0.21107779047E+04  0.21107779047E+04  0.25500000920E-02 0.  1.
    10030    2    1    2    0    0  0.00000000000E+00  0.00000000000E+00 -0.17664531055E+04  0.24551027039E+04  0.17050433170E+04 0.  0.
        5    1    3    3  502    0 -0.70256719137E+03 -0.46195512356E+03 -0.68077810749E+03  0.10818891423E+04  0.46999998093E+01 0.  1.
       -5    1    3    3    0  502  0.70256719137E+03  0.46195512356E+03 -0.10856749980E+04  0.13732135616E+04  0.46999998093E+01 0. -1.
</event>
<event>
 5   0  0.7242144E-04  0.1700975E+04  0.7818609E-02  0.8760809E-01
       -2   -1    0    0    0  501  0.00000000000E+00  0.00000000000E+00  0.86339767867E+03  0.86339767868E+03  0.25500000920E-02 0. -1.
        2   -1    0    0  501    0  0.00000000000E+00  0.00000000000E+00 -0.83776991708E+03  0.83776991708E+03  0.25500000920E-02 0.  1.
    10030    2    1    2    0    0  0.00000000000E+00  0.00000000000E+00  0.25627761594E+02  0.17011675958E+04  0.17009745462E+04 0.  0.
        3    1    3    3  502    0  0.25317271628E+03  0.32998384617E+03  0.75474902369E+03  0.86176090765E+03  0.10100000352E+00 0. -1.
       -3    1    3    3    0  502 -0.25317271628E+03 -0.32998384617E+03 -0.72912126209E+03  0.83940668811E+03  0.10100000352E+00 0.  1.
</event>
<event>
 5   0  0.3803253E-04  0.1696833E+04  0.7818609E-02  0.8763173E-01
        1   -1    0    0  501    0  0.00000000000E+00  0.00000000000E+00  0.45228110307E+03  0.45228110310E+03  0.50400001928E-02 0. -1.
       -1   -1    0    0    0  501  0.00000000000E+00  0.00000000000E+00 -0.15915120117E+04  0.15915120118E+04  0.50400001928E-02 0.  1.
    10030    2    1    2    0    0  0.00000000000E+00  0.00000000000E+00 -0.11392309087E+04  0.20437931149E+04  0.16968332956E+04 0.  0.
        4    1    3    3  502    0  0.41355857038E+03  0.68542345841E+02 -0.14580579334E+04  0.15171233617E+04  0.12699999809E+01 0.  1.
       -4    1    3    3    0  502 -0.41355857038E+03 -0.68542345841E+02  0.31882702477E+03  0.52666975320E+03  0.12699999809E+01 0. -1.
</event>
<event>
 5   0  0.7233728E-04  0.1719171E+04  0.7818609E-02  0.8750506E-01
       -2   -1    0    0    0  501  0.00000000000E+00  0.00000000000E+00  0.80599024311E+03  0.80599024312E+03  0.25500000920E-02 0. -1.
        2   -1    0    0  501    0  0.00000000000E+00  0.00000000000E+00 -0.91674412293E+03  0.91674412293E+03  0.25500000920E-02 0.  1.
    10030    2    1    2    0    0  0.00000000000E+00  0.00000000000E+00 -0.11075387982E+03  0.17227343661E+04  0.17191705192E+04 0.  0.
        1    1    3    3  502    0  0.57696753863E+03 -0.42167898999E+02 -0.69247565322E+03  0.90232599578E+03  0.50400001928E-02 0.  1.
       -1    1    3    3    0  502 -0.57696753863E+03  0.42167898999E+02  0.58172177340E+03  0.82040837027E+03  0.50400001928E-02 0. -1.
</event>
<event>
 5   0  0.7025426E-04  0.1654299E+04  0.7818609E-02  0.8787867E-01
       -2   -1    0    0    0  501  0.00000000000E+00  0.00000000000E+00  0.96364527107E+03  0.96364527107E+03  0.25500000920E-02 0. -1.
        2   -1    0    0  501    0  0.00000000000E+00  0.00000000000E+00 -0.70998758986E+03  0.70998758986E+03  0.25500000920E-02 0.  1.
    10030    2    1    2    0    0  0.00000000000E+00  0.00000000000E+00  0.25365768121E+03  0.16736328609E+04  0.16542988648E+04 0.  0.
        2    1    3    3  502    0 -0.62147666094E+03  0.65627539022E+02  0.67504375919E+03  0.91990450091E+03  0.25500000920E-02 0. -1.
       -2    1    3    3    0  502  0.62147666094E+03 -0.65627539022E+02 -0.42138607798E+03  0.75372836002E+03  0.25500000920E-02 0.  1.
</event>
<event>
 5   0  0.3915701E-04  0.1589691E+04  0.7818609E-02  0.8826907E-01
       -1   -1    0    0    0  501  0.00000000000E+00  0.00000000000E+00  0.12891987158E+04  0.12891987158E+04  0.50400001928E-02 0. -1.
        1   -1    0    0  501    0  0.00000000000E+00  0.00000000000E+00 -0.49005561731E+03  0.49005561733E+03  0.50400001928E-02 0.  1.
    10030    2    1    2    0    0  0.00000000000E+00  0.00000000000E+00  0.79914309846E+03  0.17792543331E+04  0.15896906272E+04 0.  0.
        2    1    3    3  502    0  0.76391210327E+03 -0.20351821263E+01  0.64533003808E+03  0.10000083507E+04  0.25500000920E-02 0. -1.
       -2    1    3    3    0  502 -0.76391210327E+03  0.20351821263E+01  0.15381306037E+03  0.77924598237E+03  0.25500000920E-02 0.  1.
</event>
<event>
 5   0  0.6746664E-04  0.1705004E+04  0.7818609E-02  0.8758516E-01
       -2   -1    0    0    0  501  0.00000000000E+00  0.00000000000E+00  0.73950999052E+03  0.73950999053E+03  0.25500000920E-02 0. -1.
        2   -1    0    0  501    0  0.00000000000E+00  0.00000000000E+00 -0.98275803610E+03  0.98275803610E+03  0.25500000920E-02 0.  1.
    10030    2    1    2    0    0  0.00000000000E+00  0.00000000000E+00 -0.24324804558E+03  0.17222680266E+04  0.17050036786E+04 0.  0.
        5    1    3    3  502    0  0.78146400043E+03 -0.33975526325E+03 -0.96519338535E+02  0.85758830191E+03  0.46999998093E+01 0. -1.
       -5    1    3    3    0  502 -0.78146400043E+03  0.33975526325E+03 -0.14672870704E+03  0.86467972472E+03  0.46999998093E+01 0.  1.
</event>
<event>
 5   0  0.3635143E-04  0.1720992E+04  0.7818609E-02  0.8749482E-01
        1   -1    0    0  501    0  0.00000000000E+00  0.00000000000E+00  0.10068051896E+04  0.10068051896E+04  0.50400001928E-02 0. -1.
       -1   -1    0    0    0  501  0.00000000000E+00  0.00000000000E+00 -0.73544817760E+03  0.73544817761E+03  0.50400001928E-02 0.  1.
    10030    2    1    2    0    0  0.00000000000E+00  0.00000000000E+00  0.27135701201E+03  0.17422533672E+04  0.17209916234E+04 0.  0.
        3    1    3    3  502    0 -0.18448735383E+03 -0.77926277842E+02  0.98288359275E+03  0.10030793865E+04  0.10100000352E+00 0. -1.
       -3    1    3    3    0  502  0.18448735383E+03  0.77926277842E+02 -0.71152658074E+03  0.73917398074E+03  0.10100000352E+00 0.  1.
</event>
<event>
 5   0  0.3635143E-04  0.1680341E+04  0.7818609E-02  0.8772657E-01
        1   -1    0    0  501    0  0.00000000000E+00  0.00000000000E+00  0.11718439879E+04  0.11718439879E+04  0.50400001928E-02 0. -1.
       -1   -1    0    0    0  501  0.00000000000E+00  0.00000000000E+00 -0.60237233163E+03  0.60237233165E+03  0.50400001928E-02 0.  1.
    10030    2    1    2    0    0  0.00000000000E+00  0.00000000000E+00  0.56947165628E+03  0.17742163196E+04  0.16803409122E+04 0.  0.
        3    1    3    3  502    0  0.18322055993E+03 -0.47918163469E+03 -0.41779389018E+03  0.66161662425E+03  0.10100000352E+00 0.  1.
       -3    1    3    3    0  502 -0.18322055993E+03  0.47918163469E+03  0.98726554646E+03  0.11125996953E+04  0.10100000352E+00 0. -1.
</event>
<event>
 5   0  0.3803253E-04  0.1721136E+04  0.7818609E-02  0.8749401E-01
        1   -1    0    0  501    0  0.00000000000E+00  0.00000000000E+00  0.73562913496E+03  0.73562913497E+03  0.50400001928E-02 0.  1.
       -1   -1    0    0    0  501  0.00000000000E+00  0.00000000000E+00 -0.10067267947E+04  0.10067267947E+04  0.50400001928E-02 0. -1.
    10030    2    1    2    0    0  0.00000000000E+00  0.00000000000E+00 -0.27109765973E+03  0.17423559297E+04  0.17211363236E+04 0.  0.
        4    1    3    3  502    0 -0.14799226078E+03 -0.11284013978E+03  0.71501305144E+03  0.73883684466E+03  0.12699999809E+01 0.  1.
       -4    1    3    3    0  502  0.14799226078E+03  0.11284013978E+03 -0.98611071117E+03  0.10035190850E+04  0.12699999809E+01 0. -1.
</event>
<event>
 5   0  0.7049044E-04  0.1679374E+04  0.7818609E-02  0.8773216E-01
       -2   -1    0    0    0  501  0.00000000000E+00  0.00000000000E+00  0.88610874689E+03  0.88610874689E+03  0.25500000920E-02 0. -1.
        2   -1    0    0  501    0  0.00000000000E+00  0.00000000000E+00 -0.79569695112E+03  0.79569695112E+03  0.25500000920E-02 0.  1.
    10030    2    1    2    0    0  0.00000000000E+00  0.00000000000E+00  0.90411795767E+02  0.16818056980E+04  0.16793737264E+04 0.  0.
        4    1    3    3  502    0  0.85275775401E+02 -0.27364587264E+03 -0.74518884448E+03  0.79841220451E+03  0.12699999809E+01 0.  1.
       -4    1    3    3    0  502 -0.85275775401E+02  0.27364587264E+03  0.83560064024E+03  0.88339349350E+03  0.12699999809E+01 0. -1.
</event>
<event>
 5   0  0.7025426E-04  0.1757452E+04  0.7818609E-02  0.8729259E-01
       -2   -1    0    0    0  501  0.00000000000E+00  0.00000000000E+00  0.41765648119E+03  0.41765648119E+03  0.25500000920E-02 0.  1.
        2   -1    0    0  501    0  0.00000000000E+00  0.00000000000E+00 -0.18487900127E+04  0.18487900127E+04  0.25500000920E-02 0. -1.
    10030    2    1    2    0    0  0.00000000000E+00  0.00000000000E+00 -0.14311335315E+04  0.22664464939E+04  0.17574517133E+04 0.  0.
        2    1    3    3  502    0  0.43405860266E+02 -0.64458589364E+03 -0.14837134074E+04  0.16182646627E+04  0.25500000920E-02 0. -1.
       -2    1    3    3    0  502 -0.43405860266E+02  0.64458589364E+03  0.52579875922E+02  0.64818183124E+03  0.25500000920E-02 0.  1.
</event>
<event>
 5   0  0.7049044E-04  0.1693511E+04  0.7818609E-02  0.8765074E-01
       -2   -1    0    0    0  501  0.00000000000E+00  0.00000000000E+00  0.43099882160E+03  0.43099882161E+03  0.25500000920E-02 0. -1.
        2   -1    0    0  501    0  0.00000000000E+00  0.00000000000E+00 -0.16635655461E+04  0.16635655461E+04  0.25500000920E-02 0.  1.
    10030    2    1    2    0    0  0.00000000000E+00  0.00000000000E+00 -0.12325667245E+04  0.20945643677E+04  0.16935108975E+04 0.  0.
        4    1    3    3  502    0  0.60479365039E+03 -0.44269698203E+03 -0.11035914456E+04  0.13340433536E+04  0.12699999809E+01 0.  1.
       -4    1    3    3    0  502 -0.60479365039E+03  0.44269698203E+03 -0.12897527884E+03  0.76052101411E+03  0.12699999809E+01 0. -1.
</event>
<event>
 5   0  0.7233728E-04  0.1683579E+04  0.7818609E-02  0.8770786E-01
       -2   -1    0    0    0  501  0.00000000000E+00  0.00000000000E+00  0.99265513037E+03  0.99265513038E+03  0.25500000920E-02 0. -1.
        2   -1    0    0  501    0  0.00000000000E+00  0.00000000000E+00 -0.71385292447E+03  0.71385292447E+03  0.25500000920E-02 0.  1.
    10030    2    1    2    0    0  0.00000000000E+00  0.00000000000E+00  0.27880220591E+03  0.17065080549E+04  0.16835792441E+04 0.  0.
        1    1    3    3  502    0 -0.52113317756E+03  0.60893313723E+03  0.40025871394E+03  0.89587186164E+03  0.50400001928E-02 0. -1.
       -1    1    3    3    0  502  0.52113317756E+03 -0.60893313723E+03 -0.12145650803E+03  0.81063619321E+03  0.50400001928E-02 0.  1.
</event>
<event>
 5   0  0.7242144E-04  0.1715993E+04  0.7818609E-02  0.8752295E-01
       -2   -1    0    0    0  501  0.00000000000E+00  0.00000000000E+00  0.63012278812E+03  0.63012278813E+03  0.25500000920E-02 0.  1.
        2   -1    0    0  501    0  0.00000000000E+00  0.00000000000E+00 -0.11682765776E+04  0.11682765776E+04  0.25500000920E-02 0. -1.
    10030    2    1    2    0    0  0.00000000000E+00  0.00000000000E+00 -0.53815378949E+03  0.17983993657E+04  0.17159926508E+04 0.  0.
        3    1    3    3  502    0  0.29539520061E+03  0.69140603101E+03  0.16412184210E+03  0.76956910900E+03  0.10100000352E+00 0.  1.
       -3    1    3    3    0  502 -0.29539520061E+03 -0.69140603101E+03 -0.70227563159E+03  0.10288302567E+04  0.10100000352E+00 0. -1.
</event>
<event>
 5   0  0.3723500E-04  0.1675122E+04  0.7818609E-02  0.8775682E-01
       -1   -1    0    0    0  501  0.00000000000E+00  0.00000000000E+00  0.87718101654E+03  0.87718101655E+03  0.50400001928E-02 0. -1.
        1   -1    0    0  501    0  0.00000000000E+00  0.00000000000E+00 -0.79973034981E+03  0.79973034983E+03  0.50400001928E-02 0.  1.
    10030    2    1    2    0    0  0.00000000000E+00  0.00000000000E+00  0.77450666727E+02  0.16769113664E+04  0.16751218239E+04 0.  0.
        1    1    3    3  502    0  0.21493082135E+03  0.73062986438E+03  0.38765619556E+03  0.85457157844E+03  0.50400001928E-02 0. -1.
       -1    1    3    3    0  502 -0.21493082135E+03 -0.73062986438E+03 -0.31020552883E+03  0.82233978794E+03  0.50400001928E-02 0.  1.
</event>
<event>
 5   0  0.7025426E-04  0.1689939E+04  0.7818609E-02  0.8767124E-01
       -2   -1    0    0    0  501  0.00000000000E+00  0.00000000000E+00  0.79654844029E+03  0.79654844029E+03  0.25500000920E-02 0.  1.
        2   -1    0    0  501    0  0.00000000000E+00  0.00000000000E+00 -0.89633369574E+03  0.89633369574E+03  0.25500000920E-02 0. -1.
    10030    2    1    2    0    0  0.00000000000E+00  0.00000000000E+00 -0.99785255451E+02  0.16928821360E+04  0.16899387058E+04 0.  0.
        2    1    3    3  502    0 -0.15904898954E+03  0.80712579113E+03 -0.24316540748E+03  0.85783333998E+03  0.25500000920E-02 0. -1.
       -2    1    3    3    0  502  0.15904898954E+03 -0.80712579113E+03  0.14338015203E+03  0.83504879605E+03  0.25500000920E-02 0.  1.
</event>
<event>
 5   0  0.3915701E-04  0.1740641E+04  0.7818609E-02  0.8738519E-01
        1   -1    0    0  501    0  0.00000000000E+00  0.00000000000E+00  0.15766199928E+04  0.15766199928E+04  0.50400001928E-02 0. -1.
       -1   -1    0    0    0  501  0.00000000000E+00  0.00000000000E+00 -0.48043152660E+03  0.48043152662E+03  0.50400001928E-02 0.  1.
    10030    2    1    2    0    0  0.00000000000E+00  0.00000000000E+00  0.10961884662E+04  0.20570515194E+04  0.17406412037E+04 0.  0.
        2    1    3    3  502    0 -0.36067621073E+03 -0.56346641091E+03 -0.10976055093E+03  0.67795951484E+03  0.25500000920E-02 0.  1.
       -2    1    3    3    0  502  0.36067621073E+03  0.56346641091E+03  0.12059490172E+04  0.13790920046E+04  0.25500000920E-02 0. -1.
</event>
<event>
 5   0  0.7025426E-04  0.1718575E+04  0.7818609E-02  0.8750841E-01
       -2   -1    0    0    0  501  0.00000000000E+00  0.00000000000E+00  0.60419580990E+03  0.60419580990E+03  0.25500000920E-02 0. -1.
        2   -1    0    0  501    0  0.00000000000E+00  0.00000000000E+00 -0.12220783675E+04  0.12220783675E+04  0.25500000920E-02 0.  1.
    10030    2    1    2    0    0  0.00000000000E+00  0.00000000000E+00 -0.61788255756E+03  0.18262741774E+04  0.17185745593E+04 0.  0.
        2    1    3    3  502    0  0.28005229224E+03 -0.62751679844E+03  0.23930479347E+03  0.72764923067E+03  0.25500000920E-02 0. -1.
       -2    1    3    3    0  502 -0.28005229224E+03  0.62751679844E+03 -0.85718735104E+03  0.10986249467E+04  0.25500000920E-02 0.  1.
</event>
<event>
 5   0  0.7049044E-04  0.1757064E+04  0.7818609E-02  0.8729472E-01
        2   -1    0    0  501    0  0.00000000000E+00  0.00000000000E+00  0.87978847007E+03  0.87978847007E+03  0.25500000920E-02 0. -1.
       -2   -1    0    0    0  501  0.00000000000E+00  0.00000000000E+00 -0.87727735637E+03  0.87727735637E+03  0.25500000920E-02 0.  1.
    10030    2    1    2    0    0  0.00000000000E+00  0.00000000000E+00  0.25111137002E+01  0.17570658264E+04  0.17570640321E+04 0.  0.
        4    1    3    3  502    0 -0.81329318810E+02  0.67855980974E+03  0.55330595243E+03  0.87932187701E+03  0.12699999809E+01 0.  1.
       -4    1    3    3    0  502  0.81329318810E+02 -0.67855980974E+03 -0.55079483873E+03  0.87774394943E+03  0.12699999809E+01 0. -1.
</event>
<event>
 5   0  0.3723500E-04  0.1566074E+04  0.7818609E-02  0.8841665E-01
       -1   -1    0    0    0  501  0.00000000000E+00  0.00000000000E+00  0.32784359626E+03  0.32784359630E+03  0.50400001928E-02 0. -1.
        1   -1    0    0  501    0  0.00000000000E+00  0.00000000000E+00 -0.18702420290E+04  0.18702420291E+04  0.50400001928E-02 0.  1.
    10030    2    1    2    0    0  0.00000000000E+00  0.00000000000E+00 -0.15423984328E+04  0.21980856254E+04  0.15660739098E+04 0.  0.
        1    1    3    3  502    0  0.39557111549E+03  0.36854287858E+03  0.23826199777E+02  0.54117284539E+03  0.50400001928E-02 0. -1.
       -1    1    3    3    0  502 -0.39557111549E+03 -0.36854287858E+03 -0.15662246326E+04  0.16569127800E+04  0.50400001928E-02 0.  1.
</event>
<event>
 5   0  0.3635143E-04  0.1704069E+04  0.7818609E-02  0.8759047E-01
        1   -1    0    0  501    0  0.00000000000E+00  0.00000000000E+00  0.79954137198E+03  0.79954137200E+03  0.50400001928E-02 0.  1.
       -1   -1    0    0    0  501  0.00000000000E+00  0.00000000000E+00 -0.90797371999E+03  0.90797372001E+03  0.50400001928E-02 0. -1.
    10030    2    1    2    0    0  0.00000000000E+00  0.00000000000E+00 -0.10843234802E+03  0.17075150920E+04  0.17040687238E+04 0.  0.
        3    1    3    3  502    0 -0.58281316612E+03  0.59317730506E+03  0.13171783513E+03  0.84195017675E+03  0.10100000352E+00 0.  1.
       -3    1    3    3    0  502  0.58281316612E+03 -0.59317730506E+03 -0.24015018315E+03  0.86556491525E+03  0.10100000352E+00 0. -1.
</event>
<event>
 5   0  0.7242144E-04  0.1687856E+04  0.7818609E-02  0.8768321E-01
       -2   -1    0    0    0  501  0.00000000000E+00  0.00000000000E+00  0.12869513801E+04  0.12869513801E+04  0.25500000920E-02 0. -1.
        2   -1    0    0  501    0  0.00000000000E+00  0.00000000000E+00 -0.55341232378E+03  0.55341232378E+03  0.25500000920E-02 0.  1.
    10030    2    1    2    0    0  0.00000000000E+00  0.00000000000E+00  0.73353905637E+03  0.18403637039E+04  0.16878563373E+04 0.  0.
        3    1    3    3  502    0  0.41376674882E+03 -0.15644829574E+01  0.11687625245E+04  0.12398432235E+04  0.10100000352E+00 0. -1.
       -3    1    3    3    0  502 -0.41376674882E+03  0.15644829574E+01 -0.43522346810E+03  0.60052048044E+03  0.10100000352E+00 0.  1.
</event>
<event>
 5   0  0.3713516E-04  0.1695574E+04  0.7818609E-02  0.8763893E-01
        1   -1    0    0  501    0  0.00000000000E+00  0.00000000000E+00  0.63134072155E+03  0.63134072157E+03  0.50400001928E-02 0. -1.
       -1   -1    0    0    0  501  0.00000000000E+00  0.00000000000E+00 -0.11384386078E+04  0.11384386078E+04  0.50400001928E-02 0.  1.
    10030    2    1    2    0    0  0.00000000000E+00  0.00000000000E+00 -0.50709788628E+03  0.17697793294E+04  0.16955738287E+04 0.  0.
        5    1    3    3  502    0 -0.32294202636E+03  0.61450505494E+03 -0.76148000033E+03  0.10304280158E+04  0.46999998093E+01 0.  1.
       -5    1    3    3    0  502  0.32294202636E+03 -0.61450505494E+03  0.25438211405E+03  0.73935131357E+03  0.46999998093E+01 0. -1.
</event>
<event>
 5   0  0.3803253E-04  0.1269102E+04  0.7818609E-02  0.9054433E-01
       -1   -1    0    0    0  501  0.00000000000E+00  0.00000000000E+00  0.10146495653E+04  0.10146495653E+04  0.50400001928E-02 0.  1.
        1   -1    0    0  501    0  0.00000000000E+00  0.00000000000E+00 -0.39684119101E+03  0.39684119104E+03  0.50400001928E-02 0. -1.
    10030    2    1    2    0    0  0.00000000000E+00  0.00000000000E+00  0.61780837428E+03  0.14114907563E+04  0.12691016381E+04 0.  0.
        4    1    3    3  502    0  0.12947282203E+03 -0.53525580310E+03  0.65953935731E+03  0.85921811150E+03  0.12699999809E+01 0.  1.
       -4    1    3    3    0  502 -0.12947282203E+03  0.53525580310E+03 -0.41730983029E+02  0.55227264484E+03  0.12699999809E+01 0. -1.
</event>
<event>
 5   0  0.7049044E-04  0.1686578E+04  0.7818609E-02  0.8769057E-01
        2   -1    0    0  501    0  0.00000000000E+00  0.00000000000E+00  0.19264659935E+04  0.19264659935E+04  0.25500000920E-02 0. -1.
       -2   -1    0    0    0  501  0.00000000000E+00  0.00000000000E+00 -0.36914025078E+03  0.36914025079E+03  0.25500000920E-02 0.  1.
    10030    2    1    2    0    0  0.00000000000E+00  0.00000000000E+00  0.15573257427E+04  0.22956062443E+04  0.16865777657E+04 0.  0.
        4    1    3    3  502    0  0.11867504122E+02 -0.76199151421E+03  0.28722618991E+03  0.81441537464E+03  0.12699999809E+01 0.  1.
       -4    1    3    3    0  502 -0.11867504122E+02  0.76199151421E+03  0.12700995528E+04  0.14811908696E+04  0.12699999809E+01 0. -1.
</event>
<event>
 5   0  0.7233728E-04  0.1697430E+04  0.7818609E-02  0.8762831E-01
        2   -1    0    0  501    0  0.00000000000E+00  0.00000000000E+00  0.11491114057E+04  0.11491114057E+04  0.25500000920E-02 0.  1.
       -2   -1    0    0    0  501  0.00000000000E+00  0.00000000000E+00 -0.62684712723E+03  0.62684712724E+03  0.25500000920E-02 0. -1.
    10030    2    1    2    0    0  0.00000000000E+00  0.00000000000E+00  0.52226427842E+03  0.17759585329E+04  0.16974300380E+04 0.  0.
        1    1    3    3  502    0 -0.43714048538E+03  0.63086979295E+03 -0.11788192386E+03  0.77652086103E+03  0.50400001928E-02 0. -1.
       -1    1    3    3    0  502  0.43714048538E+03 -0.63086979295E+03  0.64014620228E+03  0.99943767186E+03  0.50400001928E-02 0.  1.
</event>
<event>
 5   0  0.3915701E-04  0.1711434E+04  0.7818609E-02  0.8754870E-01
        1   -1    0    0  501    0  0.00000000000E+00  0.00000000000E+00  0.13904599089E+04  0.13904599089E+04  0.50400001928E-02 0. -1.
       -1   -1    0    0    0  501  0.00000000000E+00  0.00000000000E+00 -0.52662542217E+03  0.52662542220E+03  0.50400001928E-02 0.  1.
    10030    2    1    2    0    0  0.00000000000E+00  0.00000000000E+00  0.86383448670E+03  0.19170853311E+04  0.17114339445E+04 0.  0.
        2    1    3    3  502    0 -0.36923749274E+03  0.23550328268E+03 -0.39157674872E+03  0.58747806116E+03  0.25500000920E-02 0.  1.
       -2    1    3    3    0  502  0.36923749274E+03 -0.23550328268E+03  0.12554112354E+04  0.13296072699E+04  0.25500000920E-02 0. -1.
</event>
<event>
 5   0  0.7025426E-04  0.1786092E+04  0.7818609E-02  0.8713731E-01
       -2   -1    0    0    0  501  0.00000000000E+00  0.00000000000E+00  0.91328880115E+03  0.91328880115E+03  0.25500000920E-02 0.  1.
        2   -1    0    0  501    0  0.00000000000E+00  0.00000000000E+00 -0.87325183613E+03  0.87325183613E+03  0.25500000920E-02 0. -1.
    10030    2    1    2    0    0  0.00000000000E+00  0.00000000000E+00  0.40036965017E+02  0.17865406373E+04  0.17860919601E+04 0.  0.
        2    1    3    3  502    0  0.87014790548E+03 -0.10158397583E+03 -0.15338723419E+03  0.88938423933E+03  0.25500000920E-02 0.  1.
       -2    1    3    3    0  502 -0.87014790548E+03  0.10158397583E+03  0.19342419920E+03  0.89715639796E+03  0.25500000920E-02 0. -1.
</event>
<event>
 5   0  0.7233728E-04  0.1714148E+04  0.7818609E-02  0.8753336E-01
        2   -1    0    0  501    0  0.00000000000E+00  0.00000000000E+00  0.15044830386E+04  0.15044830386E+04  0.25500000920E-02 0. -1.
       -2   -1    0    0    0  501  0.00000000000E+00  0.00000000000E+00 -0.48825813637E+03  0.48825813637E+03  0.25500000920E-02 0.  1.
    10030    2    1    2    0    0  0.00000000000E+00  0.00000000000E+00  0.10162249022E+04  0.19927411750E+04  0.17141482837E+04 0.  0.
        1    1    3    3  502    0 -0.29400889996E+03  0.31018507905E+03 -0.35554316022E+03  0.55593790600E+03  0.50400001928E-02 0.  1.
       -1    1    3    3    0  502  0.29400889996E+03 -0.31018507905E+03  0.13717680624E+04  0.14368032690E+04  0.50400001928E-02 0. -1.
</event>
<event>
 5   0  0.7242144E-04  0.1774263E+04  0.7818609E-02  0.8720107E-01
        2   -1    0    0  501    0  0.00000000000E+00  0.00000000000E+00  0.17214897335E+04  0.17214897335E+04  0.25500000920E-02 0. -1.
       -2   -1    0    0    0  501  0.00000000000E+00  0.00000000000E+00 -0.45716364843E+03  0.45716364844E+03  0.25500000920E-02 0.  1.
    10030    2    1    2    0    0  0.00000000000E+00  0.00000000000E+00  0.12643260851E+04  0.21786533819E+04  0.17742632581E+04 0.  0.
        3    1    3    3  502    0 -0.14794348791E+03 -0.42768509095E+03 -0.30476544668E+03  0.54560406920E+03  0.10100000352E+00 0.  1.
       -3    1    3    3    0  502  0.14794348791E+03  0.42768509095E+03  0.15690915317E+04  0.16330493127E+04  0.10100000352E+00 0. -1.
</event>
<event>
 5   0  0.7025426E-04  0.1685355E+04  0.7818609E-02  0.8769761E-01
       -2   -1    0    0    0  501  0.00000000000E+00  0.00000000000E+00  0.58158947984E+03  0.58158947984E+03  0.25500000920E-02 0. -1.
        2   -1    0    0  501    0  0.00000000000E+00  0.00000000000E+00 -0.12209731815E+04  0.12209731815E+04  0.25500000920E-02 0.  1.
    10030    2    1    2    0    0  0.00000000000E+00  0.00000000000E+00 -0.63938370169E+03  0.18025626614E+04  0.16853547491E+04 0.  0.
        2    1    3    3  502    0  0.23182520874E+03 -0.34703215687E+03  0.46329315507E+03  0.62355015263E+03  0.25500000920E-02 0. -1.
       -2    1    3    3    0  502 -0.23182520874E+03  0.34703215687E+03 -0.11026768568E+04  0.11790125087E+04  0.25500000920E-02 0.  1.
</event>
<event>
 5   0  0.3713516E-04  0.1659359E+04  0.7818609E-02  0.8784889E-01
       -1   -1    0    0    0  501  0.00000000000E+00  0.00000000000E+00  0.25101433490E+03  0.25101433495E+03  0.50400001928E-02 0.  1.
        1   -1    0    0  501    0  0.00000000000E+00  0.00000000000E+00 -0.27423450289E+04  0.27423450289E+04  0.50400001928E-02 0. -1.
    10030    2    1    2    0    0  0.00000000000E+00  0.00000000000E+00 -0.24913306940E+04  0.29933593638E+04  0.16593588082E+04 0.  0.
        5    1    3    3  502    0  0.14153974168E+03  0.80818150612E+03 -0.10235921154E+04  0.13118512698E+04  0.46999998093E+01 0. -1.
       -5    1    3    3    0  502 -0.14153974168E+03 -0.80818150612E+03 -0.14677385786E+04  0.16815080941E+04  0.46999998093E+01 0.  1.
</event>
<event>
 5   0  0.7049044E-04  0.1716886E+04  0.7818609E-02  0.8751792E-01
        2   -1    0    0  501    0  0.00000000000E+00  0.00000000000E+00  0.12559557323E+04  0.12559557323E+04  0.25500000920E-02 0. -1.
       -2   -1    0    0    0  501  0.00000000000E+00  0.00000000000E+00 -0.58674415029E+03  0.58674415030E+03  0.25500000920E-02 0.  1.
    10030    2    1    2    0    0  0.00000000000E+00  0.00000000000E+00  0.66921158202E+03  0.18426998826E+04  0.17168863433E+04 0.  0.
        4    1    3    3  502    0 -0.68714144730E+03 -0.23280737301E+03  0.82710034889E+03  0.11002087264E+04  0.12699999809E+01 0. -1.
       -4    1    3    3    0  502  0.68714144730E+03  0.23280737301E+03 -0.15788876687E+03  0.74249115626E+03  0.12699999809E+01 0.  1.
</event>
<event>
 5   0  0.3635143E-04  0.1733898E+04  0.7818609E-02  0.8742264E-01
       -1   -1    0    0    0  501  0.00000000000E+00  0.00000000000E+00  0.78432093282E+03  0.78432093283E+03  0.50400001928E-02 0.  1.
        1   -1    0    0  501    0  0.00000000000E+00  0.00000000000E+00 -0.95828157362E+03  0.95828157363E+03  0.50400001928E-02 0. -1.
    10030    2    1    2    0    0  0.00000000000E+00  0.00000000000E+00 -0.17396064080E+03  0.17426025065E+04  0.17338976876E+04 0.  0.
        3    1    3    3  502    0  0.14773629700E+00 -0.86683437181E+03 -0.10113782871E+03  0.87271456993E+03  0.10100000352E+00 0.  1.
       -3    1    3    3    0  502 -0.14773629700E+00  0.86683437181E+03 -0.72822812094E+02  0.86988793654E+03  0.10100000352E+00 0. -1.
</event>
<event>
 5   0  0.3723500E-04  0.1703292E+04  0.7818609E-02  0.8759489E-01
        1   -1    0    0  501    0  0.00000000000E+00  0.00000000000E+00  0.11475266913E+04  0.11475266913E+04  0.50400001928E-02 0. -1.
       -1   -1    0    0    0  501  0.00000000000E+00  0.00000000000E+00 -0.63205546209E+03  0.63205546211E+03  0.50400001928E-02 0.  1.
    10030    2    1    2    0    0  0.00000000000E+00  0.00000000000E+00  0.51547122921E+03  0.17795821534E+04  0.17032915348E+04 0.  0.
        1    1    3    3  502    0 -0.62503759092E+03  0.22037283520E+03  0.81654142441E+03  0.10516539708E+04  0.50400001928E-02 0. -1.
       -1    1    3    3    0  502  0.62503759092E+03 -0.22037283520E+03 -0.30107019519E+03  0.72792818259E+03  0.50400001928E-02 0.  1.
</event>
<event>
 5   0  0.7242144E-04  0.1699131E+04  0.7818609E-02  0.8761860E-01
        2   -1    0    0  501    0  0.00000000000E+00  0.00000000000E+00  0.13873570113E+04  0.13873570113E+04  0.25500000920E-02 0.  1.
       -2   -1    0    0    0  501  0.00000000000E+00  0.00000000000E+00 -0.52024216480E+03  0.52024216481E+03  0.25500000920E-02 0. -1.
    10030    2    1    2    0    0  0.00000000000E+00  0.00000000000E+00  0.86711484651E+03  0.19075991761E+04  0.16991310896E+04 0.  0.
        3    1    3    3  502    0 -0.15848837315E+03 -0.41297751786E+03 -0.38075552496E+03  0.58364696064E+03  0.10100000352E+00 0. -1.
       -3    1    3    3    0  502  0.15848837315E+03  0.41297751786E+03  0.12478703715E+04  0.13239522155E+04  0.10100000352E+00 0.  1.
</event>
<event>
 5   0  0.2639750E-04  0.1736407E+04  0.7818609E-02  0.8740868E-01
       -3   -1    0    0    0  501  0.00000000000E+00  0.00000000000E+00  0.12179779504E+04  0.12179779546E+04  0.10100000352E+00 0.  1.
        3   -1    0    0  501    0  0.00000000000E+00  0.00000000000E+00 -0.61887600089E+03  0.61887600913E+03  0.10100000352E+00 0. -1.
    10030    2    1    2    0    0  0.00000000000E+00  0.00000000000E+00  0.59910194955E+03  0.18368539638E+04  0.17364070197E+04 0.  0.
        4    1    3    3  502    0  0.87969249917E+02  0.33104455004E+03  0.11434764471E+04  0.11936788014E+04  0.12699999809E+01 0.  1.
       -4    1    3    3    0  502 -0.87969249917E+02 -0.33104455004E+03 -0.54437449751E+03  0.64317516236E+03  0.12699999809E+01 0. -1.
</event>
<event>
 5   0  0.3635143E-04  0.1713772E+04  0.7818609E-02  0.8753548E-01
       -1   -1    0    0    0  501  0.00000000000E+00  0.00000000000E+00  0.95896859174E+03  0.95896859176E+03  0.50400001928E-02 0. -1.
        1   -1    0    0  501    0  0.00000000000E+00  0.00000000000E+00 -0.76567040467E+03  0.76567040469E+03  0.50400001928E-02 0.  1.
    10030    2    1    2    0    0  0.00000000000E+00  0.00000000000E+00  0.19329818707E+03  0.17246389964E+04  0.17137722949E+04 0.  0.
        3    1    3    3  502    0 -0.44093925980E+03 -0.31171004164E+03 -0.57289908414E+03  0.78727628676E+03  0.10100000352E+00 0.  1.
       -3    1    3    3    0  502  0.44093925980E+03  0.31171004164E+03  0.76619727121E+03  0.93736270968E+03  0.10100000352E+00 0. -1.
</event>
<event>
 5   0  0.3803253E-04  0.1712877E+04  0.7818609E-02  0.8754054E-01
        1   -1    0    0  501    0  0.00000000000E+00  0.00000000000E+00  0.14924341715E+04  0.14924341715E+04  0.50400001928E-02 0.  1.
       -1   -1    0    0    0  501  0.00000000000E+00  0.00000000000E+00 -0.49147006188E+03  0.49147006191E+03  0.50400001928E-02 0. -1.
    10030    2    1    2    0    0  0.00000000000E+00  0.00000000000E+00  0.10009641096E+04  0.19839042334E+04  0.17128767786E+04 0.  0.
        4    1    3    3  502    0  0.39799175886E+03 -0.27584594602E+03 -0.31768767685E+03  0.57915067036E+03  0.12699999809E+01 0. -1.
       -4    1    3    3    0  502 -0.39799175886E+03  0.27584594602E+03  0.13186517865E+04  0.14047535630E+04  0.12699999809E+01 0.  1.
</event>
<event>
 5   0  0.3713516E-04  0.1698505E+04  0.7818609E-02  0.8762218E-01
        1   -1    0    0  501    0  0.00000000000E+00  0.00000000000E+00  0.21627657226E+04  0.21627657226E+04  0.50400001928E-02 0. -1.
       -1   -1    0    0    0  501  0.00000000000E+00  0.00000000000E+00 -0.33347560359E+03  0.33347560363E+03  0.50400001928E-02 0.  1.
    10030    2    1    2    0    0  0.00000000000E+00  0.00000000000E+00  0.18292901190E+04  0.24962413262E+04  0.16985047599E+04 0.  0.
        5    1    3    3  502    0  0.83479530572E+03 -0.46150636438E+02  0.11335934765E+04  0.14085699641E+04  0.46999998093E+01 0. -1.
       -5    1    3    3    0  502 -0.83479530572E+03  0.46150636438E+02  0.69569664250E+03  0.10876713622E+04  0.46999998093E+01 0.  1.
</event>
<event>
 5   0  0.3803253E-04  0.1697482E+04  0.7818609E-02  0.8762802E-01
        1   -1    0    0  501    0  0.00000000000E+00  0.00000000000E+00  0.25298039836E+03  0.25298039841E+03  0.50400001928E-02 0.  1.
       -1   -1    0    0    0  501  0.00000000000E+00  0.00000000000E+00 -0.28474995286E+04  0.28474995286E+04  0.50400001928E-02 0. -1.
    10030    2    1    2    0    0  0.00000000000E+00  0.00000000000E+00 -0.25945191302E+04  0.31004799270E+04  0.16974823300E+04 0.  0.
        4    1    3    3  502    0 -0.54030136220E+03 -0.61992086608E+03 -0.16809694401E+04  0.18713330312E+04  0.12699999809E+01 0.  1.
       -4    1    3    3    0  502  0.54030136220E+03  0.61992086608E+03 -0.91354969006E+03  0.12291468957E+04  0.12699999809E+01 0. -1.
</event>
<event>
 5   0  0.7242144E-04  0.1685024E+04  0.7818609E-02  0.8769952E-01
        2   -1    0    0  501    0  0.00000000000E+00  0.00000000000E+00  0.22902711929E+04  0.22902711929E+04  0.25500000920E-02 0. -1.
       -2   -1    0    0    0  501  0.00000000000E+00  0.00000000000E+00 -0.30993136201E+03  0.30993136202E+03  0.25500000920E-02 0.  1.
    10030    2    1    2    0    0  0.00000000000E+00  0.00000000000E+00  0.19803398309E+04  0.26002025549E+04  0.16850244748E+04 0.  0.
        3    1    3    3  502    0 -0.71885251063E+03 -0.43931574260E+03  0.10039380344E+04  0.13105872122E+04  0.10100000352E+00 0. -1.
       -3    1    3    3    0  502  0.71885251063E+03  0.43931574260E+03  0.97640179648E+03  0.12896153427E+04  0.10100000352E+00 0.  1.
</event>
<event>
 5   0  0.3723500E-04  0.1675881E+04  0.7818609E-02  0.8775241E-01
        1   -1    0    0  501    0  0.00000000000E+00  0.00000000000E+00  0.14879005726E+04  0.14879005726E+04  0.50400001928E-02 0.  1.
       -1   -1    0    0    0  501  0.00000000000E+00  0.00000000000E+00 -0.47190294564E+03  0.47190294567E+03  0.50400001928E-02 0. -1.
    10030    2    1    2    0    0  0.00000000000E+00  0.00000000000E+00  0.10159976269E+04  0.19598035182E+04  0.16758814553E+04 0.  0.
        1    1    3    3  502    0  0.19463304642E+02 -0.16451018176E+03 -0.45256299366E+03  0.48192912693E+03  0.50400001928E-02 0. -1.
       -1    1    3    3    0  502 -0.19463304642E+02  0.16451018176E+03  0.14685606206E+04  0.14778743913E+04  0.50400001928E-02 0.  1.
</event>
<event>
 5   0  0.7242144E-04  0.1766851E+04  0.7818609E-02  0.8724129E-01
        2   -1    0    0  501    0  0.00000000000E+00  0.00000000000E+00  0.94186142392E+03  0.94186142393E+03  0.25500000920E-02 0. -1.
       -2   -1    0    0    0  501  0.00000000000E+00  0.00000000000E+00 -0.82861537576E+03  0.82861537577E+03  0.25500000920E-02 0.  1.
    10030    2    1    2    0    0  0.00000000000E+00  0.00000000000E+00  0.11324604816E+03  0.17704767997E+04  0.17668512758E+04 0.  0.
        3    1    3    3  502    0 -0.78181694355E+03  0.56220812984E+02  0.46494209175E+03  0.91135595237E+03  0.10100000352E+00 0. -1.
       -3    1    3    3    0  502  0.78181694355E+03 -0.56220812984E+02 -0.35169604359E+03  0.85912084733E+03  0.10100000352E+00 0.  1.
</event>
<event>
 5   0  0.7049044E-04  0.1649917E+04  0.7818609E-02  0.8790456E-01
       -2   -1    0    0    0  501  0.00000000000E+00  0.00000000000E+00  0.58035664322E+03  0.58035664322E+03  0.25500000920E-02 0.  1.
        2   -1    0    0  501    0  0.00000000000E+00  0.00000000000E+00 -0.11726521175E+04  0.11726521175E+04  0.25500000920E-02 0. -1.
    10030    2    1    2    0    0  0.00000000000E+00  0.00000000000E+00 -0.59229547428E+03  0.17530087607E+04  0.16499169029E+04 0.  0.
        4    1    3    3  502    0  0.22967094561E+03 -0.36462349524E+03 -0.10435619392E+04  0.11290359474E+04  0.12699999809E+01 0. -1.
       -4    1    3    3    0  502 -0.22967094561E+03  0.36462349524E+03  0.45126646494E+03  0.62397281336E+03  0.12699999809E+01 0.  1.
</event>
<event>
 5   0  0.3803253E-04  0.1698766E+04  0.7818609E-02  0.8762068E-01
       -1   -1    0    0    0  501  0.00000000000E+00  0.00000000000E+00  0.15009881056E+04  0.15009881057E+04  0.50400001928E-02 0. -1.
        1   -1    0    0  501    0  0.00000000000E+00  0.00000000000E+00 -0.48065114043E+03  0.48065114046E+03  0.50400001928E-02 0.  1.
    10030    2    1    2    0    0  0.00000000000E+00  0.00000000000E+00  0.10203369652E+04  0.19816392461E+04  0.16987661932E+04 0.  0.
        4    1    3    3  502    0 -0.27097723571E+03  0.49905961102E+01 -0.42885683798E+03  0.50731978939E+03  0.12699999809E+01 0.  1.
       -4    1    3    3    0  502  0.27097723571E+03 -0.49905961102E+01  0.14491938032E+04  0.14743194567E+04  0.12699999809E+01 0. -1.
</event>
<event>
 5   0  0.3723500E-04  0.1197630E+04  0.7818609E-02  0.9114933E-01
       -1   -1    0    0    0  501  0.00000000000E+00  0.00000000000E+00  0.91090417632E+03  0.91090417633E+03  0.50400001928E-02 0.  1.
        1   -1    0    0  501    0  0.00000000000E+00  0.00000000000E+00 -0.39365236519E+03  0.39365236522E+03  0.50400001928E-02 0. -1.
    10030    2    1    2    0    0  0.00000000000E+00  0.00000000000E+00  0.51725181113E+03  0.13045565416E+04  0.11976302994E+04 0.  0.
        1    1    3    3  502    0 -0.48949078263E+03 -0.31766195561E+03  0.11220264789E+03  0.59422199432E+03  0.50400001928E-02 0. -1.
       -1    1    3    3    0  502  0.48949078263E+03  0.31766195561E+03  0.40504916324E+03  0.71033454723E+03  0.50400001928E-02 0.  1.
</event>
<event>
 5   0  0.7025426E-04  0.1696400E+04  0.7818609E-02  0.8763420E-01
        2   -1    0    0  501    0  0.00000000000E+00  0.00000000000E+00  0.12665431381E+04  0.12665431381E+04  0.25500000920E-02 0. -1.
       -2   -1    0    0    0  501  0.00000000000E+00  0.00000000000E+00 -0.56803702330E+03  0.56803702330E+03  0.25500000920E-02 0.  1.
    10030    2    1    2    0    0  0.00000000000E+00  0.00000000000E+00  0.69850611477E+03  0.18345801614E+04  0.16964001816E+04 0.  0.
        2    1    3    3  502    0  0.23299578048E+02 -0.16360334452E+03  0.12489652827E+04  0.12598504682E+04  0.25500000920E-02 0. -1.
       -2    1    3    3    0  502 -0.23299578048E+02  0.16360334452E+03 -0.55045916795E+03  0.57472969321E+03  0.25500000920E-02 0.  1.
</event>
<event>
 5   0  0.7242144E-04  0.1695861E+04  0.7818609E-02  0.8763728E-01
        2   -1    0    0  501    0  0.00000000000E+00  0.00000000000E+00  0.11919403648E+04  0.11919403648E+04  0.25500000920E-02 0. -1.
       -2   -1    0    0    0  501  0.00000000000E+00  0.00000000000E+00 -0.60320669223E+03  0.60320669224E+03  0.25500000920E-02 0.  1.
    10030    2    1    2    0    0  0.00000000000E+00  0.00000000000E+00  0.58873367257E+03  0.17951470570E+04  0.16958613207E+04 0.  0.
        3    1    3    3  502    0 -0.78740696836E+03 -0.80457603037E+02  0.61631663419E+03  0.10031596899E+04  0.10100000352E+00 0.  1.
       -3    1    3    3    0  502  0.78740696836E+03  0.80457603037E+02 -0.27582961616E+02  0.79198736712E+03  0.10100000352E+00 0. -1.
</event>
<event>
 5   0  0.3803253E-04  0.1697118E+04  0.7818609E-02  0.8763010E-01
        1   -1    0    0  501    0  0.00000000000E+00  0.00000000000E+00  0.13306805253E+04  0.13306805254E+04  0.50400001928E-02 0.  1.
       -1   -1    0    0    0  501  0.00000000000E+00  0.00000000000E+00 -0.54111558438E+03  0.54111558440E+03  0.50400001928E-02 0. -1.
    10030    2    1    2    0    0  0.00000000000E+00  0.00000000000E+00  0.78956494096E+03  0.18717961098E+04  0.16971175211E+04 0.  0.
        4    1    3    3  502    0  0.85409205132E+02  0.73907358398E+03  0.84486014288E+03  0.11257507578E+04  0.12699999809E+01 0.  1.
       -4    1    3    3    0  502 -0.85409205132E+02 -0.73907358398E+03 -0.55295201913E+02  0.74604535191E+03  0.12699999809E+01 0. -1.
</event>
<event>
 5   0  0.3915701E-04  0.1704398E+04  0.7818609E-02  0.8758860E-01
       -1   -1    0    0    0  501  0.00000000000E+00  0.00000000000E+00  0.20051278880E+04  0.20051278880E+04  0.50400001928E-02 0.  1.
        1   -1    0    0  501    0  0.00000000000E+00  0.00000000000E+00 -0.36219279057E+03  0.36219279060E+03  0.50400001928E-02 0. -1.
    10030    2    1    2    0    0  0.00000000000E+00  0.00000000000E+00  0.16429350974E+04  0.23673206786E+04  0.17043976827E+04 0.  0.
        2    1    3    3  502    0  0.94211498684E+02  0.67868414867E+03  0.15252614745E+04  0.16720976484E+04  0.25500000920E-02 0.  1.
       -2    1    3    3    0  502 -0.94211498684E+02 -0.67868414867E+03  0.11767362288E+03  0.69522303017E+03  0.25500000920E-02 0. -1.
</event>
<event>
 5   0  0.3723500E-04  0.1712673E+04  0.7818609E-02  0.8754169E-01
       -1   -1    0    0    0  501  0.00000000000E+00  0.00000000000E+00  0.11170179465E+04  0.11170179465E+04  0.50400001928E-02 0. -1.
        1   -1    0    0  501    0  0.00000000000E+00  0.00000000000E+00 -0.65649125562E+03  0.65649125564E+03  0.50400001928E-02 0.  1.
    10030    2    1    2    0    0  0.00000000000E+00  0.00000000000E+00  0.46052669090E+03  0.17735092022E+04  0.17126733656E+04 0.  0.
        1    1    3    3  502    0  0.20889421634E+03 -0.31587173907E+03  0.10255952090E+04  0.10932782272E+04  0.50400001928E-02 0. -1.
       -1    1    3    3    0  502 -0.20889421634E+03  0.31587173907E+03 -0.56506851813E+03  0.68023097502E+03  0.50400001928E-02 0.  1.
</event>
<event>
 5   0  0.7025426E-04  0.1688572E+04  0.7818609E-02  0.8767909E-01
        2   -1    0    0  501    0  0.00000000000E+00  0.00000000000E+00  0.73501795030E+03  0.73501795030E+03  0.25500000920E-02 0. -1.
       -2   -1    0    0    0  501  0.00000000000E+00  0.00000000000E+00 -0.96979763614E+03  0.96979763615E+03  0.25500000920E-02 0.  1.
    10030    2    1    2    0    0  0.00000000000E+00  0.00000000000E+00 -0.23477968584E+03  0.17048155864E+04  0.16885717879E+04 0.  0.
        2    1    3    3  502    0  0.19595438799E+03  0.53079577775E+03  0.51527729040E+03  0.76527966512E+03  0.25500000920E-02 0. -1.
       -2    1    3    3    0  502 -0.19595438799E+03 -0.53079577775E+03 -0.75005697624E+03  0.93953592132E+03  0.25500000920E-02 0.  1.
</event>
<event>
 5   0  0.3713516E-04  0.1748343E+04  0.7818609E-02  0.8734263E-01
       -1   -1    0    0    0  501  0.00000000000E+00  0.00000000000E+00  0.14407514101E+04  0.14407514101E+04  0.50400001928E-02 0. -1.
        1   -1    0    0  501    0  0.00000000000E+00  0.00000000000E+00 -0.53040091401E+03  0.53040091404E+03  0.50400001928E-02 0.  1.
    10030    2    1    2    0    0  0.00000000000E+00  0.00000000000E+00  0.91035049605E+03  0.19711523241E+04  0.17483430611E+04 0.  0.
        5    1    3    3  502    0  0.14002554016E+03  0.85083491310E+03  0.29325279406E+03  0.91079442932E+03  0.46999998093E+01 0. -1.
       -5    1    3    3    0  502 -0.14002554016E+03 -0.85083491310E+03  0.61709770199E+03  0.10603578948E+04  0.46999998093E+01 0.  1.
</event>
<event>
 5   0  0.3635143E-04  0.1697164E+04  0.7818609E-02  0.8762984E-01
        1   -1    0    0  501    0  0.00000000000E+00  0.00000000000E+00  0.17080279324E+04  0.17080279324E+04  0.50400001928E-02 0. -1.
       -1   -1    0    0    0  501  0.00000000000E+00  0.00000000000E+00 -0.42159213645E+03  0.42159213648E+03  0.50400001928E-02 0.  1.
    10030    2    1    2    0    0  0.00000000000E+00  0.00000000000E+00  0.12864357960E+04  0.21296200689E+04  0.16971636871E+04 0.  0.
        3    1    3    3  502    0  0.65402661987E+03  0.48436251803E+03  0.34171501763E+03  0.88268172737E+03  0.10100000352E+00 0.  1.
       -3    1    3    3    0  502 -0.65402661987E+03 -0.48436251803E+03  0.94472077832E+03  0.12469383415E+04  0.10100000352E+00 0. -1.
</event>
<event>
 5   0  0.7242144E-04  0.1711352E+04  0.7818609E-02  0.8754917E-01
        2   -1    0    0  501    0  0.00000000000E+00  0.00000000000E+00  0.80364692574E+03  0.80364692575E+03  0.25500000920E-02 0.  1.
       -2   -1    0    0    0  501  0.00000000000E+00  0.00000000000E+00 -0.91107302100E+03  0.91107302100E+03  0.25500000920E-02 0. -1.
    10030    2    1    2    0    0  0.00000000000E+00  0.00000000000E+00 -0.10742609526E+03  0.17147199467E+04  0.17113515506E+04 0.  0.
        3    1    3    3  502    0 -0.46934274075E+03  0.35895121664E+03 -0.67384353443E+03  0.89621074715E+03  0.10100000352E+00 0. -1.
       -3    1    3    3    0  502  0.46934274075E+03 -0.35895121664E+03  0.56641743917E+03  0.81850919959E+03  0.10100000352E+00 0.  1.
</event>
<event>
 5   0  0.7242144E-04  0.1701189E+04  0.7818609E-02  0.8760687E-01
       -2   -1    0    0    0  501  0.00000000000E+00  0.00000000000E+00  0.29717966127E+03  0.29717966128E+03  0.25500000920E-02 0.  1.
        2   -1    0    0  501    0  0.00000000000E+00  0.00000000000E+00 -0.24345905158E+04  0.24345905158E+04  0.25500000920E-02 0. -1.
    10030    2    1    2    0    0  0.00000000000E+00  0.00000000000E+00 -0.21374108545E+04  0.27317701771E+04  0.17011887430E+04 0.  0.
        3    1    3    3  502    0  0.18737157382E+03  0.31983972367E+02 -0.24000485778E+04  0.24075639695E+04  0.10100000352E+00 0. -1.
       -3    1    3    3    0  502 -0.18737157382E+03 -0.31983972367E+02  0.26263772326E+03  0.32420620760E+03  0.10100000352E+00 0.  1.
</event>
<event>
 5   0  0.3723500E-04  0.1296938E+04  0.7818609E-02  0.9031997E-01
        1   -1    0    0  501    0  0.00000000000E+00  0.00000000000E+00  0.89341759795E+03  0.89341759797E+03  0.50400001928E-02 0.  1.
       -1   -1    0    0    0  501  0.00000000000E+00  0.00000000000E+00 -0.47067803170E+03  0.47067803173E+03  0.50400001928E-02 0. -1.
    10030    2    1    2    0    0  0.00000000000E+00  0.00000000000E+00  0.42273956625E+03  0.13640956297E+04  0.12969379885E+04 0.  0.
        1    1    3    3  502    0 -0.19548114432E+03 -0.20943669445E+03 -0.40050635509E+03  0.49242455997E+03  0.50400001928E-02 0. -1.
       -1    1    3    3    0  502  0.19548114432E+03  0.20943669445E+03  0.82324592134E+03  0.87167106973E+03  0.50400001928E-02 0.  1.
</event>
<event>
 5   0  0.7233728E-04  0.1678616E+04  0.7818609E-02  0.8773655E-01
       -2   -1    0    0    0  501  0.00000000000E+00  0.00000000000E+00  0.36225090828E+03  0.36225090829E+03  0.25500000920E-02 0. -1.
        2   -1    0    0  501    0  0.00000000000E+00  0.00000000000E+00 -0.19446126991E+04  0.19446126991E+04  0.25500000920E-02 0.  1.
    10030    2    1    2    0    0  0.00000000000E+00  0.00000000000E+00 -0.15823617909E+04  0.23068636074E+04  0.16786157589E+04 0.  0.
        1    1    3    3  502    0 -0.70026716009E+03  0.17036523280E+02 -0.14265812189E+04  0.15892760342E+04  0.50400001928E-02 0.  1.
       -1    1    3    3    0  502  0.70026716009E+03 -0.17036523280E+02 -0.15578057192E+03  0.71758757322E+03  0.50400001928E-02 0. -1.
</event>
<event>
 5   0  0.3915701E-04  0.1677675E+04  0.7818609E-02  0.8774201E-01
        1   -1    0    0  501    0  0.00000000000E+00  0.00000000000E+00  0.13935781781E+04  0.13935781781E+04  0.50400001928E-02 0. -1.
       -1   -1    0    0    0  501  0.00000000000E+00  0.00000000000E+00 -0.50492189161E+03  0.50492189164E+03  0.50400001928E-02 0.  1.
    10030    2    1    2    0    0  0.00000000000E+00  0.00000000000E+00  0.88865628648E+03  0.18985000697E+04  0.16776747359E+04 0.  0.
        2    1    3    3  502    0 -0.79594614372E+03  0.25810289095E+03  0.37737295157E+03  0.91790942396E+03  0.25500000920E-02 0. -1.
       -2    1    3    3    0  502  0.79594614372E+03 -0.25810289095E+03  0.51128333492E+03  0.98059064578E+03  0.25500000920E-02 0.  1.
</event>
<event>
 5   0  0.3723500E-04  0.1751103E+04  0.7818609E-02  0.8732743E-01
       -1   -1    0    0    0  501  0.00000000000E+00  0.00000000000E+00  0.39164063072E+03  0.39164063075E+03  0.50400001928E-02 0.  1.
        1   -1    0    0  501    0  0.00000000000E+00  0.00000000000E+00 -0.19573820025E+04  0.19573820026E+04  0.50400001928E-02 0. -1.
    10030    2    1    2    0    0  0.00000000000E+00  0.00000000000E+00 -0.15657413718E+04  0.23490226333E+04  0.17511028777E+04 0.  0.
        1    1    3    3  502    0 -0.11422015206E+03  0.63353960156E+03 -0.15789433973E+04  0.17051336962E+04  0.50400001928E-02 0. -1.
       -1    1    3    3    0  502  0.11422015206E+03 -0.63353960156E+03  0.13202025471E+02  0.64388893715E+03  0.50400001928E-02 0.  1.
</event>
<event>
 5   0  0.6746664E-04  0.1716697E+04  0.7818609E-02  0.8751898E-01
        2   -1    0    0  501    0  0.00000000000E+00  0.00000000000E+00  0.14142966531E+04  0.14142966531E+04  0.25500000920E-02 0. -1.
       -2   -1    0    0    0  501  0.00000000000E+00  0.00000000000E+00 -0.52093873383E+03  0.52093873383E+03  0.25500000920E-02 0.  1.
    10030    2    1    2    0    0  0.00000000000E+00  0.00000000000E+00  0.89335791926E+03  0.19352353869E+04  0.17166967207E+04 0.  0.
        5    1    3    3  502    0 -0.54007869199E+03 -0.26250859748E+03 -0.24470185411E+03  0.64845728054E+03  0.46999998093E+01 0.  1.
       -5    1    3    3    0  502  0.54007869199E+03  0.26250859748E+03  0.11380597734E+04  0.12867781064E+04  0.46999998093E+01 0. -1.
</event>
<event>
 5   0  0.7233728E-04  0.1775359E+04  0.7818609E-02  0.8719514E-01
       -2   -1    0    0    0  501  0.00000000000E+00  0.00000000000E+00  0.12459020986E+04  0.12459020986E+04  0.25500000920E-02 0.  1.
        2   -1    0    0  501    0  0.00000000000E+00  0.00000000000E+00 -0.63245355457E+03  0.63245355458E+03  0.25500000920E-02 0. -1.
    10030    2    1    2    0    0  0.00000000000E+00  0.00000000000E+00  0.61344854403E+03  0.18783556532E+04  0.17753593562E+04 0.  0.
        1    1    3    3  502    0 -0.14033561904E+03  0.42524950171E+03  0.11176382455E+04  0.12040126546E+04  0.50400001928E-02 0.  1.
       -1    1    3    3    0  502  0.14033561904E+03 -0.42524950171E+03 -0.50418970144E+03  0.67434299858E+03  0.50400001928E-02 0. -1.
</event>
<event>
 5   0  0.3915701E-04  0.1706190E+04  0.7818609E-02  0.8757842E-01
       -1   -1    0    0    0  501  0.00000000000E+00  0.00000000000E+00  0.44400160089E+03  0.44400160092E+03  0.50400001928E-02 0. -1.
        1   -1    0    0  501    0  0.00000000000E+00  0.00000000000E+00 -0.16391177215E+04  0.16391177215E+04  0.50400001928E-02 0.  1.
    10030    2    1    2    0    0  0.00000000000E+00  0.00000000000E+00 -0.11951161206E+04  0.20831193224E+04  0.17061897813E+04 0.  0.
        2    1    3    3  502    0  0.50429232717E+03  0.68120061316E+03 -0.47902283302E+03  0.97355426206E+03  0.25500000920E-02 0.  1.
       -2    1    3    3    0  502 -0.50429232717E+03 -0.68120061316E+03 -0.71609328756E+03  0.11095650603E+04  0.25500000920E-02 0. -1.
</event>
<event>
 5   0  0.3915701E-04  0.1687184E+04  0.7818609E-02  0.8768708E-01
       -1   -1    0    0    0  501  0.00000000000E+00  0.00000000000E+00  0.32459979102E+03  0.32459979106E+03  0.50400001928E-02 0.  1.
        1   -1    0    0  501    0  0.00000000000E+00  0.00000000000E+00 -0.21923839275E+04  0.21923839275E+04  0.50400001928E-02 0. -1.
    10030    2    1    2    0    0  0.00000000000E+00  0.00000000000E+00 -0.18677841365E+04  0.25169837186E+04  0.16871838842E+04 0.  0.
        2    1    3    3  502    0  0.12723986486E+03 -0.83221903830E+03 -0.85398739134E+03  0.11991968043E+04  0.25500000920E-02 0.  1.
       -2    1    3    3    0  502 -0.12723986486E+03  0.83221903830E+03 -0.10137967451E+04  0.13177869143E+04  0.25500000920E-02 0. -1.
</event>
<event>
 5   0  0.7025426E-04  0.1414349E+04  0.7818609E-02  0.8943497E-01
       -2   -1    0    0    0  501  0.00000000000E+00  0.00000000000E+00  0.64821137086E+03  0.64821137087E+03  0.25500000920E-02 0. -1.
        2   -1    0    0  501    0  0.00000000000E+00  0.00000000000E+00 -0.77150065606E+03  0.77150065607E+03  0.25500000920E-02 0.  1.
    10030    2    1    2    0    0  0.00000000000E+00  0.00000000000E+00 -0.12328928520E+03  0.14197120269E+04  0.14143486103E+04 0.  0.
        2    1    3    3  502    0  0.83161503745E+02  0.29555992359E+03  0.57781428291E+03  0.65432472801E+03  0.25500000920E-02 0. -1.
       -2    1    3    3    0  502 -0.83161503745E+02 -0.29555992359E+03 -0.70110356811E+03  0.76538729893E+03  0.25500000920E-02 0.  1.
</event>
<event>
 5   0  0.3635143E-04  0.1672138E+04  0.7818609E-02  0.8777416E-01
       -1   -1    0    0    0  501  0.00000000000E+00  0.00000000000E+00  0.54551281683E+03  0.54551281685E+03  0.50400001928E-02 0. -1.
        1   -1    0    0  501    0  0.00000000000E+00  0.00000000000E+00 -0.12813842491E+04  0.12813842491E+04  0.50400001928E-02 0.  1.
    10030    2    1    2    0    0  0.00000000000E+00  0.00000000000E+00 -0.73587143228E+03  0.18268970660E+04  0.16721381895E+04 0.  0.
        3    1    3    3  502    0 -0.18220314804E+03 -0.34744995127E+03 -0.11745703084E+04  0.12383597520E+04  0.10100000352E+00 0.  1.
       -3    1    3    3    0  502  0.18220314804E+03  0.34744995127E+03  0.43869887614E+03  0.58853731396E+03  0.10100000352E+00 0. -1.
</event>
<event>
 5   0  0.6746664E-04  0.1707217E+04  0.7818609E-02  0.8757259E-01
       -2   -1    0    0    0  501  0.00000000000E+00  0.00000000000E+00  0.79266127845E+03  0.79266127845E+03  0.25500000920E-02 0. -1.
        2   -1    0    0  501    0  0.00000000000E+00  0.00000000000E+00 -0.91924148415E+03  0.91924148415E+03  0.25500000920E-02 0.  1.
    10030    2    1    2    0    0  0.00000000000E+00  0.00000000000E+00 -0.12658020570E+03  0.17119027626E+04  0.17072166002E+04 0.  0.
        5    1    3    3  502    0 -0.10565995785E+03  0.76904322522E+03 -0.41927659563E+03  0.88227346248E+03  0.46999998093E+01 0.  1.
       -5    1    3    3    0  502  0.10565995785E+03 -0.76904322522E+03  0.29269638993E+03  0.82962930013E+03  0.46999998093E+01 0. -1.
</event>
<event>
 5   0  0.3635143E-04  0.1651850E+04  0.7818609E-02  0.8789313E-01
        1   -1    0    0  501    0  0.00000000000E+00  0.00000000000E+00  0.67346321627E+03  0.67346321629E+03  0.50400001928E-02 0. -1.
       -1   -1    0    0    0  501  0.00000000000E+00  0.00000000000E+00 -0.10129018114E+04  0.10129018114E+04  0.50400001928E-02 0.  1.
    10030    2    1    2    0    0  0.00000000000E+00  0.00000000000E+00 -0.33943859510E+03  0.16863650277E+04  0.16518500073E+04 0.  0.
        3    1    3    3  502    0  0.13266497487E+03 -0.25673065735E+03  0.62016663405E+03  0.68419097492E+03  0.10100000352E+00 0. -1.
       -3    1    3    3    0  502 -0.13266497487E+03  0.25673065735E+03 -0.95960522915E+03  0.10021740527E+04  0.10100000352E+00 0.  1.
</event>
<event>
 5   0  0.7025426E-04  0.1695268E+04  0.7818609E-02  0.8764068E-01
        2   -1    0    0  501    0  0.00000000000E+00  0.00000000000E+00  0.17730690794E+04  0.17730690794E+04  0.25500000920E-02 0.  1.
       -2   -1    0    0    0  501  0.00000000000E+00  0.00000000000E+00 -0.40522028495E+03  0.40522028496E+03  0.25500000920E-02 0. -1.
    10030    2    1    2    0    0  0.00000000000E+00  0.00000000000E+00  0.13678487944E+04  0.21782893643E+04  0.16952681883E+04 0.  0.
        2    1    3    3  502    0 -0.56556014230E+03  0.47019119677E+03  0.12253415609E+04  0.14291255987E+04  0.25500000920E-02 0.  1.
       -2    1    3    3    0  502  0.56556014230E+03 -0.47019119677E+03  0.14250723353E+03  0.74916376560E+03  0.25500000920E-02 0. -1.
</event>
<event>
 5   0  0.7025426E-04  0.1683604E+04  0.7818609E-02  0.8770771E-01
       -2   -1    0    0    0  501  0.00000000000E+00  0.00000000000E+00  0.54363673074E+03  0.54363673074E+03  0.25500000920E-02 0. -1.
        2   -1    0    0  501    0  0.00000000000E+00  0.00000000000E+00 -0.13034999964E+04  0.13034999964E+04  0.25500000920E-02 0.  1.
    10030    2    1    2    0    0  0.00000000000E+00  0.00000000000E+00 -0.75986326568E+03  0.18471367272E+04  0.16836038448E+04 0.  0.
        2    1    3    3  502    0 -0.10356021379E+03  0.45604425675E+03  0.38800588049E+03  0.60765915224E+03  0.25500000920E-02 0. -1.
       -2    1    3    3    0  502  0.10356021379E+03 -0.45604425675E+03 -0.11478691462E+04  0.12394775749E+04  0.25500000920E-02 0.  1.
</event>
<event>
 5   0  0.3723500E-04  0.1720672E+04  0.7818609E-02  0.8749662E-01
        1   -1    0    0  501    0  0.00000000000E+00  0.00000000000E+00  0.23251383310E+04  0.23251383310E+04  0.50400001928E-02 0.  1.
       -1   -1    0    0    0  501  0.00000000000E+00  0.00000000000E+00 -0.31833703673E+03  0.31833703677E+03  0.50400001928E-02 0. -1.
    10030    2    1    2    0    0  0.00000000000E+00  0.00000000000E+00  0.20068012942E+04  0.26434753678E+04  0.17206715507E+04 0.  0.
        1    1    3    3  502    0 -0.30090522515E+03 -0.75445487751E+03  0.56769774400E+03  0.99097267636E+03  0.50400001928E-02 0. -1.
       -1    1    3    3    0  502  0.30090522515E+03  0.75445487751E+03  0.14391035502E+04  0.16525026914E+04  0.50400001928E-02 0.  1.
</event>
<event>
 5   0  0.7242144E-04  0.1645679E+04  0.7818609E-02  0.8792967E-01
        2   -1    0    0  501    0  0.00000000000E+00  0.00000000000E+00  0.10866253716E+04  0.10866253716E+04  0.25500000920E-02 0.  1.
       -2   -1    0    0    0  501  0.00000000000E+00  0.00000000000E+00 -0.62308927012E+03  0.62308927012E+03  0.25500000920E-02 0. -1.
    10030    2    1    2    0    0  0.00000000000E+00  0.00000000000E+00  0.46353610153E+03  0.17097146418E+04  0.16456787168E+04 0.  0.
        3    1    3    3  502    0 -0.61625545966E+03  0.49703542648E+03 -0.11187375786E+01  0.79171729077E+03  0.10100000352E+00 0. -1.
       -3    1    3    3    0  502  0.61625545966E+03 -0.49703542648E+03  0.46465483911E+03  0.91799735100E+03  0.10100000352E+00 0.  1.
</event>
<event>
 5   0  0.7025426E-04  0.1673013E+04  0.7818609E-02  0.8776907E-01
        2   -1    0    0  501    0  0.00000000000E+00  0.00000000000E+00  0.98563950733E+03  0.98563950733E+03  0.25500000920E-02 0. -1.
       -2   -1    0    0    0  501  0.00000000000E+00  0.00000000000E+00 -0.70993845349E+03  0.70993845349E+03  0.25500000920E-02 0.  1.
    10030    2    1    2    0    0  0.00000000000E+00  0.00000000000E+00  0.27570105384E+03  0.16955779608E+04  0.16730133144E+04 0.  0.
        2    1    3    3  502    0 -0.26278903567E+03  0.40237714584E+02  0.94168486400E+03  0.97849248032E+03  0.25500000920E-02 0. -1.
       -2    1    3    3    0  502  0.26278903567E+03 -0.40237714584E+02 -0.66598381016E+03  0.71708548050E+03  0.25500000920E-02 0.  1.
</event>
<event>
 5   0  0.3635143E-04  0.1732218E+04  0.7818609E-02  0.8743200E-01
       -1   -1    0    0    0  501  0.00000000000E+00  0.00000000000E+00  0.61051781825E+03  0.61051781827E+03  0.50400001928E-02 0. -1.
        1   -1    0    0  501    0  0.00000000000E+00  0.00000000000E+00 -0.12287023976E+04  0.12287023976E+04  0.50400001928E-02 0.  1.
    10030    2    1    2    0    0  0.00000000000E+00  0.00000000000E+00 -0.61818457935E+03  0.18392202159E+04  0.17322178929E+04 0.  0.
        3    1    3    3  502    0 -0.52986542543E+03 -0.35237619272E+03 -0.93293936825E+03  0.11292927987E+04  0.10100000352E+00 0.  1.
       -3    1    3    3    0  502  0.52986542543E+03  0.35237619272E+03  0.31475478890E+03  0.70992741713E+03  0.10100000352E+00 0. -1.
</event>
<event>
 5   0  0.3635143E-04  0.1683521E+04  0.7818609E-02  0.8770819E-01
        1   -1    0    0  501    0  0.00000000000E+00  0.00000000000E+00  0.95945955862E+03  0.95945955863E+03  0.50400001928E-02 0. -1.
       -1   -1    0    0    0  501  0.00000000000E+00  0.00000000000E+00 -0.73849944014E+03  0.73849944016E+03  0.50400001928E-02 0.  1.
    10030    2    1    2    0    0  0.00000000000E+00  0.00000000000E+00  0.22096011847E+03  0.16979589988E+04  0.16835205338E+04 0.  0.
        3    1    3    3  502    0  0.37066606291E+03  0.68338615223E+02  0.86959497874E+03  0.94776523136E+03  0.10100000352E+00 0. -1.
       -3    1    3    3    0  502 -0.37066606291E+03 -0.68338615223E+02 -0.64863486027E+03  0.75019376743E+03  0.10100000352E+00 0.  1.
</event>
<event>
 5   0  0.3803253E-04  0.1695105E+04  0.7818609E-02  0.8764161E-01
       -1   -1    0    0    0  501  0.00000000000E+00  0.00000000000E+00  0.50533997357E+03  0.50533997360E+03  0.50400001928E-02 0.  1.
        1   -1    0    0  501    0  0.00000000000E+00  0.00000000000E+00 -0.14215084841E+04  0.14215084842E+04  0.50400001928E-02 0. -1.
    10030    2    1    2    0    0  0.00000000000E+00  0.00000000000E+00 -0.91616851057E+03  0.19268484577E+04  0.16951047871E+04 0.  0.
        4    1    3    3  502    0  0.22231797247E+03 -0.64704295338E+03  0.11056066123E+03  0.69304771633E+03  0.12699999809E+01 0.  1.
       -4    1    3    3    0  502 -0.22231797247E+03  0.64704295338E+03 -0.10267291718E+04  0.12338007414E+04  0.12699999809E+01 0. -1.
</event>
<event>
 5   0  0.7242144E-04  0.1675228E+04  0.7818609E-02  0.8775620E-01
        2   -1    0    0  501    0  0.00000000000E+00  0.00000000000E+00  0.88882080019E+03  0.88882080020E+03  0.25500000920E-02 0. -1.
       -2   -1    0    0    0  501  0.00000000000E+00  0.00000000000E+00 -0.78935695694E+03  0.78935695695E+03  0.25500000920E-02 0.  1.
    10030    2    1    2    0    0  0.00000000000E+00  0.00000000000E+00  0.99463843253E+02  0.16781777571E+04  0.16752276050E+04 0.  0.
        3    1    3    3  502    0  0.72375110521E+03  0.37667302079E+03  0.23953496341E+03  0.85033830666E+03  0.10100000352E+00 0.  1.
       -3    1    3    3    0  502 -0.72375110521E+03 -0.37667302079E+03 -0.14007112016E+03  0.82783945048E+03  0.10100000352E+00 0. -1.
</event>
<event>
 5   0  0.7025426E-04  0.1707061E+04  0.7818609E-02  0.8757348E-01
        2   -1    0    0  501    0  0.00000000000E+00  0.00000000000E+00  0.86551913331E+03  0.86551913332E+03  0.25500000920E-02 0.  1.
       -2   -1    0    0    0  501  0.00000000000E+00  0.00000000000E+00 -0.84170770927E+03  0.84170770928E+03  0.25500000920E-02 0. -1.
    10030    2    1    2    0    0  0.00000000000E+00  0.00000000000E+00  0.23811424038E+02  0.17072268426E+04  0.17070607805E+04 0.  0.
        2    1    3    3  502    0 -0.16270501731E+03 -0.30373441876E+03  0.79287002143E+03  0.86450586503E+03  0.25500000920E-02 0.  1.
       -2    1    3    3    0  502  0.16270501731E+03  0.30373441876E+03 -0.76905859739E+03  0.84272097756E+03  0.25500000920E-02 0. -1.
</event>
<event>
 5   0  0.7049044E-04  0.1685118E+04  0.7818609E-02  0.8769898E-01
       -2   -1    0    0    0  501  0.00000000000E+00  0.00000000000E+00  0.60926027570E+03  0.60926027571E+03  0.25500000920E-02 0.  1.
        2   -1    0    0  501    0  0.00000000000E+00  0.00000000000E+00 -0.11651924714E+04  0.11651924714E+04  0.25500000920E-02 0. -1.
    10030    2    1    2    0    0  0.00000000000E+00  0.00000000000E+00 -0.55593219572E+03  0.17744527471E+04  0.16851177839E+04 0.  0.
        4    1    3    3  502    0 -0.67132381615E+02 -0.78132543200E+03  0.46471086995E+02  0.78558090747E+03  0.12699999809E+01 0.  1.
       -4    1    3    3    0  502  0.67132381615E+02  0.78132543200E+03 -0.60240328271E+03  0.98887183966E+03  0.12699999809E+01 0. -1.
</event>
<event>
 5   0  0.3915701E-04  0.1736911E+04  0.7818609E-02  0.8740588E-01
       -1   -1    0    0    0  501  0.00000000000E+00  0.00000000000E+00  0.47042121901E+03  0.47042121904E+03  0.50400001928E-02 0. -1.
        1   -1    0    0  501    0  0.00000000000E+00  0.00000000000E+00 -0.16032752461E+04  0.16032752461E+04  0.50400001928E-02 0.  1.
    10030    2    1    2    0    0  0.00000000000E+00  0.00000000000E+00 -0.11328540270E+04  0.20736964651E+04  0.17369107009E+04 0.  0.
        2    1    3    3  502    0  0.86542791713E+02 -0.81363894913E+03 -0.21892908895E+03  0.84701118076E+03  0.25500000920E-02 0. -1.
       -2    1    3    3    0  502 -0.86542791713E+02  0.81363894913E+03 -0.91392493810E+03  0.12266852843E+04  0.25500000920E-02 0.  1.
</event>
<event>
 5   0  0.2639750E-04  0.1681837E+04  0.7818609E-02  0.8771792E-01
       -3   -1    0    0    0  501  0.00000000000E+00  0.00000000000E+00  0.60825380682E+03  0.60825381520E+03  0.10100000352E+00 0.  1.
        3   -1    0    0  501    0  0.00000000000E+00  0.00000000000E+00 -0.11625805900E+04  0.11625805944E+04  0.10100000352E+00 0. -1.
    10030    2    1    2    0    0  0.00000000000E+00  0.00000000000E+00 -0.55432678320E+03  0.17708344096E+04  0.16818371870E+04 0.  0.
        1    1    3    3  502    0 -0.11552431436E+02  0.76531715470E+03 -0.64387519933E+03  0.10002095172E+04  0.50400001928E-02 0. -1.
       -1    1    3    3    0  502  0.11552431436E+02 -0.76531715470E+03  0.89548416133E+02  0.77062489241E+03  0.50400001928E-02 0.  1.
</event>
<event>
 5   0  0.7233728E-04  0.1706957E+04  0.7818609E-02  0.8757407E-01
       -2   -1    0    0    0  501  0.00000000000E+00  0.00000000000E+00  0.33372105306E+04  0.33372105306E+04  0.25500000920E-02 0. -1.
        2   -1    0    0  501    0  0.00000000000E+00  0.00000000000E+00 -0.21827372959E+03  0.21827372961E+03  0.25500000920E-02 0.  1.
    10030    2    1    2    0    0  0.00000000000E+00  0.00000000000E+00  0.31189368010E+04  0.35554842602E+04  0.17069568114E+04 0.  0.
        1    1    3    3  502    0 -0.26048975108E+02  0.85272890405E+03  0.16105006254E+04  0.18225085452E+04  0.50400001928E-02 0. -1.
       -1    1    3    3    0  502  0.26048975108E+02 -0.85272890405E+03  0.15084361756E+04  0.17329757150E+04  0.50400001928E-02 0.  1.
</event>
<event>
 5   0  0.7025426E-04  0.1694792E+04  0.7818609E-02  0.8764340E-01
       -2   -1    0    0    0  501  0.00000000000E+00  0.00000000000E+00  0.18564054308E+04  0.18564054308E+04  0.25500000920E-02 0.  1.
        2   -1    0    0  501    0  0.00000000000E+00  0.00000000000E+00 -0.38681199963E+03  0.38681199964E+03  0.25500000920E-02 0. -1.
    10030    2    1    2    0    0  0.00000000000E+00  0.00000000000E+00  0.14695934312E+04  0.22432174305E+04  0.16947919009E+04 0.  0.
        2    1    3    3  502    0  0.23300030958E+03  0.68342088227E+03  0.14773117434E+03  0.73700593380E+03  0.25500000920E-02 0. -1.
       -2    1    3    3    0  502 -0.23300030958E+03 -0.68342088227E+03  0.13218622568E+04  0.15062114967E+04  0.25500000920E-02 0.  1.
</event>
<event>
 5   0  0.3723500E-04  0.1694831E+04  0.7818609E-02  0.8764318E-01
        1   -1    0    0  501    0  0.00000000000E+00  0.00000000000E+00  0.72544723862E+03  0.72544723864E+03  0.50400001928E-02 0. -1.
       -1   -1    0    0    0  501  0.00000000000E+00  0.00000000000E+00 -0.98988970546E+03  0.98988970548E+03  0.50400001928E-02 0.  1.
    10030    2    1    2    0    0  0.00000000000E+00  0.00000000000E+00 -0.26444246684E+03  0.17153369441E+04  0.16948306740E+04 0.  0.
        1    1    3    3  502    0  0.20855869047E+03 -0.28959578214E+03 -0.91012362119E+03  0.97759268117E+03  0.50400001928E-02 0.  1.
       -1    1    3    3    0  502 -0.20855869047E+03  0.28959578214E+03  0.64568115435E+03  0.73774426295E+03  0.50400001928E-02 0. -1.
</event>
<event>
 5   0  0.3635143E-04  0.1738311E+04  0.7818609E-02  0.8739811E-01
        1   -1    0    0  501    0  0.00000000000E+00  0.00000000000E+00  0.86538420921E+03  0.86538420922E+03  0.50400001928E-02 0. -1.
       -1   -1    0    0    0  501  0.00000000000E+00  0.00000000000E+00 -0.87294358786E+03  0.87294358787E+03  0.50400001928E-02 0.  1.
    10030    2    1    2    0    0  0.00000000000E+00  0.00000000000E+00 -0.75593786472E+01  0.17383277971E+04  0.17383113605E+04 0.  0.
        3    1    3    3  502    0  0.33028660109E+03 -0.24694803423E+03 -0.76887451064E+03  0.87249102791E+03  0.10100000352E+00 0.  1.
       -3    1    3    3    0  502 -0.33028660109E+03  0.24694803423E+03  0.76131513200E+03  0.86583676918E+03  0.10100000352E+00 0. -1.
</event>
<event>
 5   0  0.3803253E-04  0.1462210E+04  0.7818609E-02  0.8909979E-01
        1   -1    0    0  501    0  0.00000000000E+00  0.00000000000E+00  0.11464400416E+04  0.11464400416E+04  0.50400001928E-02 0. -1.
       -1   -1    0    0    0  501  0.00000000000E+00  0.00000000000E+00 -0.46623837943E+03  0.46623837946E+03  0.50400001928E-02 0.  1.
    10030    2    1    2    0    0  0.00000000000E+00  0.00000000000E+00  0.68020166221E+03  0.16126784211E+04  0.14622097622E+04 0.  0.
        4    1    3    3  502    0 -0.21419039220E+03  0.57788321706E+03  0.77387519114E+03  0.98929821643E+03  0.12699999809E+01 0. -1.
       -4    1    3    3    0  502  0.21419039220E+03 -0.57788321706E+03 -0.93673528934E+02  0.62338020468E+03  0.12699999809E+01 0.  1.
</event>
<event>
 5   0  0.2639750E-04  0.1707926E+04  0.7818609E-02  0.8756857E-01
       -3   -1    0    0    0  501  0.00000000000E+00  0.00000000000E+00  0.65668328121E+03  0.65668328898E+03  0.10100000352E+00 0. -1.
        3   -1    0    0  501    0  0.00000000000E+00  0.00000000000E+00 -0.11105085828E+04  0.11105085874E+04  0.10100000352E+00 0.  1.
    10030    2    1    2    0    0  0.00000000000E+00  0.00000000000E+00 -0.45382530158E+03  0.17671918764E+04  0.17079255615E+04 0.  0.
        5    1    3    3  502    0 -0.25823610262E+03 -0.54412546029E+03  0.39946338146E+03  0.72273887702E+03  0.46999998093E+01 0. -1.
       -5    1    3    3    0  502  0.25823610262E+03  0.54412546029E+03 -0.85328868303E+03  0.10444529993E+04  0.46999998093E+01 0.  1.
</event>
<event>
 5   0  0.3723500E-04  0.1871945E+04  0.7818609E-02  0.8668949E-01
       -1   -1    0    0    0  501  0.00000000000E+00  0.00000000000E+00  0.12129503775E+04  0.12129503775E+04  0.50400001928E-02 0.  1.
        1   -1    0    0  501    0  0.00000000000E+00  0.00000000000E+00 -0.72224245569E+03  0.72224245571E+03  0.50400001928E-02 0. -1.
    10030    2    1    2    0    0  0.00000000000E+00  0.00000000000E+00  0.49070792183E+03  0.19351928332E+04  0.18719447207E+04 0.  0.
        1    1    3    3  502    0  0.37296199910E+03  0.44833152739E+03  0.10021699612E+04  0.11595026703E+04  0.50400001928E-02 0.  1.
       -1    1    3    3    0  502 -0.37296199910E+03 -0.44833152739E+03 -0.51146203935E+03  0.77569016298E+03  0.50400001928E-02 0. -1.
</event>
<event>
 5   0  0.7242144E-04  0.1719107E+04  0.7818609E-02  0.8750542E-01
        2   -1    0    0  501    0  0.00000000000E+00  0.00000000000E+00  0.12399663401E+04  0.12399663401E+04  0.25500000920E-02 0.  1.
       -2   -1    0    0    0  501  0.00000000000E+00  0.00000000000E+00 -0.59584831503E+03  0.59584831503E+03  0.25500000920E-02 0. -1.
    10030    2    1    2    0    0  0.00000000000E+00  0.00000000000E+00  0.64411802506E+03  0.18358146551E+04  0.17191065755E+04 0.  0.
        3    1    3    3  502    0 -0.62884396460E+03 -0.51382109527E+03  0.21196633672E+02  0.81234608218E+03  0.10100000352E+00 0. -1.
       -3    1    3    3    0  502  0.62884396460E+03  0.51382109527E+03  0.62292139139E+03  0.10234685729E+04  0.10100000352E+00 0.  1.
</event>
<event>
 5   0  0.3915701E-04  0.1473085E+04  0.7818609E-02  0.8902551E-01
       -1   -1    0    0    0  501  0.00000000000E+00  0.00000000000E+00  0.21164554219E+03  0.21164554225E+03  0.50400001928E-02 0. -1.
        1   -1    0    0  501    0  0.00000000000E+00  0.00000000000E+00 -0.25632226993E+04  0.25632226993E+04  0.50400001928E-02 0.  1.
    10030    2    1    2    0    0  0.00000000000E+00  0.00000000000E+00 -0.23515771571E+04  0.27748682416E+04  0.14730847335E+04 0.  0.
        2    1    3    3  502    0 -0.50840236282E+03  0.15418138008E+03 -0.21367585964E+04  0.22018133799E+04  0.25500000920E-02 0.  1.
       -2    1    3    3    0  502  0.50840236282E+03 -0.15418138008E+03 -0.21481856074E+03  0.57305486171E+03  0.25500000920E-02 0. -1.
</event>
<event>
 5   0  0.7233728E-04  0.1718759E+04  0.7818609E-02  0.8750737E-01
        2   -1    0    0  501    0  0.00000000000E+00  0.00000000000E+00  0.56083729911E+03  0.56083729912E+03  0.25500000920E-02 0. -1.
       -2   -1    0    0    0  501  0.00000000000E+00  0.00000000000E+00 -0.13168396279E+04  0.13168396279E+04  0.25500000920E-02 0.  1.
    10030    2    1    2    0    0  0.00000000000E+00  0.00000000000E+00 -0.75600232881E+03  0.18776769270E+04  0.17187585989E+04 0.  0.
        1    1    3    3  502    0  0.44260815905E+03 -0.12650896058E+03 -0.11707894967E+04  0.12580359873E+04  0.50400001928E-02 0.  1.
       -1    1    3    3    0  502 -0.44260815905E+03  0.12650896058E+03  0.41478716791E+03  0.61964093978E+03  0.50400001928E-02 0. -1.
</event>
<event>
 5   0  0.3915701E-04  0.1641908E+04  0.7818609E-02  0.8795208E-01
       -1   -1    0    0    0  501  0.00000000000E+00  0.00000000000E+00  0.82713770039E+03  0.82713770040E+03  0.50400001928E-02 0.  1.
        1   -1    0    0  501    0  0.00000000000E+00  0.00000000000E+00 -0.81481616613E+03  0.81481616615E+03  0.50400001928E-02 0. -1.
    10030    2    1    2    0    0  0.00000000000E+00  0.00000000000E+00  0.12321534252E+02  0.16419538665E+04  0.16419076343E+04 0.  0.
        2    1    3    3  502    0  0.77591381555E+03  0.19409278684E+02  0.27364951427E+03  0.82298421973E+03  0.25500000920E-02 0.  1.
       -2    1    3    3    0  502 -0.77591381555E+03 -0.19409278684E+02 -0.26132798002E+03  0.81896964682E+03  0.25500000920E-02 0. -1.
</event>
<event>
 5   0  0.3635143E-04  0.1666322E+04  0.7818609E-02  0.8780809E-01
       -1   -1    0    0    0  501  0.00000000000E+00  0.00000000000E+00  0.93480369095E+03  0.93480369097E+03  0.50400001928E-02 0. -1.
        1   -1    0    0  501    0  0.00000000000E+00  0.00000000000E+00 -0.74256988662E+03  0.74256988664E+03  0.50400001928E-02 0.  1.
    10030    2    1    2    0    0  0.00000000000E+00  0.00000000000E+00  0.19223380433E+03  0.16773735776E+04  0.16663217826E+04 0.  0.
        3    1    3    3  502    0 -0.31267082769E+03  0.14623344806E+02  0.87336503965E+03  0.92776257274E+03  0.10100000352E+00 0. -1.
       -3    1    3    3    0  502  0.31267082769E+03 -0.14623344806E+02 -0.68113123531E+03  0.74961100487E+03  0.10100000352E+00 0.  1.
</event>
<event>
 5   0  0.7049044E-04  0.1694783E+04  0.7818609E-02  0.8764345E-01
        2   -1    0    0  501    0  0.00000000000E+00  0.00000000000E+00  0.20526558113E+04  0.20526558113E+04  0.25500000920E-02 0. -1.
       -2   -1    0    0    0  501  0.00000000000E+00  0.00000000000E+00 -0.34982593880E+03  0.34982593881E+03  0.25500000920E-02 0.  1.
    10030    2    1    2    0    0  0.00000000000E+00  0.00000000000E+00  0.17028298725E+04  0.24024817501E+04  0.16947828725E+04 0.  0.
        4    1    3    3  502    0  0.57405037010E+03 -0.46822816295E+02  0.17325314860E+04  0.18257582442E+04  0.12699999809E+01 0. -1.
       -4    1    3    3    0  502 -0.57405037010E+03  0.46822816295E+02 -0.29701613447E+02  0.57672350592E+03  0.12699999809E+01 0.  1.
</event>
<event>
 5   0  0.3803253E-04  0.1665488E+04  0.7818609E-02  0.8781296E-01
       -1   -1    0    0    0  501  0.00000000000E+00  0.00000000000E+00  0.38138580173E+03  0.38138580176E+03  0.50400001928E-02 0.  1.
        1   -1    0    0  501    0  0.00000000000E+00  0.00000000000E+00 -0.18182716330E+04  0.18182716330E+04  0.50400001928E-02 0. -1.
    10030    2    1    2    0    0  0.00000000000E+00  0.00000000000E+00 -0.14368858313E+04  0.21996574348E+04  0.16654884984E+04 0.  0.
        4    1    3    3  502    0 -0.46121287954E+03  0.42871077346E+03 -0.14381502026E+04  0.15699642880E+04  0.12699999809E+01 0. -1.
       -4    1    3    3    0  502  0.46121287954E+03 -0.42871077346E+03  0.12643713168E+01  0.62969314676E+03  0.12699999809E+01 0.  1.
</event>
<event>
 5   0  0.7025426E-04  0.1668808E+04  0.7818609E-02  0.8779357E-01
        2   -1    0    0  501    0  0.00000000000E+00  0.00000000000E+00  0.12028563812E+04  0.12028563812E+04  0.25500000920E-02 0. -1.
       -2   -1    0    0    0  501  0.00000000000E+00  0.00000000000E+00 -0.57881423384E+03  0.57881423385E+03  0.25500000920E-02 0.  1.
    10030    2    1    2    0    0  0.00000000000E+00  0.00000000000E+00  0.62404214734E+03  0.17816706150E+04  0.16688084308E+04 0.  0.
        2    1    3    3  502    0 -0.17477311324E+03 -0.74866706723E+03 -0.34231030032E+02  0.76955817330E+03  0.25500000920E-02 0.  1.
       -2    1    3    3    0  502  0.17477311324E+03  0.74866706723E+03  0.65827317737E+03  0.10121124417E+04  0.25500000920E-02 0. -1.
</event>
<event>
 5   0  0.3713516E-04  0.1750511E+04  0.7818609E-02  0.8733069E-01
       -1   -1    0    0    0  501  0.00000000000E+00  0.00000000000E+00  0.67929000203E+03  0.67929000205E+03  0.50400001928E-02 0. -1.
        1   -1    0    0  501    0  0.00000000000E+00  0.00000000000E+00 -0.11277544849E+04  0.11277544850E+04  0.50400001928E-02 0.  1.
    10030    2    1    2    0    0  0.00000000000E+00  0.00000000000E+00 -0.44846448291E+03  0.18070444870E+04  0.17505111784E+04 0.  0.
        5    1    3    3  502    0  0.84277449281E+03  0.22916464219E+03 -0.16524690679E+03  0.88888351833E+03  0.46999998093E+01 0. -1.
       -5    1    3    3    0  502 -0.84277449281E+03 -0.22916464219E+03 -0.28321757612E+03  0.91816096867E+03  0.46999998093E+01 0.  1.
</event>
<event>
 5   0  0.7242144E-04  0.1713806E+04  0.7818609E-02  0.8753529E-01
       -2   -1    0    0    0  501  0.00000000000E+00  0.00000000000E+00  0.52440966981E+03  0.52440966981E+03  0.25500000920E-02 0.  1.
        2   -1    0    0  501    0  0.00000000000E+00  0.00000000000E+00 -0.14002087597E+04  0.14002087597E+04  0.25500000920E-02 0. -1.
    10030    2    1    2    0    0  0.00000000000E+00  0.00000000000E+00 -0.87579908988E+03  0.19246184295E+04  0.17138063057E+04 0.  0.
        3    1    3    3  502    0 -0.38506461076E+03  0.32477771198E+03 -0.12163699584E+04  0.13165527724E+04  0.10100000352E+00 0. -1.
       -3    1    3    3    0  502  0.38506461076E+03 -0.32477771198E+03  0.34057086851E+03  0.60806565709E+03  0.10100000352E+00 0.  1.
</event>
<event>
 5   0  0.3915701E-04  0.1755123E+04  0.7818609E-02  0.8730535E-01
        1   -1    0    0  501    0  0.00000000000E+00  0.00000000000E+00  0.76476798119E+03  0.76476798121E+03  0.50400001928E-02 0.  1.
       -1   -1    0    0    0  501  0.00000000000E+00  0.00000000000E+00 -0.10069907069E+04  0.10069907069E+04  0.50400001928E-02 0. -1.
    10030    2    1    2    0    0  0.00000000000E+00  0.00000000000E+00 -0.24222272573E+03  0.17717586881E+04  0.17551230726E+04 0.  0.
        2    1    3    3  502    0 -0.38563451722E+03  0.78742210053E+03 -0.83791989114E+02  0.88077729462E+03  0.25500000920E-02 0. -1.
       -2    1    3    3    0  502  0.38563451722E+03 -0.78742210053E+03 -0.15843073662E+03  0.89098139352E+03  0.25500000920E-02 0.  1.
</event>
<event>
 5   0  0.7025426E-04  0.1669397E+04  0.7818609E-02  0.8779013E-01
        2   -1    0    0  501    0  0.00000000000E+00  0.00000000000E+00  0.16127421854E+04  0.16127421854E+04  0.25500000920E-02 0. -1.
       -2   -1    0    0    0  501  0.00000000000E+00  0.00000000000E+00 -0.43201054792E+03  0.43201054793E+03  0.25500000920E-02 0.  1.
    10030    2    1    2    0    0  0.00000000000E+00  0.00000000000E+00  0.11807316374E+04  0.20447527333E+04  0.16693970590E+04 0.  0.
        2    1    3    3  502    0 -0.12429605051E+03 -0.75906896797E+03  0.98742429365E+03  0.12516556803E+04  0.25500000920E-02 0. -1.
       -2    1    3    3    0  502  0.12429605051E+03  0.75906896797E+03  0.19330734379E+03  0.79309705300E+03  0.25500000920E-02 0.  1.
</event>
<event>
 5   0  0.7233728E-04  0.1738923E+04  0.7818609E-02  0.8739471E-01
       -2   -1    0    0    0  501  0.00000000000E+00  0.00000000000E+00  0.67643184669E+03  0.67643184670E+03  0.25500000920E-02 0.  1.
        2   -1    0    0  501    0  0.00000000000E+00  0.00000000000E+00 -0.11175747934E+04  0.11175747934E+04  0.25500000920E-02 0. -1.
    10030    2    1    2    0    0  0.00000000000E+00  0.00000000000E+00 -0.44114294674E+03  0.17940066401E+04  0.17389228635E+04 0.  0.
        1    1    3    3  502    0 -0.50667158420E+03  0.46556110110E+03 -0.76891524484E+03  0.10318400491E+04  0.50400001928E-02 0. -1.
       -1    1    3    3    0  502  0.50667158420E+03 -0.46556110110E+03  0.32777229810E+03  0.76216659106E+03  0.50400001928E-02 0.  1.
</event>
<event>
 5   0  0.3635143E-04  0.1701221E+04  0.7818609E-02  0.8760668E-01
       -1   -1    0    0    0  501  0.00000000000E+00  0.00000000000E+00  0.53658948190E+03  0.53658948192E+03  0.50400001928E-02 0.  1.
        1   -1    0    0  501    0  0.00000000000E+00  0.00000000000E+00 -0.13484020652E+04  0.13484020653E+04  0.50400001928E-02 0. -1.
    10030    2    1    2    0    0  0.00000000000E+00  0.00000000000E+00 -0.81181258335E+03  0.18849915472E+04  0.17012211680E+04 0.  0.
        3    1    3    3  502    0 -0.28158354253E+03 -0.59937489170E+03 -0.99742726419E+03  0.11972471381E+04  0.10100000352E+00 0. -1.
       -3    1    3    3    0  502  0.28158354253E+03  0.59937489170E+03  0.18561468084E+03  0.68774440904E+03  0.10100000352E+00 0.  1.
</event>
<event>
 5   0  0.3803253E-04  0.1650911E+04  0.7818609E-02  0.8789868E-01
       -1   -1    0    0    0  501  0.00000000000E+00  0.00000000000E+00  0.62581757858E+03  0.62581757860E+03  0.50400001928E-02 0. -1.
        1   -1    0    0  501    0  0.00000000000E+00  0.00000000000E+00 -0.10887779841E+04  0.10887779841E+04  0.50400001928E-02 0.  1.
    10030    2    1    2    0    0  0.00000000000E+00  0.00000000000E+00 -0.46296040551E+03  0.17145955627E+04  0.16509105386E+04 0.  0.
        4    1    3    3  502    0  0.22047003941E+03  0.61747355163E+03  0.28935713570E+03  0.71666574505E+03  0.12699999809E+01 0.  1.
       -4    1    3    3    0  502 -0.22047003941E+03 -0.61747355163E+03 -0.75231754121E+03  0.99792981765E+03  0.12699999809E+01 0. -1.
</event>
<event>
 5   0  0.7025426E-04  0.1624085E+04  0.7818609E-02  0.8805887E-01
       -2   -1    0    0    0  501  0.00000000000E+00  0.00000000000E+00  0.36693080179E+03  0.36693080180E+03  0.25500000920E-02 0.  1.
        2   -1    0    0  501    0  0.00000000000E+00  0.00000000000E+00 -0.17971054453E+04  0.17971054453E+04  0.25500000920E-02 0. -1.
    10030    2    1    2    0    0  0.00000000000E+00  0.00000000000E+00 -0.14301746435E+04  0.21640362471E+04  0.16240853943E+04 0.  0.
        2    1    3    3  502    0 -0.16964936186E+03 -0.38207616960E+03 -0.16427068540E+04  0.16950660499E+04  0.25500000920E-02 0. -1.
       -2    1    3    3    0  502  0.16964936186E+03  0.38207616960E+03  0.21253221049E+03  0.46897019720E+03  0.25500000920E-02 0.  1.
</event>
<event>
 5   0  0.7049044E-04  0.1622438E+04  0.7818609E-02  0.8806881E-01
       -2   -1    0    0    0  501  0.00000000000E+00  0.00000000000E+00  0.60145846081E+03  0.60145846082E+03  0.25500000920E-02 0.  1.
        2   -1    0    0  501    0  0.00000000000E+00  0.00000000000E+00 -0.10941342274E+04  0.10941342274E+04  0.25500000920E-02 0. -1.
    10030    2    1    2    0    0  0.00000000000E+00  0.00000000000E+00 -0.49267576659E+03  0.16955926882E+04  0.16224380276E+04 0.  0.
        4    1    3    3  502    0 -0.34449753620E+03  0.10042338890E+03  0.51400412743E+03  0.62686941655E+03  0.12699999809E+01 0.  1.
       -4    1    3    3    0  502  0.34449753620E+03 -0.10042338890E+03 -0.10066798940E+04  0.10687232717E+04  0.12699999809E+01 0. -1.
</event>
<event>
 5   0  0.7242144E-04  0.1674375E+04  0.7818609E-02  0.8776116E-01
       -2   -1    0    0    0  501  0.00000000000E+00  0.00000000000E+00  0.80218297249E+03  0.80218297249E+03  0.25500000920E-02 0.  1.
        2   -1    0    0  501    0  0.00000000000E+00  0.00000000000E+00 -0.87371938975E+03  0.87371938975E+03  0.25500000920E-02 0. -1.
    10030    2    1    2    0    0  0.00000000000E+00  0.00000000000E+00 -0.71536417256E+02  0.16759023622E+04  0.16743748890E+04 0.  0.
        3    1    3    3  502    0 -0.23855238892E+03  0.76693217914E+03  0.20064760168E+03  0.82785969821E+03  0.10100000352E+00 0.  1.
       -3    1    3    3    0  502  0.23855238892E+03 -0.76693217914E+03 -0.27218401894E+03  0.84804266404E+03  0.10100000352E+00 0. -1.
</event>
<event>
 5   0  0.6746664E-04  0.1691727E+04  0.7818609E-02  0.8766097E-01
        2   -1    0    0  501    0  0.00000000000E+00  0.00000000000E+00  0.29533179807E+04  0.29533179807E+04  0.25500000920E-02 0.  1.
       -2   -1    0    0    0  501  0.00000000000E+00  0.00000000000E+00 -0.24226476215E+03  0.24226476216E+03  0.25500000920E-02 0. -1.
    10030    2    1    2    0    0  0.00000000000E+00  0.00000000000E+00  0.27110532186E+04  0.31955827429E+04  0.16917267843E+04 0.  0.
        5    1    3    3  502    0 -0.21052218885E+03 -0.69846253522E+03  0.54681604400E+03  0.91170136617E+03  0.46999998093E+01 0. -1.
       -5    1    3    3    0  502  0.21052218885E+03  0.69846253522E+03  0.21642371746E+04  0.22838813767E+04  0.46999998093E+01 0.  1.
</event>
<event>
 5   0  0.3803253E-04  0.1660012E+04  0.7818609E-02  0.8784505E-01
        1   -1    0    0  501    0  0.00000000000E+00  0.00000000000E+00  0.61690980493E+03  0.61690980495E+03  0.50400001928E-02 0.  1.
       -1   -1    0    0    0  501  0.00000000000E+00  0.00000000000E+00 -0.11167111622E+04  0.11167111622E+04  0.50400001928E-02 0. -1.
    10030    2    1    2    0    0  0.00000000000E+00  0.00000000000E+00 -0.49980135724E+03  0.17336209671E+04  0.16600121268E+04 0.  0.
        4    1    3    3  502    0 -0.33242889486E+01  0.76248853454E+03  0.92523613343E+02  0.76808986983E+03  0.12699999809E+01 0.  1.
       -4    1    3    3    0  502  0.33242889486E+01 -0.76248853454E+03 -0.59232497058E+03  0.96553109731E+03  0.12699999809E+01 0. -1.
</event>
<event>
 5   0  0.3713516E-04  0.1565383E+04  0.7818609E-02  0.8842101E-01
       -1   -1    0    0    0  501  0.00000000000E+00  0.00000000000E+00  0.58297623661E+03  0.58297623663E+03  0.50400001928E-02 0.  1.
        1   -1    0    0  501    0  0.00000000000E+00  0.00000000000E+00 -0.10508248190E+04  0.10508248190E+04  0.50400001928E-02 0. -1.
    10030    2    1    2    0    0  0.00000000000E+00  0.00000000000E+00 -0.46784858239E+03  0.16338010556E+04  0.15653828903E+04 0.  0.
        5    1    3    3  502    0 -0.68077217474E+03 -0.25416702788E+03 -0.53737601920E+03  0.90379572248E+03  0.46999998093E+01 0. -1.
       -5    1    3    3    0  502  0.68077217474E+03  0.25416702788E+03  0.69527436813E+02  0.73000533315E+03  0.46999998093E+01 0.  1.
</event>
<event>
 5   0  0.3723500E-04  0.1741063E+04  0.7818609E-02  0.8738285E-01
        1   -1    0    0  501    0  0.00000000000E+00  0.00000000000E+00  0.12182113235E+04  0.12182113235E+04  0.50400001928E-02 0.  1.
       -1   -1    0    0    0  501  0.00000000000E+00  0.00000000000E+00 -0.62207991277E+03  0.62207991279E+03  0.50400001928E-02 0. -1.
    10030    2    1    2    0    0  0.00000000000E+00  0.00000000000E+00  0.59613141074E+03  0.18402912363E+04  0.17410626570E+04 0.  0.
        1    1    3    3  502    0  0.15720816629E+03  0.26562873967E+03 -0.56229796360E+03  0.64144527029E+03  0.50400001928E-02 0. -1.
       -1    1    3    3    0  502 -0.15720816629E+03 -0.26562873967E+03  0.11584293743E+04  0.11988459660E+04  0.50400001928E-02 0.  1.
</event>
<event>
 5   0  0.7049044E-04  0.1652679E+04  0.7818609E-02  0.8788823E-01
       -2   -1    0    0    0  501  0.00000000000E+00  0.00000000000E+00  0.62891645602E+03  0.62891645603E+03  0.25500000920E-02 0.  1.
        2   -1    0    0  501    0  0.00000000000E+00  0.00000000000E+00 -0.10857361030E+04  0.10857361030E+04  0.25500000920E-02 0. -1.
    10030    2    1    2    0    0  0.00000000000E+00  0.00000000000E+00 -0.45681964699E+03  0.17146525590E+04  0.16526794028E+04 0.  0.
        4    1    3    3  502    0 -0.39766302068E+03  0.43566822848E+03 -0.82880964740E+03  0.10172854702E+04  0.12699999809E+01 0. -1.
       -4    1    3    3    0  502  0.39766302068E+03 -0.43566822848E+03  0.37199000041E+03  0.69736708886E+03  0.12699999809E+01 0.  1.
</event>
<event>
 5   0  0.7049044E-04  0.1682606E+04  0.7818609E-02  0.8771347E-01
       -2   -1    0    0    0  501  0.00000000000E+00  0.00000000000E+00  0.71258158766E+03  0.71258158766E+03  0.25500000920E-02 0. -1.
        2   -1    0    0  501    0  0.00000000000E+00  0.00000000000E+00 -0.99327673067E+03  0.99327673067E+03  0.25500000920E-02 0.  1.
    10030    2    1    2    0    0  0.00000000000E+00  0.00000000000E+00 -0.28069514301E+03  0.17058583183E+04  0.16826059666E+04 0.  0.
        4    1    3    3  502    0 -0.75346041404E+03 -0.14500174028E+03  0.20947295553E+03  0.79536697958E+03  0.12699999809E+01 0. -1.
       -4    1    3    3    0  502  0.75346041404E+03  0.14500174028E+03 -0.49016809853E+03  0.91049133875E+03  0.12699999809E+01 0.  1.
</event>
<event>
 5   0  0.3713516E-04  0.1680038E+04  0.7818609E-02  0.8772832E-01
       -1   -1    0    0    0  501  0.00000000000E+00  0.00000000000E+00  0.88829249609E+03  0.88829249610E+03  0.50400001928E-02 0. -1.
        1   -1    0    0  501    0  0.00000000000E+00  0.00000000000E+00 -0.79436933295E+03  0.79436933296E+03  0.50400001928E-02 0.  1.
    10030    2    1    2    0    0  0.00000000000E+00  0.00000000000E+00  0.93923163142E+02  0.16826618291E+04  0.16800384729E+04 0.  0.
        5    1    3    3  502    0  0.68735311271E+02 -0.72080680233E+03  0.47344715897E+03  0.86513657398E+03  0.46999998093E+01 0.  1.
       -5    1    3    3    0  502 -0.68735311271E+02  0.72080680233E+03 -0.37952399583E+03  0.81752525509E+03  0.46999998093E+01 0. -1.
</event>
<event>
 5   0  0.7025426E-04  0.1275638E+04  0.7818609E-02  0.9049111E-01
        2   -1    0    0  501    0  0.00000000000E+00  0.00000000000E+00  0.16953992480E+04  0.16953992480E+04  0.25500000920E-02 0.  1.
       -2   -1    0    0    0  501  0.00000000000E+00  0.00000000000E+00 -0.23995101197E+03  0.23995101198E+03  0.25500000920E-02 0. -1.
    10030    2    1    2    0    0  0.00000000000E+00  0.00000000000E+00  0.14554482360E+04  0.19353502600E+04  0.12756375116E+04 0.  0.
        2    1    3    3  502    0  0.23127502191E+03 -0.18331287692E+03  0.15855870203E+04  0.16128167737E+04  0.25500000920E-02 0.  1.
       -2    1    3    3    0  502 -0.23127502191E+03  0.18331287692E+03 -0.13013878426E+03  0.32253348629E+03  0.25500000920E-02 0. -1.
</event>
<event>
 5   0  0.3915701E-04  0.1698881E+04  0.7818609E-02  0.8762003E-01
       -1   -1    0    0    0  501  0.00000000000E+00  0.00000000000E+00  0.14294626568E+04  0.14294626568E+04  0.50400001928E-02 0. -1.
        1   -1    0    0  501    0  0.00000000000E+00  0.00000000000E+00 -0.50476936316E+03  0.50476936318E+03  0.50400001928E-02 0.  1.
    10030    2    1    2    0    0  0.00000000000E+00  0.00000000000E+00  0.92469329362E+03  0.19342320200E+04  0.16988807550E+04 0.  0.
        2    1    3    3  502    0 -0.10421900137E+03  0.26492486582E+03  0.13735304149E+04  0.14027232748E+04  0.25500000920E-02 0. -1.
       -2    1    3    3    0  502  0.10421900137E+03 -0.26492486582E+03 -0.44883712131E+03  0.53150874522E+03  0.25500000920E-02 0.  1.
</event>
<event>
 5   0  0.3635143E-04  0.1688918E+04  0.7818609E-02  0.8767710E-01
        1   -1    0    0  501    0  0.00000000000E+00  0.00000000000E+00  0.57675257183E+03  0.57675257185E+03  0.50400001928E-02 0. -1.
       -1   -1    0    0    0  501  0.00000000000E+00  0.00000000000E+00 -0.12364246761E+04  0.12364246761E+04  0.50400001928E-02 0.  1.
    10030    2    1    2    0    0  0.00000000000E+00  0.00000000000E+00 -0.65967210430E+03  0.18131772480E+04  0.16889181293E+04 0.  0.
        3    1    3    3  502    0  0.74107449764E+03 -0.15589222528E+03 -0.73098096418E+03  0.10525335991E+04  0.10100000352E+00 0.  1.
       -3    1    3    3    0  502 -0.74107449764E+03  0.15589222528E+03  0.71308859879E+02  0.76064364893E+03  0.10100000352E+00 0. -1.
</event>
<event>
 5   0  0.6746664E-04  0.1730040E+04  0.7818609E-02  0.8744415E-01
        2   -1    0    0  501    0  0.00000000000E+00  0.00000000000E+00  0.15364376019E+04  0.15364376019E+04  0.25500000920E-02 0.  1.
       -2   -1    0    0    0  501  0.00000000000E+00  0.00000000000E+00 -0.48700933705E+03  0.48700933706E+03  0.25500000920E-02 0. -1.
    10030    2    1    2    0    0  0.00000000000E+00  0.00000000000E+00  0.10494282649E+04  0.20234469390E+04  0.17300398353E+04 0.  0.
        5    1    3    3  502    0 -0.40588348112E+03  0.59250850182E+03  0.10885873597E+04  0.13041672648E+04  0.46999998093E+01 0.  1.
       -5    1    3    3    0  502  0.40588348112E+03 -0.59250850182E+03 -0.39159094796E+02  0.71927967417E+03  0.46999998093E+01 0. -1.
</event>
<event>
 5   0  0.7233728E-04  0.1696976E+04  0.7818609E-02  0.8763091E-01
       -2   -1    0    0    0  501  0.00000000000E+00  0.00000000000E+00  0.49782425433E+03  0.49782425434E+03  0.25500000920E-02 0.  1.
        2   -1    0    0  501    0  0.00000000000E+00  0.00000000000E+00 -0.14461559325E+04  0.14461559325E+04  0.25500000920E-02 0. -1.
    10030    2    1    2    0    0  0.00000000000E+00  0.00000000000E+00 -0.94833167821E+03  0.19439801869E+04  0.16969755434E+04 0.  0.
        1    1    3    3  502    0  0.66661673358E+02  0.81580928137E+02  0.49030253661E+03  0.50149357321E+03  0.50400001928E-02 0.  1.
       -1    1    3    3    0  502 -0.66661673358E+02 -0.81580928137E+02 -0.14386342148E+04  0.14424866137E+04  0.50400001928E-02 0. -1.
</event>
<event>
 5   0  0.3803253E-04  0.1604360E+04  0.7818609E-02  0.8817874E-01
       -1   -1    0    0    0  501  0.00000000000E+00  0.00000000000E+00  0.58031294486E+03  0.58031294488E+03  0.50400001928E-02 0. -1.
        1   -1    0    0  501    0  0.00000000000E+00  0.00000000000E+00 -0.11088717802E+04  0.11088717802E+04  0.50400001928E-02 0.  1.
    10030    2    1    2    0    0  0.00000000000E+00  0.00000000000E+00 -0.52855883531E+03  0.16891847251E+04  0.16043598702E+04 0.  0.
        4    1    3    3  502    0  0.62544262512E+03  0.17931479858E+03  0.22973922872E+03  0.69001014516E+03  0.12699999809E+01 0. -1.
       -4    1    3    3    0  502 -0.62544262512E+03 -0.17931479858E+03 -0.75829806404E+03  0.99917457990E+03  0.12699999809E+01 0.  1.
</event>
<event>
 5   0  0.3803253E-04  0.1605686E+04  0.7818609E-02  0.8817063E-01
       -1   -1    0    0    0  501  0.00000000000E+00  0.00000000000E+00  0.54822584529E+03  0.54822584531E+03  0.50400001928E-02 0.  1.
        1   -1    0    0  501    0  0.00000000000E+00  0.00000000000E+00 -0.11757139074E+04  0.11757139074E+04  0.50400001928E-02 0. -1.
    10030    2    1    2    0    0  0.00000000000E+00  0.00000000000E+00 -0.62748806212E+03  0.17239397527E+04  0.16056858357E+04 0.  0.
        4    1    3    3  502    0  0.62039302818E+03  0.48127059437E+03 -0.13394023457E+03  0.79652400702E+03  0.12699999809E+01 0. -1.
       -4    1    3    3    0  502 -0.62039302818E+03 -0.48127059437E+03 -0.49354782755E+03  0.92741574572E+03  0.12699999809E+01 0.  1.
</event>
<event>
 5   0  0.3713516E-04  0.1689899E+04  0.7818609E-02  0.8767147E-01
        1   -1    0    0  501    0  0.00000000000E+00  0.00000000000E+00  0.11566615602E+04  0.11566615602E+04  0.50400001928E-02 0.  1.
       -1   -1    0    0    0  501  0.00000000000E+00  0.00000000000E+00 -0.61724129874E+03  0.61724129876E+03  0.50400001928E-02 0. -1.
    10030    2    1    2    0    0  0.00000000000E+00  0.00000000000E+00  0.53942026149E+03  0.17739028590E+04  0.16898985575E+04 0.  0.
        5    1    3    3  502    0  0.12193436855E+03  0.63234852458E+03  0.84387785723E+03  0.10615481971E+04  0.46999998093E+01 0.  1.
       -5    1    3    3    0  502 -0.12193436855E+03 -0.63234852458E+03 -0.30445759575E+03  0.71235466193E+03  0.46999998093E+01 0. -1.
</event>
<event>
 5   0  0.7049044E-04  0.1686349E+04  0.7818609E-02  0.8769188E-01
        2   -1    0    0  501    0  0.00000000000E+00  0.00000000000E+00  0.25649893296E+04  0.25649893296E+04  0.25500000920E-02 0.  1.
       -2   -1    0    0    0  501  0.00000000000E+00  0.00000000000E+00 -0.27717204503E+03  0.27717204504E+03  0.25500000920E-02 0. -1.
    10030    2    1    2    0    0  0.00000000000E+00  0.00000000000E+00  0.22878172846E+04  0.28421613747E+04  0.16863491192E+04 0.  0.
        4    1    3    3  502    0  0.59387079451E+03 -0.57510273813E+03  0.14234810131E+04  0.16461243840E+04  0.12699999809E+01 0.  1.
       -4    1    3    3    0  502 -0.59387079451E+03  0.57510273813E+03  0.86433627148E+03  0.11960369907E+04  0.12699999809E+01 0. -1.
</event>
<event>
 5   0  0.3713516E-04  0.1649312E+04  0.7818609E-02  0.8790813E-01
        1   -1    0    0  501    0  0.00000000000E+00  0.00000000000E+00  0.11088708725E+04  0.11088708725E+04  0.50400001928E-02 0. -1.
       -1   -1    0    0    0  501  0.00000000000E+00  0.00000000000E+00 -0.61328849436E+03  0.61328849438E+03  0.50400001928E-02 0.  1.
    10030    2    1    2    0    0  0.00000000000E+00  0.00000000000E+00  0.49558237815E+03  0.17221593669E+04  0.16493122783E+04 0.  0.
        5    1    3    3  502    0  0.20289379446E+03  0.45941067303E+03 -0.43517109980E+03  0.66454498299E+03  0.46999998093E+01 0.  1.
       -5    1    3    3    0  502 -0.20289379446E+03 -0.45941067303E+03  0.93075347795E+03  0.10576143839E+04  0.46999998093E+01 0. -1.
</event>
<event>
 5   0  0.7242144E-04  0.1741832E+04  0.7818609E-02  0.8737859E-01
       -2   -1    0    0    0  501  0.00000000000E+00  0.00000000000E+00  0.43069024292E+03  0.43069024292E+03  0.25500000920E-02 0. -1.
        2   -1    0    0  501    0  0.00000000000E+00  0.00000000000E+00 -0.17611138383E+04  0.17611138383E+04  0.25500000920E-02 0.  1.
    10030    2    1    2    0    0  0.00000000000E+00  0.00000000000E+00 -0.13304235954E+04  0.21918040812E+04  0.17418318482E+04 0.  0.
        3    1    3    3  502    0  0.65677906319E+03 -0.18804194623E+03  0.14492954137E+02  0.68332171581E+03  0.10100000352E+00 0. -1.
       -3    1    3    3    0  502 -0.65677906319E+03  0.18804194623E+03 -0.13449165495E+04  0.15084823654E+04  0.10100000352E+00 0.  1.
</event>
<event>
 5   0  0.7242144E-04  0.1681666E+04  0.7818609E-02  0.8771891E-01
        2   -1    0    0  501    0  0.00000000000E+00  0.00000000000E+00  0.84800491169E+03  0.84800491170E+03  0.25500000920E-02 0. -1.
       -2   -1    0    0    0  501  0.00000000000E+00  0.00000000000E+00 -0.83372138979E+03  0.83372138979E+03  0.25500000920E-02 0.  1.
    10030    2    1    2    0    0  0.00000000000E+00  0.00000000000E+00  0.14283521905E+02  0.16817263015E+04  0.16816656428E+04 0.  0.
        3    1    3    3  502    0  0.73612501515E+03  0.16704206383E+03 -0.36329937265E+03  0.83771685753E+03  0.10100000352E+00 0. -1.
       -3    1    3    3    0  502 -0.73612501515E+03 -0.16704206383E+03  0.37758289456E+03  0.84400944395E+03  0.10100000352E+00 0.  1.
</event>
<event>
 5   0  0.2639750E-04  0.1707338E+04  0.7818609E-02  0.8757190E-01
        3   -1    0    0  501    0  0.00000000000E+00  0.00000000000E+00  0.22214656176E+03  0.22214658472E+03  0.10100000352E+00 0. -1.
       -3   -1    0    0    0  501  0.00000000000E+00  0.00000000000E+00 -0.32804936015E+04  0.32804936031E+04  0.10100000352E+00 0.  1.
    10030    2    1    2    0    0  0.00000000000E+00  0.00000000000E+00 -0.30583470398E+04  0.35026401878E+04  0.17073375968E+04 0.  0.
        4    1    3    3  502    0 -0.51495370014E+03 -0.57923168294E+03 -0.22633264129E+04  0.23923492053E+04  0.12699999809E+01 0.  1.
       -4    1    3    3    0  502  0.51495370014E+03  0.57923168294E+03 -0.79502062690E+03  0.11102909825E+04  0.12699999809E+01 0. -1.
</event>
<event>
 5   0  0.3713516E-04  0.1713576E+04  0.7818609E-02  0.8753659E-01
        1   -1    0    0  501    0  0.00000000000E+00  0.00000000000E+00  0.61503470556E+03  0.61503470558E+03  0.50400001928E-02 0.  1.
       -1   -1    0    0    0  501  0.00000000000E+00  0.00000000000E+00 -0.11935680388E+04  0.11935680388E+04  0.50400001928E-02 0. -1.
    10030    2    1    2    0    0  0.00000000000E+00  0.00000000000E+00 -0.57853333322E+03  0.18086027444E+04  0.17135761055E+04 0.  0.
        5    1    3    3  502    0  0.61889756892E+01 -0.74554196631E+03  0.15627113719E+03  0.76178335848E+03  0.46999998093E+01 0.  1.
       -5    1    3    3    0  502 -0.61889756892E+01  0.74554196631E+03 -0.73480447041E+03  0.10468193859E+04  0.46999998093E+01 0. -1.
</event>
<event>
 5   0  0.7242144E-04  0.1669668E+04  0.7818609E-02  0.8778855E-01
       -2   -1    0    0    0  501  0.00000000000E+00  0.00000000000E+00  0.67249253659E+03  0.67249253660E+03  0.25500000920E-02 0.  1.
        2   -1    0    0  501    0  0.00000000000E+00  0.00000000000E+00 -0.10363651637E+04  0.10363651637E+04  0.25500000920E-02 0. -1.
    10030    2    1    2    0    0  0.00000000000E+00  0.00000000000E+00 -0.36387262706E+03  0.17088577003E+04  0.16696680362E+04 0.  0.
        3    1    3    3  502    0  0.21442697556E+03  0.36205781819E+02  0.64299573391E+03  0.67877338671E+03  0.10100000352E+00 0.  1.
       -3    1    3    3    0  502 -0.21442697556E+03 -0.36205781819E+02 -0.10068683610E+04  0.10300843135E+04  0.10100000352E+00 0. -1.
</event>
<event>
 5   0  0.2639750E-04  0.1771389E+04  0.7818609E-02  0.8721664E-01
       -3   -1    0    0    0  501  0.00000000000E+00  0.00000000000E+00  0.10760538286E+04  0.10760538333E+04  0.10100000352E+00 0.  1.
        3   -1    0    0  501    0  0.00000000000E+00  0.00000000000E+00 -0.72901090659E+03  0.72901091359E+03  0.10100000352E+00 0. -1.
    10030    2    1    2    0    0  0.00000000000E+00  0.00000000000E+00  0.34704292202E+03  0.18050647469E+04  0.17713892714E+04 0.  0.
        1    1    3    3  502    0 -0.32041799436E+02  0.82635722351E+03 -0.14962234320E+03  0.84040453554E+03  0.50400001928E-02 0. -1.
       -1    1    3    3    0  502  0.32041799436E+02 -0.82635722351E+03  0.49666526522E+03  0.96466021139E+03  0.50400001928E-02 0.  1.
</event>
<event>
 5   0  0.7025426E-04  0.1682664E+04  0.7818609E-02  0.8771314E-01
       -2   -1    0    0    0  501  0.00000000000E+00  0.00000000000E+00  0.55940110212E+03  0.55940110213E+03  0.25500000920E-02 0.  1.
        2   -1    0    0  501    0  0.00000000000E+00  0.00000000000E+00 -0.12653529885E+04  0.12653529885E+04  0.25500000920E-02 0. -1.
    10030    2    1    2    0    0  0.00000000000E+00  0.00000000000E+00 -0.70595188640E+03  0.18247540907E+04  0.16826643829E+04 0.  0.
        2    1    3    3  502    0  0.83917370440E+03  0.44063917042E+02 -0.39750051447E+03  0.92960249244E+03  0.25500000920E-02 0.  1.
       -2    1    3    3    0  502 -0.83917370440E+03 -0.44063917042E+02 -0.30845137193E+03  0.89515159821E+03  0.25500000920E-02 0. -1.
</event>
<event>
 5   0  0.7233728E-04  0.1777262E+04  0.7818609E-02  0.8718486E-01
       -2   -1    0    0    0  501  0.00000000000E+00  0.00000000000E+00  0.62150663574E+03  0.62150663575E+03  0.25500000920E-02 0. -1.
        2   -1    0    0  501    0  0.00000000000E+00  0.00000000000E+00 -0.12705657967E+04  0.12705657967E+04  0.25500000920E-02 0.  1.
    10030    2    1    2    0    0  0.00000000000E+00  0.00000000000E+00 -0.64905916094E+03  0.18920724324E+04  0.17772620221E+04 0.  0.
        1    1    3    3  502    0  0.53172641662E+03 -0.54535023190E+03  0.16277943503E+03  0.77886905322E+03  0.50400001928E-02 0. -1.
       -1    1    3    3    0  502 -0.53172641662E+03  0.54535023190E+03 -0.81183859597E+03  0.11132033792E+04  0.50400001928E-02 0.  1.
</event>
<event>
 5   0  0.3723500E-04  0.1267314E+04  0.7818609E-02  0.9055895E-01
       -1   -1    0    0    0  501  0.00000000000E+00  0.00000000000E+00  0.55515721645E+03  0.55515721647E+03  0.50400001928E-02 0.  1.
        1   -1    0    0  501    0  0.00000000000E+00  0.00000000000E+00 -0.72325675942E+03  0.72325675944E+03  0.50400001928E-02 0. -1.
    10030    2    1    2    0    0  0.00000000000E+00  0.00000000000E+00 -0.16809954297E+03  0.12784139759E+04  0.12673140248E+04 0.  0.
        1    1    3    3  502    0 -0.47538751285E+03 -0.30821640340E+03 -0.37031437895E+03  0.67684812032E+03  0.50400001928E-02 0.  1.
       -1    1    3    3    0  502  0.47538751285E+03  0.30821640340E+03  0.20221483597E+03  0.60156585559E+03  0.50400001928E-02 0. -1.
</event>
<event>
 5   0  0.7049044E-04  0.1693059E+04  0.7818609E-02  0.8765333E-01
       -2   -1    0    0    0  501  0.00000000000E+00  0.00000000000E+00  0.45158855412E+03  0.45158855413E+03  0.25500000920E-02 0. -1.
        2   -1    0    0  501    0  0.00000000000E+00  0.00000000000E+00 -0.15868688420E+04  0.15868688420E+04  0.25500000920E-02 0.  1.
    10030    2    1    2    0    0  0.00000000000E+00  0.00000000000E+00 -0.11352802879E+04  0.20384573961E+04  0.16930585412E+04 0.  0.
        4    1    3    3  502    0  0.65510307160E+03  0.22251105585E+03  0.19663194766E+02  0.69214121284E+03  0.12699999809E+01 0. -1.
       -4    1    3    3    0  502 -0.65510307160E+03 -0.22251105585E+03 -0.11549434826E+04  0.13463161833E+04  0.12699999809E+01 0.  1.
</event>
<event>
 5   0  0.7049044E-04  0.1768856E+04  0.7818609E-02  0.8723039E-01
        2   -1    0    0  501    0  0.00000000000E+00  0.00000000000E+00  0.14699461085E+04  0.14699461085E+04  0.25500000920E-02 0.  1.
       -2   -1    0    0    0  501  0.00000000000E+00  0.00000000000E+00 -0.53213700601E+03  0.53213700601E+03  0.25500000920E-02 0. -1.
    10030    2    1    2    0    0  0.00000000000E+00  0.00000000000E+00  0.93780910247E+03  0.20020831145E+04  0.17688558123E+04 0.  0.
        4    1    3    3  502    0  0.30911608047E+03  0.82826868683E+03  0.44051018646E+03  0.98774116350E+03  0.12699999809E+01 0. -1.
       -4    1    3    3    0  502 -0.30911608047E+03 -0.82826868683E+03  0.49729891600E+03  0.10143419510E+04  0.12699999809E+01 0.  1.
</event>
<event>
 5   0  0.6746664E-04  0.1711832E+04  0.7818609E-02  0.8754645E-01
       -2   -1    0    0    0  501  0.00000000000E+00  0.00000000000E+00  0.39663601933E+03  0.39663601934E+03  0.25500000920E-02 0. -1.
        2   -1    0    0  501    0  0.00000000000E+00  0.00000000000E+00 -0.18470127895E+04  0.18470127895E+04  0.25500000920E-02 0.  1.
    10030    2    1    2    0    0  0.00000000000E+00  0.00000000000E+00 -0.14503767702E+04  0.22436488089E+04  0.17118315343E+04 0.  0.
        5    1    3    3  502    0 -0.77112401560E+03 -0.21180805073E+03 -0.11250502086E+04  0.13803097333E+04  0.46999998093E+01 0.  1.
       -5    1    3    3    0  502  0.77112401560E+03  0.21180805073E+03 -0.32532656155E+03  0.86333907559E+03  0.46999998093E+01 0. -1.
</event>
<event>
 5   0  0.3803253E-04  0.1705950E+04  0.7818609E-02  0.8757978E-01
       -1   -1    0    0    0  501  0.00000000000E+00  0.00000000000E+00  0.67354109365E+03  0.67354109367E+03  0.50400001928E-02 0. -1.
        1   -1    0    0  501    0  0.00000000000E+00  0.00000000000E+00 -0.10802107296E+04  0.10802107296E+04  0.50400001928E-02 0.  1.
    10030    2    1    2    0    0  0.00000000000E+00  0.00000000000E+00 -0.40666963598E+03  0.17537518233E+04  0.17059499597E+04 0.  0.
        4    1    3    3  502    0  0.43904036243E+03 -0.39229192104E+03 -0.83781208051E+03  0.10240019953E+04  0.12699999809E+01 0.  1.
       -4    1    3    3    0  502 -0.43904036243E+03  0.39229192104E+03  0.43114244453E+03  0.72974982805E+03  0.12699999809E+01 0. -1.
</event>
<event>
 5   0  0.3915701E-04  0.1678804E+04  0.7818609E-02  0.8773547E-01
       -1   -1    0    0    0  501  0.00000000000E+00  0.00000000000E+00  0.77748153938E+03  0.77748153940E+03  0.50400001928E-02 0. -1.
        1   -1    0    0  501    0  0.00000000000E+00  0.00000000000E+00 -0.90625351810E+03  0.90625351811E+03  0.50400001928E-02 0.  1.
    10030    2    1    2    0    0  0.00000000000E+00  0.00000000000E+00 -0.12877197871E+03  0.16837350575E+04  0.16788035982E+04 0.  0.
        2    1    3    3  502    0  0.48210100460E+03  0.13329345537E+03 -0.74046320647E+03  0.89357388281E+03  0.25500000920E-02 0.  1.
       -2    1    3    3    0  502 -0.48210100460E+03 -0.13329345537E+03  0.61169122776E+03  0.79016117471E+03  0.25500000920E-02 0. -1.
</event>
<event>
 5   0  0.7242144E-04  0.1695207E+04  0.7818609E-02  0.8764103E-01
        2   -1    0    0  501    0  0.00000000000E+00  0.00000000000E+00  0.14910214600E+04  0.14910214600E+04  0.25500000920E-02 0. -1.
       -2   -1    0    0    0  501  0.00000000000E+00  0.00000000000E+00 -0.48183838844E+03  0.48183838845E+03  0.25500000920E-02 0.  1.
    10030    2    1    2    0    0  0.00000000000E+00  0.00000000000E+00  0.10091830716E+04  0.19728598485E+04  0.16952066275E+04 0.  0.
        3    1    3    3  502    0  0.84026839568E+03  0.85046722324E+02  0.58808826640E+03  0.10291412639E+04  0.10100000352E+00 0. -1.
       -3    1    3    3    0  502 -0.84026839568E+03 -0.85046722324E+02  0.42109480519E+03  0.94371858460E+03  0.10100000352E+00 0.  1.
</event>
<event>
 5   0  0.7049044E-04  0.1472379E+04  0.7818609E-02  0.8903031E-01
       -2   -1    0    0    0  501  0.00000000000E+00  0.00000000000E+00  0.14572585588E+04  0.14572585588E+04  0.25500000920E-02 0.  1.
        2   -1    0    0  501    0  0.00000000000E+00  0.00000000000E+00 -0.37191424770E+03  0.37191424771E+03  0.25500000920E-02 0. -1.
    10030    2    1    2    0    0  0.00000000000E+00  0.00000000000E+00  0.10853443111E+04  0.18291728065E+04  0.14723793270E+04 0.  0.
        4    1    3    3  502    0  0.60968864249E+03  0.95178059394E+02  0.43890881444E+02  0.61863327275E+03  0.12699999809E+01 0. -1.
       -4    1    3    3    0  502 -0.60968864249E+03 -0.95178059394E+02  0.10414534297E+04  0.12105395338E+04  0.12699999809E+01 0.  1.
</event>
<event>
 5   0  0.7049044E-04  0.1685395E+04  0.7818609E-02  0.8769738E-01
       -2   -1    0    0    0  501  0.00000000000E+00  0.00000000000E+00  0.73734919109E+03  0.73734919109E+03  0.25500000920E-02 0. -1.
        2   -1    0    0  501    0  0.00000000000E+00  0.00000000000E+00 -0.96309752123E+03  0.96309752123E+03  0.25500000920E-02 0.  1.
    10030    2    1    2    0    0  0.00000000000E+00  0.00000000000E+00 -0.22574833014E+03  0.17004467123E+04  0.16853951207E+04 0.  0.
        4    1    3    3  502    0  0.16323005341E+03 -0.51570122588E+03 -0.76482273017E+03  0.93677490690E+03  0.12699999809E+01 0.  1.
       -4    1    3    3    0  502 -0.16323005341E+03  0.51570122588E+03  0.53907440004E+03  0.76367180542E+03  0.12699999809E+01 0. -1.
</event>
<event>
 5   0  0.3635143E-04  0.1675827E+04  0.7818609E-02  0.8775273E-01
        1   -1    0    0  501    0  0.00000000000E+00  0.00000000000E+00  0.16160896099E+04  0.16160896099E+04  0.50400001928E-02 0.  1.
       -1   -1    0    0    0  501  0.00000000000E+00  0.00000000000E+00 -0.43444302521E+03  0.43444302524E+03  0.50400001928E-02 0. -1.
    10030    2    1    2    0    0  0.00000000000E+00  0.00000000000E+00  0.11816465847E+04  0.20505326352E+04  0.16758267920E+04 0.  0.
        3    1    3    3  502    0 -0.82089455701E+03  0.68245665395E+02  0.40295666844E+03  0.91700568777E+03  0.10100000352E+00 0. -1.
       -3    1    3    3    0  502  0.82089455701E+03 -0.68245665395E+02  0.77868991629E+03  0.11335269474E+04  0.10100000352E+00 0.  1.
</event>
<event>
 5   0  0.3723500E-04  0.1702901E+04  0.7818609E-02  0.8759712E-01
       -1   -1    0    0    0  501  0.00000000000E+00  0.00000000000E+00  0.10185110405E+04  0.10185110405E+04  0.50400001928E-02 0. -1.
        1   -1    0    0  501    0  0.00000000000E+00  0.00000000000E+00 -0.71179197259E+03  0.71179197261E+03  0.50400001928E-02 0.  1.
    10030    2    1    2    0    0  0.00000000000E+00  0.00000000000E+00  0.30671906793E+03  0.17303030131E+04  0.17029010337E+04 0.  0.
        1    1    3    3  502    0  0.85009249834E+03  0.41185906610E+02  0.17854646905E+03  0.86961622355E+03  0.50400001928E-02 0.  1.
       -1    1    3    3    0  502 -0.85009249834E+03 -0.41185906610E+02  0.12817259888E+03  0.86068678958E+03  0.50400001928E-02 0. -1.
</event>
<event>
 5   0  0.3915701E-04  0.1703284E+04  0.7818609E-02  0.8759494E-01
        1   -1    0    0  501    0  0.00000000000E+00  0.00000000000E+00  0.10788429019E+04  0.10788429019E+04  0.50400001928E-02 0. -1.
       -1   -1    0    0    0  501  0.00000000000E+00  0.00000000000E+00 -0.67228891581E+03  0.67228891583E+03  0.50400001928E-02 0.  1.
    10030    2    1    2    0    0  0.00000000000E+00  0.00000000000E+00  0.40655398612E+03  0.17511318178E+04  0.17032840337E+04 0.  0.
        2    1    3    3  502    0  0.12442762463E+03 -0.59081045724E+03  0.82077829824E+03  0.10189289696E+04  0.25500000920E-02 0. -1.
       -2    1    3    3    0  502 -0.12442762463E+03  0.59081045724E+03 -0.41422431212E+03  0.73220284820E+03  0.25500000920E-02 0.  1.
</event>
<event>
 5   0  0.7233728E-04  0.1643038E+04  0.7818609E-02  0.8794536E-01
        2   -1    0    0  501    0  0.00000000000E+00  0.00000000000E+00  0.17631945388E+04  0.17631945388E+04  0.25500000920E-02 0. -1.
       -2   -1    0    0    0  501  0.00000000000E+00  0.00000000000E+00 -0.38276726542E+03  0.38276726542E+03  0.25500000920E-02 0.  1.
    10030    2    1    2    0    0  0.00000000000E+00  0.00000000000E+00  0.13804272734E+04  0.21459618042E+04  0.16430376162E+04 0.  0.
        1    1    3    3  502    0 -0.57673898620E+03  0.23404706902E+03 -0.10085813921E+02  0.62250109429E+03  0.50400001928E-02 0.  1.
       -1    1    3    3    0  502  0.57673898620E+03 -0.23404706902E+03  0.13905130873E+04  0.15234607099E+04  0.50400001928E-02 0. -1.
</event>
<event>
 5   0  0.7049044E-04  0.1769294E+04  0.7818609E-02  0.8722801E-01
       -2   -1    0    0    0  501  0.00000000000E+00  0.00000000000E+00  0.81828926335E+03  0.81828926335E+03  0.25500000920E-02 0.  1.
        2   -1    0    0  501    0  0.00000000000E+00  0.00000000000E+00 -0.95638602088E+03  0.95638602089E+03  0.25500000920E-02 0. -1.
    10030    2    1    2    0    0  0.00000000000E+00  0.00000000000E+00 -0.13809675754E+03  0.17746752842E+04  0.17692941107E+04 0.  0.
        4    1    3    3  502    0 -0.27222382324E+03 -0.24722417508E+03 -0.87609054499E+03  0.95013781032E+03  0.12699999809E+01 0. -1.
       -4    1    3    3    0  502  0.27222382324E+03  0.24722417508E+03  0.73799378745E+03  0.82453747392E+03  0.12699999809E+01 0.  1.
</event>
<event>
 5   0  0.3713516E-04  0.1684698E+04  0.7818609E-02  0.8770140E-01
        1   -1    0    0  501    0  0.00000000000E+00  0.00000000000E+00  0.10427514069E+04  0.10427514069E+04  0.50400001928E-02 0. -1.
       -1   -1    0    0    0  501  0.00000000000E+00  0.00000000000E+00 -0.68046119144E+03  0.68046119146E+03  0.50400001928E-02 0.  1.
    10030    2    1    2    0    0  0.00000000000E+00  0.00000000000E+00  0.36229021548E+03  0.17232125984E+04  0.16846980320E+04 0.  0.
        5    1    3    3  502    0 -0.13031457054E+03 -0.50382528601E+03  0.85863770476E+03  0.10040431286E+04  0.46999998093E+01 0. -1.
       -5    1    3    3    0  502  0.13031457054E+03  0.50382528601E+03 -0.49634748928E+03  0.71916946976E+03  0.46999998093E+01 0.  1.
</event>
<event>
 5   0  0.7233728E-04  0.1720276E+04  0.7818609E-02  0.8749884E-01
       -2   -1    0    0    0  501  0.00000000000E+00  0.00000000000E+00  0.97134633559E+03  0.97134633559E+03  0.25500000920E-02 0. -1.
        2   -1    0    0  501    0  0.00000000000E+00  0.00000000000E+00 -0.76166151838E+03  0.76166151839E+03  0.25500000920E-02 0.  1.
    10030    2    1    2    0    0  0.00000000000E+00  0.00000000000E+00  0.20968481720E+03  0.17330078540E+04  0.17202757045E+04 0.  0.
        1    1    3    3  502    0 -0.40120034306E+02 -0.84436161437E+03 -0.55334297163E+02  0.84712338974E+03  0.50400001928E-02 0.  1.
       -1    1    3    3    0  502  0.40120034306E+02  0.84436161437E+03  0.26501911437E+03  0.88588446424E+03  0.50400001928E-02 0. -1.
</event>
<event>
 5   0  0.3635143E-04  0.1720113E+04  0.7818609E-02  0.8749975E-01
       -1   -1    0    0    0  501  0.00000000000E+00  0.00000000000E+00  0.85990412135E+03  0.85990412137E+03  0.50400001928E-02 0. -1.
        1   -1    0    0  501    0  0.00000000000E+00  0.00000000000E+00 -0.86020914570E+03  0.86020914571E+03  0.50400001928E-02 0.  1.
    10030    2    1    2    0    0  0.00000000000E+00  0.00000000000E+00 -0.30502434775E+00  0.17201132671E+04  0.17201132400E+04 0.  0.
        3    1    3    3  502    0  0.80141375610E+03 -0.30165056140E+03  0.80099029758E+02  0.86004240269E+03  0.10100000352E+00 0. -1.
       -3    1    3    3    0  502 -0.80141375610E+03  0.30165056140E+03 -0.80404054105E+02  0.86007086439E+03  0.10100000352E+00 0.  1.
</event>
<event>
 5   0  0.3713516E-04  0.1615854E+04  0.7818609E-02  0.8810867E-01
       -1   -1    0    0    0  501  0.00000000000E+00  0.00000000000E+00  0.67374007843E+03  0.67374007844E+03  0.50400001928E-02 0. -1.
        1   -1    0    0  501    0  0.00000000000E+00  0.00000000000E+00 -0.96884003057E+03  0.96884003058E+03  0.50400001928E-02 0.  1.
    10030    2    1    2    0    0  0.00000000000E+00  0.00000000000E+00 -0.29509995214E+03  0.16425801090E+04  0.16158543972E+04 0.  0.
        5    1    3    3  502    0 -0.47311459903E+03  0.45570991940E+03  0.33056453936E+03  0.73539374428E+03  0.46999998093E+01 0. -1.
       -5    1    3    3    0  502  0.47311459903E+03 -0.45570991940E+03 -0.62566449150E+03  0.90718636474E+03  0.46999998093E+01 0.  1.
</event>
<event>
 5   0  0.3713516E-04  0.1684317E+04  0.7818609E-02  0.8770360E-01
        1   -1    0    0  501    0  0.00000000000E+00  0.00000000000E+00  0.24994233398E+04  0.24994233398E+04  0.50400001928E-02 0.  1.
       -1   -1    0    0    0  501  0.00000000000E+00  0.00000000000E+00 -0.28375789679E+03  0.28375789684E+03  0.50400001928E-02 0. -1.
    10030    2    1    2    0    0  0.00000000000E+00  0.00000000000E+00  0.22156654430E+04  0.27831812367E+04  0.16843172031E+04 0.  0.
        5    1    3    3  502    0  0.65371193120E+03  0.33731662871E+03  0.43037069833E+03  0.85226922095E+03  0.46999998093E+01 0. -1.
       -5    1    3    3    0  502 -0.65371193120E+03 -0.33731662871E+03  0.17852947447E+04  0.19309120157E+04  0.46999998093E+01 0.  1.
</event>
<event>
 5   0  0.6746664E-04  0.1730817E+04  0.7818609E-02  0.8743981E-01
        2   -1    0    0  501    0  0.00000000000E+00  0.00000000000E+00  0.17329859439E+04  0.17329859439E+04  0.25500000920E-02 0.  1.
       -2   -1    0    0    0  501  0.00000000000E+00  0.00000000000E+00 -0.43216285294E+03  0.43216285295E+03  0.25500000920E-02 0. -1.
    10030    2    1    2    0    0  0.00000000000E+00  0.00000000000E+00  0.13008230909E+04  0.21651487968E+04  0.17308173209E+04 0.  0.
        5    1    3    3  502    0 -0.34591090317E+03  0.78712181177E+03  0.52724024438E+03  0.10085729844E+04  0.46999998093E+01 0. -1.
       -5    1    3    3    0  502  0.34591090317E+03 -0.78712181177E+03  0.77358284656E+03  0.11565758125E+04  0.46999998093E+01 0.  1.
</event>
<event>
 5   0  0.6746664E-04  0.1669143E+04  0.7818609E-02  0.8779162E-01
        2   -1    0    0  501    0  0.00000000000E+00  0.00000000000E+00  0.13398293877E+04  0.13398293877E+04  0.25500000920E-02 0. -1.
       -2   -1    0    0    0  501  0.00000000000E+00  0.00000000000E+00 -0.51984918147E+03  0.51984918148E+03  0.25500000920E-02 0.  1.
    10030    2    1    2    0    0  0.00000000000E+00  0.00000000000E+00  0.81998020626E+03  0.18596785692E+04  0.16691425470E+04 0.  0.
        5    1    3    3  502    0  0.72248068243E+03  0.38942460087E+03  0.24154570061E+03  0.85556780662E+03  0.46999998093E+01 0.  1.
       -5    1    3    3    0  502 -0.72248068243E+03 -0.38942460087E+03  0.57843450565E+03  0.10041107626E+04  0.46999998093E+01 0. -1.
</event>
<event>
 5   0  0.7049044E-04  0.1661774E+04  0.7818609E-02  0.8783472E-01
        2   -1    0    0  501    0  0.00000000000E+00  0.00000000000E+00  0.97292027553E+03  0.97292027553E+03  0.25500000920E-02 0.  1.
       -2   -1    0    0    0  501  0.00000000000E+00  0.00000000000E+00 -0.70958841735E+03  0.70958841736E+03  0.25500000920E-02 0. -1.
    10030    2    1    2    0    0  0.00000000000E+00  0.00000000000E+00  0.26333185817E+03  0.16825086929E+04  0.16617737012E+04 0.  0.
        4    1    3    3  502    0  0.78088806142E+03  0.20388347587E+03 -0.68325210343E+02  0.80995344525E+03  0.12699999809E+01 0. -1.
       -4    1    3    3    0  502 -0.78088806142E+03 -0.20388347587E+03  0.33165706852E+03  0.87255524764E+03  0.12699999809E+01 0.  1.
</event>
<event>
 5   0  0.3723500E-04  0.1662367E+04  0.7818609E-02  0.8783124E-01
        1   -1    0    0  501    0  0.00000000000E+00  0.00000000000E+00  0.41426751566E+03  0.41426751569E+03  0.50400001928E-02 0. -1.
       -1   -1    0    0    0  501  0.00000000000E+00  0.00000000000E+00 -0.16676808184E+04  0.16676808184E+04  0.50400001928E-02 0.  1.
    10030    2    1    2    0    0  0.00000000000E+00  0.00000000000E+00 -0.12534133027E+04  0.20819483341E+04  0.16623669746E+04 0.  0.
        1    1    3    3  502    0 -0.12043453460E+03 -0.78395516122E+03 -0.93798742448E+03  0.12283772142E+04  0.50400001928E-02 0.  1.
       -1    1    3    3    0  502  0.12043453460E+03  0.78395516122E+03 -0.31542587822E+03  0.85357111983E+03  0.50400001928E-02 0. -1.
</event>
<event>
 5   0  0.6746664E-04  0.1675841E+04  0.7818609E-02  0.8775264E-01
       -2   -1    0    0    0  501  0.00000000000E+00  0.00000000000E+00  0.59818054548E+03  0.59818054548E+03  0.25500000920E-02 0.  1.
        2   -1    0    0  501    0  0.00000000000E+00  0.00000000000E+00 -0.11737440419E+04  0.11737440419E+04  0.25500000920E-02 0. -1.
    10030    2    1    2    0    0  0.00000000000E+00  0.00000000000E+00 -0.57556349644E+03  0.17719245874E+04  0.16758411038E+04 0.  0.
        5    1    3    3  502    0 -0.58784669325E+03  0.53438951828E+03 -0.61397755720E+01  0.79447824316E+03  0.46999998093E+01 0.  1.
       -5    1    3    3    0  502  0.58784669325E+03 -0.53438951828E+03 -0.56942372087E+03  0.97744634425E+03  0.46999998093E+01 0. -1.
</event>
<event>
 5   0  0.3713516E-04  0.1558801E+04  0.7818609E-02  0.8846266E-01
       -1   -1    0    0    0  501  0.00000000000E+00  0.00000000000E+00  0.81006251237E+03  0.81006251238E+03  0.50400001928E-02 0. -1.
        1   -1    0    0  501    0  0.00000000000E+00  0.00000000000E+00 -0.74989876095E+03  0.74989876097E+03  0.50400001928E-02 0.  1.
    10030    2    1    2    0    0  0.00000000000E+00  0.00000000000E+00  0.60163751420E+02  0.15599612734E+04  0.15588006599E+04 0.  0.
        5    1    3    3  502    0  0.72478444029E+03  0.20430518656E+03  0.23120337461E+03  0.78773738299E+03  0.46999998093E+01 0. -1.
       -5    1    3    3    0  502 -0.72478444029E+03 -0.20430518656E+03 -0.17103962319E+03  0.77222389036E+03  0.46999998093E+01 0.  1.
</event>
<event>
 5   0  0.7242144E-04  0.1688601E+04  0.7818609E-02  0.8767892E-01
        2   -1    0    0  501    0  0.00000000000E+00  0.00000000000E+00  0.87189134012E+03  0.87189134013E+03  0.25500000920E-02 0.  1.
       -2   -1    0    0    0  501  0.00000000000E+00  0.00000000000E+00 -0.81758321654E+03  0.81758321654E+03  0.25500000920E-02 0. -1.
    10030    2    1    2    0    0  0.00000000000E+00  0.00000000000E+00  0.54308123585E+02  0.16894745567E+04  0.16886014643E+04 0.  0.
        3    1    3    3  502    0  0.20731694295E+03  0.47495891298E+03  0.69404009317E+03  0.86617431559E+03  0.10100000352E+00 0.  1.
       -3    1    3    3    0  502 -0.20731694295E+03 -0.47495891298E+03 -0.63973196959E+03  0.82330024108E+03  0.10100000352E+00 0. -1.
</event>
<event>
 5   0  0.6746664E-04  0.1664218E+04  0.7818609E-02  0.8782040E-01
        2   -1    0    0  501    0  0.00000000000E+00  0.00000000000E+00  0.83057388944E+03  0.83057388944E+03  0.25500000920E-02 0. -1.
       -2   -1    0    0    0  501  0.00000000000E+00  0.00000000000E+00 -0.83364671695E+03  0.83364671696E+03  0.25500000920E-02 0.  1.
    10030    2    1    2    0    0  0.00000000000E+00  0.00000000000E+00 -0.30728275172E+01  0.16642206064E+04  0.16642177696E+04 0.  0.
        5    1    3    3  502    0 -0.69902638535E+03 -0.30619957306E+02  0.44880604298E+03  0.83127878802E+03  0.46999998093E+01 0. -1.
       -5    1    3    3    0  502  0.69902638535E+03  0.30619957306E+02 -0.45187887050E+03  0.83294181838E+03  0.46999998093E+01 0.  1.
</event>
<event>
 5   0  0.3803253E-04  0.1695997E+04  0.7818609E-02  0.8763651E-01
       -1   -1    0    0    0  501  0.00000000000E+00  0.00000000000E+00  0.52376018784E+03  0.52376018787E+03  0.50400001928E-02 0. -1.
        1   -1    0    0  501    0  0.00000000000E+00  0.00000000000E+00 -0.13729586572E+04  0.13729586572E+04  0.50400001928E-02 0.  1.
    10030    2    1    2    0    0  0.00000000000E+00  0.00000000000E+00 -0.84919846931E+03  0.18967188450E+04  0.16959965616E+04 0.  0.
        4    1    3    3  502    0  0.45906121642E+03  0.56519065342E+03 -0.91069185152E+03  0.11659926829E+04  0.12699999809E+01 0.  1.
       -4    1    3    3    0  502 -0.45906121642E+03 -0.56519065342E+03  0.61493382209E+02  0.73072616218E+03  0.12699999809E+01 0. -1.
</event>
<event>
 5   0  0.7242144E-04  0.1729308E+04  0.7818609E-02  0.8744823E-01
        2   -1    0    0  501    0  0.00000000000E+00  0.00000000000E+00  0.19818024332E+04  0.19818024332E+04  0.25500000920E-02 0. -1.
       -2   -1    0    0    0  501  0.00000000000E+00  0.00000000000E+00 -0.37724583120E+03  0.37724583120E+03  0.25500000920E-02 0.  1.
    10030    2    1    2    0    0  0.00000000000E+00  0.00000000000E+00  0.16045566020E+04  0.23590482644E+04  0.17293081925E+04 0.  0.
        3    1    3    3  502    0  0.29145785700E+02 -0.85831641835E+03  0.66538496966E+03  0.10864132358E+04  0.10100000352E+00 0.  1.
       -3    1    3    3    0  502 -0.29145785700E+02  0.85831641835E+03  0.93917163230E+03  0.12726350286E+04  0.10100000352E+00 0. -1.
</event>
<event>
 5   0  0.7025426E-04  0.1718693E+04  0.7818609E-02  0.8750774E-01
        2   -1    0    0  501    0  0.00000000000E+00  0.00000000000E+00  0.13060453983E+04  0.13060453983E+04  0.25500000920E-02 0. -1.
       -2   -1    0    0    0  501  0.00000000000E+00  0.00000000000E+00 -0.56542953621E+03  0.56542953621E+03  0.25500000920E-02 0.  1.
    10030    2    1    2    0    0  0.00000000000E+00  0.00000000000E+00  0.74061586206E+03  0.18714749345E+04  0.17186932755E+04 0.  0.
        2    1    3    3  502    0 -0.71847111219E+03 -0.46964146803E+03  0.32524302271E+03  0.91790351964E+03  0.25500000920E-02 0.  1.
       -2    1    3    3    0  502  0.71847111219E+03  0.46964146803E+03  0.41537283935E+03  0.95357141485E+03  0.25500000920E-02 0. -1.
</event>
<event>
 5   0  0.7049044E-04  0.1348707E+04  0.7818609E-02  0.8991807E-01
       -2   -1    0    0    0  501  0.00000000000E+00  0.00000000000E+00  0.29571103331E+03  0.29571103332E+03  0.25500000920E-02 0.  1.
        2   -1    0    0  501    0  0.00000000000E+00  0.00000000000E+00 -0.15378279546E+04  0.15378279546E+04  0.25500000920E-02 0. -1.
    10030    2    1    2    0    0  0.00000000000E+00  0.00000000000E+00 -0.12421169213E+04  0.18335389879E+04  0.13487070750E+04 0.  0.
        4    1    3    3  502    0 -0.41397283789E+03 -0.48302214590E+03 -0.92525135447E+03  0.11228426363E+04  0.12699999809E+01 0. -1.
       -4    1    3    3    0  502  0.41397283789E+03  0.48302214590E+03 -0.31686556684E+03  0.71069635168E+03  0.12699999809E+01 0.  1.
</event>
<event>
 5   0  0.7242144E-04  0.1258606E+04  0.7818609E-02  0.9063051E-01
       -2   -1    0    0    0  501  0.00000000000E+00  0.00000000000E+00  0.69141983066E+03  0.69141983066E+03  0.25500000920E-02 0.  1.
        2   -1    0    0  501    0  0.00000000000E+00  0.00000000000E+00 -0.57276661271E+03  0.57276661272E+03  0.25500000920E-02 0. -1.
    10030    2    1    2    0    0  0.00000000000E+00  0.00000000000E+00  0.11865321794E+03  0.12641864434E+04  0.12586058865E+04 0.  0.
        3    1    3    3  502    0 -0.26452692999E+03 -0.44856433957E+02  0.63109181735E+03  0.68575760184E+03  0.10100000352E+00 0.  1.
       -3    1    3    3    0  502  0.26452692999E+03  0.44856433957E+02 -0.51243859941E+03  0.57842884154E+03  0.10100000352E+00 0. -1.
</event>
<event>
 5   0  0.7233728E-04  0.1672129E+04  0.7818609E-02  0.8777422E-01
        2   -1    0    0  501    0  0.00000000000E+00  0.00000000000E+00  0.58969861446E+03  0.58969861447E+03  0.25500000920E-02 0.  1.
       -2   -1    0    0    0  501  0.00000000000E+00  0.00000000000E+00 -0.11853574613E+04  0.11853574613E+04  0.25500000920E-02 0. -1.
    10030    2    1    2    0    0  0.00000000000E+00  0.00000000000E+00 -0.59565884685E+03  0.17750560758E+04  0.16721287661E+04 0.  0.
        1    1    3    3  502    0 -0.45561743108E+03  0.15781529684E+03  0.42722930152E+03  0.64421874198E+03  0.50400001928E-02 0.  1.
       -1    1    3    3    0  502  0.45561743108E+03 -0.15781529684E+03 -0.10228881484E+04  0.11308373338E+04  0.50400001928E-02 0. -1.
</event>
<event>
 5   0  0.7233728E-04  0.1605347E+04  0.7818609E-02  0.8817270E-01
        2   -1    0    0  501    0  0.00000000000E+00  0.00000000000E+00  0.86130281969E+03  0.86130281969E+03  0.25500000920E-02 0.  1.
       -2   -1    0    0    0  501  0.00000000000E+00  0.00000000000E+00 -0.74803518508E+03  0.74803518508E+03  0.25500000920E-02 0. -1.
    10030    2    1    2    0    0  0.00000000000E+00  0.00000000000E+00  0.11326763461E+03  0.16093380048E+04  0.16053470829E+04 0.  0.
        1    1    3    3  502    0 -0.39673212772E+03 -0.39563886854E+03  0.63283075748E+03  0.84522261157E+03  0.50400001928E-02 0.  1.
       -1    1    3    3    0  502  0.39673212772E+03  0.39563886854E+03 -0.51956312287E+03  0.76411539321E+03  0.50400001928E-02 0. -1.
</event>
<event>
 5   0  0.3723500E-04  0.1667355E+04  0.7818609E-02  0.8780205E-01
        1   -1    0    0  501    0  0.00000000000E+00  0.00000000000E+00  0.92599192884E+03  0.92599192885E+03  0.50400001928E-02 0.  1.
       -1   -1    0    0    0  501  0.00000000000E+00  0.00000000000E+00 -0.75056572047E+03  0.75056572049E+03  0.50400001928E-02 0. -1.
    10030    2    1    2    0    0  0.00000000000E+00  0.00000000000E+00  0.17542620837E+03  0.16765576493E+04  0.16673545505E+04 0.  0.
        1    1    3    3  502    0  0.46549947402E+03  0.17022280587E+03 -0.58632428162E+03  0.76775108413E+03  0.50400001928E-02 0. -1.
       -1    1    3    3    0  502 -0.46549947402E+03 -0.17022280587E+03  0.76175048999E+03  0.90880656521E+03  0.50400001928E-02 0.  1.
</event>
<event>
 5   0  0.3915701E-04  0.1673657E+04  0.7818609E-02  0.8776533E-01
        1   -1    0    0  501    0  0.00000000000E+00  0.00000000000E+00  0.17660477122E+04  0.17660477122E+04  0.50400001928E-02 0.  1.
       -1   -1    0    0    0  501  0.00000000000E+00  0.00000000000E+00 -0.39652485067E+03  0.39652485070E+03  0.50400001928E-02 0. -1.
    10030    2    1    2    0    0  0.00000000000E+00  0.00000000000E+00  0.13695228615E+04  0.21625725629E+04  0.16736568410E+04 0.  0.
        2    1    3    3  502    0  0.46627361164E+03 -0.68188306235E+03  0.85766587400E+03  0.11907839195E+04  0.25500000920E-02 0.  1.
       -2    1    3    3    0  502 -0.46627361164E+03  0.68188306235E+03  0.51185698750E+03  0.97178864333E+03  0.25500000920E-02 0. -1.
</event>
<event>
 5   0  0.7233728E-04  0.1570842E+04  0.7818609E-02  0.8838664E-01
        2   -1    0    0  501    0  0.00000000000E+00  0.00000000000E+00  0.21180909337E+04  0.21180909338E+04  0.25500000920E-02 0. -1.
       -2   -1    0    0    0  501  0.00000000000E+00  0.00000000000E+00 -0.29124628010E+03  0.29124628011E+03  0.25500000920E-02 0.  1.
    10030    2    1    2    0    0  0.00000000000E+00  0.00000000000E+00  0.18268446537E+04  0.24093372139E+04  0.15708419467E+04 0.  0.
        1    1    3    3  502    0  0.49428867783E+03 -0.30280068057E+03  0.17262956003E+04  0.18210178607E+04  0.50400001928E-02 0. -1.
       -1    1    3    3    0  502 -0.49428867783E+03  0.30280068057E+03  0.10054905334E+03  0.58831935319E+03  0.50400001928E-02 0.  1.
</event>
<event>
 5   0  0.3635143E-04  0.1675908E+04  0.7818609E-02  0.8775225E-01
        1   -1    0    0  501    0  0.00000000000E+00  0.00000000000E+00  0.13720863055E+04  0.13720863055E+04  0.50400001928E-02 0. -1.
       -1   -1    0    0    0  501  0.00000000000E+00  0.00000000000E+00 -0.51175155489E+03  0.51175155491E+03  0.50400001928E-02 0.  1.
    10030    2    1    2    0    0  0.00000000000E+00  0.00000000000E+00  0.86033475058E+03  0.18838378604E+04  0.16759084704E+04 0.  0.
        3    1    3    3  502    0  0.26262215197E+03 -0.79535504723E+03  0.40246768426E+03  0.92926868716E+03  0.10100000352E+00 0.  1.
       -3    1    3    3    0  502 -0.26262215197E+03  0.79535504723E+03  0.45786706632E+03  0.95456917323E+03  0.10100000352E+00 0. -1.
</event>
<event>
 5   0  0.6746664E-04  0.1697451E+04  0.7818609E-02  0.8762820E-01
        2   -1    0    0  501    0  0.00000000000E+00  0.00000000000E+00  0.62881183252E+03  0.62881183252E+03  0.25500000920E-02 0.  1.
       -2   -1    0    0    0  501  0.00000000000E+00  0.00000000000E+00 -0.11455488327E+04  0.11455488327E+04  0.25500000920E-02 0. -1.
    10030    2    1    2    0    0  0.00000000000E+00  0.00000000000E+00 -0.51673700014E+03  0.17743606652E+04  0.16974506305E+04 0.  0.
        5    1    3    3  502    0  0.64165275666E+03  0.20343090094E+03  0.28197663844E+03  0.72981868037E+03  0.46999998093E+01 0.  1.
       -5    1    3    3    0  502 -0.64165275666E+03 -0.20343090094E+03 -0.79871363858E+03  0.10445419848E+04  0.46999998093E+01 0. -1.
</event>
<event>
 5   0  0.3635143E-04  0.1723294E+04  0.7818609E-02  0.8748189E-01
       -1   -1    0    0    0  501  0.00000000000E+00  0.00000000000E+00  0.37685348932E+03  0.37685348935E+03  0.50400001928E-02 0. -1.
        1   -1    0    0  501    0  0.00000000000E+00  0.00000000000E+00 -0.19700905226E+04  0.19700905226E+04  0.50400001928E-02 0.  1.
    10030    2    1    2    0    0  0.00000000000E+00  0.00000000000E+00 -0.15932370333E+04  0.23469440120E+04  0.17232939248E+04 0.  0.
        3    1    3    3  502    0  0.50871457521E+03  0.67443710164E+03 -0.10276575749E+04  0.13303142578E+04  0.10100000352E+00 0.  1.
       -3    1    3    3    0  502 -0.50871457521E+03 -0.67443710164E+03 -0.56557945840E+03  0.10166297542E+04  0.10100000352E+00 0. -1.
</event>
<event>
 5   0  0.7025426E-04  0.1133972E+04  0.7818609E-02  0.9172698E-01
       -2   -1    0    0    0  501  0.00000000000E+00  0.00000000000E+00  0.25628665948E+03  0.25628665949E+03  0.25500000920E-02 0. -1.
        2   -1    0    0  501    0  0.00000000000E+00  0.00000000000E+00 -0.12543506794E+04  0.12543506794E+04  0.25500000920E-02 0.  1.
    10030    2    1    2    0    0  0.00000000000E+00  0.00000000000E+00 -0.99806401989E+03  0.15106373389E+04  0.11339723902E+04 0.  0.
        2    1    3    3  502    0 -0.11278819213E+03  0.31492107499E+03  0.11082697382E+03  0.35239051901E+03  0.25500000920E-02 0. -1.
       -2    1    3    3    0  502  0.11278819213E+03 -0.31492107499E+03 -0.11088909937E+04  0.11582468199E+04  0.25500000920E-02 0.  1.
</event>
<event>
 5   0  0.3803253E-04  0.1760137E+04  0.7818609E-02  0.8727790E-01
       -1   -1    0    0    0  501  0.00000000000E+00  0.00000000000E+00  0.19565353169E+04  0.19565353169E+04  0.50400001928E-02 0.  1.
        1   -1    0    0  501    0  0.00000000000E+00  0.00000000000E+00 -0.39586319627E+03  0.39586319630E+03  0.50400001928E-02 0. -1.
    10030    2    1    2    0    0  0.00000000000E+00  0.00000000000E+00  0.15606721207E+04  0.23523985132E+04  0.17601367267E+04 0.  0.
        4    1    3    3  502    0  0.17198908342E+03 -0.59031036119E+03  0.16218684399E+04  0.17345043720E+04  0.12699999809E+01 0.  1.
       -4    1    3    3    0  502 -0.17198908342E+03  0.59031036119E+03 -0.61196319239E+02  0.61789414120E+03  0.12699999809E+01 0. -1.
</event>
<event>
 5   0  0.3713516E-04  0.1734781E+04  0.7818609E-02  0.8741772E-01
        1   -1    0    0  501    0  0.00000000000E+00  0.00000000000E+00  0.84426169106E+03  0.84426169107E+03  0.50400001928E-02 0.  1.
       -1   -1    0    0    0  501  0.00000000000E+00  0.00000000000E+00 -0.89115297710E+03  0.89115297711E+03  0.50400001928E-02 0. -1.
    10030    2    1    2    0    0  0.00000000000E+00  0.00000000000E+00 -0.46891286036E+02  0.17354146682E+04  0.17347810461E+04 0.  0.
        5    1    3    3  502    0 -0.28451740033E+03  0.45699249062E+03  0.65691447797E+03  0.84932385398E+03  0.46999998093E+01 0.  1.
       -5    1    3    3    0  502  0.28451740033E+03 -0.45699249062E+03 -0.70380576400E+03  0.88609081421E+03  0.46999998093E+01 0. -1.
</event>
<event>
 5   0  0.3723500E-04  0.1457539E+04  0.7818609E-02  0.8913191E-01
        1   -1    0    0  501    0  0.00000000000E+00  0.00000000000E+00  0.46994312736E+03  0.46994312738E+03  0.50400001928E-02 0.  1.
       -1   -1    0    0    0  501  0.00000000000E+00  0.00000000000E+00 -0.11301470769E+04  0.11301470769E+04  0.50400001928E-02 0. -1.
    10030    2    1    2    0    0  0.00000000000E+00  0.00000000000E+00 -0.66020394955E+03  0.16000902043E+04  0.14575388183E+04 0.  0.
        1    1    3    3  502    0 -0.91190303186E+02 -0.71802237792E+03 -0.42346715140E+03  0.83856796679E+03  0.50400001928E-02 0. -1.
       -1    1    3    3    0  502  0.91190303186E+02  0.71802237792E+03 -0.23673679815E+03  0.76152223751E+03  0.50400001928E-02 0.  1.
</event>
<event>
 5   0  0.3915701E-04  0.1724069E+04  0.7818609E-02  0.8747755E-01
       -1   -1    0    0    0  501  0.00000000000E+00  0.00000000000E+00  0.94354366199E+03  0.94354366201E+03  0.50400001928E-02 0. -1.
        1   -1    0    0  501    0  0.00000000000E+00  0.00000000000E+00 -0.78756629051E+03  0.78756629053E+03  0.50400001928E-02 0.  1.
    10030    2    1    2    0    0  0.00000000000E+00  0.00000000000E+00  0.15597737148E+03  0.17311099525E+04  0.17240686551E+04 0.  0.
        2    1    3    3  502    0  0.73511564969E+03 -0.41713860417E+03 -0.92124465974E+02  0.85022735238E+03  0.25500000920E-02 0. -1.
       -2    1    3    3    0  502 -0.73511564969E+03  0.41713860417E+03  0.24810183745E+03  0.88088260016E+03  0.25500000920E-02 0.  1.
</event>
<event>
 5   0  0.7242144E-04  0.1650526E+04  0.7818609E-02  0.8790095E-01
        2   -1    0    0  501    0  0.00000000000E+00  0.00000000000E+00  0.59524299675E+03  0.59524299676E+03  0.25500000920E-02 0. -1.
       -2   -1    0    0    0  501  0.00000000000E+00  0.00000000000E+00 -0.11441697470E+04  0.11441697470E+04  0.25500000920E-02 0.  1.
    10030    2    1    2    0    0  0.00000000000E+00  0.00000000000E+00 -0.54892675026E+03  0.17394127438E+04  0.16505260119E+04 0.  0.
        3    1    3    3  502    0 -0.20523431581E+03  0.68811579842E+03  0.15417729155E+03  0.73443524142E+03  0.10100000352E+00 0.  1.
       -3    1    3    3    0  502  0.20523431581E+03 -0.68811579842E+03 -0.70310404181E+03  0.10049775024E+04  0.10100000352E+00 0. -1.
</event>
<event>
 5   0  0.7233728E-04  0.1678994E+04  0.7818609E-02  0.8773436E-01
        2   -1    0    0  501    0  0.00000000000E+00  0.00000000000E+00  0.79017809810E+03  0.79017809810E+03  0.25500000920E-02 0. -1.
       -2   -1    0    0    0  501  0.00000000000E+00  0.00000000000E+00 -0.89189440900E+03  0.89189440901E+03  0.25500000920E-02 0.  1.
    10030    2    1    2    0    0  0.00000000000E+00  0.00000000000E+00 -0.10171631090E+03  0.16820725071E+04  0.16789942559E+04 0.  0.
        1    1    3    3  502    0 -0.72606843515E+03  0.12453846729E+03  0.35245939446E+03  0.81664730889E+03  0.50400001928E-02 0. -1.
       -1    1    3    3    0  502  0.72606843515E+03 -0.12453846729E+03 -0.45417570536E+03  0.86542519822E+03  0.50400001928E-02 0.  1.
</event>
<event>
 5   0  0.3915701E-04  0.1751094E+04  0.7818609E-02  0.8732748E-01
        1   -1    0    0  501    0  0.00000000000E+00  0.00000000000E+00  0.69604688095E+03  0.69604688097E+03  0.50400001928E-02 0. -1.
       -1   -1    0    0    0  501  0.00000000000E+00  0.00000000000E+00 -0.11013374001E+04  0.11013374001E+04  0.50400001928E-02 0.  1.
    10030    2    1    2    0    0  0.00000000000E+00  0.00000000000E+00 -0.40529051914E+03  0.17973842811E+04  0.17510939007E+04 0.  0.
        2    1    3    3  502    0 -0.76252587960E+03  0.42648123821E+03 -0.14412496587E+03  0.88549645364E+03  0.25500000920E-02 0.  1.
       -2    1    3    3    0  502  0.76252587960E+03 -0.42648123821E+03 -0.26116555327E+03  0.91188782744E+03  0.25500000920E-02 0. -1.
</event>
<event>
 5   0  0.3803253E-04  0.1302448E+04  0.7818609E-02  0.9027626E-01
        1   -1    0    0  501    0  0.00000000000E+00  0.00000000000E+00  0.78457007975E+03  0.78457007977E+03  0.50400001928E-02 0. -1.
       -1   -1    0    0    0  501  0.00000000000E+00  0.00000000000E+00 -0.54054187447E+03  0.54054187450E+03  0.50400001928E-02 0.  1.
    10030    2    1    2    0    0  0.00000000000E+00  0.00000000000E+00  0.24402820528E+03  0.13251119543E+04  0.13024484352E+04 0.  0.
        4    1    3    3  502    0  0.49111929374E+03  0.22245899662E+03  0.49361642316E+03  0.73098902316E+03  0.12699999809E+01 0. -1.
       -4    1    3    3    0  502 -0.49111929374E+03 -0.22245899662E+03 -0.24958821788E+03  0.59412293111E+03  0.12699999809E+01 0.  1.
</event>
<event>
 5   0  0.3635143E-04  0.1762086E+04  0.7818609E-02  0.8726725E-01
       -1   -1    0    0    0  501  0.00000000000E+00  0.00000000000E+00  0.55067197705E+03  0.55067197708E+03  0.50400001928E-02 0.  1.
        1   -1    0    0  501    0  0.00000000000E+00  0.00000000000E+00 -0.14096181201E+04  0.14096181201E+04  0.50400001928E-02 0. -1.
    10030    2    1    2    0    0  0.00000000000E+00  0.00000000000E+00 -0.85894614305E+03  0.19602900972E+04  0.17620864872E+04 0.  0.
        3    1    3    3  502    0  0.64550458035E+03 -0.59421055504E+03 -0.33995563364E+03  0.94092092655E+03  0.10100000352E+00 0.  1.
       -3    1    3    3    0  502 -0.64550458035E+03  0.59421055504E+03 -0.51899050941E+03  0.10193691706E+04  0.10100000352E+00 0. -1.
</event>
<event>
 5   0  0.3803253E-04  0.1719195E+04  0.7818609E-02  0.8750492E-01
        1   -1    0    0  501    0  0.00000000000E+00  0.00000000000E+00  0.12652035869E+04  0.12652035869E+04  0.50400001928E-02 0.  1.
       -1   -1    0    0    0  501  0.00000000000E+00  0.00000000000E+00 -0.58402269291E+03  0.58402269293E+03  0.50400001928E-02 0. -1.
    10030    2    1    2    0    0  0.00000000000E+00  0.00000000000E+00  0.68118089395E+03  0.18492262798E+04  0.17191947021E+04 0.  0.
        4    1    3    3  502    0 -0.44595213687E+03 -0.68972118419E+03  0.67800010714E+02  0.82412806933E+03  0.12699999809E+01 0. -1.
       -4    1    3    3    0  502  0.44595213687E+03  0.68972118419E+03  0.61338088324E+03  0.10250982105E+04  0.12699999809E+01 0.  1.
</event>
<event>
 5   0  0.7025426E-04  0.1669894E+04  0.7818609E-02  0.8778723E-01
       -2   -1    0    0    0  501  0.00000000000E+00  0.00000000000E+00  0.77670720091E+03  0.77670720091E+03  0.25500000920E-02 0.  1.
        2   -1    0    0  501    0  0.00000000000E+00  0.00000000000E+00 -0.89755408595E+03  0.89755408596E+03  0.25500000920E-02 0. -1.
    10030    2    1    2    0    0  0.00000000000E+00  0.00000000000E+00 -0.12084688504E+03  0.16742612869E+04  0.16698942742E+04 0.  0.
        2    1    3    3  502    0 -0.53382882966E+03 -0.61956896771E+03 -0.22908285003E+03  0.84930434905E+03  0.25500000920E-02 0. -1.
       -2    1    3    3    0  502  0.53382882966E+03  0.61956896771E+03  0.10823596499E+03  0.82495693782E+03  0.25500000920E-02 0.  1.
</event>
<event>
 5   0  0.7233728E-04  0.1765262E+04  0.7818609E-02  0.8724994E-01
        2   -1    0    0  501    0  0.00000000000E+00  0.00000000000E+00  0.10414012053E+04  0.10414012053E+04  0.25500000920E-02 0.  1.
       -2   -1    0    0    0  501  0.00000000000E+00  0.00000000000E+00 -0.74806648920E+03  0.74806648920E+03  0.25500000920E-02 0. -1.
    10030    2    1    2    0    0  0.00000000000E+00  0.00000000000E+00  0.29333471611E+03  0.17894676945E+04  0.17652618429E+04 0.  0.
        1    1    3    3  502    0  0.21657376008E+03  0.22619506527E+03 -0.68985659515E+03  0.75760842326E+03  0.50400001928E-02 0. -1.
       -1    1    3    3    0  502 -0.21657376008E+03 -0.22619506527E+03  0.98319131125E+03  0.10318592712E+04  0.50400001928E-02 0.  1.
</event>
<event>
 5   0  0.3723500E-04  0.1668307E+04  0.7818609E-02  0.8779649E-01
        1   -1    0    0  501    0  0.00000000000E+00  0.00000000000E+00  0.13533028448E+04  0.13533028449E+04  0.50400001928E-02 0. -1.
       -1   -1    0    0    0  501  0.00000000000E+00  0.00000000000E+00 -0.51415839712E+03  0.51415839714E+03  0.50400001928E-02 0.  1.
    10030    2    1    2    0    0  0.00000000000E+00  0.00000000000E+00  0.83914444773E+03  0.18674612420E+04  0.16683069520E+04 0.  0.
        1    1    3    3  502    0  0.85992388187E+01  0.46423060357E+03  0.11952822170E+04  0.12822962132E+04  0.50400001928E-02 0. -1.
       -1    1    3    3    0  502 -0.85992388187E+01 -0.46423060357E+03 -0.35613776924E+03  0.58516502878E+03  0.50400001928E-02 0.  1.
</event>
<event>
 5   0  0.7025426E-04  0.1709947E+04  0.7818609E-02  0.8755712E-01
        2   -1    0    0  501    0  0.00000000000E+00  0.00000000000E+00  0.13907285336E+04  0.13907285337E+04  0.25500000920E-02 0.  1.
       -2   -1    0    0    0  501  0.00000000000E+00  0.00000000000E+00 -0.52560897235E+03  0.52560897236E+03  0.25500000920E-02 0. -1.
    10030    2    1    2    0    0  0.00000000000E+00  0.00000000000E+00  0.86511956130E+03  0.19163375060E+04  0.17099466605E+04 0.  0.
        2    1    3    3  502    0  0.54675940425E+03 -0.23239179798E+03  0.11216105018E+04  0.12692367438E+04  0.25500000920E-02 0.  1.
       -2    1    3    3    0  502 -0.54675940425E+03  0.23239179798E+03 -0.25649094054E+03  0.64710076224E+03  0.25500000920E-02 0. -1.
</event>
<event>
 5   0  0.3635143E-04  0.1802739E+04  0.7818609E-02  0.8704844E-01
       -1   -1    0    0    0  501  0.00000000000E+00  0.00000000000E+00  0.77345326499E+03  0.77345326501E+03  0.50400001928E-02 0.  1.
        1   -1    0    0  501    0  0.00000000000E+00  0.00000000000E+00 -0.10504407336E+04  0.10504407336E+04  0.50400001928E-02 0. -1.
    10030    2    1    2    0    0  0.00000000000E+00  0.00000000000E+00 -0.27698746863E+03  0.18238939986E+04  0.18027388220E+04 0.  0.
        3    1    3    3  502    0  0.38931562782E+03 -0.24427450491E+03  0.64599578381E+03  0.79280972163E+03  0.10100000352E+00 0.  1.
       -3    1    3    3    0  502 -0.38931562782E+03  0.24427450491E+03 -0.92298325244E+03  0.10310842770E+04  0.10100000352E+00 0. -1.
</event>
<event>
 5   0  0.7233728E-04  0.1523298E+04  0.7818609E-02  0.8869106E-01
        2   -1    0    0  501    0  0.00000000000E+00  0.00000000000E+00  0.76076198445E+03  0.76076198446E+03  0.25500000920E-02 0. -1.
       -2   -1    0    0    0  501  0.00000000000E+00  0.00000000000E+00 -0.76253704222E+03  0.76253704222E+03  0.25500000920E-02 0.  1.
    10030    2    1    2    0    0  0.00000000000E+00  0.00000000000E+00 -0.17750577656E+01  0.15232990267E+04  0.15232979925E+04 0.  0.
        1    1    3    3  502    0  0.21515415823E+03  0.72895819421E+03  0.48486918311E+02  0.76159197868E+03  0.50400001928E-02 0. -1.
       -1    1    3    3    0  502 -0.21515415823E+03 -0.72895819421E+03 -0.50261976076E+02  0.76170704800E+03  0.50400001928E-02 0.  1.
</event>
<event>
 5   0  0.3635143E-04  0.1719962E+04  0.7818609E-02  0.8750061E-01
       -1   -1    0    0    0  501  0.00000000000E+00  0.00000000000E+00  0.96464198661E+03  0.96464198663E+03  0.50400001928E-02 0. -1.
        1   -1    0    0  501    0  0.00000000000E+00  0.00000000000E+00 -0.76667543443E+03  0.76667543444E+03  0.50400001928E-02 0.  1.
    10030    2    1    2    0    0  0.00000000000E+00  0.00000000000E+00  0.19796655219E+03  0.17313174211E+04  0.17199619928E+04 0.  0.
        3    1    3    3  502    0 -0.16156510450E+03  0.76716642832E+03 -0.25678998265E+03  0.82497801008E+03  0.10100000352E+00 0.  1.
       -3    1    3    3    0  502  0.16156510450E+03 -0.76716642832E+03  0.45475653484E+03  0.90633941099E+03  0.10100000352E+00 0. -1.
</event>
<event>
 5   0  0.6746664E-04  0.1750088E+04  0.7818609E-02  0.8733302E-01
       -2   -1    0    0    0  501  0.00000000000E+00  0.00000000000E+00  0.12126360117E+04  0.12126360117E+04  0.25500000920E-02 0.  1.
        2   -1    0    0  501    0  0.00000000000E+00  0.00000000000E+00 -0.63143575051E+03  0.63143575052E+03  0.25500000920E-02 0. -1.
    10030    2    1    2    0    0  0.00000000000E+00  0.00000000000E+00  0.58120026114E+03  0.18440717622E+04  0.17500876894E+04 0.  0.
        5    1    3    3  502    0  0.31050261658E+03  0.56571980643E+03  0.91329182713E+03  0.11182910291E+04  0.46999998093E+01 0.  1.
       -5    1    3    3    0  502 -0.31050261658E+03 -0.56571980643E+03 -0.33209156599E+03  0.72578073307E+03  0.46999998093E+01 0. -1.
</event>
<event>
 5   0  0.7233728E-04  0.1745455E+04  0.7818609E-02  0.8735856E-01
       -2   -1    0    0    0  501  0.00000000000E+00  0.00000000000E+00  0.82874907256E+03  0.82874907256E+03  0.25500000920E-02 0.  1.
        2   -1    0    0  501    0  0.00000000000E+00  0.00000000000E+00 -0.91903940630E+03  0.91903940630E+03  0.25500000920E-02 0. -1.
    10030    2    1    2    0    0  0.00000000000E+00  0.00000000000E+00 -0.90290333741E+02  0.17477884789E+04  0.17454547323E+04 0.  0.
        1    1    3    3  502    0  0.77010472626E+03 -0.41031086421E+03 -0.29737557390E+02  0.87309828602E+03  0.50400001928E-02 0. -1.
       -1    1    3    3    0  502 -0.77010472626E+03  0.41031086421E+03 -0.60552776351E+02  0.87469019284E+03  0.50400001928E-02 0.  1.
</event>
<event>
 5   0  0.3915701E-04  0.1424034E+04  0.7818609E-02  0.8936603E-01
       -1   -1    0    0    0  501  0.00000000000E+00  0.00000000000E+00  0.29535722358E+03  0.29535722362E+03  0.50400001928E-02 0. -1.
        1   -1    0    0  501    0  0.00000000000E+00  0.00000000000E+00 -0.17164579284E+04  0.17164579284E+04  0.50400001928E-02 0.  1.
    10030    2    1    2    0    0  0.00000000000E+00  0.00000000000E+00 -0.14211007049E+04  0.20118151521E+04  0.14240340560E+04 0.  0.
        2    1    3    3  502    0  0.24603085430E+03 -0.51498437078E+03 -0.10912664246E+03  0.58107547489E+03  0.25500000920E-02 0. -1.
       -2    1    3    3    0  502 -0.24603085430E+03  0.51498437078E+03 -0.13119740624E+04  0.14307396772E+04  0.25500000920E-02 0.  1.
</event>
<event>
 5   0  0.7025426E-04  0.1387202E+04  0.7818609E-02  0.8963135E-01
        2   -1    0    0  501    0  0.00000000000E+00  0.00000000000E+00  0.40185796483E+03  0.40185796484E+03  0.25500000920E-02 0.  1.
       -2   -1    0    0    0  501  0.00000000000E+00  0.00000000000E+00 -0.11971449849E+04  0.11971449849E+04  0.25500000920E-02 0. -1.
    10030    2    1    2    0    0  0.00000000000E+00  0.00000000000E+00 -0.79528702005E+03  0.15990029497E+04  0.13872018559E+04 0.  0.
        2    1    3    3  502    0 -0.15569023067E+01  0.44896447950E+03 -0.10070524735E+04  0.11025997516E+04  0.25500000920E-02 0. -1.
       -2    1    3    3    0  502  0.15569023067E+01 -0.44896447950E+03  0.21176545348E+03  0.49640319811E+03  0.25500000920E-02 0.  1.
</event>
<event>
 5   0  0.7233728E-04  0.1691906E+04  0.7818609E-02  0.8765994E-01
        2   -1    0    0  501    0  0.00000000000E+00  0.00000000000E+00  0.33642407247E+03  0.33642407248E+03  0.25500000920E-02 0. -1.
       -2   -1    0    0    0  501  0.00000000000E+00  0.00000000000E+00 -0.21271848847E+04  0.21271848847E+04  0.25500000920E-02 0.  1.
    10030    2    1    2    0    0  0.00000000000E+00  0.00000000000E+00 -0.17907608123E+04  0.24636089572E+04  0.16919056733E+04 0.  0.
        1    1    3    3  502    0  0.53273173191E+03 -0.60773188022E+03 -0.53136606740E+03  0.96720785462E+03  0.50400001928E-02 0. -1.
       -1    1    3    3    0  502 -0.53273173191E+03  0.60773188022E+03 -0.12593947449E+04  0.14964011026E+04  0.50400001928E-02 0.  1.
</event>
<event>
 5   0  0.3915701E-04  0.1751209E+04  0.7818609E-02  0.8732685E-01
        1   -1    0    0  501    0  0.00000000000E+00  0.00000000000E+00  0.74621469436E+03  0.74621469438E+03  0.50400001928E-02 0.  1.
       -1   -1    0    0    0  501  0.00000000000E+00  0.00000000000E+00 -0.10274297952E+04  0.10274297952E+04  0.50400001928E-02 0. -1.
    10030    2    1    2    0    0  0.00000000000E+00  0.00000000000E+00 -0.28121510085E+03  0.17736444896E+04  0.17512089660E+04 0.  0.
        2    1    3    3  502    0 -0.72021764882E+02 -0.32380749231E+02  0.74260094562E+03  0.74678766191E+03  0.25500000920E-02 0.  1.
       -2    1    3    3    0  502  0.72021764882E+02  0.32380749231E+02 -0.10238160465E+04  0.10268568277E+04  0.25500000920E-02 0. -1.
</event>
<event>
 5   0  0.3803253E-04  0.1686852E+04  0.7818609E-02  0.8768899E-01
        1   -1    0    0  501    0  0.00000000000E+00  0.00000000000E+00  0.63984484272E+03  0.63984484274E+03  0.50400001928E-02 0.  1.
       -1   -1    0    0    0  501  0.00000000000E+00  0.00000000000E+00 -0.11117804725E+04  0.11117804725E+04  0.50400001928E-02 0. -1.
    10030    2    1    2    0    0  0.00000000000E+00  0.00000000000E+00 -0.47193562979E+03  0.17516253153E+04  0.16868515069E+04 0.  0.
        4    1    3    3  502    0  0.35174950055E+03 -0.25033108617E+03 -0.98833949541E+03  0.10785221068E+04  0.12699999809E+01 0. -1.
       -4    1    3    3    0  502 -0.35174950055E+03  0.25033108617E+03  0.51640386562E+03  0.67310320841E+03  0.12699999809E+01 0.  1.
</event>
<event>
 5   0  0.6746664E-04  0.1688818E+04  0.7818609E-02  0.8767768E-01
       -2   -1    0    0    0  501  0.00000000000E+00  0.00000000000E+00  0.36597824161E+03  0.36597824161E+03  0.25500000920E-02 0.  1.
        2   -1    0    0  501    0  0.00000000000E+00  0.00000000000E+00 -0.19482748781E+04  0.19482748781E+04  0.25500000920E-02 0. -1.
    10030    2    1    2    0    0  0.00000000000E+00  0.00000000000E+00 -0.15822966365E+04  0.23142531198E+04  0.16888175912E+04 0.  0.
        5    1    3    3  502    0  0.35416309362E+03 -0.44738374202E+03  0.61793415399E+02  0.57395489865E+03  0.46999998093E+01 0.  1.
       -5    1    3    3    0  502 -0.35416309362E+03  0.44738374202E+03 -0.16440900519E+04  0.17402982211E+04  0.46999998093E+01 0. -1.
</event>
<event>
 5   0  0.3635143E-04  0.1847682E+04  0.7818609E-02  0.8681346E-01
        1   -1    0    0  501    0  0.00000000000E+00  0.00000000000E+00  0.14555159100E+04  0.14555159100E+04  0.50400001928E-02 0. -1.
       -1   -1    0    0    0  501  0.00000000000E+00  0.00000000000E+00 -0.58637788617E+03  0.58637788620E+03  0.50400001928E-02 0.  1.
    10030    2    1    2    0    0  0.00000000000E+00  0.00000000000E+00  0.86913802383E+03  0.20418937962E+04  0.18476821617E+04 0.  0.
        3    1    3    3  502    0 -0.69290182066E+03  0.49050551973E+03  0.83725078202E+03  0.11923495629E+04  0.10100000352E+00 0.  1.
       -3    1    3    3    0  502  0.69290182066E+03 -0.49050551973E+03  0.31887241808E+02  0.84954423331E+03  0.10100000352E+00 0. -1.
</event>
<event>
 5   0  0.3635143E-04  0.1612271E+04  0.7818609E-02  0.8813045E-01
       -1   -1    0    0    0  501  0.00000000000E+00  0.00000000000E+00  0.55396624614E+03  0.55396624616E+03  0.50400001928E-02 0. -1.
        1   -1    0    0  501    0  0.00000000000E+00  0.00000000000E+00 -0.11730939142E+04  0.11730939142E+04  0.50400001928E-02 0.  1.
    10030    2    1    2    0    0  0.00000000000E+00  0.00000000000E+00 -0.61912766809E+03  0.17270601604E+04  0.16122709848E+04 0.  0.
        3    1    3    3  502    0 -0.42245947966E+02  0.16401792014E+02  0.55260064992E+03  0.55445579391E+03  0.10100000352E+00 0. -1.
       -3    1    3    3    0  502  0.42245947966E+02 -0.16401792014E+02 -0.11717283180E+04  0.11726043665E+04  0.10100000352E+00 0.  1.
</event>
<event>
 5   0  0.7242144E-04  0.1669267E+04  0.7818609E-02  0.8779089E-01
        2   -1    0    0  501    0  0.00000000000E+00  0.00000000000E+00  0.10995217135E+04  0.10995217135E+04  0.25500000920E-02 0. -1.
       -2   -1    0    0    0  501  0.00000000000E+00  0.00000000000E+00 -0.63356020727E+03  0.63356020727E+03  0.25500000920E-02 0.  1.
    10030    2    1    2    0    0  0.00000000000E+00  0.00000000000E+00  0.46596150620E+03  0.17330819207E+04  0.16692671502E+04 0.  0.
        3    1    3    3  502    0 -0.64463021509E+03 -0.31540523161E+03 -0.20943723434E+03  0.74759115810E+03  0.10100000352E+00 0.  1.
       -3    1    3    3    0  502  0.64463021509E+03  0.31540523161E+03  0.67539874054E+03  0.98549076265E+03  0.10100000352E+00 0. -1.
</event>
<event>
 5   0  0.6746664E-04  0.1667849E+04  0.7818609E-02  0.8779917E-01
       -2   -1    0    0    0  501  0.00000000000E+00  0.00000000000E+00  0.27876587447E+03  0.27876587448E+03  0.25500000920E-02 0. -1.
        2   -1    0    0  501    0  0.00000000000E+00  0.00000000000E+00 -0.24946746713E+04  0.24946746713E+04  0.25500000920E-02 0.  1.
    10030    2    1    2    0    0  0.00000000000E+00  0.00000000000E+00 -0.22159087969E+04  0.27734405458E+04  0.16678491134E+04 0.  0.
        5    1    3    3  502    0  0.44686728312E+03  0.29593027313E+03 -0.45602818756E+02  0.53792825019E+03  0.46999998093E+01 0. -1.
       -5    1    3    3    0  502 -0.44686728312E+03 -0.29593027313E+03 -0.21703059781E+04  0.22355122956E+04  0.46999998093E+01 0.  1.
</event>
<event>
 5   0  0.3713516E-04  0.1751944E+04  0.7818609E-02  0.8732281E-01
        1   -1    0    0  501    0  0.00000000000E+00  0.00000000000E+00  0.63901335756E+03  0.63901335758E+03  0.50400001928E-02 0. -1.
       -1   -1    0    0    0  501  0.00000000000E+00  0.00000000000E+00 -0.12007999283E+04  0.12007999283E+04  0.50400001928E-02 0.  1.
    10030    2    1    2    0    0  0.00000000000E+00  0.00000000000E+00 -0.56178657070E+03  0.18398132858E+04  0.17519442844E+04 0.  0.
        5    1    3    3  502    0  0.51093606955E+03  0.42021142628E+03  0.32207484165E+03  0.73579046173E+03  0.46999998093E+01 0. -1.
       -5    1    3    3    0  502 -0.51093606955E+03 -0.42021142628E+03 -0.88386141235E+03  0.11040228241E+04  0.46999998093E+01 0.  1.
</event>
<event>
 5   0  0.3915701E-04  0.1695983E+04  0.7818609E-02  0.8763659E-01
        1   -1    0    0  501    0  0.00000000000E+00  0.00000000000E+00  0.13254562603E+04  0.13254562604E+04  0.50400001928E-02 0.  1.
       -1   -1    0    0    0  501  0.00000000000E+00  0.00000000000E+00 -0.54252218117E+03  0.54252218119E+03  0.50400001928E-02 0. -1.
    10030    2    1    2    0    0  0.00000000000E+00  0.00000000000E+00  0.78293407918E+03  0.18679784415E+04  0.16959828082E+04 0.  0.
        2    1    3    3  502    0  0.51814209164E+03 -0.47675813133E+03  0.91195909568E+03  0.11521453620E+04  0.25500000920E-02 0.  1.
       -2    1    3    3    0  502 -0.51814209164E+03  0.47675813133E+03 -0.12902501650E+03  0.71583307957E+03  0.25500000920E-02 0. -1.
</event>
<event>
 5   0  0.7049044E-04  0.1539513E+04  0.7818609E-02  0.8858594E-01
       -2   -1    0    0    0  501  0.00000000000E+00  0.00000000000E+00  0.44763092947E+03  0.44763092948E+03  0.25500000920E-02 0. -1.
        2   -1    0    0  501    0  0.00000000000E+00  0.00000000000E+00 -0.13236915367E+04  0.13236915367E+04  0.25500000920E-02 0.  1.
    10030    2    1    2    0    0  0.00000000000E+00  0.00000000000E+00 -0.87606060722E+03  0.17713224662E+04  0.15395132645E+04 0.  0.
        4    1    3    3  502    0  0.25117603324E+03  0.37284026162E+02 -0.12741131599E+04  0.12991710647E+04  0.12699999809E+01 0.  1.
       -4    1    3    3    0  502 -0.25117603324E+03 -0.37284026162E+02  0.39805255269E+03  0.47215140144E+03  0.12699999809E+01 0. -1.
</event>
<event>
 5   0  0.6746664E-04  0.1703471E+04  0.7818609E-02  0.8759387E-01
        2   -1    0    0  501    0  0.00000000000E+00  0.00000000000E+00  0.95147424865E+03  0.95147424865E+03  0.25500000920E-02 0.  1.
       -2   -1    0    0    0  501  0.00000000000E+00  0.00000000000E+00 -0.76245188890E+03  0.76245188891E+03  0.25500000920E-02 0. -1.
    10030    2    1    2    0    0  0.00000000000E+00  0.00000000000E+00  0.18902235975E+03  0.17139261376E+04  0.17034709720E+04 0.  0.
        5    1    3    3  502    0 -0.76303925901E+02 -0.59581793412E+03 -0.51302426635E+03  0.78996030760E+03  0.46999998093E+01 0. -1.
       -5    1    3    3    0  502  0.76303925901E+02  0.59581793412E+03  0.70204662609E+03  0.92396582996E+03  0.46999998093E+01 0.  1.
</event>
<event>
 5   0  0.3723500E-04  0.1695316E+04  0.7818609E-02  0.8764040E-01
        1   -1    0    0  501    0  0.00000000000E+00  0.00000000000E+00  0.11886553071E+04  0.11886553071E+04  0.50400001928E-02 0.  1.
       -1   -1    0    0    0  501  0.00000000000E+00  0.00000000000E+00 -0.60448488873E+03  0.60448488875E+03  0.50400001928E-02 0. -1.
    10030    2    1    2    0    0  0.00000000000E+00  0.00000000000E+00  0.58417041834E+03  0.17931401958E+04  0.16953161016E+04 0.  0.
        1    1    3    3  502    0  0.35125451280E+03 -0.51304237980E+03  0.90146506113E+03  0.10950942757E+04  0.50400001928E-02 0.  1.
       -1    1    3    3    0  502 -0.35125451280E+03  0.51304237980E+03 -0.31729464279E+03  0.69804592012E+03  0.50400001928E-02 0. -1.
</event>
<event>
 5   0  0.7025426E-04  0.1692990E+04  0.7818609E-02  0.8765372E-01
       -2   -1    0    0    0  501  0.00000000000E+00  0.00000000000E+00  0.76811580414E+03  0.76811580414E+03  0.25500000920E-02 0. -1.
        2   -1    0    0  501    0  0.00000000000E+00  0.00000000000E+00 -0.93287243807E+03  0.93287243808E+03  0.25500000920E-02 0.  1.
    10030    2    1    2    0    0  0.00000000000E+00  0.00000000000E+00 -0.16475663394E+03  0.17009882422E+04  0.16929903283E+04 0.  0.
        2    1    3    3  502    0 -0.40041962168E+03  0.66519805189E+03  0.25645324678E+03  0.81767511241E+03  0.25500000920E-02 0. -1.
       -2    1    3    3    0  502  0.40041962168E+03 -0.66519805189E+03 -0.42120988072E+03  0.88331312981E+03  0.25500000920E-02 0.  1.
</event>
<event>
 5   0  0.3915701E-04  0.1733975E+04  0.7818609E-02  0.8742221E-01
       -1   -1    0    0    0  501  0.00000000000E+00  0.00000000000E+00  0.59868063601E+03  0.59868063603E+03  0.50400001928E-02 0. -1.
        1   -1    0    0  501    0  0.00000000000E+00  0.00000000000E+00 -0.12555392401E+04  0.12555392401E+04  0.50400001928E-02 0.  1.
    10030    2    1    2    0    0  0.00000000000E+00  0.00000000000E+00 -0.65685860409E+03  0.18542198761E+04  0.17339746605E+04 0.  0.
        2    1    3    3  502    0 -0.57093518575E+03  0.16590443381E+02  0.36904769343E+03  0.68002825616E+03  0.25500000920E-02 0. -1.
       -2    1    3    3    0  502  0.57093518575E+03 -0.16590443381E+02 -0.10259062975E+04  0.11741916200E+04  0.25500000920E-02 0.  1.
</event>
<event>
 5   0  0.7233728E-04  0.1721052E+04  0.7818609E-02  0.8749448E-01
        2   -1    0    0  501    0  0.00000000000E+00  0.00000000000E+00  0.14521198732E+04  0.14521198732E+04  0.25500000920E-02 0.  1.
       -2   -1    0    0    0  501  0.00000000000E+00  0.00000000000E+00 -0.50994734283E+03  0.50994734284E+03  0.25500000920E-02 0. -1.
    10030    2    1    2    0    0  0.00000000000E+00  0.00000000000E+00  0.94217253040E+03  0.19620672161E+04  0.17210516213E+04 0.  0.
        1    1    3    3  502    0 -0.56369960529E+03  0.35762615459E+03 -0.14795736200E+03  0.68377269063E+03  0.50400001928E-02 0. -1.
       -1    1    3    3    0  502  0.56369960529E+03 -0.35762615459E+03  0.10901298924E+04  0.12782945254E+04  0.50400001928E-02 0.  1.
</event>
<event>
 5   0  0.3635143E-04  0.1705434E+04  0.7818609E-02  0.8758271E-01
       -1   -1    0    0    0  501  0.00000000000E+00  0.00000000000E+00  0.86618509206E+03  0.86618509207E+03  0.50400001928E-02 0.  1.
        1   -1    0    0  501    0  0.00000000000E+00  0.00000000000E+00 -0.83945879218E+03  0.83945879220E+03  0.50400001928E-02 0. -1.
    10030    2    1    2    0    0  0.00000000000E+00  0.00000000000E+00  0.26726299876E+02  0.17056438843E+04  0.17054344798E+04 0.  0.
        3    1    3    3  502    0  0.44460058736E+03  0.71856127765E+03 -0.10122268146E+03  0.85102645873E+03  0.10100000352E+00 0. -1.
       -3    1    3    3    0  502 -0.44460058736E+03 -0.71856127765E+03  0.12794898133E+03  0.85461742554E+03  0.10100000352E+00 0.  1.
</event>
<event>
 5   0  0.3635143E-04  0.1608125E+04  0.7818609E-02  0.8815572E-01
        1   -1    0    0  501    0  0.00000000000E+00  0.00000000000E+00  0.75150550173E+03  0.75150550174E+03  0.50400001928E-02 0. -1.
       -1   -1    0    0    0  501  0.00000000000E+00  0.00000000000E+00 -0.86029507374E+03  0.86029507375E+03  0.50400001928E-02 0.  1.
    10030    2    1    2    0    0  0.00000000000E+00  0.00000000000E+00 -0.10878957201E+03  0.16118005755E+04  0.16081249716E+04 0.  0.
        3    1    3    3  502    0  0.22974559202E+03  0.66351496789E+03 -0.44705714838E+03  0.83240329997E+03  0.10100000352E+00 0.  1.
       -3    1    3    3    0  502 -0.22974559202E+03 -0.66351496789E+03  0.33826757637E+03  0.77939727553E+03  0.10100000352E+00 0. -1.
</event>
<event>
 5   0  0.7049044E-04  0.1687331E+04  0.7818609E-02  0.8768623E-01
       -2   -1    0    0    0  501  0.00000000000E+00  0.00000000000E+00  0.17407440963E+04  0.17407440963E+04  0.25500000920E-02 0. -1.
        2   -1    0    0  501    0  0.00000000000E+00  0.00000000000E+00 -0.40888899106E+03  0.40888899107E+03  0.25500000920E-02 0.  1.
    10030    2    1    2    0    0  0.00000000000E+00  0.00000000000E+00  0.13318551053E+04  0.21496330874E+04  0.16873305512E+04 0.  0.
        4    1    3    3  502    0 -0.35168496982E+02 -0.83616470976E+03  0.53013466542E+03  0.99068290659E+03  0.12699999809E+01 0. -1.
       -4    1    3    3    0  502  0.35168496982E+02  0.83616470976E+03  0.80172043983E+03  0.11589501808E+04  0.12699999809E+01 0.  1.
</event>
<event>
 5   0  0.7233728E-04  0.1660019E+04  0.7818609E-02  0.8784501E-01
        2   -1    0    0  501    0  0.00000000000E+00  0.00000000000E+00  0.92726453597E+03  0.92726453598E+03  0.25500000920E-02 0. -1.
       -2   -1    0    0    0  501  0.00000000000E+00  0.00000000000E+00 -0.74295476044E+03  0.74295476044E+03  0.25500000920E-02 0.  1.
    10030    2    1    2    0    0  0.00000000000E+00  0.00000000000E+00  0.18430977554E+03  0.16702192964E+04  0.16600187965E+04 0.  0.
        1    1    3    3  502    0 -0.20176028333E+03 -0.80460951381E+03  0.63485594568E+02  0.83194597323E+03  0.50400001928E-02 0. -1.
       -1    1    3    3    0  502  0.20176028333E+03  0.80460951381E+03  0.12082418097E+03  0.83827332319E+03  0.50400001928E-02 0.  1.
</event>
<event>
 5   0  0.6746664E-04  0.1890870E+04  0.7818609E-02  0.8659415E-01
        2   -1    0    0  501    0  0.00000000000E+00  0.00000000000E+00  0.11586939222E+04  0.11586939222E+04  0.25500000920E-02 0.  1.
       -2   -1    0    0    0  501  0.00000000000E+00  0.00000000000E+00 -0.77142623110E+03  0.77142623110E+03  0.25500000920E-02 0. -1.
    10030    2    1    2    0    0  0.00000000000E+00  0.00000000000E+00  0.38726769113E+03  0.19301201533E+04  0.18908695200E+04 0.  0.
        5    1    3    3  502    0  0.38267333187E+03 -0.37684622012E+03 -0.60057414360E+03  0.80570673604E+03  0.46999998093E+01 0. -1.
       -5    1    3    3    0  502 -0.38267333187E+03  0.37684622012E+03  0.98784183472E+03  0.11244134173E+04  0.46999998093E+01 0.  1.
</event>
<event>
 5   0  0.3803253E-04  0.1756608E+04  0.7818609E-02  0.8729721E-01
        1   -1    0    0  501    0  0.00000000000E+00  0.00000000000E+00  0.87253233211E+03  0.87253233212E+03  0.50400001928E-02 0.  1.
       -1   -1    0    0    0  501  0.00000000000E+00  0.00000000000E+00 -0.88411404530E+03  0.88411404532E+03  0.50400001928E-02 0. -1.
    10030    2    1    2    0    0  0.00000000000E+00  0.00000000000E+00 -0.11581713195E+02  0.17566463774E+04  0.17566081974E+04 0.  0.
        4    1    3    3  502    0  0.71131408127E+03 -0.36641169467E+03  0.35642030790E+03  0.87593510090E+03  0.12699999809E+01 0.  1.
       -4    1    3    3    0  502 -0.71131408127E+03  0.36641169467E+03 -0.36800202109E+03  0.88071127654E+03  0.12699999809E+01 0. -1.
</event>
<event>
 5   0  0.3713516E-04  0.1682561E+04  0.7818609E-02  0.8771374E-01
       -1   -1    0    0    0  501  0.00000000000E+00  0.00000000000E+00  0.56656690047E+03  0.56656690049E+03  0.50400001928E-02 0. -1.
        1   -1    0    0  501    0  0.00000000000E+00  0.00000000000E+00 -0.12491949947E+04  0.12491949948E+04  0.50400001928E-02 0.  1.
    10030    2    1    2    0    0  0.00000000000E+00  0.00000000000E+00 -0.68262809428E+03  0.18157618952E+04  0.16825605918E+04 0.  0.
        5    1    3    3  502    0 -0.60292795891E+03  0.58465528071E+03 -0.28859455544E+03  0.88806127509E+03  0.46999998093E+01 0.  1.
       -5    1    3    3    0  502  0.60292795891E+03 -0.58465528071E+03 -0.39403353884E+03  0.92770062015E+03  0.46999998093E+01 0. -1.
</event>
<event>
 5   0  0.7025426E-04  0.1672398E+04  0.7818609E-02  0.8777265E-01
       -2   -1    0    0    0  501  0.00000000000E+00  0.00000000000E+00  0.34908804618E+03  0.34908804619E+03  0.25500000920E-02 0.  1.
        2   -1    0    0  501    0  0.00000000000E+00  0.00000000000E+00 -0.20030161889E+04  0.20030161889E+04  0.25500000920E-02 0. -1.
    10030    2    1    2    0    0  0.00000000000E+00  0.00000000000E+00 -0.16539281427E+04  0.23521042351E+04  0.16723982873E+04 0.  0.
        2    1    3    3  502    0 -0.47174829596E+02 -0.61074972276E+03 -0.16275012869E+04  0.17389655337E+04  0.25500000920E-02 0. -1.
       -2    1    3    3    0  502  0.47174829596E+02  0.61074972276E+03 -0.26426855767E+02  0.61313870137E+03  0.25500000920E-02 0.  1.
</event>
<event>
 5   0  0.3803253E-04  0.1708742E+04  0.7818609E-02  0.8756394E-01
        1   -1    0    0  501    0  0.00000000000E+00  0.00000000000E+00  0.80029775957E+03  0.80029775958E+03  0.50400001928E-02 0. -1.
       -1   -1    0    0    0  501  0.00000000000E+00  0.00000000000E+00 -0.91209822701E+03  0.91209822703E+03  0.50400001928E-02 0.  1.
    10030    2    1    2    0    0  0.00000000000E+00  0.00000000000E+00 -0.11180046745E+03  0.17123959866E+04  0.17087424237E+04 0.  0.
        4    1    3    3  502    0 -0.61128439508E+03 -0.58484194643E+03 -0.17548618576E+03  0.86400562977E+03  0.12699999809E+01 0.  1.
       -4    1    3    3    0  502  0.61128439508E+03  0.58484194643E+03  0.63685718314E+02  0.84839035685E+03  0.12699999809E+01 0. -1.
</event>
<event>
 5   0  0.6746664E-04  0.1782592E+04  0.7818609E-02  0.8715612E-01
        2   -1    0    0  501    0  0.00000000000E+00  0.00000000000E+00  0.16367874076E+04  0.16367874076E+04  0.25500000920E-02 0.  1.
       -2   -1    0    0    0  501  0.00000000000E+00  0.00000000000E+00 -0.48534609878E+03  0.48534609879E+03  0.25500000920E-02 0. -1.
    10030    2    1    2    0    0  0.00000000000E+00  0.00000000000E+00  0.11514413089E+04  0.21221335064E+04  0.17825918017E+04 0.  0.
        5    1    3    3  502    0 -0.14478870949E+03 -0.77107195941E+03  0.72231377050E+02  0.78788019319E+03  0.46999998093E+01 0.  1.
       -5    1    3    3    0  502  0.14478870949E+03  0.77107195941E+03  0.10792099318E+04  0.13342533132E+04  0.46999998093E+01 0. -1.
</event>
<event>
 5   0  0.3713516E-04  0.1660986E+04  0.7818609E-02  0.8783934E-01
        1   -1    0    0  501    0  0.00000000000E+00  0.00000000000E+00  0.21384675657E+04  0.21384675657E+04  0.50400001928E-02 0.  1.
       -1   -1    0    0    0  501  0.00000000000E+00  0.00000000000E+00 -0.32252937105E+03  0.32252937108E+03  0.50400001928E-02 0. -1.
    10030    2    1    2    0    0  0.00000000000E+00  0.00000000000E+00  0.18159381947E+04  0.24609969368E+04  0.16609859711E+04 0.  0.
        5    1    3    3  502    0 -0.91612353037E+02 -0.26443859542E+03 -0.25053952842E+03  0.37564975612E+03  0.46999998093E+01 0. -1.
       -5    1    3    3    0  502  0.91612353037E+02  0.26443859542E+03  0.20664777231E+04  0.20853471807E+04  0.46999998093E+01 0.  1.
</event>
<event>
 5   0  0.3723500E-04  0.1671613E+04  0.7818609E-02  0.8777722E-01
        1   -1    0    0  501    0  0.00000000000E+00  0.00000000000E+00  0.57163478968E+03  0.57163478970E+03  0.50400001928E-02 0. -1.
       -1   -1    0    0    0  501  0.00000000000E+00  0.00000000000E+00 -0.12220615045E+04  0.12220615046E+04  0.50400001928E-02 0.  1.
    10030    2    1    2    0    0  0.00000000000E+00  0.00000000000E+00 -0.65042671487E+03  0.17936962943E+04  0.16716134376E+04 0.  0.
        1    1    3    3  502    0  0.29292634358E+03  0.35456317884E+03 -0.10740734963E+04  0.11683983765E+04  0.50400001928E-02 0.  1.
       -1    1    3    3    0  502 -0.29292634358E+03 -0.35456317884E+03  0.42364678146E+03  0.62529791781E+03  0.50400001928E-02 0. -1.
</event>
<event>
 5   0  0.7025426E-04  0.1734452E+04  0.7818609E-02  0.8741956E-01
       -2   -1    0    0    0  501  0.00000000000E+00  0.00000000000E+00  0.55461316938E+03  0.55461316939E+03  0.25500000920E-02 0. -1.
        2   -1    0    0  501    0  0.00000000000E+00  0.00000000000E+00 -0.13560456190E+04  0.13560456190E+04  0.25500000920E-02 0.  1.
    10030    2    1    2    0    0  0.00000000000E+00  0.00000000000E+00 -0.80143244963E+03  0.19106587884E+04  0.17344517965E+04 0.  0.
        2    1    3    3  502    0  0.23402313890E+02  0.86299675765E+03 -0.31007929568E+03  0.91731142020E+03  0.25500000920E-02 0. -1.
       -2    1    3    3    0  502 -0.23402313890E+02 -0.86299675765E+03 -0.49135315395E+03  0.99334736820E+03  0.25500000920E-02 0.  1.
</event>
<event>
 5   0  0.3713516E-04  0.1515190E+04  0.7818609E-02  0.8874414E-01
       -1   -1    0    0    0  501  0.00000000000E+00  0.00000000000E+00  0.11095545684E+04  0.11095545684E+04  0.50400001928E-02 0.  1.
        1   -1    0    0  501    0  0.00000000000E+00  0.00000000000E+00 -0.51728009074E+03  0.51728009077E+03  0.50400001928E-02 0. -1.
    10030    2    1    2    0    0  0.00000000000E+00  0.00000000000E+00  0.59227447767E+03  0.16268346592E+04  0.15151904011E+04 0.  0.
        5    1    3    3  502    0  0.25270410608E+02 -0.57892986735E+03  0.82007931143E+03  0.10041665957E+04  0.46999998093E+01 0.  1.
       -5    1    3    3    0  502 -0.25270410608E+02  0.57892986735E+03 -0.22780483376E+03  0.62266806345E+03  0.46999998093E+01 0. -1.
</event>
<event>
 5   0  0.7233728E-04  0.1696669E+04  0.7818609E-02  0.8763266E-01
       -2   -1    0    0    0  501  0.00000000000E+00  0.00000000000E+00  0.75622498897E+03  0.75622498897E+03  0.25500000920E-02 0. -1.
        2   -1    0    0  501    0  0.00000000000E+00  0.00000000000E+00 -0.95166300258E+03  0.95166300258E+03  0.25500000920E-02 0.  1.
    10030    2    1    2    0    0  0.00000000000E+00  0.00000000000E+00 -0.19543801361E+03  0.17078879916E+04  0.16966689054E+04 0.  0.
        1    1    3    3  502    0  0.46605246622E+03  0.50171165986E+03 -0.60178147253E+03  0.91162515960E+03  0.50400001928E-02 0.  1.
       -1    1    3    3    0  502 -0.46605246622E+03 -0.50171165986E+03  0.40634345892E+03  0.79626283195E+03  0.50400001928E-02 0. -1.
</event>
<event>
 5   0  0.3723500E-04  0.1704455E+04  0.7818609E-02  0.8758827E-01
        1   -1    0    0  501    0  0.00000000000E+00  0.00000000000E+00  0.13821232483E+04  0.13821232483E+04  0.50400001928E-02 0. -1.
       -1   -1    0    0    0  501  0.00000000000E+00  0.00000000000E+00 -0.52549001716E+03  0.52549001718E+03  0.50400001928E-02 0.  1.
    10030    2    1    2    0    0  0.00000000000E+00  0.00000000000E+00  0.85663323116E+03  0.19076132655E+04  0.17044553024E+04 0.  0.
        1    1    3    3  502    0  0.49834492022E+03 -0.64501310852E+03  0.14985941032E+03  0.82876257913E+03  0.50400001928E-02 0. -1.
       -1    1    3    3    0  502 -0.49834492022E+03  0.64501310852E+03  0.70677382083E+03  0.10788506864E+04  0.50400001928E-02 0.  1.
</event>
<event>
 5   0  0.3915701E-04  0.1673323E+04  0.7818609E-02  0.8776727E-01
       -1   -1    0    0    0  501  0.00000000000E+00  0.00000000000E+00  0.54812262253E+03  0.54812262255E+03  0.50400001928E-02 0. -1.
        1   -1    0    0  501    0  0.00000000000E+00  0.00000000000E+00 -0.12770916228E+04  0.12770916228E+04  0.50400001928E-02 0.  1.
    10030    2    1    2    0    0  0.00000000000E+00  0.00000000000E+00 -0.72896900026E+03  0.18252142454E+04  0.16733234111E+04 0.  0.
        2    1    3    3  502    0  0.32464640689E+03 -0.52432063490E+03  0.25225554839E+03  0.66628843558E+03  0.25500000920E-02 0. -1.
       -2    1    3    3    0  502 -0.32464640689E+03  0.52432063490E+03 -0.98122454864E+03  0.11589258098E+04  0.25500000920E-02 0.  1.
</event>
<event>
 5   0  0.7049044E-04  0.1620680E+04  0.7818609E-02  0.8807943E-01
        2   -1    0    0  501    0  0.00000000000E+00  0.00000000000E+00  0.20218199333E+04  0.20218199333E+04  0.25500000920E-02 0.  1.
       -2   -1    0    0    0  501  0.00000000000E+00  0.00000000000E+00 -0.32478198988E+03  0.32478198989E+03  0.25500000920E-02 0. -1.
    10030    2    1    2    0    0  0.00000000000E+00  0.00000000000E+00  0.16970379434E+04  0.23466019232E+04  0.16206797353E+04 0.  0.
        4    1    3    3  502    0  0.98062220340E+02  0.48370145628E+03  0.17790949441E+04  0.18462837623E+04  0.12699999809E+01 0.  1.
       -4    1    3    3    0  502 -0.98062220340E+02 -0.48370145628E+03 -0.82057000680E+02  0.50031816090E+03  0.12699999809E+01 0. -1.
</event>
<event>
 5   0  0.7025426E-04  0.1678239E+04  0.7818609E-02  0.8773874E-01
        2   -1    0    0  501    0  0.00000000000E+00  0.00000000000E+00  0.12020674518E+04  0.12020674518E+04  0.25500000920E-02 0. -1.
       -2   -1    0    0    0  501  0.00000000000E+00  0.00000000000E+00 -0.58575855745E+03  0.58575855746E+03  0.25500000920E-02 0.  1.
    10030    2    1    2    0    0  0.00000000000E+00  0.00000000000E+00  0.61630889432E+03  0.17878260092E+04  0.16782387155E+04 0.  0.
        2    1    3    3  502    0 -0.57844430325E+03  0.45771905376E+03 -0.11798745627E+03  0.74701110031E+03  0.25500000920E-02 0.  1.
       -2    1    3    3    0  502  0.57844430325E+03 -0.45771905376E+03  0.73429635059E+03  0.10408149089E+04  0.25500000920E-02 0. -1.
</event>
<event>
 5   0  0.7049044E-04  0.1866708E+04  0.7818609E-02  0.8671608E-01
       -2   -1    0    0    0  501  0.00000000000E+00  0.00000000000E+00  0.42838069141E+03  0.42838069142E+03  0.25500000920E-02 0.  1.
        2   -1    0    0  501    0  0.00000000000E+00  0.00000000000E+00 -0.20335882526E+04  0.20335882526E+04  0.25500000920E-02 0. -1.
    10030    2    1    2    0    0  0.00000000000E+00  0.00000000000E+00 -0.16052075612E+04  0.24619689441E+04  0.18667082704E+04 0.  0.
        4    1    3    3  502    0  0.56775435321E+03 -0.28730748163E+03  0.97969677422E+02  0.64380918383E+03  0.12699999809E+01 0.  1.
       -4    1    3    3    0  502 -0.56775435321E+03  0.28730748163E+03 -0.17031772387E+04  0.18181597602E+04  0.12699999809E+01 0. -1.
</event>
<event>
 5   0  0.3915701E-04  0.1661236E+04  0.7818609E-02  0.8783787E-01
       -1   -1    0    0    0  501  0.00000000000E+00  0.00000000000E+00  0.77903205416E+03  0.77903205418E+03  0.50400001928E-02 0.  1.
        1   -1    0    0  501    0  0.00000000000E+00  0.00000000000E+00 -0.88561994981E+03  0.88561994982E+03  0.50400001928E-02 0. -1.
    10030    2    1    2    0    0  0.00000000000E+00  0.00000000000E+00 -0.10658789565E+03  0.16646520040E+04  0.16612360804E+04 0.  0.
        2    1    3    3  502    0  0.63137691361E+03  0.49732851811E+03 -0.26337682016E+03  0.84577763707E+03  0.25500000920E-02 0. -1.
       -2    1    3    3    0  502 -0.63137691361E+03 -0.49732851811E+03  0.15678892451E+03  0.81887436693E+03  0.25500000920E-02 0.  1.
</event>
<event>
 5   0  0.7233728E-04  0.1662660E+04  0.7818609E-02  0.8782952E-01
        2   -1    0    0  501    0  0.00000000000E+00  0.00000000000E+00  0.92595662538E+03  0.92595662538E+03  0.25500000920E-02 0. -1.
       -2   -1    0    0    0  501  0.00000000000E+00  0.00000000000E+00 -0.74637387963E+03  0.74637387963E+03  0.25500000920E-02 0.  1.
    10030    2    1    2    0    0  0.00000000000E+00  0.00000000000E+00  0.17958274575E+03  0.16723305050E+04  0.16626603247E+04 0.  0.
        1    1    3    3  502    0 -0.59301993350E+03 -0.10024566704E+03  0.66705270498E+03  0.89815429996E+03  0.50400001928E-02 0. -1.
       -1    1    3    3    0  502  0.59301993350E+03  0.10024566704E+03 -0.48746995924E+03  0.77417620505E+03  0.50400001928E-02 0.  1.
</event>
<event>
 5   0  0.3803253E-04  0.1712691E+04  0.7818609E-02  0.8754159E-01
       -1   -1    0    0    0  501  0.00000000000E+00  0.00000000000E+00  0.63807802880E+03  0.63807802882E+03  0.50400001928E-02 0. -1.
        1   -1    0    0  501    0  0.00000000000E+00  0.00000000000E+00 -0.11492754622E+04  0.11492754622E+04  0.50400001928E-02 0.  1.
    10030    2    1    2    0    0  0.00000000000E+00  0.00000000000E+00 -0.51119743342E+03  0.17873534911E+04  0.17126907736E+04 0.  0.
        4    1    3    3  502    0 -0.24050261221E+03 -0.70587899067E+03  0.18372719869E+03  0.76802601023E+03  0.12699999809E+01 0.  1.
       -4    1    3    3    0  502  0.24050261221E+03  0.70587899067E+03 -0.69492463211E+03  0.10193274808E+04  0.12699999809E+01 0. -1.
</event>
<event>
 5   0  0.3915701E-04  0.1706786E+04  0.7818609E-02  0.8757503E-01
        1   -1    0    0  501    0  0.00000000000E+00  0.00000000000E+00  0.11240946501E+04  0.11240946501E+04  0.50400001928E-02 0. -1.
       -1   -1    0    0    0  501  0.00000000000E+00  0.00000000000E+00 -0.64788120869E+03  0.64788120871E+03  0.50400001928E-02 0.  1.
    10030    2    1    2    0    0  0.00000000000E+00  0.00000000000E+00  0.47621344144E+03  0.17719758589E+04  0.17067862205E+04 0.  0.
        2    1    3    3  502    0 -0.78825938763E+03 -0.25434052093E+03  0.45147483164E+03  0.94332999867E+03  0.25500000920E-02 0. -1.
       -2    1    3    3    0  502  0.78825938763E+03  0.25434052093E+03  0.24738609797E+02  0.82864586019E+03  0.25500000920E-02 0.  1.
</event>
<event>
 5   0  0.3723500E-04  0.1664336E+04  0.7818609E-02  0.8781970E-01
        1   -1    0    0  501    0  0.00000000000E+00  0.00000000000E+00  0.60632935769E+03  0.60632935771E+03  0.50400001928E-02 0. -1.
       -1   -1    0    0    0  501  0.00000000000E+00  0.00000000000E+00 -0.11421244904E+04  0.11421244904E+04  0.50400001928E-02 0.  1.
    10030    2    1    2    0    0  0.00000000000E+00  0.00000000000E+00 -0.53579513274E+03  0.17484538482E+04  0.16643360342E+04 0.  0.
        1    1    3    3  502    0 -0.61432975726E+03 -0.18753790858E+03  0.28792925672E+03  0.70389969080E+03  0.50400001928E-02 0. -1.
       -1    1    3    3    0  502  0.61432975726E+03  0.18753790858E+03 -0.82372438947E+03  0.10445541574E+04  0.50400001928E-02 0.  1.
</event>
<event>
 5   0  0.7233728E-04  0.1693210E+04  0.7818609E-02  0.8765246E-01
       -2   -1    0    0    0  501  0.00000000000E+00  0.00000000000E+00  0.60476279727E+03  0.60476279728E+03  0.25500000920E-02 0.  1.
        2   -1    0    0  501    0  0.00000000000E+00  0.00000000000E+00 -0.11851588031E+04  0.11851588031E+04  0.25500000920E-02 0. -1.
    10030    2    1    2    0    0  0.00000000000E+00  0.00000000000E+00 -0.58039600580E+03  0.17899216004E+04  0.16932099137E+04 0.  0.
        1    1    3    3  502    0 -0.21058388842E+03  0.81979652230E+03 -0.27105159951E+03  0.88875242990E+03  0.50400001928E-02 0.  1.
       -1    1    3    3    0  502  0.21058388842E+03 -0.81979652230E+03 -0.30934440629E+03  0.90116917045E+03  0.50400001928E-02 0. -1.
</event>
<event>
 5   0  0.3635143E-04  0.1678456E+04  0.7818609E-02  0.8773748E-01
        1   -1    0    0  501    0  0.00000000000E+00  0.00000000000E+00  0.73866286798E+03  0.73866286800E+03  0.50400001928E-02 0.  1.
       -1   -1    0    0    0  501  0.00000000000E+00  0.00000000000E+00 -0.95348470866E+03  0.95348470867E+03  0.50400001928E-02 0. -1.
    10030    2    1    2    0    0  0.00000000000E+00  0.00000000000E+00 -0.21482184068E+03  0.16921475767E+04  0.16784561353E+04 0.  0.
        3    1    3    3  502    0 -0.40202420341E+03  0.63243246929E+03  0.27343964805E+03  0.79772397461E+03  0.10100000352E+00 0. -1.
       -3    1    3    3    0  502  0.40202420341E+03 -0.63243246929E+03 -0.48826148873E+03  0.89442360206E+03  0.10100000352E+00 0.  1.
</event>
<event>
 5   0  0.3713516E-04  0.1676378E+04  0.7818609E-02  0.8774952E-01
        1   -1    0    0  501    0  0.00000000000E+00  0.00000000000E+00  0.47593417106E+03  0.47593417109E+03  0.50400001928E-02 0.  1.
       -1   -1    0    0    0  501  0.00000000000E+00  0.00000000000E+00 -0.14761730764E+04  0.14761730764E+04  0.50400001928E-02 0. -1.
    10030    2    1    2    0    0  0.00000000000E+00  0.00000000000E+00 -0.10002389054E+04  0.19521072475E+04  0.16763784889E+04 0.  0.
        5    1    3    3  502    0 -0.73907200177E+03  0.39455781519E+03 -0.47075642741E+03  0.96100832321E+03  0.46999998093E+01 0. -1.
       -5    1    3    3    0  502  0.73907200177E+03 -0.39455781519E+03 -0.52948247796E+03  0.99109892432E+03  0.46999998093E+01 0.  1.
</event>
<event>
 5   0  0.3635143E-04  0.2165035E+04  0.7818609E-02  0.8533124E-01
       -1   -1    0    0    0  501  0.00000000000E+00  0.00000000000E+00  0.11539531200E+04  0.11539531200E+04  0.50400001928E-02 0. -1.
        1   -1    0    0  501    0  0.00000000000E+00  0.00000000000E+00 -0.10155037365E+04  0.10155037365E+04  0.50400001928E-02 0.  1.
    10030    2    1    2    0    0  0.00000000000E+00  0.00000000000E+00  0.13844938352E+03  0.21694568565E+04  0.21650346003E+04 0.  0.
        3    1    3    3  502    0  0.76891667854E+03 -0.76119556525E+03  0.10382271026E+03  0.10869363884E+04  0.10100000352E+00 0. -1.
       -3    1    3    3    0  502 -0.76891667854E+03  0.76119556525E+03  0.34626673269E+02  0.10825204681E+04  0.10100000352E+00 0.  1.
</event>
<event>
 5   0  0.7025426E-04  0.1674109E+04  0.7818609E-02  0.8776270E-01
       -2   -1    0    0    0  501  0.00000000000E+00  0.00000000000E+00  0.28085862107E+03  0.28085862108E+03  0.25500000920E-02 0. -1.
        2   -1    0    0  501    0  0.00000000000E+00  0.00000000000E+00 -0.24947067977E+04  0.24947067977E+04  0.25500000920E-02 0.  1.
    10030    2    1    2    0    0  0.00000000000E+00  0.00000000000E+00 -0.22138481766E+04  0.27755654188E+04  0.16741086120E+04 0.  0.
        2    1    3    3  502    0  0.29906628398E+03  0.55843878093E+03 -0.19979595289E+03  0.66423861455E+03  0.25500000920E-02 0. -1.
       -2    1    3    3    0  502 -0.29906628398E+03 -0.55843878093E+03 -0.20140522238E+04  0.21113268042E+04  0.25500000920E-02 0.  1.
</event>
<event>
 5   0  0.7025426E-04  0.1755655E+04  0.7818609E-02  0.8730244E-01
       -2   -1    0    0    0  501  0.00000000000E+00  0.00000000000E+00  0.35103027090E+03  0.35103027091E+03  0.25500000920E-02 0.  1.
        2   -1    0    0  501    0  0.00000000000E+00  0.00000000000E+00 -0.21951977280E+04  0.21951977280E+04  0.25500000920E-02 0. -1.
    10030    2    1    2    0    0  0.00000000000E+00  0.00000000000E+00 -0.18441674571E+04  0.25462279989E+04  0.17556546963E+04 0.  0.
        2    1    3    3  502    0  0.24695955572E+03 -0.32192853996E+00 -0.21437777786E+04  0.21579555810E+04  0.25500000920E-02 0. -1.
       -2    1    3    3    0  502 -0.24695955572E+03  0.32192853996E+00  0.29961032144E+03  0.38827241792E+03  0.25500000920E-02 0.  1.
</event>
<event>
 5   0  0.7049044E-04  0.1659548E+04  0.7818609E-02  0.8784778E-01
       -2   -1    0    0    0  501  0.00000000000E+00  0.00000000000E+00  0.22072586301E+03  0.22072586303E+03  0.25500000920E-02 0.  1.
        2   -1    0    0  501    0  0.00000000000E+00  0.00000000000E+00 -0.31193675738E+04  0.31193675738E+04  0.25500000920E-02 0. -1.
    10030    2    1    2    0    0  0.00000000000E+00  0.00000000000E+00 -0.28986417107E+04  0.33400934368E+04  0.16595482515E+04 0.  0.
        4    1    3    3  502    0  0.73923489923E+03  0.36826736465E+03 -0.12878765545E+04  0.15299401036E+04  0.12699999809E+01 0. -1.
       -4    1    3    3    0  502 -0.73923489923E+03 -0.36826736465E+03 -0.16107651563E+04  0.18101533332E+04  0.12699999809E+01 0.  1.
</event>
<event>
 5   0  0.2639750E-04  0.1727985E+04  0.7818609E-02  0.8745562E-01
        3   -1    0    0  501    0  0.00000000000E+00  0.00000000000E+00  0.81764076492E+03  0.81764077115E+03  0.10100000352E+00 0. -1.
       -3   -1    0    0    0  501  0.00000000000E+00  0.00000000000E+00 -0.91297197133E+03  0.91297197691E+03  0.10100000352E+00 0.  1.
    10030    2    1    2    0    0  0.00000000000E+00  0.00000000000E+00 -0.95331206410E+02  0.17306127481E+04  0.17279850824E+04 0.  0.
        4    1    3    3  502    0  0.41439753568E+03  0.52607657439E+03  0.49905792449E+03  0.83518998114E+03  0.12699999809E+01 0. -1.
       -4    1    3    3    0  502 -0.41439753568E+03 -0.52607657439E+03 -0.59438913090E+03  0.89542276693E+03  0.12699999809E+01 0.  1.
</event>
<event>
 5   0  0.3635143E-04  0.1725233E+04  0.7818609E-02  0.8747102E-01
       -1   -1    0    0    0  501  0.00000000000E+00  0.00000000000E+00  0.75156996032E+03  0.75156996033E+03  0.50400001928E-02 0. -1.
        1   -1    0    0  501    0  0.00000000000E+00  0.00000000000E+00 -0.99007102760E+03  0.99007102762E+03  0.50400001928E-02 0.  1.
    10030    2    1    2    0    0  0.00000000000E+00  0.00000000000E+00 -0.23850106729E+03  0.17416409879E+04  0.17252334833E+04 0.  0.
        3    1    3    3  502    0 -0.41318969373E+03  0.97307755733E+02  0.63883263509E+03  0.76700825822E+03  0.10100000352E+00 0. -1.
       -3    1    3    3    0  502  0.41318969373E+03 -0.97307755733E+02 -0.87733370237E+03  0.97463272973E+03  0.10100000352E+00 0.  1.
</event>
<event>
 5   0  0.3803253E-04  0.1689204E+04  0.7818609E-02  0.8767546E-01
        1   -1    0    0  501    0  0.00000000000E+00  0.00000000000E+00  0.85718912596E+03  0.85718912598E+03  0.50400001928E-02 0. -1.
       -1   -1    0    0    0  501  0.00000000000E+00  0.00000000000E+00 -0.83219983480E+03  0.83219983482E+03  0.50400001928E-02 0.  1.
    10030    2    1    2    0    0  0.00000000000E+00  0.00000000000E+00  0.24989291159E+02  0.16893889608E+04  0.16892041310E+04 0.  0.
        4    1    3    3  502    0  0.48645963545E+03 -0.67104655761E+03  0.17500727689E+03  0.84709835278E+03  0.12699999809E+01 0.  1.
       -4    1    3    3    0  502 -0.48645963545E+03  0.67104655761E+03 -0.15001798574E+03  0.84229060802E+03  0.12699999809E+01 0. -1.
</event>
<event>
 5   0  0.6746664E-04  0.1682966E+04  0.7818609E-02  0.8771139E-01
       -2   -1    0    0    0  501  0.00000000000E+00  0.00000000000E+00  0.91513011162E+03  0.91513011162E+03  0.25500000920E-02 0. -1.
        2   -1    0    0  501    0  0.00000000000E+00  0.00000000000E+00 -0.77376314004E+03  0.77376314004E+03  0.25500000920E-02 0.  1.
    10030    2    1    2    0    0  0.00000000000E+00  0.00000000000E+00  0.14136697158E+03  0.16888932517E+04  0.16829663677E+04 0.  0.
        5    1    3    3  502    0 -0.69615927743E+03  0.10040422863E+03  0.53421178337E+03  0.88324575752E+03  0.46999998093E+01 0.  1.
       -5    1    3    3    0  502  0.69615927743E+03 -0.10040422863E+03 -0.39284481179E+03  0.80564749415E+03  0.46999998093E+01 0. -1.
</event>
<event>
 5   0  0.3635143E-04  0.1620733E+04  0.7818609E-02  0.8807911E-01
        1   -1    0    0  501    0  0.00000000000E+00  0.00000000000E+00  0.86971833566E+03  0.86971833568E+03  0.50400001928E-02 0. -1.
       -1   -1    0    0    0  501  0.00000000000E+00  0.00000000000E+00 -0.75506464330E+03  0.75506464332E+03  0.50400001928E-02 0.  1.
    10030    2    1    2    0    0  0.00000000000E+00  0.00000000000E+00  0.11465369236E+03  0.16247829790E+04  0.16207326305E+04 0.  0.
        3    1    3    3  502    0  0.68570308941E+03 -0.42203974435E+03 -0.34484130891E+02  0.80591279809E+03  0.10100000352E+00 0.  1.
       -3    1    3    3    0  502 -0.68570308941E+03  0.42203974435E+03  0.14913782325E+03  0.81887018090E+03  0.10100000352E+00 0. -1.
</event>
<event>
 5   0  0.3915701E-04  0.1705365E+04  0.7818609E-02  0.8758311E-01
        1   -1    0    0  501    0  0.00000000000E+00  0.00000000000E+00  0.12113551287E+04  0.12113551287E+04  0.50400001928E-02 0.  1.
       -1   -1    0    0    0  501  0.00000000000E+00  0.00000000000E+00 -0.60020986128E+03  0.60020986131E+03  0.50400001928E-02 0. -1.
    10030    2    1    2    0    0  0.00000000000E+00  0.00000000000E+00  0.61114526740E+03  0.18115649900E+04  0.17053648217E+04 0.  0.
        2    1    3    3  502    0  0.50312164337E+03  0.47257013887E+03 -0.22621561573E+03  0.72637967275E+03  0.25500000920E-02 0. -1.
       -2    1    3    3    0  502 -0.50312164337E+03 -0.47257013887E+03  0.83736088313E+03  0.10851853173E+04  0.25500000920E-02 0.  1.
</event>
<event>
 5   0  0.7242144E-04  0.1705275E+04  0.7818609E-02  0.8758361E-01
       -2   -1    0    0    0  501  0.00000000000E+00  0.00000000000E+00  0.29524716706E+03  0.29524716707E+03  0.25500000920E-02 0. -1.
        2   -1    0    0  501    0  0.00000000000E+00  0.00000000000E+00 -0.24623132416E+04  0.24623132416E+04  0.25500000920E-02 0.  1.
    10030    2    1    2    0    0  0.00000000000E+00  0.00000000000E+00 -0.21670660746E+04  0.27575604087E+04  0.17052753549E+04 0.  0.
        3    1    3    3  502    0  0.23290354863E+03  0.52857673256E+02 -0.24071206329E+04  0.24189393849E+04  0.10100000352E+00 0.  1.
       -3    1    3    3    0  502 -0.23290354863E+03 -0.52857673256E+02  0.24005455830E+03  0.33862102378E+03  0.10100000352E+00 0. -1.
</event>
<event>
 5   0  0.3635143E-04  0.1708443E+04  0.7818609E-02  0.8756563E-01
        1   -1    0    0  501    0  0.00000000000E+00  0.00000000000E+00  0.24819514873E+04  0.24819514873E+04  0.50400001928E-02 0. -1.
       -1   -1    0    0    0  501  0.00000000000E+00  0.00000000000E+00 -0.29400035862E+03  0.29400035866E+03  0.50400001928E-02 0.  1.
    10030    2    1    2    0    0  0.00000000000E+00  0.00000000000E+00  0.21879511287E+04  0.27759518460E+04  0.17084433001E+04 0.  0.
        3    1    3    3  502    0 -0.83920828433E+03 -0.14980492229E+03  0.10052383467E+04  0.13180349780E+04  0.10100000352E+00 0. -1.
       -3    1    3    3    0  502  0.83920828433E+03  0.14980492229E+03  0.11827127820E+04  0.14579168680E+04  0.10100000352E+00 0.  1.
</event>
<event>
 5   0  0.3635143E-04  0.1699836E+04  0.7818609E-02  0.8761458E-01
       -1   -1    0    0    0  501  0.00000000000E+00  0.00000000000E+00  0.82389670943E+03  0.82389670945E+03  0.50400001928E-02 0.  1.
        1   -1    0    0  501    0  0.00000000000E+00  0.00000000000E+00 -0.87676117214E+03  0.87676117216E+03  0.50400001928E-02 0. -1.
    10030    2    1    2    0    0  0.00000000000E+00  0.00000000000E+00 -0.52864462711E+02  0.17006578816E+04  0.16998360447E+04 0.  0.
        3    1    3    3  502    0 -0.82656637839E+03  0.13227075615E+03  0.12078884884E+03  0.84575261573E+03  0.10100000352E+00 0. -1.
       -3    1    3    3    0  502  0.82656637839E+03 -0.13227075615E+03 -0.17365331155E+03  0.85490526588E+03  0.10100000352E+00 0.  1.
</event>
<event>
 5   0  0.3635143E-04  0.1655548E+04  0.7818609E-02  0.8787131E-01
        1   -1    0    0  501    0  0.00000000000E+00  0.00000000000E+00  0.10254532108E+04  0.10254532109E+04  0.50400001928E-02 0. -1.
       -1   -1    0    0    0  501  0.00000000000E+00  0.00000000000E+00 -0.66820224583E+03  0.66820224585E+03  0.50400001928E-02 0.  1.
    10030    2    1    2    0    0  0.00000000000E+00  0.00000000000E+00  0.35725096501E+03  0.16936554567E+04  0.16555484149E+04 0.  0.
        3    1    3    3  502    0  0.45892075939E+03  0.40129129993E+03  0.75148543741E+03  0.96766385880E+03  0.10100000352E+00 0. -1.
       -3    1    3    3    0  502 -0.45892075939E+03 -0.40129129993E+03 -0.39423447240E+03  0.72599159790E+03  0.10100000352E+00 0.  1.
</event>
<event>
 5   0  0.6746664E-04  0.1613868E+04  0.7818609E-02  0.8812074E-01
        2   -1    0    0  501    0  0.00000000000E+00  0.00000000000E+00  0.66378488606E+03  0.66378488606E+03  0.25500000920E-02 0. -1.
       -2   -1    0    0    0  501  0.00000000000E+00  0.00000000000E+00 -0.98095345631E+03  0.98095345632E+03  0.25500000920E-02 0.  1.
    10030    2    1    2    0    0  0.00000000000E+00  0.00000000000E+00 -0.31716857025E+03  0.16447383424E+04  0.16138675017E+04 0.  0.
        5    1    3    3  502    0  0.45647222646E+03  0.44447768784E+03  0.34605689886E+03  0.72505501568E+03  0.46999998093E+01 0. -1.
       -5    1    3    3    0  502 -0.45647222646E+03 -0.44447768784E+03 -0.66322546912E+03  0.91968332670E+03  0.46999998093E+01 0.  1.
</event>
<event>
 5   0  0.3803253E-04  0.1421569E+04  0.7818609E-02  0.8938352E-01
        1   -1    0    0  501    0  0.00000000000E+00  0.00000000000E+00  0.68454511463E+03  0.68454511464E+03  0.50400001928E-02 0. -1.
       -1   -1    0    0    0  501  0.00000000000E+00  0.00000000000E+00 -0.73802921943E+03  0.73802921945E+03  0.50400001928E-02 0.  1.
    10030    2    1    2    0    0  0.00000000000E+00  0.00000000000E+00 -0.53484104803E+02  0.14225743341E+04  0.14215685655E+04 0.  0.
        4    1    3    3  502    0 -0.33438768270E+03 -0.15638778273E+03  0.58109235165E+03  0.68843459745E+03  0.12699999809E+01 0. -1.
       -4    1    3    3    0  502  0.33438768270E+03  0.15638778273E+03 -0.63457645645E+03  0.73413973664E+03  0.12699999809E+01 0.  1.
</event>
<event>
 5   0  0.3803253E-04  0.1669040E+04  0.7818609E-02  0.8779222E-01
        1   -1    0    0  501    0  0.00000000000E+00  0.00000000000E+00  0.24698753085E+04  0.24698753085E+04  0.50400001928E-02 0. -1.
       -1   -1    0    0    0  501  0.00000000000E+00  0.00000000000E+00 -0.28196718558E+03  0.28196718563E+03  0.50400001928E-02 0.  1.
    10030    2    1    2    0    0  0.00000000000E+00  0.00000000000E+00  0.21879081229E+04  0.27518424941E+04  0.16690401907E+04 0.  0.
        4    1    3    3  502    0 -0.71170141135E+03  0.26174931626E+03  0.51950799609E+03  0.91919626543E+03  0.12699999809E+01 0.  1.
       -4    1    3    3    0  502  0.71170141135E+03 -0.26174931626E+03  0.16684001268E+04  0.18326462287E+04  0.12699999809E+01 0. -1.
</event>
<event>
 5   0  0.7242144E-04  0.1642655E+04  0.7818609E-02  0.8794763E-01
        2   -1    0    0  501    0  0.00000000000E+00  0.00000000000E+00  0.16469635876E+04  0.16469635876E+04  0.25500000920E-02 0. -1.
       -2   -1    0    0    0  501  0.00000000000E+00  0.00000000000E+00 -0.40958952020E+03  0.40958952021E+03  0.25500000920E-02 0.  1.
    10030    2    1    2    0    0  0.00000000000E+00  0.00000000000E+00  0.12373740674E+04  0.20565531078E+04  0.16426551989E+04 0.  0.
        3    1    3    3  502    0 -0.75598140762E+03  0.11585859837E+03  0.24383177665E+03  0.80273597713E+03  0.10100000352E+00 0.  1.
       -3    1    3    3    0  502  0.75598140762E+03 -0.11585859837E+03  0.99354229074E+03  0.12538171307E+04  0.10100000352E+00 0. -1.
</event>
<event>
 5   0  0.7049044E-04  0.1426119E+04  0.7818609E-02  0.8935126E-01
        2   -1    0    0  501    0  0.00000000000E+00  0.00000000000E+00  0.68174004607E+03  0.68174004608E+03  0.25500000920E-02 0. -1.
       -2   -1    0    0    0  501  0.00000000000E+00  0.00000000000E+00 -0.74581776660E+03  0.74581776661E+03  0.25500000920E-02 0.  1.
    10030    2    1    2    0    0  0.00000000000E+00  0.00000000000E+00 -0.64077720534E+02  0.14275578127E+04  0.14261189832E+04 0.  0.
        4    1    3    3  502    0 -0.22236797183E+03 -0.41281914024E+03  0.50570427193E+03  0.68964163229E+03  0.12699999809E+01 0. -1.
       -4    1    3    3    0  502  0.22236797183E+03  0.41281914024E+03 -0.56978199246E+03  0.73791618039E+03  0.12699999809E+01 0.  1.
</event>
<event>
 5   0  0.7049044E-04  0.1682281E+04  0.7818609E-02  0.8771535E-01
       -2   -1    0    0    0  501  0.00000000000E+00  0.00000000000E+00  0.45322849852E+03  0.45322849852E+03  0.25500000920E-02 0. -1.
        2   -1    0    0  501    0  0.00000000000E+00  0.00000000000E+00 -0.15610608409E+04  0.15610608409E+04  0.25500000920E-02 0.  1.
    10030    2    1    2    0    0  0.00000000000E+00  0.00000000000E+00 -0.11078323424E+04  0.20142893394E+04  0.16822809052E+04 0.  0.
        4    1    3    3  502    0 -0.80040283555E+03  0.79804139125E+02 -0.84843230838E+03  0.11691246275E+04  0.12699999809E+01 0.  1.
       -4    1    3    3    0  502  0.80040283555E+03 -0.79804139125E+02 -0.25940003400E+03  0.84516471195E+03  0.12699999809E+01 0. -1.
</event>
<event>
 5   0  0.3713516E-04  0.1671459E+04  0.7818609E-02  0.8777812E-01
       -1   -1    0    0    0  501  0.00000000000E+00  0.00000000000E+00  0.10071991809E+04  0.10071991809E+04  0.50400001928E-02 0. -1.
        1   -1    0    0  501    0  0.00000000000E+00  0.00000000000E+00 -0.69345120282E+03  0.69345120284E+03  0.50400001928E-02 0.  1.
    10030    2    1    2    0    0  0.00000000000E+00  0.00000000000E+00  0.31374797808E+03  0.17006503837E+04  0.16714586247E+04 0.  0.
        5    1    3    3  502    0 -0.58819668196E+03  0.20152990778E+03 -0.41129768589E+03  0.74550487377E+03  0.46999998093E+01 0.  1.
       -5    1    3    3    0  502  0.58819668196E+03 -0.20152990778E+03  0.72504566396E+03  0.95514550998E+03  0.46999998093E+01 0. -1.
</event>
<event>
 5   0  0.3635143E-04  0.1716872E+04  0.7818609E-02  0.8751800E-01
       -1   -1    0    0    0  501  0.00000000000E+00  0.00000000000E+00  0.68496264290E+03  0.68496264292E+03  0.50400001928E-02 0. -1.
        1   -1    0    0  501    0  0.00000000000E+00  0.00000000000E+00 -0.10758426791E+04  0.10758426791E+04  0.50400001928E-02 0.  1.
    10030    2    1    2    0    0  0.00000000000E+00  0.00000000000E+00 -0.39088003619E+03  0.17608053220E+04  0.17168716258E+04 0.  0.
        3    1    3    3  502    0 -0.52472503439E+02 -0.73293855189E+03 -0.65059810289E+03  0.98144291028E+03  0.10100000352E+00 0.  1.
       -3    1    3    3    0  502  0.52472503439E+02  0.73293855189E+03  0.25971806670E+03  0.77936241174E+03  0.10100000352E+00 0. -1.
</event>
<event>
 5   0  0.7049044E-04  0.1745487E+04  0.7818609E-02  0.8735838E-01
        2   -1    0    0  501    0  0.00000000000E+00  0.00000000000E+00  0.67399601229E+03  0.67399601229E+03  0.25500000920E-02 0. -1.
       -2   -1    0    0    0  501  0.00000000000E+00  0.00000000000E+00 -0.11300976605E+04  0.11300976606E+04  0.25500000920E-02 0.  1.
    10030    2    1    2    0    0  0.00000000000E+00  0.00000000000E+00 -0.45610164826E+03  0.18040936728E+04  0.17454871145E+04 0.  0.
        4    1    3    3  502    0 -0.61878264683E+03  0.24496694846E+03 -0.81161314556E+03  0.10495800497E+04  0.12699999809E+01 0.  1.
       -4    1    3    3    0  502  0.61878264683E+03 -0.24496694846E+03  0.35551149730E+03  0.75451362312E+03  0.12699999809E+01 0. -1.
</event>
<event>
 5   0  0.6746664E-04  0.1687997E+04  0.7818609E-02  0.8768240E-01
       -2   -1    0    0    0  501  0.00000000000E+00  0.00000000000E+00  0.60878075189E+03  0.60878075190E+03  0.25500000920E-02 0.  1.
        2   -1    0    0  501    0  0.00000000000E+00  0.00000000000E+00 -0.11700983167E+04  0.11700983167E+04  0.25500000920E-02 0. -1.
    10030    2    1    2    0    0  0.00000000000E+00  0.00000000000E+00 -0.56131756485E+03  0.17788790686E+04  0.16879968401E+04 0.  0.
        5    1    3    3  502    0 -0.57889626479E+03  0.26078943082E+03 -0.86663494807E+03  0.10743417686E+04  0.46999998093E+01 0. -1.
       -5    1    3    3    0  502  0.57889626479E+03 -0.26078943082E+03  0.30531738322E+03  0.70453730001E+03  0.46999998093E+01 0.  1.
</event>
<event>
 5   0  0.3713516E-04  0.1691315E+04  0.7818609E-02  0.8766333E-01
       -1   -1    0    0    0  501  0.00000000000E+00  0.00000000000E+00  0.81273929023E+03  0.81273929025E+03  0.50400001928E-02 0.  1.
        1   -1    0    0  501    0  0.00000000000E+00  0.00000000000E+00 -0.87990933556E+03  0.87990933557E+03  0.50400001928E-02 0. -1.
    10030    2    1    2    0    0  0.00000000000E+00  0.00000000000E+00 -0.67170045324E+02  0.16926486258E+04  0.16913153330E+04 0.  0.
        5    1    3    3  502    0 -0.48380382977E+03  0.67932548894E+03  0.10640209500E+03  0.84076914872E+03  0.46999998093E+01 0.  1.
       -5    1    3    3    0  502  0.48380382977E+03 -0.67932548894E+03 -0.17357214032E+03  0.85187947710E+03  0.46999998093E+01 0. -1.
</event>
<event>
 5   0  0.3635143E-04  0.2217019E+04  0.7818609E-02  0.8511378E-01
       -1   -1    0    0    0  501  0.00000000000E+00  0.00000000000E+00  0.55660063623E+03  0.55660063625E+03  0.50400001928E-02 0.  1.
        1   -1    0    0  501    0  0.00000000000E+00  0.00000000000E+00 -0.22076757853E+04  0.22076757853E+04  0.50400001928E-02 0. -1.
    10030    2    1    2    0    0  0.00000000000E+00  0.00000000000E+00 -0.16510751491E+04  0.27642764216E+04  0.22170193926E+04 0.  0.
        3    1    3    3  502    0  0.56320417836E+03  0.33285465690E+03 -0.19413076403E+04  0.20485767092E+04  0.10100000352E+00 0. -1.
       -3    1    3    3    0  502 -0.56320417836E+03 -0.33285465690E+03  0.29023249118E+03  0.71569971237E+03  0.10100000352E+00 0.  1.
</event>
<event>
 5   0  0.7025426E-04  0.1692566E+04  0.7818609E-02  0.8765615E-01
       -2   -1    0    0    0  501  0.00000000000E+00  0.00000000000E+00  0.16060314337E+04  0.16060314337E+04  0.25500000920E-02 0. -1.
        2   -1    0    0  501    0  0.00000000000E+00  0.00000000000E+00 -0.44594103922E+03  0.44594103923E+03  0.25500000920E-02 0.  1.
    10030    2    1    2    0    0  0.00000000000E+00  0.00000000000E+00  0.11600903945E+04  0.20519724730E+04  0.16925664851E+04 0.  0.
        2    1    3    3  502    0  0.80118080595E+03 -0.12183744590E+03  0.87566890978E+03  0.11931182199E+04  0.25500000920E-02 0. -1.
       -2    1    3    3    0  502 -0.80118080595E+03  0.12183744590E+03  0.28442148472E+03  0.85885425308E+03  0.25500000920E-02 0.  1.
</event>
<event>
 5   0  0.6746664E-04  0.1650807E+04  0.7818609E-02  0.8789929E-01
       -2   -1    0    0    0  501  0.00000000000E+00  0.00000000000E+00  0.58666317925E+03  0.58666317925E+03  0.25500000920E-02 0.  1.
        2   -1    0    0  501    0  0.00000000000E+00  0.00000000000E+00 -0.11612984939E+04  0.11612984939E+04  0.25500000920E-02 0. -1.
    10030    2    1    2    0    0  0.00000000000E+00  0.00000000000E+00 -0.57463531468E+03  0.17479616732E+04  0.16508071559E+04 0.  0.
        5    1    3    3  502    0  0.26612564903E+03 -0.20833685209E+03 -0.10846568786E+04  0.11361028736E+04  0.46999998093E+01 0. -1.
       -5    1    3    3    0  502 -0.26612564903E+03  0.20833685209E+03  0.51002156393E+03  0.61185879962E+03  0.46999998093E+01 0.  1.
</event>
<event>
 5   0  0.7233728E-04  0.1734761E+04  0.7818609E-02  0.8741784E-01
       -2   -1    0    0    0  501  0.00000000000E+00  0.00000000000E+00  0.51032300206E+03  0.51032300206E+03  0.25500000920E-02 0.  1.
        2   -1    0    0  501    0  0.00000000000E+00  0.00000000000E+00 -0.14742598969E+04  0.14742598969E+04  0.25500000920E-02 0. -1.
    10030    2    1    2    0    0  0.00000000000E+00  0.00000000000E+00 -0.96393689485E+03  0.19845828990E+04  0.17347607748E+04 0.  0.
        1    1    3    3  502    0 -0.56304457136E+03  0.40363540180E+00  0.27284328558E+03  0.62566988962E+03  0.50400001928E-02 0.  1.
       -1    1    3    3    0  502  0.56304457136E+03 -0.40363540180E+00 -0.12367801804E+04  0.13589130094E+04  0.50400001928E-02 0. -1.
</event>
<event>
 5   0  0.7049044E-04  0.1703759E+04  0.7818609E-02  0.8759223E-01
        2   -1    0    0  501    0  0.00000000000E+00  0.00000000000E+00  0.12270855737E+04  0.12270855737E+04  0.25500000920E-02 0. -1.
       -2   -1    0    0    0  501  0.00000000000E+00  0.00000000000E+00 -0.59140020473E+03  0.59140020474E+03  0.25500000920E-02 0.  1.
    10030    2    1    2    0    0  0.00000000000E+00  0.00000000000E+00  0.63568536896E+03  0.18184857784E+04  0.17037589730E+04 0.  0.
        4    1    3    3  502    0 -0.16553921604E+03 -0.81274198870E+03  0.52520378692E+03  0.98172980139E+03  0.12699999809E+01 0.  1.
       -4    1    3    3    0  502  0.16553921604E+03  0.81274198870E+03  0.11048158204E+03  0.83675597704E+03  0.12699999809E+01 0. -1.
</event>
<event>
 5   0  0.6746664E-04  0.1734053E+04  0.7818609E-02  0.8742178E-01
       -2   -1    0    0    0  501  0.00000000000E+00  0.00000000000E+00  0.36791687885E+03  0.36791687886E+03  0.25500000920E-02 0.  1.
        2   -1    0    0  501    0  0.00000000000E+00  0.00000000000E+00 -0.20432194877E+04  0.20432194877E+04  0.25500000920E-02 0. -1.
    10030    2    1    2    0    0  0.00000000000E+00  0.00000000000E+00 -0.16753026088E+04  0.24111363665E+04  0.17340529827E+04 0.  0.
        5    1    3    3  502    0  0.92139020924E+02  0.24245342147E+03 -0.19879932884E+04  0.20048472923E+04  0.46999998093E+01 0. -1.
       -5    1    3    3    0  502 -0.92139020924E+02 -0.24245342147E+03  0.31269067956E+03  0.40628907424E+03  0.46999998093E+01 0.  1.
</event>
<event>
 5   0  0.7242144E-04  0.1719052E+04  0.7818609E-02  0.8750572E-01
       -2   -1    0    0    0  501  0.00000000000E+00  0.00000000000E+00  0.42172250353E+03  0.42172250354E+03  0.25500000920E-02 0.  1.
        2   -1    0    0  501    0  0.00000000000E+00  0.00000000000E+00 -0.17518265795E+04  0.17518265795E+04  0.25500000920E-02 0. -1.
    10030    2    1    2    0    0  0.00000000000E+00  0.00000000000E+00 -0.13301040760E+04  0.21735490831E+04  0.17190517047E+04 0.  0.
        3    1    3    3  502    0 -0.13777545218E+02 -0.81577781085E+03 -0.10069082128E+04  0.12959735401E+04  0.10100000352E+00 0. -1.
       -3    1    3    3    0  502  0.13777545218E+02  0.81577781085E+03 -0.32319586319E+03  0.87757554297E+03  0.10100000352E+00 0.  1.
</event>
<event>
 5   0  0.3915701E-04  0.1722938E+04  0.7818609E-02  0.8748389E-01
       -1   -1    0    0    0  501  0.00000000000E+00  0.00000000000E+00  0.59269478185E+03  0.59269478187E+03  0.50400001928E-02 0.  1.
        1   -1    0    0  501    0  0.00000000000E+00  0.00000000000E+00 -0.12521263273E+04  0.12521263273E+04  0.50400001928E-02 0. -1.
    10030    2    1    2    0    0  0.00000000000E+00  0.00000000000E+00 -0.65943154544E+03  0.18448211092E+04  0.17229378868E+04 0.  0.
        2    1    3    3  502    0  0.34870828042E+03 -0.41935716279E+03  0.38429368823E+03  0.66718777989E+03  0.25500000920E-02 0.  1.
       -2    1    3    3    0  502 -0.34870828042E+03  0.41935716279E+03 -0.10437252337E+04  0.11776333293E+04  0.25500000920E-02 0. -1.
</event>
<event>
 5   0  0.6746664E-04  0.1708858E+04  0.7818609E-02  0.8756329E-01
       -2   -1    0    0    0  501  0.00000000000E+00  0.00000000000E+00  0.26404024948E+03  0.26404024950E+03  0.25500000920E-02 0.  1.
        2   -1    0    0  501    0  0.00000000000E+00  0.00000000000E+00 -0.27649143043E+04  0.27649143043E+04  0.25500000920E-02 0. -1.
    10030    2    1    2    0    0  0.00000000000E+00  0.00000000000E+00 -0.25008740548E+04  0.30289545538E+04  0.17088577035E+04 0.  0.
        5    1    3    3  502    0  0.54622058658E+03 -0.45860867512E+03 -0.41651702751E+03  0.82594634832E+03  0.46999998093E+01 0.  1.
       -5    1    3    3    0  502 -0.54622058658E+03  0.45860867512E+03 -0.20843570273E+04  0.22030082055E+04  0.46999998093E+01 0. -1.
</event>
<event>
 5   0  0.3713516E-04  0.1703496E+04  0.7818609E-02  0.8759373E-01
        1   -1    0    0  501    0  0.00000000000E+00  0.00000000000E+00  0.99523320371E+03  0.99523320372E+03  0.50400001928E-02 0.  1.
       -1   -1    0    0    0  501  0.00000000000E+00  0.00000000000E+00 -0.72894941543E+03  0.72894941545E+03  0.50400001928E-02 0. -1.
    10030    2    1    2    0    0  0.00000000000E+00  0.00000000000E+00  0.26628378828E+03  0.17241826192E+04  0.17034960077E+04 0.  0.
        5    1    3    3  502    0  0.60847058780E+03  0.59009059522E+03  0.21787956702E+03  0.87517824614E+03  0.46999998093E+01 0. -1.
       -5    1    3    3    0  502 -0.60847058780E+03 -0.59009059522E+03  0.48404221258E+02  0.84900437303E+03  0.46999998093E+01 0.  1.
</event>
<event>
 5   0  0.3713516E-04  0.1759864E+04  0.7818609E-02  0.8727939E-01
       -1   -1    0    0    0  501  0.00000000000E+00  0.00000000000E+00  0.13603666635E+04  0.13603666636E+04  0.50400001928E-02 0. -1.
        1   -1    0    0  501    0  0.00000000000E+00  0.00000000000E+00 -0.56917022620E+03  0.56917022622E+03  0.50400001928E-02 0.  1.
    10030    2    1    2    0    0  0.00000000000E+00  0.00000000000E+00  0.79119643735E+03  0.19295368898E+04  0.17598638602E+04 0.  0.
        5    1    3    3  502    0 -0.70977262502E+03 -0.43784682238E+03  0.70331944015E+03  0.10909479108E+04  0.46999998093E+01 0. -1.
       -5    1    3    3    0  502  0.70977262502E+03  0.43784682238E+03  0.87876997192E+02  0.83858897902E+03  0.46999998093E+01 0.  1.
</event>
<event>
 5   0  0.3713516E-04  0.1689345E+04  0.7818609E-02  0.8767465E-01
       -1   -1    0    0    0  501  0.00000000000E+00  0.00000000000E+00  0.43228476719E+03  0.43228476722E+03  0.50400001928E-02 0.  1.
        1   -1    0    0  501    0  0.00000000000E+00  0.00000000000E+00 -0.16504663727E+04  0.16504663727E+04  0.50400001928E-02 0. -1.
    10030    2    1    2    0    0  0.00000000000E+00  0.00000000000E+00 -0.12181816055E+04  0.20827511399E+04  0.16893448099E+04 0.  0.
        5    1    3    3  502    0 -0.34106489668E+03  0.56573297146E+03  0.39863452401E+02  0.66180831332E+03  0.46999998093E+01 0.  1.
       -5    1    3    3    0  502  0.34106489668E+03 -0.56573297146E+03 -0.12580450579E+04  0.14209428266E+04  0.46999998093E+01 0. -1.
</event>
<event>
 5   0  0.3723500E-04  0.1684387E+04  0.7818609E-02  0.8770319E-01
       -1   -1    0    0    0  501  0.00000000000E+00  0.00000000000E+00  0.68068860670E+03  0.68068860672E+03  0.50400001928E-02 0. -1.
        1   -1    0    0  501    0  0.00000000000E+00  0.00000000000E+00 -0.10420182398E+04  0.10420182398E+04  0.50400001928E-02 0.  1.
    10030    2    1    2    0    0  0.00000000000E+00  0.00000000000E+00 -0.36132963310E+03  0.17227068465E+04  0.16843870622E+04 0.  0.
        1    1    3    3  502    0 -0.35436306194E+03  0.59361055063E+03  0.31125908620E+03  0.75817470563E+03  0.50400001928E-02 0. -1.
       -1    1    3    3    0  502  0.35436306194E+03 -0.59361055063E+03 -0.67258871931E+03  0.96453214091E+03  0.50400001928E-02 0.  1.
</event>
<event>
 5   0  0.7242144E-04  0.1707263E+04  0.7818609E-02  0.8757233E-01
        2   -1    0    0  501    0  0.00000000000E+00  0.00000000000E+00  0.12778029259E+04  0.12778029259E+04  0.25500000920E-02 0. -1.
       -2   -1    0    0    0  501  0.00000000000E+00  0.00000000000E+00 -0.57026502914E+03  0.57026502914E+03  0.25500000920E-02 0.  1.
    10030    2    1    2    0    0  0.00000000000E+00  0.00000000000E+00  0.70753789676E+03  0.18480679550E+04  0.17072625138E+04 0.  0.
        3    1    3    3  502    0  0.47085588332E+03 -0.69064455842E+03  0.54123133648E+03  0.99580446812E+03  0.10100000352E+00 0.  1.
       -3    1    3    3    0  502 -0.47085588332E+03  0.69064455842E+03  0.16630656028E+03  0.85226348692E+03  0.10100000352E+00 0. -1.
</event>
<event>
 5   0  0.6746664E-04  0.1680259E+04  0.7818609E-02  0.8772704E-01
       -2   -1    0    0    0  501  0.00000000000E+00  0.00000000000E+00  0.66123652889E+03  0.66123652889E+03  0.25500000920E-02 0. -1.
        2   -1    0    0  501    0  0.00000000000E+00  0.00000000000E+00 -0.10674206725E+04  0.10674206725E+04  0.25500000920E-02 0.  1.
    10030    2    1    2    0    0  0.00000000000E+00  0.00000000000E+00 -0.40618414365E+03  0.17286572014E+04  0.16802589567E+04 0.  0.
        5    1    3    3  502    0 -0.78351557700E+03 -0.30310666555E+03 -0.20825050320E+03  0.86554068199E+03  0.46999998093E+01 0.  1.
       -5    1    3    3    0  502  0.78351557700E+03  0.30310666555E+03 -0.19793364046E+03  0.86311651944E+03  0.46999998093E+01 0. -1.
</event>
<event>
 5   0  0.3803253E-04  0.1709407E+04  0.7818609E-02  0.8756017E-01
        1   -1    0    0  501    0  0.00000000000E+00  0.00000000000E+00  0.76415871410E+03  0.76415871412E+03  0.50400001928E-02 0.  1.
       -1   -1    0    0    0  501  0.00000000000E+00  0.00000000000E+00 -0.95597700601E+03  0.95597700602E+03  0.50400001928E-02 0. -1.
    10030    2    1    2    0    0  0.00000000000E+00  0.00000000000E+00 -0.19181829190E+03  0.17201357201E+04  0.17094071015E+04 0.  0.
        4    1    3    3  502    0 -0.75444592714E+03  0.39639469610E+03 -0.16111658023E+03  0.86733936691E+03  0.12699999809E+01 0.  1.
       -4    1    3    3    0  502  0.75444592714E+03 -0.39639469610E+03 -0.30701711675E+02  0.85279635323E+03  0.12699999809E+01 0. -1.
</event>
<event>
 5   0  0.7025426E-04  0.1719439E+04  0.7818609E-02  0.8750355E-01
        2   -1    0    0  501    0  0.00000000000E+00  0.00000000000E+00  0.47164154218E+03  0.47164154219E+03  0.25500000920E-02 0.  1.
       -2   -1    0    0    0  501  0.00000000000E+00  0.00000000000E+00 -0.15671172598E+04  0.15671172598E+04  0.25500000920E-02 0. -1.
    10030    2    1    2    0    0  0.00000000000E+00  0.00000000000E+00 -0.10954757177E+04  0.20387588020E+04  0.17194389797E+04 0.  0.
        2    1    3    3  502    0  0.25028386309E+01  0.79638255617E+03 -0.16373171174E+03  0.81304336502E+03  0.25500000920E-02 0. -1.
       -2    1    3    3    0  502 -0.25028386309E+01 -0.79638255617E+03 -0.93174400592E+03  0.12257154370E+04  0.25500000920E-02 0.  1.
</event>
<event>
 5   0  0.7025426E-04  0.1692834E+04  0.7818609E-02  0.8765462E-01
       -2   -1    0    0    0  501  0.00000000000E+00  0.00000000000E+00  0.37783324888E+03  0.37783324889E+03  0.25500000920E-02 0.  1.
        2   -1    0    0  501    0  0.00000000000E+00  0.00000000000E+00 -0.18961311230E+04  0.18961311230E+04  0.25500000920E-02 0. -1.
    10030    2    1    2    0    0  0.00000000000E+00  0.00000000000E+00 -0.15182978741E+04  0.22739643719E+04  0.16928335801E+04 0.  0.
        2    1    3    3  502    0 -0.29531795513E+03  0.79071455914E+03 -0.84388452504E+03  0.11935590896E+04  0.25500000920E-02 0. -1.
       -2    1    3    3    0  502  0.29531795513E+03 -0.79071455914E+03 -0.67441334905E+03  0.10804052823E+04  0.25500000920E-02 0.  1.
</event>
<event>
 5   0  0.3723500E-04  0.1593159E+04  0.7818609E-02  0.8824762E-01
       -1   -1    0    0    0  501  0.00000000000E+00  0.00000000000E+00  0.33698423608E+03  0.33698423612E+03  0.50400001928E-02 0.  1.
        1   -1    0    0  501    0  0.00000000000E+00  0.00000000000E+00 -0.18829934056E+04  0.18829934056E+04  0.50400001928E-02 0. -1.
    10030    2    1    2    0    0  0.00000000000E+00  0.00000000000E+00 -0.15460091695E+04  0.22199776417E+04  0.15931592442E+04 0.  0.
        1    1    3    3  502    0  0.70653175024E+03  0.34273088712E+03 -0.95936963468E+03  0.12397748469E+04  0.50400001928E-02 0.  1.
       -1    1    3    3    0  502 -0.70653175024E+03 -0.34273088712E+03 -0.58663953485E+03  0.98020279481E+03  0.50400001928E-02 0. -1.
</event>
<event>
 5   0  0.6746664E-04  0.1667381E+04  0.7818609E-02  0.8780190E-01
       -2   -1    0    0    0  501  0.00000000000E+00  0.00000000000E+00  0.28521516023E+03  0.28521516024E+03  0.25500000920E-02 0. -1.
        2   -1    0    0  501    0  0.00000000000E+00  0.00000000000E+00 -0.24368952552E+04  0.24368952552E+04  0.25500000920E-02 0.  1.
    10030    2    1    2    0    0  0.00000000000E+00  0.00000000000E+00 -0.21516800950E+04  0.27221104154E+04  0.16673805453E+04 0.  0.
        5    1    3    3  502    0 -0.63918736779E+03  0.53404369208E+03 -0.11336574593E+04  0.14067567242E+04  0.46999998093E+01 0. -1.
       -5    1    3    3    0  502  0.63918736779E+03 -0.53404369208E+03 -0.10180226357E+04  0.13153536912E+04  0.46999998093E+01 0.  1.
</event>
<event>
 5   0  0.3635143E-04  0.1706405E+04  0.7818609E-02  0.8757720E-01
       -1   -1    0    0    0  501  0.00000000000E+00  0.00000000000E+00  0.56571629835E+03  0.56571629837E+03  0.50400001928E-02 0. -1.
        1   -1    0    0  501    0  0.00000000000E+00  0.00000000000E+00 -0.12867842471E+04  0.12867842471E+04  0.50400001928E-02 0.  1.
    10030    2    1    2    0    0  0.00000000000E+00  0.00000000000E+00 -0.72106794873E+03  0.18525005455E+04  0.17064053693E+04 0.  0.
        3    1    3    3  502    0 -0.28458020839E+03  0.14463498133E+03 -0.12195089661E+04  0.12605979936E+04  0.10100000352E+00 0.  1.
       -3    1    3    3    0  502  0.28458020839E+03 -0.14463498133E+03  0.49844101741E+03  0.59190255183E+03  0.10100000352E+00 0. -1.
</event>
<event>
 5   0  0.7049044E-04  0.1713211E+04  0.7818609E-02  0.8753865E-01
       -2   -1    0    0    0  501  0.00000000000E+00  0.00000000000E+00  0.68693271615E+03  0.68693271615E+03  0.25500000920E-02 0. -1.
        2   -1    0    0  501    0  0.00000000000E+00  0.00000000000E+00 -0.10681871789E+04  0.10681871789E+04  0.25500000920E-02 0.  1.
    10030    2    1    2    0    0  0.00000000000E+00  0.00000000000E+00 -0.38125446271E+03  0.17551198950E+04  0.17132106936E+04 0.  0.
        4    1    3    3  502    0 -0.80419860048E+02 -0.11641274334E+03  0.67487786396E+03  0.68955132142E+03  0.12699999809E+01 0. -1.
       -4    1    3    3    0  502  0.80419860048E+02  0.11641274334E+03 -0.10561323267E+04  0.10655685736E+04  0.12699999809E+01 0.  1.
</event>
<event>
 5   0  0.2639750E-04  0.1716225E+04  0.7818609E-02  0.8752164E-01
        3   -1    0    0  501    0  0.00000000000E+00  0.00000000000E+00  0.75585610271E+03  0.75585610946E+03  0.10100000352E+00 0.  1.
       -3   -1    0    0    0  501  0.00000000000E+00  0.00000000000E+00 -0.97420323492E+03  0.97420324016E+03  0.10100000352E+00 0. -1.
    10030    2    1    2    0    0  0.00000000000E+00  0.00000000000E+00 -0.21834713221E+03  0.17300593496E+04  0.17162254756E+04 0.  0.
        3    1    3    3  502    0 -0.11252842117E+03 -0.63957929302E+03 -0.67461664392E+03  0.93639305000E+03  0.10100000352E+00 0. -1.
       -3    1    3    3    0  502  0.11252842117E+03  0.63957929302E+03  0.45626951171E+03  0.79366629962E+03  0.10100000352E+00 0.  1.
</event>
<event>
 5   0  0.6746664E-04  0.1706746E+04  0.7818609E-02  0.8757526E-01
       -2   -1    0    0    0  501  0.00000000000E+00  0.00000000000E+00  0.20702525354E+04  0.20702525354E+04  0.25500000920E-02 0. -1.
        2   -1    0    0  501    0  0.00000000000E+00  0.00000000000E+00 -0.35176662088E+03  0.35176662089E+03  0.25500000920E-02 0.  1.
    10030    2    1    2    0    0  0.00000000000E+00  0.00000000000E+00  0.17184859145E+04  0.24220191563E+04  0.17067463066E+04 0.  0.
        5    1    3    3  502    0  0.55168525439E+03  0.35659046750E+03  0.86251152646E+02  0.66255168308E+03  0.46999998093E+01 0.  1.
       -5    1    3    3    0  502 -0.55168525439E+03 -0.35659046750E+03  0.16322347618E+04  0.17594674732E+04  0.46999998093E+01 0. -1.
</event>
<event>
 5   0  0.3723500E-04  0.1692884E+04  0.7818609E-02  0.8765433E-01
       -1   -1    0    0    0  501  0.00000000000E+00  0.00000000000E+00  0.54403822937E+03  0.54403822939E+03  0.50400001928E-02 0.  1.
        1   -1    0    0  501    0  0.00000000000E+00  0.00000000000E+00 -0.13169372848E+04  0.13169372848E+04  0.50400001928E-02 0. -1.
    10030    2    1    2    0    0  0.00000000000E+00  0.00000000000E+00 -0.77289905547E+03  0.18609755142E+04  0.16928842000E+04 0.  0.
        1    1    3    3  502    0 -0.66853633913E+03  0.10226153405E+03  0.17307430825E+03  0.69810670694E+03  0.50400001928E-02 0.  1.
       -1    1    3    3    0  502  0.66853633913E+03 -0.10226153405E+03 -0.94597336372E+03  0.11628688073E+04  0.50400001928E-02 0. -1.
</event>
<event>
 5   0  0.3723500E-04  0.1378253E+04  0.7818609E-02  0.8969712E-01
       -1   -1    0    0    0  501  0.00000000000E+00  0.00000000000E+00  0.86346304019E+03  0.86346304020E+03  0.50400001928E-02 0.  1.
        1   -1    0    0  501    0  0.00000000000E+00  0.00000000000E+00 -0.54998934297E+03  0.54998934300E+03  0.50400001928E-02 0. -1.
    10030    2    1    2    0    0  0.00000000000E+00  0.00000000000E+00  0.31347369721E+03  0.14134523832E+04  0.13782531991E+04 0.  0.
        1    1    3    3  502    0  0.91485019363E+02  0.59574043154E+03  0.49936403490E+03  0.78271361936E+03  0.50400001928E-02 0.  1.
       -1    1    3    3    0  502 -0.91485019363E+02 -0.59574043154E+03 -0.18589033769E+03  0.63073876384E+03  0.50400001928E-02 0. -1.
</event>
<event>
 5   0  0.3635143E-04  0.1706955E+04  0.7818609E-02  0.8757408E-01
       -1   -1    0    0    0  501  0.00000000000E+00  0.00000000000E+00  0.31828732328E+03  0.31828732332E+03  0.50400001928E-02 0. -1.
        1   -1    0    0  501    0  0.00000000000E+00  0.00000000000E+00 -0.22885727299E+04  0.22885727299E+04  0.50400001928E-02 0.  1.
    10030    2    1    2    0    0  0.00000000000E+00  0.00000000000E+00 -0.19702854066E+04  0.26068600532E+04  0.17069548188E+04 0.  0.
        3    1    3    3  502    0 -0.76626972541E+03 -0.36669336520E+03 -0.85929590952E+03  0.12083140264E+04  0.10100000352E+00 0.  1.
       -3    1    3    3    0  502  0.76626972541E+03  0.36669336520E+03 -0.11109894971E+04  0.13985460268E+04  0.10100000352E+00 0. -1.
</event>
<event>
 5   0  0.7049044E-04  0.1783081E+04  0.7818609E-02  0.8715349E-01
        2   -1    0    0  501    0  0.00000000000E+00  0.00000000000E+00  0.66483418953E+03  0.66483418953E+03  0.25500000920E-02 0. -1.
       -2   -1    0    0    0  501  0.00000000000E+00  0.00000000000E+00 -0.11955530198E+04  0.11955530198E+04  0.25500000920E-02 0.  1.
    10030    2    1    2    0    0  0.00000000000E+00  0.00000000000E+00 -0.53071883030E+03  0.18603872094E+04  0.17830810671E+04 0.  0.
        4    1    3    3  502    0  0.77276360655E+03  0.11449395693E+03 -0.71360223807E+03  0.10580653216E+04  0.12699999809E+01 0.  1.
       -4    1    3    3    0  502 -0.77276360655E+03 -0.11449395693E+03  0.18288340777E+03  0.80232188772E+03  0.12699999809E+01 0. -1.
</event>
<event>
 5   0  0.7233728E-04  0.1657444E+04  0.7818609E-02  0.8786015E-01
       -2   -1    0    0    0  501  0.00000000000E+00  0.00000000000E+00  0.48547484186E+03  0.48547484187E+03  0.25500000920E-02 0. -1.
        2   -1    0    0  501    0  0.00000000000E+00  0.00000000000E+00 -0.14146568586E+04  0.14146568586E+04  0.25500000920E-02 0.  1.
    10030    2    1    2    0    0  0.00000000000E+00  0.00000000000E+00 -0.92918201676E+03  0.19001317005E+04  0.16574441948E+04 0.  0.
        1    1    3    3  502    0 -0.14180484217E+03  0.25410545818E+03  0.42497845423E+03  0.51505813625E+03  0.50400001928E-02 0. -1.
       -1    1    3    3    0  502  0.14180484217E+03 -0.25410545818E+03 -0.13541604710E+04  0.13850735642E+04  0.50400001928E-02 0.  1.
</event>
<event>
 5   0  0.6746664E-04  0.1679513E+04  0.7818609E-02  0.8773136E-01
        2   -1    0    0  501    0  0.00000000000E+00  0.00000000000E+00  0.51138303840E+03  0.51138303841E+03  0.25500000920E-02 0.  1.
       -2   -1    0    0    0  501  0.00000000000E+00  0.00000000000E+00 -0.13789883646E+04  0.13789883647E+04  0.25500000920E-02 0. -1.
    10030    2    1    2    0    0  0.00000000000E+00  0.00000000000E+00 -0.86760532625E+03  0.18903714031E+04  0.16795133341E+04 0.  0.
        5    1    3    3  502    0 -0.27455168067E+03 -0.28590448127E+02  0.45884429464E+03  0.53549623323E+03  0.46999998093E+01 0.  1.
       -5    1    3    3    0  502  0.27455168067E+03  0.28590448127E+02 -0.13264496209E+04  0.13548751698E+04  0.46999998093E+01 0. -1.
</event>
<event>
 5   0  0.3915701E-04  0.1618627E+04  0.7818609E-02  0.8809186E-01
        1   -1    0    0  501    0  0.00000000000E+00  0.00000000000E+00  0.23979819042E+04  0.23979819042E+04  0.50400001928E-02 0.  1.
       -1   -1    0    0    0  501  0.00000000000E+00  0.00000000000E+00 -0.27314151138E+03  0.27314151143E+03  0.50400001928E-02 0. -1.
    10030    2    1    2    0    0  0.00000000000E+00  0.00000000000E+00  0.21248403928E+04  0.26711234156E+04  0.16186270746E+04 0.  0.
        2    1    3    3  502    0 -0.10831932503E+03 -0.19112504771E+03  0.23478360468E+04  0.23580915933E+04  0.25500000920E-02 0.  1.
       -2    1    3    3    0  502  0.10831932503E+03  0.19112504771E+03 -0.22299565400E+03  0.31303182226E+03  0.25500000920E-02 0. -1.
</event>
<event>
 5   0  0.3713516E-04  0.1995767E+04  0.7818609E-02  0.8608602E-01
       -1   -1    0    0    0  501  0.00000000000E+00  0.00000000000E+00  0.84054852000E+03  0.84054852002E+03  0.50400001928E-02 0. -1.
        1   -1    0    0  501    0  0.00000000000E+00  0.00000000000E+00 -0.11846686204E+04  0.11846686204E+04  0.50400001928E-02 0.  1.
    10030    2    1    2    0    0  0.00000000000E+00  0.00000000000E+00 -0.34412010043E+03  0.20252171405E+04  0.19957669760E+04 0.  0.
        5    1    3    3  502    0 -0.84549106098E+03  0.16843703394E+03  0.33787210890E+03  0.92596210536E+03  0.46999998093E+01 0. -1.
       -5    1    3    3    0  502  0.84549106098E+03 -0.16843703394E+03 -0.68199220934E+03  0.10992550351E+04  0.46999998093E+01 0.  1.
</event>
<event>
 5   0  0.7049044E-04  0.1683280E+04  0.7818609E-02  0.8770958E-01
        2   -1    0    0  501    0  0.00000000000E+00  0.00000000000E+00  0.11036286152E+04  0.11036286152E+04  0.25500000920E-02 0.  1.
       -2   -1    0    0    0  501  0.00000000000E+00  0.00000000000E+00 -0.64184466516E+03  0.64184466516E+03  0.25500000920E-02 0. -1.
    10030    2    1    2    0    0  0.00000000000E+00  0.00000000000E+00  0.46178395005E+03  0.17454732804E+04  0.16832802963E+04 0.  0.
        4    1    3    3  502    0 -0.22963450715E+03 -0.76031597129E+03 -0.57864190186E+02  0.79634305452E+03  0.12699999809E+01 0.  1.
       -4    1    3    3    0  502  0.22963450715E+03  0.76031597129E+03  0.51964814024E+03  0.94913022585E+03  0.12699999809E+01 0. -1.
</event>
<event>
 5   0  0.3635143E-04  0.1170721E+04  0.7818609E-02  0.9138878E-01
        1   -1    0    0  501    0  0.00000000000E+00  0.00000000000E+00  0.96050233962E+03  0.96050233964E+03  0.50400001928E-02 0.  1.
       -1   -1    0    0    0  501  0.00000000000E+00  0.00000000000E+00 -0.35673692600E+03  0.35673692604E+03  0.50400001928E-02 0. -1.
    10030    2    1    2    0    0  0.00000000000E+00  0.00000000000E+00  0.60376541362E+03  0.13172392657E+04  0.11707205509E+04 0.  0.
        3    1    3    3  502    0  0.27721353147E+03  0.21808858679E+03  0.82750682845E+03  0.89954295898E+03  0.10100000352E+00 0.  1.
       -3    1    3    3    0  502 -0.27721353147E+03 -0.21808858679E+03 -0.22374141483E+03  0.41769630669E+03  0.10100000352E+00 0. -1.
</event>
<event>
 5   0  0.7049044E-04  0.1710570E+04  0.7818609E-02  0.8755359E-01
       -2   -1    0    0    0  501  0.00000000000E+00  0.00000000000E+00  0.11188532704E+04  0.11188532704E+04  0.25500000920E-02 0. -1.
        2   -1    0    0  501    0  0.00000000000E+00  0.00000000000E+00 -0.65380521747E+03  0.65380521748E+03  0.25500000920E-02 0.  1.
    10030    2    1    2    0    0  0.00000000000E+00  0.00000000000E+00  0.46504805290E+03  0.17726584879E+04  0.17105696195E+04 0.  0.
        4    1    3    3  502    0  0.83654248328E+03 -0.93621342146E+02  0.38948871157E+03  0.92750814087E+03  0.12699999809E+01 0. -1.
       -4    1    3    3    0  502 -0.83654248328E+03  0.93621342146E+02  0.75559341336E+02  0.84515034698E+03  0.12699999809E+01 0.  1.
</event>
<event>
 5   0  0.3635143E-04  0.1396330E+04  0.7818609E-02  0.8956479E-01
       -1   -1    0    0    0  501  0.00000000000E+00  0.00000000000E+00  0.24235872128E+03  0.24235872133E+03  0.50400001928E-02 0. -1.
        1   -1    0    0  501    0  0.00000000000E+00  0.00000000000E+00 -0.20112108853E+04  0.20112108853E+04  0.50400001928E-02 0.  1.
    10030    2    1    2    0    0  0.00000000000E+00  0.00000000000E+00 -0.17688521640E+04  0.22535696066E+04  0.13963301879E+04 0.  0.
        3    1    3    3  502    0 -0.40646978510E+03 -0.19099175738E+03 -0.17471415250E+04  0.18039398704E+04  0.10100000352E+00 0. -1.
       -3    1    3    3    0  502  0.40646978510E+03  0.19099175738E+03 -0.21710638988E+02  0.44962973615E+03  0.10100000352E+00 0.  1.
</event>
<event>
 5   0  0.3723500E-04  0.1533210E+04  0.7818609E-02  0.8862664E-01
        1   -1    0    0  501    0  0.00000000000E+00  0.00000000000E+00  0.45277129300E+03  0.45277129303E+03  0.50400001928E-02 0.  1.
       -1   -1    0    0    0  501  0.00000000000E+00  0.00000000000E+00 -0.12979700845E+04  0.12979700845E+04  0.50400001928E-02 0. -1.
    10030    2    1    2    0    0  0.00000000000E+00  0.00000000000E+00 -0.84519879148E+03  0.17507413775E+04  0.15332104793E+04 0.  0.
        1    1    3    3  502    0 -0.14582943702E+03  0.24069145199E+03 -0.12368522460E+04  0.12684644568E+04  0.50400001928E-02 0. -1.
       -1    1    3    3    0  502  0.14582943702E+03 -0.24069145199E+03  0.39165345453E+03  0.48227692069E+03  0.50400001928E-02 0.  1.
</event>
<event>
 5   0  0.7049044E-04  0.1671763E+04  0.7818609E-02  0.8777635E-01
       -2   -1    0    0    0  501  0.00000000000E+00  0.00000000000E+00  0.29187250697E+03  0.29187250698E+03  0.25500000920E-02 0. -1.
        2   -1    0    0  501    0  0.00000000000E+00  0.00000000000E+00 -0.23938470942E+04  0.23938470942E+04  0.25500000920E-02 0.  1.
    10030    2    1    2    0    0  0.00000000000E+00  0.00000000000E+00 -0.21019745872E+04  0.26857196012E+04  0.16717633238E+04 0.  0.
        4    1    3    3  502    0 -0.44351099898E+03 -0.44072012394E+03 -0.15975240723E+03  0.64533609722E+03  0.12699999809E+01 0. -1.
       -4    1    3    3    0  502  0.44351099898E+03  0.44072012394E+03 -0.19422221800E+04  0.20403835040E+04  0.12699999809E+01 0.  1.
</event>
<event>
 5   0  0.7233728E-04  0.1710879E+04  0.7818609E-02  0.8755184E-01
        2   -1    0    0  501    0  0.00000000000E+00  0.00000000000E+00  0.16017203904E+04  0.16017203904E+04  0.25500000920E-02 0.  1.
       -2   -1    0    0    0  501  0.00000000000E+00  0.00000000000E+00 -0.45686923453E+03  0.45686923454E+03  0.25500000920E-02 0. -1.
    10030    2    1    2    0    0  0.00000000000E+00  0.00000000000E+00  0.11448511558E+04  0.20585896249E+04  0.17108790357E+04 0.  0.
        1    1    3    3  502    0  0.73174125600E+03  0.27432277421E+03  0.15374383434E+03  0.79645176678E+03  0.50400001928E-02 0. -1.
       -1    1    3    3    0  502 -0.73174125600E+03 -0.27432277421E+03  0.99110732151E+03  0.12621378581E+04  0.50400001928E-02 0.  1.
</event>
<event>
 5   0  0.7025426E-04  0.1671018E+04  0.7818609E-02  0.8778069E-01
        2   -1    0    0  501    0  0.00000000000E+00  0.00000000000E+00  0.14728669357E+04  0.14728669357E+04  0.25500000920E-02 0.  1.
       -2   -1    0    0    0  501  0.00000000000E+00  0.00000000000E+00 -0.47395673123E+03  0.47395673124E+03  0.25500000920E-02 0. -1.
    10030    2    1    2    0    0  0.00000000000E+00  0.00000000000E+00  0.99891020443E+03  0.19468236669E+04  0.16710178914E+04 0.  0.
        2    1    3    3  502    0 -0.42691594381E+03 -0.25554019814E+03  0.12814450979E+04  0.13746488842E+04  0.25500000920E-02 0.  1.
       -2    1    3    3    0  502  0.42691594381E+03  0.25554019814E+03 -0.28253489345E+03  0.57217478270E+03  0.25500000920E-02 0. -1.
</event>
<event>
 5   0  0.7049044E-04  0.1671261E+04  0.7818609E-02  0.8777927E-01
       -2   -1    0    0    0  501  0.00000000000E+00  0.00000000000E+00  0.75800354386E+03  0.75800354387E+03  0.25500000920E-02 0. -1.
        2   -1    0    0  501    0  0.00000000000E+00  0.00000000000E+00 -0.92120714624E+03  0.92120714624E+03  0.25500000920E-02 0.  1.
    10030    2    1    2    0    0  0.00000000000E+00  0.00000000000E+00 -0.16320360238E+03  0.16792106901E+04  0.16712609389E+04 0.  0.
        4    1    3    3  502    0  0.54204115166E+03 -0.47223960313E+03 -0.50960672667E+03  0.88120342806E+03  0.12699999809E+01 0.  1.
       -4    1    3    3    0  502 -0.54204115166E+03  0.47223960313E+03  0.34640312429E+03  0.79800726205E+03  0.12699999809E+01 0. -1.
</event>
<event>
 5   0  0.3723500E-04  0.1674955E+04  0.7818609E-02  0.8775779E-01
       -1   -1    0    0    0  501  0.00000000000E+00  0.00000000000E+00  0.40596127013E+03  0.40596127017E+03  0.50400001928E-02 0.  1.
        1   -1    0    0  501    0  0.00000000000E+00  0.00000000000E+00 -0.17276735957E+04  0.17276735957E+04  0.50400001928E-02 0. -1.
    10030    2    1    2    0    0  0.00000000000E+00  0.00000000000E+00 -0.13217123255E+04  0.21336348658E+04  0.16749550051E+04 0.  0.
        1    1    3    3  502    0 -0.17426006109E+03  0.71572003628E+03 -0.15331708895E+03  0.75241469219E+03  0.50400001928E-02 0.  1.
       -1    1    3    3    0  502  0.17426006109E+03 -0.71572003628E+03 -0.11683952366E+04  0.13812201737E+04  0.50400001928E-02 0. -1.
</event>
<event>
 5   0  0.3635143E-04  0.1720107E+04  0.7818609E-02  0.8749979E-01
       -1   -1    0    0    0  501  0.00000000000E+00  0.00000000000E+00  0.17662165848E+04  0.17662165848E+04  0.50400001928E-02 0. -1.
        1   -1    0    0  501    0  0.00000000000E+00  0.00000000000E+00 -0.41880006754E+03  0.41880006757E+03  0.50400001928E-02 0.  1.
    10030    2    1    2    0    0  0.00000000000E+00  0.00000000000E+00  0.13474165172E+04  0.21850166524E+04  0.17201065374E+04 0.  0.
        3    1    3    3  502    0  0.16540538125E+03  0.36865284552E+03 -0.29072426205E+03  0.49777953694E+03  0.10100000352E+00 0.  1.
       -3    1    3    3    0  502 -0.16540538125E+03 -0.36865284552E+03  0.16381407793E+04  0.16872371154E+04  0.10100000352E+00 0. -1.
</event>
<event>
 5   0  0.7025426E-04  0.1655395E+04  0.7818609E-02  0.8787221E-01
       -2   -1    0    0    0  501  0.00000000000E+00  0.00000000000E+00  0.98465480838E+03  0.98465480838E+03  0.25500000920E-02 0. -1.
        2   -1    0    0  501    0  0.00000000000E+00  0.00000000000E+00 -0.69576003263E+03  0.69576003263E+03  0.25500000920E-02 0.  1.
    10030    2    1    2    0    0  0.00000000000E+00  0.00000000000E+00  0.28889477575E+03  0.16804148410E+04  0.16553953747E+04 0.  0.
        2    1    3    3  502    0 -0.17281018888E+03  0.83727110992E+02  0.96173062461E+03  0.98071371195E+03  0.25500000920E-02 0. -1.
       -2    1    3    3    0  502  0.17281018888E+03 -0.83727110992E+02 -0.67283584886E+03  0.69970112906E+03  0.25500000920E-02 0.  1.
</event>
<event>
 5   0  0.3915701E-04  0.1414434E+04  0.7818609E-02  0.8943436E-01
       -1   -1    0    0    0  501  0.00000000000E+00  0.00000000000E+00  0.22050280972E+03  0.22050280978E+03  0.50400001928E-02 0.  1.
        1   -1    0    0  501    0  0.00000000000E+00  0.00000000000E+00 -0.22682509636E+04  0.22682509636E+04  0.50400001928E-02 0. -1.
    10030    2    1    2    0    0  0.00000000000E+00  0.00000000000E+00 -0.20477481539E+04  0.24887537734E+04  0.14144337534E+04 0.  0.
        2    1    3    3  502    0  0.18796355176E+03  0.40093081136E+03 -0.53602798757E+02  0.44603707506E+03  0.25500000920E-02 0.  1.
       -2    1    3    3    0  502 -0.18796355176E+03 -0.40093081136E+03 -0.19941453551E+04  0.20427166983E+04  0.25500000920E-02 0. -1.
</event>
<event>
 5   0  0.3803253E-04  0.1706268E+04  0.7818609E-02  0.8757797E-01
       -1   -1    0    0    0  501  0.00000000000E+00  0.00000000000E+00  0.50456651459E+03  0.50456651461E+03  0.50400001928E-02 0. -1.
        1   -1    0    0  501    0  0.00000000000E+00  0.00000000000E+00 -0.14425015597E+04  0.14425015597E+04  0.50400001928E-02 0.  1.
    10030    2    1    2    0    0  0.00000000000E+00  0.00000000000E+00 -0.93793504510E+03  0.19470680743E+04  0.17062684247E+04 0.  0.
        4    1    3    3  502    0 -0.27363954198E+03  0.80573721161E+03 -0.53880332810E+03  0.10071751051E+04  0.12699999809E+01 0.  1.
       -4    1    3    3    0  502  0.27363954198E+03 -0.80573721161E+03 -0.39913171701E+03  0.93989296919E+03  0.12699999809E+01 0. -1.
</event>
<event>
 5   0  0.3803253E-04  0.1697521E+04  0.7818609E-02  0.8762779E-01
        1   -1    0    0  501    0  0.00000000000E+00  0.00000000000E+00  0.76807648428E+03  0.76807648430E+03  0.50400001928E-02 0. -1.
       -1   -1    0    0    0  501  0.00000000000E+00  0.00000000000E+00 -0.93792061842E+03  0.93792061843E+03  0.50400001928E-02 0.  1.
    10030    2    1    2    0    0  0.00000000000E+00  0.00000000000E+00 -0.16984413414E+03  0.17059971027E+04  0.16975214534E+04 0.  0.
        4    1    3    3  502    0  0.49496592358E+02 -0.29204779068E+03  0.71444312196E+03  0.77341606663E+03  0.12699999809E+01 0. -1.
       -4    1    3    3    0  502 -0.49496592358E+02  0.29204779068E+03 -0.88428725610E+03  0.93258103610E+03  0.12699999809E+01 0.  1.
</event>
<event>
 5   0  0.7025426E-04  0.1691363E+04  0.7818609E-02  0.8766306E-01
        2   -1    0    0  501    0  0.00000000000E+00  0.00000000000E+00  0.13062388379E+04  0.13062388379E+04  0.25500000920E-02 0.  1.
       -2   -1    0    0    0  501  0.00000000000E+00  0.00000000000E+00 -0.54750867539E+03  0.54750867539E+03  0.25500000920E-02 0. -1.
    10030    2    1    2    0    0  0.00000000000E+00  0.00000000000E+00  0.75873016250E+03  0.18537475133E+04  0.16913628775E+04 0.  0.
        2    1    3    3  502    0 -0.69070125989E+03 -0.27002872423E+03  0.82482647545E+03  0.11091990159E+04  0.25500000920E-02 0.  1.
       -2    1    3    3    0  502  0.69070125989E+03  0.27002872423E+03 -0.66096312946E+02  0.74454849736E+03  0.25500000920E-02 0. -1.
</event>
<event>
 5   0  0.3723500E-04  0.1619221E+04  0.7818609E-02  0.8808826E-01
       -1   -1    0    0    0  501  0.00000000000E+00  0.00000000000E+00  0.43888546770E+03  0.43888546773E+03  0.50400001928E-02 0. -1.
        1   -1    0    0  501    0  0.00000000000E+00  0.00000000000E+00 -0.14934862872E+04  0.14934862873E+04  0.50400001928E-02 0.  1.
    10030    2    1    2    0    0  0.00000000000E+00  0.00000000000E+00 -0.10546008195E+04  0.19323717550E+04  0.16192213286E+04 0.  0.
        1    1    3    3  502    0  0.53530983728E+03  0.43632984689E+03 -0.10315423173E+04  0.12413782299E+04  0.50400001928E-02 0.  1.
       -1    1    3    3    0  502 -0.53530983728E+03 -0.43632984689E+03 -0.23058502221E+02  0.69099352510E+03  0.50400001928E-02 0. -1.
</event>
<event>
 5   0  0.7025426E-04  0.1701941E+04  0.7818609E-02  0.8760258E-01
       -2   -1    0    0    0  501  0.00000000000E+00  0.00000000000E+00  0.37835603391E+03  0.37835603392E+03  0.25500000920E-02 0.  1.
        2   -1    0    0  501    0  0.00000000000E+00  0.00000000000E+00 -0.19139396890E+04  0.19139396890E+04  0.25500000920E-02 0. -1.
    10030    2    1    2    0    0  0.00000000000E+00  0.00000000000E+00 -0.15355836551E+04  0.22922957229E+04  0.17019408097E+04 0.  0.
        2    1    3    3  502    0 -0.82275353241E+02  0.63154033593E+03 -0.76284320530E+01  0.63692277604E+03  0.25500000920E-02 0.  1.
       -2    1    3    3    0  502  0.82275353241E+02 -0.63154033593E+03 -0.15279552231E+04  0.16553729469E+04  0.25500000920E-02 0. -1.
</event>
<event>
 5   0  0.7025426E-04  0.1534559E+04  0.7818609E-02  0.8861791E-01
       -2   -1    0    0    0  501  0.00000000000E+00  0.00000000000E+00  0.55566117878E+03  0.55566117878E+03  0.25500000920E-02 0. -1.
        2   -1    0    0  501    0  0.00000000000E+00  0.00000000000E+00 -0.10594910859E+04  0.10594910859E+04  0.25500000920E-02 0.  1.
    10030    2    1    2    0    0  0.00000000000E+00  0.00000000000E+00 -0.50382990716E+03  0.16151522647E+04  0.15345593058E+04 0.  0.
        2    1    3    3  502    0 -0.73358224845E+03  0.12131461904E+03 -0.52608068236E+02  0.74540442773E+03  0.25500000920E-02 0. -1.
       -2    1    3    3    0  502  0.73358224845E+03 -0.12131461904E+03 -0.45122183892E+03  0.86974783699E+03  0.25500000920E-02 0.  1.
</event>
<event>
 5   0  0.7025426E-04  0.1850283E+04  0.7818609E-02  0.8680007E-01
        2   -1    0    0  501    0  0.00000000000E+00  0.00000000000E+00  0.21215340172E+04  0.21215340172E+04  0.25500000920E-02 0.  1.
       -2   -1    0    0    0  501  0.00000000000E+00  0.00000000000E+00 -0.40342847278E+03  0.40342847279E+03  0.25500000920E-02 0. -1.
    10030    2    1    2    0    0  0.00000000000E+00  0.00000000000E+00  0.17181055444E+04  0.25249624900E+04  0.18502834686E+04 0.  0.
        2    1    3    3  502    0 -0.41240016718E+03  0.31917028074E+03 -0.18374990355E+03  0.55290830438E+03  0.25500000920E-02 0. -1.
       -2    1    3    3    0  502  0.41240016718E+03 -0.31917028074E+03  0.19018554480E+04  0.19720541856E+04  0.25500000920E-02 0.  1.
</event>
<event>
 5   0  0.7233728E-04  0.1547405E+04  0.7818609E-02  0.8853527E-01
        2   -1    0    0  501    0  0.00000000000E+00  0.00000000000E+00  0.10935904967E+04  0.10935904967E+04  0.25500000920E-02 0.  1.
       -2   -1    0    0    0  501  0.00000000000E+00  0.00000000000E+00 -0.54738551625E+03  0.54738551626E+03  0.25500000920E-02 0. -1.
    10030    2    1    2    0    0  0.00000000000E+00  0.00000000000E+00  0.54620498041E+03  0.16409760129E+04  0.15474050518E+04 0.  0.
        1    1    3    3  502    0  0.49941472201E+03 -0.58971365448E+03  0.31332127658E+03  0.83387497937E+03  0.50400001928E-02 0.  1.
       -1    1    3    3    0  502 -0.49941472201E+03  0.58971365448E+03  0.23288370384E+03  0.80710103356E+03  0.50400001928E-02 0. -1.
</event>
<event>
 5   0  0.3915701E-04  0.1688060E+04  0.7818609E-02  0.8768204E-01
        1   -1    0    0  501    0  0.00000000000E+00  0.00000000000E+00  0.12311908753E+04  0.12311908753E+04  0.50400001928E-02 0.  1.
       -1   -1    0    0    0  501  0.00000000000E+00  0.00000000000E+00 -0.57861586932E+03  0.57861586934E+03  0.50400001928E-02 0. -1.
    10030    2    1    2    0    0  0.00000000000E+00  0.00000000000E+00  0.65257500596E+03  0.18098067446E+04  0.16880599262E+04 0.  0.
        2    1    3    3  502    0  0.60674844643E+03  0.56355192199E+03  0.15125837667E+03  0.84179186415E+03  0.25500000920E-02 0. -1.
       -2    1    3    3    0  502 -0.60674844643E+03 -0.56355192199E+03  0.50131662929E+03  0.96801488048E+03  0.25500000920E-02 0.  1.
</event>
<event>
 5   0  0.7049044E-04  0.1732142E+04  0.7818609E-02  0.8743242E-01
        2   -1    0    0  501    0  0.00000000000E+00  0.00000000000E+00  0.87669056054E+03  0.87669056055E+03  0.25500000920E-02 0.  1.
       -2   -1    0    0    0  501  0.00000000000E+00  0.00000000000E+00 -0.85558050181E+03  0.85558050182E+03  0.25500000920E-02 0. -1.
    10030    2    1    2    0    0  0.00000000000E+00  0.00000000000E+00  0.21110058729E+02  0.17322710624E+04  0.17321424303E+04 0.  0.
        4    1    3    3  502    0  0.56533535845E+03 -0.29377573098E+03 -0.57614813954E+03  0.85898576195E+03  0.12699999809E+01 0. -1.
       -4    1    3    3    0  502 -0.56533535845E+03  0.29377573098E+03  0.59725819827E+03  0.87328530042E+03  0.12699999809E+01 0.  1.
</event>
<event>
 5   0  0.6746664E-04  0.1549303E+04  0.7818609E-02  0.8852313E-01
       -2   -1    0    0    0  501  0.00000000000E+00  0.00000000000E+00  0.44994559360E+03  0.44994559361E+03  0.25500000920E-02 0. -1.
        2   -1    0    0  501    0  0.00000000000E+00  0.00000000000E+00 -0.13336835007E+04  0.13336835007E+04  0.25500000920E-02 0.  1.
    10030    2    1    2    0    0  0.00000000000E+00  0.00000000000E+00 -0.88373790711E+03  0.17836290943E+04  0.15493030877E+04 0.  0.
        5    1    3    3  502    0  0.21570226333E+03  0.35235069294E+03  0.31251304472E+03  0.51803954515E+03  0.46999998093E+01 0. -1.
       -5    1    3    3    0  502 -0.21570226333E+03 -0.35235069294E+03 -0.11962509518E+04  0.12655895492E+04  0.46999998093E+01 0.  1.
</event>
<event>
 5   0  0.3635143E-04  0.1675295E+04  0.7818609E-02  0.8775582E-01
        1   -1    0    0  501    0  0.00000000000E+00  0.00000000000E+00  0.10705033978E+04  0.10705033978E+04  0.50400001928E-02 0.  1.
       -1   -1    0    0    0  501  0.00000000000E+00  0.00000000000E+00 -0.65544204453E+03  0.65544204455E+03  0.50400001928E-02 0. -1.
    10030    2    1    2    0    0  0.00000000000E+00  0.00000000000E+00  0.41506135326E+03  0.17259454423E+04  0.16752945243E+04 0.  0.
        3    1    3    3  502    0 -0.29427136867E+03  0.27324209381E+03 -0.54981120702E+03  0.68084451515E+03  0.10100000352E+00 0. -1.
       -3    1    3    3    0  502  0.29427136867E+03 -0.27324209381E+03  0.96487256028E+03  0.10451009272E+04  0.10100000352E+00 0.  1.
</event>
<event>
 5   0  0.6746664E-04  0.1708262E+04  0.7818609E-02  0.8756666E-01
        2   -1    0    0  501    0  0.00000000000E+00  0.00000000000E+00  0.16976304682E+04  0.16976304682E+04  0.25500000920E-02 0. -1.
       -2   -1    0    0    0  501  0.00000000000E+00  0.00000000000E+00 -0.42973981407E+03  0.42973981408E+03  0.25500000920E-02 0.  1.
    10030    2    1    2    0    0  0.00000000000E+00  0.00000000000E+00  0.12678906541E+04  0.21273702823E+04  0.17082615746E+04 0.  0.
        5    1    3    3  502    0  0.62336624310E+03 -0.49725135931E+03  0.10150951792E+04  0.12908465052E+04  0.46999998093E+01 0. -1.
       -5    1    3    3    0  502 -0.62336624310E+03  0.49725135931E+03  0.25279547498E+03  0.83652377703E+03  0.46999998093E+01 0.  1.
</event>
<event>
 5   0  0.3713516E-04  0.1627708E+04  0.7818609E-02  0.8803705E-01
        1   -1    0    0  501    0  0.00000000000E+00  0.00000000000E+00  0.92588212340E+03  0.92588212341E+03  0.50400001928E-02 0. -1.
       -1   -1    0    0    0  501  0.00000000000E+00  0.00000000000E+00 -0.71538052326E+03  0.71538052327E+03  0.50400001928E-02 0.  1.
    10030    2    1    2    0    0  0.00000000000E+00  0.00000000000E+00  0.21050160014E+03  0.16412626467E+04  0.16277076371E+04 0.  0.
        5    1    3    3  502    0 -0.63629442558E+03  0.21304968969E+03 -0.35910043842E+03  0.76107554236E+03  0.46999998093E+01 0. -1.
       -5    1    3    3    0  502  0.63629442558E+03 -0.21304968969E+03  0.56960203856E+03  0.88018710433E+03  0.46999998093E+01 0.  1.
</event>
<event>
 5   0  0.6746664E-04  0.1580260E+04  0.7818609E-02  0.8832768E-01
       -2   -1    0    0    0  501  0.00000000000E+00  0.00000000000E+00  0.21946694616E+03  0.21946694618E+03  0.25500000920E-02 0.  1.
        2   -1    0    0  501    0  0.00000000000E+00  0.00000000000E+00 -0.28446450910E+04  0.28446450910E+04  0.25500000920E-02 0. -1.
    10030    2    1    2    0    0  0.00000000000E+00  0.00000000000E+00 -0.26251781448E+04  0.30641120372E+04  0.15802601951E+04 0.  0.
        5    1    3    3  502    0  0.59158672356E+03 -0.22658201560E+03 -0.39700443480E+03  0.74762883340E+03  0.46999998093E+01 0.  1.
       -5    1    3    3    0  502 -0.59158672356E+03  0.22658201560E+03 -0.22281737100E+04  0.23164832038E+04  0.46999998093E+01 0. -1.
</event>
<event>
 5   0  0.7025426E-04  0.1970557E+04  0.7818609E-02  0.8620511E-01
       -2   -1    0    0    0  501  0.00000000000E+00  0.00000000000E+00  0.62097210925E+03  0.62097210925E+03  0.25500000920E-02 0.  1.
        2   -1    0    0  501    0  0.00000000000E+00  0.00000000000E+00 -0.15633123205E+04  0.15633123205E+04  0.25500000920E-02 0. -1.
    10030    2    1    2    0    0  0.00000000000E+00  0.00000000000E+00 -0.94234021128E+03  0.21842844298E+04  0.19705566210E+04 0.  0.
        2    1    3    3  502    0 -0.57073013011E+02 -0.53954406224E+03 -0.13828129172E+04  0.14854415801E+04  0.25500000920E-02 0. -1.
       -2    1    3    3    0  502  0.57073013011E+02  0.53954406224E+03  0.44047270591E+03  0.69884284969E+03  0.25500000920E-02 0.  1.
</event>
<event>
 5   0  0.3723500E-04  0.1619601E+04  0.7818609E-02  0.8808596E-01
       -1   -1    0    0    0  501  0.00000000000E+00  0.00000000000E+00  0.90902692609E+03  0.90902692610E+03  0.50400001928E-02 0.  1.
        1   -1    0    0  501    0  0.00000000000E+00  0.00000000000E+00 -0.72140487552E+03  0.72140487553E+03  0.50400001928E-02 0. -1.
    10030    2    1    2    0    0  0.00000000000E+00  0.00000000000E+00  0.18762205057E+03  0.16304318016E+04  0.16196005143E+04 0.  0.
        1    1    3    3  502    0  0.78987554962E+02  0.84754903991E+02 -0.71301882579E+03  0.72236990078E+03  0.50400001928E-02 0. -1.
       -1    1    3    3    0  502 -0.78987554962E+02 -0.84754903991E+02  0.90064087636E+03  0.90806190086E+03  0.50400001928E-02 0.  1.
</event>
<event>
 5   0  0.3635143E-04  0.1694464E+04  0.7818609E-02  0.8764528E-01
       -1   -1    0    0    0  501  0.00000000000E+00  0.00000000000E+00  0.12581751373E+04  0.12581751374E+04  0.50400001928E-02 0. -1.
        1   -1    0    0  501    0  0.00000000000E+00  0.00000000000E+00 -0.57051078315E+03  0.57051078317E+03  0.50400001928E-02 0.  1.
    10030    2    1    2    0    0  0.00000000000E+00  0.00000000000E+00  0.68766435420E+03  0.18286859205E+04  0.16944644971E+04 0.  0.
        3    1    3    3  502    0  0.37306597757E+03  0.55665765062E+03  0.90331420853E+03  0.11247322051E+04  0.10100000352E+00 0. -1.
       -3    1    3    3    0  502 -0.37306597757E+03 -0.55665765062E+03 -0.21564985433E+03  0.70395371545E+03  0.10100000352E+00 0.  1.
</event>
<event>
 5   0  0.7049044E-04  0.1698604E+04  0.7818609E-02  0.8762161E-01
        2   -1    0    0  501    0  0.00000000000E+00  0.00000000000E+00  0.22024757413E+04  0.22024757413E+04  0.25500000920E-02 0.  1.
       -2   -1    0    0    0  501  0.00000000000E+00  0.00000000000E+00 -0.32750123047E+03  0.32750123048E+03  0.25500000920E-02 0. -1.
    10030    2    1    2    0    0  0.00000000000E+00  0.00000000000E+00  0.18749745108E+04  0.25299769717E+04  0.16986035622E+04 0.  0.
        4    1    3    3  502    0 -0.34265275558E+03 -0.45779645956E+03  0.18727869850E+04  0.19581422863E+04  0.12699999809E+01 0.  1.
       -4    1    3    3    0  502  0.34265275558E+03  0.45779645956E+03  0.21875257696E+01  0.57183468543E+03  0.12699999809E+01 0. -1.
</event>
<event>
 5   0  0.7049044E-04  0.1696705E+04  0.7818609E-02  0.8763246E-01
       -2   -1    0    0    0  501  0.00000000000E+00  0.00000000000E+00  0.70754125966E+03  0.70754125966E+03  0.25500000920E-02 0.  1.
        2   -1    0    0  501    0  0.00000000000E+00  0.00000000000E+00 -0.10171868899E+04  0.10171868899E+04  0.25500000920E-02 0. -1.
    10030    2    1    2    0    0  0.00000000000E+00  0.00000000000E+00 -0.30964563021E+03  0.17247281495E+04  0.16967046807E+04 0.  0.
        4    1    3    3  502    0 -0.18592678184E+03  0.60193667991E+03 -0.73236477437E+03  0.96605191913E+03  0.12699999809E+01 0. -1.
       -4    1    3    3    0  502  0.18592678184E+03 -0.60193667991E+03  0.42271914416E+03  0.75867623039E+03  0.12699999809E+01 0.  1.
</event>
<event>
 5   0  0.7233728E-04  0.1698075E+04  0.7818609E-02  0.8762463E-01
       -2   -1    0    0    0  501  0.00000000000E+00  0.00000000000E+00  0.33692359800E+03  0.33692359801E+03  0.25500000920E-02 0. -1.
        2   -1    0    0  501    0  0.00000000000E+00  0.00000000000E+00 -0.21395481291E+04  0.21395481291E+04  0.25500000920E-02 0.  1.
    10030    2    1    2    0    0  0.00000000000E+00  0.00000000000E+00 -0.18026245311E+04  0.24764717272E+04  0.16980745022E+04 0.  0.
        1    1    3    3  502    0 -0.47673220966E+03 -0.18114790777E+03 -0.18912812781E+04  0.19588346120E+04  0.50400001928E-02 0.  1.
       -1    1    3    3    0  502  0.47673220966E+03  0.18114790777E+03  0.88656746935E+02  0.51763711519E+03  0.50400001928E-02 0. -1.
</event>
<event>
 5   0  0.6746664E-04  0.1672043E+04  0.7818609E-02  0.8777472E-01
        2   -1    0    0  501    0  0.00000000000E+00  0.00000000000E+00  0.13827062792E+04  0.13827062792E+04  0.25500000920E-02 0.  1.
       -2   -1    0    0    0  501  0.00000000000E+00  0.00000000000E+00 -0.50548122572E+03  0.50548122573E+03  0.25500000920E-02 0. -1.
    10030    2    1    2    0    0  0.00000000000E+00  0.00000000000E+00  0.87722505343E+03  0.18881875049E+04  0.16720431392E+04 0.  0.
        5    1    3    3  502    0 -0.71139711903E+03  0.41015352664E+03  0.26149999482E+03  0.86180978973E+03  0.46999998093E+01 0.  1.
       -5    1    3    3    0  502  0.71139711903E+03 -0.41015352664E+03  0.61572505861E+03  0.10263777152E+04  0.46999998093E+01 0. -1.
</event>
<event>
 5   0  0.3635143E-04  0.1695224E+04  0.7818609E-02  0.8764093E-01
        1   -1    0    0  501    0  0.00000000000E+00  0.00000000000E+00  0.13462730670E+04  0.13462730670E+04  0.50400001928E-02 0. -1.
       -1   -1    0    0    0  501  0.00000000000E+00  0.00000000000E+00 -0.53365584471E+03  0.53365584474E+03  0.50400001928E-02 0.  1.
    10030    2    1    2    0    0  0.00000000000E+00  0.00000000000E+00  0.81261722231E+03  0.18799289118E+04  0.16952244581E+04 0.  0.
        3    1    3    3  502    0  0.44930751729E+03 -0.63785163100E+03  0.38987156417E+02  0.78118624976E+03  0.10100000352E+00 0.  1.
       -3    1    3    3    0  502 -0.44930751729E+03  0.63785163100E+03  0.77363006589E+03  0.10987426620E+04  0.10100000352E+00 0. -1.
</event>
<event>
 5   0  0.3723500E-04  0.1650838E+04  0.7818609E-02  0.8789911E-01
        1   -1    0    0  501    0  0.00000000000E+00  0.00000000000E+00  0.53046154083E+03  0.53046154085E+03  0.50400001928E-02 0.  1.
       -1   -1    0    0    0  501  0.00000000000E+00  0.00000000000E+00 -0.12843838682E+04  0.12843838682E+04  0.50400001928E-02 0. -1.
    10030    2    1    2    0    0  0.00000000000E+00  0.00000000000E+00 -0.75392232739E+03  0.18148454091E+04  0.16508376610E+04 0.  0.
        1    1    3    3  502    0 -0.65328650287E+03 -0.16868006545E+03 -0.89967785340E+03  0.11245694551E+04  0.50400001928E-02 0. -1.
       -1    1    3    3    0  502  0.65328650287E+03  0.16868006545E+03  0.14575552600E+03  0.69027595402E+03  0.50400001928E-02 0.  1.
</event>
<event>
 5   0  0.7025426E-04  0.1613303E+04  0.7818609E-02  0.8812417E-01
        2   -1    0    0  501    0  0.00000000000E+00  0.00000000000E+00  0.13353187544E+04  0.13353187544E+04  0.25500000920E-02 0. -1.
       -2   -1    0    0    0  501  0.00000000000E+00  0.00000000000E+00 -0.48728940806E+03  0.48728940807E+03  0.25500000920E-02 0.  1.
    10030    2    1    2    0    0  0.00000000000E+00  0.00000000000E+00  0.84802934633E+03  0.18226081625E+04  0.16133030533E+04 0.  0.
        2    1    3    3  502    0 -0.68164049996E+03  0.14285849760E+03  0.88381120050E+03  0.11252397787E+04  0.25500000920E-02 0. -1.
       -2    1    3    3    0  502  0.68164049996E+03 -0.14285849760E+03 -0.35781854166E+02  0.69736838372E+03  0.25500000920E-02 0.  1.
</event>
<event>
 5   0  0.3713516E-04  0.1718212E+04  0.7818609E-02  0.8751045E-01
        1   -1    0    0  501    0  0.00000000000E+00  0.00000000000E+00  0.11209805554E+04  0.11209805555E+04  0.50400001928E-02 0. -1.
       -1   -1    0    0    0  501  0.00000000000E+00  0.00000000000E+00 -0.65840852669E+03  0.65840852671E+03  0.50400001928E-02 0.  1.
    10030    2    1    2    0    0  0.00000000000E+00  0.00000000000E+00  0.46257202876E+03  0.17793890822E+04  0.17182120428E+04 0.  0.
        5    1    3    3  502    0 -0.56772990903E+02 -0.48306585563E+03  0.96464158329E+03  0.10803384968E+04  0.46999998093E+01 0. -1.
       -5    1    3    3    0  502  0.56772990903E+02  0.48306585563E+03 -0.50206955454E+03  0.69905058541E+03  0.46999998093E+01 0.  1.
</event>
<event>
 5   0  0.3635143E-04  0.1645322E+04  0.7818609E-02  0.8793179E-01
        1   -1    0    0  501    0  0.00000000000E+00  0.00000000000E+00  0.97973010060E+03  0.97973010061E+03  0.50400001928E-02 0.  1.
       -1   -1    0    0    0  501  0.00000000000E+00  0.00000000000E+00 -0.69077294739E+03  0.69077294741E+03  0.50400001928E-02 0. -1.
    10030    2    1    2    0    0  0.00000000000E+00  0.00000000000E+00  0.28895715320E+03  0.16705030480E+04  0.16453219129E+04 0.  0.
        3    1    3    3  502    0 -0.40556824944E+02  0.56022038872E+03 -0.46578567367E+03  0.72969037543E+03  0.10100000352E+00 0. -1.
       -3    1    3    3    0  502  0.40556824944E+02 -0.56022038872E+03  0.75474282688E+03  0.94081267259E+03  0.10100000352E+00 0.  1.
</event>
<event>
 5   0  0.3915701E-04  0.1641270E+04  0.7818609E-02  0.8795588E-01
        1   -1    0    0  501    0  0.00000000000E+00  0.00000000000E+00  0.42742947188E+03  0.42742947191E+03  0.50400001928E-02 0.  1.
       -1   -1    0    0    0  501  0.00000000000E+00  0.00000000000E+00 -0.15755630502E+04  0.15755630502E+04  0.50400001928E-02 0. -1.
    10030    2    1    2    0    0  0.00000000000E+00  0.00000000000E+00 -0.11481335783E+04  0.20029925221E+04  0.16412703403E+04 0.  0.
        2    1    3    3  502    0 -0.29646368770E+03 -0.19471731111E+03 -0.14771866909E+04  0.15191728240E+04  0.25500000920E-02 0. -1.
       -2    1    3    3    0  502  0.29646368770E+03  0.19471731111E+03  0.32905311260E+03  0.48381969812E+03  0.25500000920E-02 0.  1.
</event>
<event>
 5   0  0.7025426E-04  0.1680419E+04  0.7818609E-02  0.8772612E-01
        2   -1    0    0  501    0  0.00000000000E+00  0.00000000000E+00  0.79015584196E+03  0.79015584197E+03  0.25500000920E-02 0. -1.
       -2   -1    0    0    0  501  0.00000000000E+00  0.00000000000E+00 -0.89343397239E+03  0.89343397240E+03  0.25500000920E-02 0.  1.
    10030    2    1    2    0    0  0.00000000000E+00  0.00000000000E+00 -0.10327813043E+03  0.16835898144E+04  0.16804190819E+04 0.  0.
        2    1    3    3  502    0 -0.61425175020E+03  0.56282286712E+03  0.57549507284E+02  0.83509684359E+03  0.25500000920E-02 0.  1.
       -2    1    3    3    0  502  0.61425175020E+03 -0.56282286712E+03 -0.16082763771E+03  0.84849297077E+03  0.25500000920E-02 0. -1.
</event>
<event>
 5   0  0.7242144E-04  0.1578672E+04  0.7818609E-02  0.8833759E-01
        2   -1    0    0  501    0  0.00000000000E+00  0.00000000000E+00  0.11030941239E+04  0.11030941239E+04  0.25500000920E-02 0. -1.
       -2   -1    0    0    0  501  0.00000000000E+00  0.00000000000E+00 -0.56482175530E+03  0.56482175531E+03  0.25500000920E-02 0.  1.
    10030    2    1    2    0    0  0.00000000000E+00  0.00000000000E+00  0.53827236860E+03  0.16679158792E+04  0.15786723021E+04 0.  0.
        3    1    3    3  502    0 -0.16023948376E+02 -0.25456341648E+03 -0.52008046265E+03  0.57926073384E+03  0.10100000352E+00 0.  1.
       -3    1    3    3    0  502  0.16023948376E+02  0.25456341648E+03  0.10583528313E+04  0.10886551454E+04  0.10100000352E+00 0. -1.
</event>
<event>
 5   0  0.3713516E-04  0.1726290E+04  0.7818609E-02  0.8746511E-01
        1   -1    0    0  501    0  0.00000000000E+00  0.00000000000E+00  0.11658537328E+04  0.11658537328E+04  0.50400001928E-02 0. -1.
       -1   -1    0    0    0  501  0.00000000000E+00  0.00000000000E+00 -0.63903307832E+03  0.63903307834E+03  0.50400001928E-02 0.  1.
    10030    2    1    2    0    0  0.00000000000E+00  0.00000000000E+00  0.52682065445E+03  0.18048868111E+04  0.17262897784E+04 0.  0.
        5    1    3    3  502    0 -0.29911025300E+03 -0.15890597847E+03  0.10934573114E+04  0.11447222525E+04  0.46999998093E+01 0. -1.
       -5    1    3    3    0  502  0.29911025300E+03  0.15890597847E+03 -0.56663665698E+03  0.66016455863E+03  0.46999998093E+01 0.  1.
</event>
<event>
 5   0  0.3723500E-04  0.1698513E+04  0.7818609E-02  0.8762213E-01
        1   -1    0    0  501    0  0.00000000000E+00  0.00000000000E+00  0.68514621731E+03  0.68514621732E+03  0.50400001928E-02 0. -1.
       -1   -1    0    0    0  501  0.00000000000E+00  0.00000000000E+00 -0.10526756385E+04  0.10526756385E+04  0.50400001928E-02 0.  1.
    10030    2    1    2    0    0  0.00000000000E+00  0.00000000000E+00 -0.36752942115E+03  0.17378218558E+04  0.16985131519E+04 0.  0.
        1    1    3    3  502    0  0.31370622851E+02 -0.46146765206E+03 -0.91249843268E+03  0.10230297647E+04  0.50400001928E-02 0.  1.
       -1    1    3    3    0  502 -0.31370622851E+02  0.46146765206E+03  0.54496901153E+03  0.71479209105E+03  0.50400001928E-02 0. -1.
</event>
<event>
 5   0  0.3635143E-04  0.1680884E+04  0.7818609E-02  0.8772343E-01
       -1   -1    0    0    0  501  0.00000000000E+00  0.00000000000E+00  0.68666146845E+03  0.68666146847E+03  0.50400001928E-02 0. -1.
        1   -1    0    0  501    0  0.00000000000E+00  0.00000000000E+00 -0.10286619946E+04  0.10286619946E+04  0.50400001928E-02 0.  1.
    10030    2    1    2    0    0  0.00000000000E+00  0.00000000000E+00 -0.34200052614E+03  0.17153234631E+04  0.16808837625E+04 0.  0.
        3    1    3    3  502    0  0.28026216223E+03 -0.23515557072E+03  0.60113813895E+03  0.70371307671E+03  0.10100000352E+00 0. -1.
       -3    1    3    3    0  502 -0.28026216223E+03  0.23515557072E+03 -0.94313866510E+03  0.10116103864E+04  0.10100000352E+00 0.  1.
</event>
<event>
 5   0  0.6746664E-04  0.1672438E+04  0.7818609E-02  0.8777242E-01
        2   -1    0    0  501    0  0.00000000000E+00  0.00000000000E+00  0.75287506482E+03  0.75287506483E+03  0.25500000920E-02 0. -1.
       -2   -1    0    0    0  501  0.00000000000E+00  0.00000000000E+00 -0.92878954912E+03  0.92878954913E+03  0.25500000920E-02 0.  1.
    10030    2    1    2    0    0  0.00000000000E+00  0.00000000000E+00 -0.17591448430E+03  0.16816646140E+04  0.16724383301E+04 0.  0.
        5    1    3    3  502    0 -0.49172241725E+03  0.63894415231E+03  0.13507677338E+03  0.81750130893E+03  0.46999998093E+01 0. -1.
       -5    1    3    3    0  502  0.49172241725E+03 -0.63894415231E+03 -0.31099125768E+03  0.86416330502E+03  0.46999998093E+01 0.  1.
</event>
<event>
 5   0  0.2639750E-04  0.1683178E+04  0.7818609E-02  0.8771017E-01
       -3   -1    0    0    0  501  0.00000000000E+00  0.00000000000E+00  0.60734532408E+03  0.60734533248E+03  0.10100000352E+00 0. -1.
        3   -1    0    0  501    0  0.00000000000E+00  0.00000000000E+00 -0.11661763501E+04  0.11661763545E+04  0.10100000352E+00 0.  1.
    10030    2    1    2    0    0  0.00000000000E+00  0.00000000000E+00 -0.55883102604E+03  0.17735216870E+04  0.16831776669E+04 0.  0.
        4    1    3    3  502    0 -0.63356244482E+03  0.51615203480E+03 -0.49134785980E+03  0.95354004989E+03  0.12699999809E+01 0.  1.
       -4    1    3    3    0  502  0.63356244482E+03 -0.51615203480E+03 -0.67483166241E+02  0.81998163708E+03  0.12699999809E+01 0. -1.
</event>
<event>
 5   0  0.7025426E-04  0.1674910E+04  0.7818609E-02  0.8775805E-01
       -2   -1    0    0    0  501  0.00000000000E+00  0.00000000000E+00  0.57595950238E+03  0.57595950238E+03  0.25500000920E-02 0.  1.
        2   -1    0    0  501    0  0.00000000000E+00  0.00000000000E+00 -0.12176734564E+04  0.12176734564E+04  0.25500000920E-02 0. -1.
    10030    2    1    2    0    0  0.00000000000E+00  0.00000000000E+00 -0.64171395405E+03  0.17936329588E+04  0.16749096669E+04 0.  0.
        2    1    3    3  502    0 -0.47554268320E+03  0.65911746345E+03 -0.10467130787E+03  0.81947102259E+03  0.25500000920E-02 0.  1.
       -2    1    3    3    0  502  0.47554268320E+03 -0.65911746345E+03 -0.53704264618E+03  0.97416193622E+03  0.25500000920E-02 0. -1.
</event>
<event>
 5   0  0.7025426E-04  0.1721213E+04  0.7818609E-02  0.8749358E-01
        2   -1    0    0  501    0  0.00000000000E+00  0.00000000000E+00  0.18806162395E+04  0.18806162395E+04  0.25500000920E-02 0. -1.
       -2   -1    0    0    0  501  0.00000000000E+00  0.00000000000E+00 -0.39383008336E+03  0.39383008337E+03  0.25500000920E-02 0.  1.
    10030    2    1    2    0    0  0.00000000000E+00  0.00000000000E+00  0.14867861561E+04  0.22744463228E+04  0.17212126543E+04 0.  0.
        2    1    3    3  502    0 -0.12139909050E+03 -0.57182055082E+03 -0.91224930461E+02  0.59164049005E+03  0.25500000920E-02 0.  1.
       -2    1    3    3    0  502  0.12139909050E+03  0.57182055082E+03  0.15780110866E+04  0.16828058328E+04  0.25500000920E-02 0. -1.
</event>
<event>
 5   0  0.6746664E-04  0.1710541E+04  0.7818609E-02  0.8755375E-01
        2   -1    0    0  501    0  0.00000000000E+00  0.00000000000E+00  0.16838069387E+04  0.16838069387E+04  0.25500000920E-02 0.  1.
       -2   -1    0    0    0  501  0.00000000000E+00  0.00000000000E+00 -0.43442492461E+03  0.43442492462E+03  0.25500000920E-02 0. -1.
    10030    2    1    2    0    0  0.00000000000E+00  0.00000000000E+00  0.12493820141E+04  0.21182318634E+04  0.17105410868E+04 0.  0.
        5    1    3    3  502    0  0.54924091088E+03 -0.22143690801E+03 -0.13944191825E+03  0.60841270613E+03  0.46999998093E+01 0. -1.
       -5    1    3    3    0  502 -0.54924091088E+03  0.22143690801E+03  0.13888239324E+04  0.15098191572E+04  0.46999998093E+01 0.  1.
</event>
<event>
 5   0  0.7233728E-04  0.1692150E+04  0.7818609E-02  0.8765854E-01
        2   -1    0    0  501    0  0.00000000000E+00  0.00000000000E+00  0.13059544216E+04  0.13059544216E+04  0.25500000920E-02 0.  1.
       -2   -1    0    0    0  501  0.00000000000E+00  0.00000000000E+00 -0.54813802307E+03  0.54813802307E+03  0.25500000920E-02 0. -1.
    10030    2    1    2    0    0  0.00000000000E+00  0.00000000000E+00  0.75781639856E+03  0.18540924447E+04  0.16921504365E+04 0.  0.
        1    1    3    3  502    0  0.43687844818E+03  0.65395976065E+03  0.37096396110E+02  0.78733873883E+03  0.50400001928E-02 0. -1.
       -1    1    3    3    0  502 -0.43687844818E+03 -0.65395976065E+03  0.72072000245E+03  0.10667537059E+04  0.50400001928E-02 0.  1.
</event>
<event>
 5   0  0.7025426E-04  0.1709208E+04  0.7818609E-02  0.8756130E-01
       -2   -1    0    0    0  501  0.00000000000E+00  0.00000000000E+00  0.39784699119E+03  0.39784699120E+03  0.25500000920E-02 0. -1.
        2   -1    0    0  501    0  0.00000000000E+00  0.00000000000E+00 -0.18357500210E+04  0.18357500210E+04  0.25500000920E-02 0.  1.
    10030    2    1    2    0    0  0.00000000000E+00  0.00000000000E+00 -0.14379030298E+04  0.22335970122E+04  0.17092075619E+04 0.  0.
        2    1    3    3  502    0 -0.60333989839E+03  0.54565658897E+03 -0.37671020756E+03  0.89647684106E+03  0.25500000920E-02 0.  1.
       -2    1    3    3    0  502  0.60333989839E+03 -0.54565658897E+03 -0.10611928223E+04  0.13371201711E+04  0.25500000920E-02 0. -1.
</event>
<event>
 5   0  0.7233728E-04  0.1781074E+04  0.7818609E-02  0.8716429E-01
       -2   -1    0    0    0  501  0.00000000000E+00  0.00000000000E+00  0.79080672285E+03  0.79080672286E+03  0.25500000920E-02 0. -1.
        2   -1    0    0  501    0  0.00000000000E+00  0.00000000000E+00 -0.10028445431E+04  0.10028445431E+04  0.25500000920E-02 0.  1.
    10030    2    1    2    0    0  0.00000000000E+00  0.00000000000E+00 -0.21203782026E+03  0.17936512660E+04  0.17810740655E+04 0.  0.
        1    1    3    3  502    0  0.19799209184E+03  0.63396069324E+03  0.49142344178E+03  0.82619854040E+03  0.50400001928E-02 0.  1.
       -1    1    3    3    0  502 -0.19799209184E+03 -0.63396069324E+03 -0.70346126204E+03  0.96745272558E+03  0.50400001928E-02 0. -1.
</event>
<event>
 5   0  0.3803253E-04  0.1688450E+04  0.7818609E-02  0.8767979E-01
       -1   -1    0    0    0  501  0.00000000000E+00  0.00000000000E+00  0.50664926205E+03  0.50664926207E+03  0.50400001928E-02 0. -1.
        1   -1    0    0  501    0  0.00000000000E+00  0.00000000000E+00 -0.14067241150E+04  0.14067241150E+04  0.50400001928E-02 0.  1.
    10030    2    1    2    0    0  0.00000000000E+00  0.00000000000E+00 -0.90007485298E+03  0.19133733771E+04  0.16884498628E+04 0.  0.
        4    1    3    3  502    0  0.45330639155E+03 -0.29917378617E+03  0.28237462722E+03  0.61215086535E+03  0.12699999809E+01 0. -1.
       -4    1    3    3    0  502 -0.45330639155E+03  0.29917378617E+03 -0.11824494802E+04  0.13012225117E+04  0.12699999809E+01 0.  1.
</event>
<event>
 5   0  0.3803253E-04  0.1615935E+04  0.7818609E-02  0.8810818E-01
        1   -1    0    0  501    0  0.00000000000E+00  0.00000000000E+00  0.45292164275E+03  0.45292164278E+03  0.50400001928E-02 0. -1.
       -1   -1    0    0    0  501  0.00000000000E+00  0.00000000000E+00 -0.14413348712E+04  0.14413348712E+04  0.50400001928E-02 0.  1.
    10030    2    1    2    0    0  0.00000000000E+00  0.00000000000E+00 -0.98841322841E+03  0.18942565140E+04  0.16159353423E+04 0.  0.
        4    1    3    3  502    0 -0.73038941154E+03  0.29255289813E+03 -0.27883965950E+03  0.83475089656E+03  0.12699999809E+01 0. -1.
       -4    1    3    3    0  502  0.73038941154E+03 -0.29255289813E+03 -0.70957356891E+03  0.10595056174E+04  0.12699999809E+01 0.  1.
</event>
<event>
 5   0  0.3803253E-04  0.1749502E+04  0.7818609E-02  0.8733624E-01
        1   -1    0    0  501    0  0.00000000000E+00  0.00000000000E+00  0.18722304980E+04  0.18722304980E+04  0.50400001928E-02 0. -1.
       -1   -1    0    0    0  501  0.00000000000E+00  0.00000000000E+00 -0.40870464737E+03  0.40870464740E+03  0.50400001928E-02 0.  1.
    10030    2    1    2    0    0  0.00000000000E+00  0.00000000000E+00  0.14635258506E+04  0.22809351454E+04  0.17495019926E+04 0.  0.
        4    1    3    3  502    0  0.39640476979E+03  0.46242739543E+03 -0.86821233310E+02  0.61523603358E+03  0.12699999809E+01 0.  1.
       -4    1    3    3    0  502 -0.39640476979E+03 -0.46242739543E+03  0.15503470840E+04  0.16656991118E+04  0.12699999809E+01 0. -1.
</event>
<event>
 5   0  0.7049044E-04  0.1725688E+04  0.7818609E-02  0.8746847E-01
        2   -1    0    0  501    0  0.00000000000E+00  0.00000000000E+00  0.47858882904E+03  0.47858882905E+03  0.25500000920E-02 0. -1.
       -2   -1    0    0    0  501  0.00000000000E+00  0.00000000000E+00 -0.15556154712E+04  0.15556154712E+04  0.25500000920E-02 0.  1.
    10030    2    1    2    0    0  0.00000000000E+00  0.00000000000E+00 -0.10770266422E+04  0.20342043003E+04  0.17256884850E+04 0.  0.
        4    1    3    3  502    0  0.52813253009E+03  0.59178387966E+03 -0.93889290207E+03  0.12290864998E+04  0.12699999809E+01 0.  1.
       -4    1    3    3    0  502 -0.52813253009E+03 -0.59178387966E+03 -0.13813374011E+03  0.80511780046E+03  0.12699999809E+01 0. -1.
</event>
<event>
 5   0  0.3713516E-04  0.1706009E+04  0.7818609E-02  0.8757945E-01
        1   -1    0    0  501    0  0.00000000000E+00  0.00000000000E+00  0.13355383867E+04  0.13355383867E+04  0.50400001928E-02 0. -1.
       -1   -1    0    0    0  501  0.00000000000E+00  0.00000000000E+00 -0.54481122983E+03  0.54481122985E+03  0.50400001928E-02 0.  1.
    10030    2    1    2    0    0  0.00000000000E+00  0.00000000000E+00  0.79072715686E+03  0.18803496166E+04  0.17060085709E+04 0.  0.
        5    1    3    3  502    0  0.37422742530E+02  0.81131918245E+03  0.10804221074E+03  0.81935003922E+03  0.46999998093E+01 0. -1.
       -5    1    3    3    0  502 -0.37422742530E+02 -0.81131918245E+03  0.68268494612E+03  0.10609995773E+04  0.46999998093E+01 0.  1.
</event>
<event>
 5   0  0.3915701E-04  0.1663755E+04  0.7818609E-02  0.8782311E-01
        1   -1    0    0  501    0  0.00000000000E+00  0.00000000000E+00  0.77388272354E+03  0.77388272356E+03  0.50400001928E-02 0. -1.
       -1   -1    0    0    0  501  0.00000000000E+00  0.00000000000E+00 -0.89421833695E+03  0.89421833696E+03  0.50400001928E-02 0.  1.
    10030    2    1    2    0    0  0.00000000000E+00  0.00000000000E+00 -0.12033561341E+03  0.16681010605E+04  0.16637549364E+04 0.  0.
        2    1    3    3  502    0  0.27133667124E+03 -0.57338359419E+03  0.47940880204E+03  0.79512586093E+03  0.25500000920E-02 0. -1.
       -2    1    3    3    0  502 -0.27133667124E+03  0.57338359419E+03 -0.59974441544E+03  0.87297519959E+03  0.25500000920E-02 0.  1.
</event>
<event>
 5   0  0.3803253E-04  0.1612785E+04  0.7818609E-02  0.8812732E-01
        1   -1    0    0  501    0  0.00000000000E+00  0.00000000000E+00  0.21007566341E+04  0.21007566341E+04  0.50400001928E-02 0. -1.
       -1   -1    0    0    0  501  0.00000000000E+00  0.00000000000E+00 -0.30954012479E+03  0.30954012483E+03  0.50400001928E-02 0.  1.
    10030    2    1    2    0    0  0.00000000000E+00  0.00000000000E+00  0.17912165093E+04  0.24102967589E+04  0.16127845122E+04 0.  0.
        4    1    3    3  502    0 -0.62720213042E+03  0.40173308542E+03  0.13574404460E+04  0.15483598295E+04  0.12699999809E+01 0.  1.
       -4    1    3    3    0  502  0.62720213042E+03 -0.40173308542E+03  0.43377606337E+03  0.86193692946E+03  0.12699999809E+01 0. -1.
</event>
<event>
 5   0  0.3803253E-04  0.1689298E+04  0.7818609E-02  0.8767492E-01
        1   -1    0    0  501    0  0.00000000000E+00  0.00000000000E+00  0.78276152427E+03  0.78276152428E+03  0.50400001928E-02 0.  1.
       -1   -1    0    0    0  501  0.00000000000E+00  0.00000000000E+00 -0.91142924350E+03  0.91142924352E+03  0.50400001928E-02 0. -1.
    10030    2    1    2    0    0  0.00000000000E+00  0.00000000000E+00 -0.12866771923E+03  0.16941907678E+04  0.16892977759E+04 0.  0.
        4    1    3    3  502    0  0.30140500287E+03  0.46617076421E+03 -0.70278595217E+03  0.89558353302E+03  0.12699999809E+01 0. -1.
       -4    1    3    3    0  502 -0.30140500287E+03 -0.46617076421E+03  0.57411823294E+03  0.79860723478E+03  0.12699999809E+01 0.  1.
</event>
<event>
 5   0  0.7242144E-04  0.1722975E+04  0.7818609E-02  0.8748368E-01
        2   -1    0    0  501    0  0.00000000000E+00  0.00000000000E+00  0.10644716509E+04  0.10644716509E+04  0.25500000920E-02 0. -1.
       -2   -1    0    0    0  501  0.00000000000E+00  0.00000000000E+00 -0.69721063703E+03  0.69721063703E+03  0.25500000920E-02 0.  1.
    10030    2    1    2    0    0  0.00000000000E+00  0.00000000000E+00  0.36726101388E+03  0.17616822879E+04  0.17229752846E+04 0.  0.
        3    1    3    3  502    0 -0.66979263933E+03 -0.54018808419E+03  0.14103404124E+03  0.87196098364E+03  0.10100000352E+00 0. -1.
       -3    1    3    3    0  502  0.66979263933E+03  0.54018808419E+03  0.22622697264E+03  0.88972130431E+03  0.10100000352E+00 0.  1.
</event>
<event>
 5   0  0.3915701E-04  0.1681558E+04  0.7818609E-02  0.8771953E-01
       -1   -1    0    0    0  501  0.00000000000E+00  0.00000000000E+00  0.68379673572E+03  0.68379673574E+03  0.50400001928E-02 0.  1.
        1   -1    0    0  501    0  0.00000000000E+00  0.00000000000E+00 -0.10338007456E+04  0.10338007456E+04  0.50400001928E-02 0. -1.
    10030    2    1    2    0    0  0.00000000000E+00  0.00000000000E+00 -0.35000400987E+03  0.17175974813E+04  0.16815582955E+04 0.  0.
        2    1    3    3  502    0  0.29180287625E+03 -0.10667280433E+02 -0.98034584455E+03  0.10229079550E+04  0.25500000920E-02 0. -1.
       -2    1    3    3    0  502 -0.29180287625E+03  0.10667280433E+02  0.63034183468E+03  0.69468952635E+03  0.25500000920E-02 0.  1.
</event>
<event>
 5   0  0.7242144E-04  0.1608338E+04  0.7818609E-02  0.8815442E-01
       -2   -1    0    0    0  501  0.00000000000E+00  0.00000000000E+00  0.49672908928E+03  0.49672908929E+03  0.25500000920E-02 0.  1.
        2   -1    0    0  501    0  0.00000000000E+00  0.00000000000E+00 -0.13018924714E+04  0.13018924715E+04  0.25500000920E-02 0. -1.
    10030    2    1    2    0    0  0.00000000000E+00  0.00000000000E+00 -0.80516338217E+03  0.17986215607E+04  0.16083381009E+04 0.  0.
        3    1    3    3  502    0 -0.13277123984E+03 -0.78019004645E+03 -0.24299935188E+03  0.82787281989E+03  0.10100000352E+00 0.  1.
       -3    1    3    3    0  502  0.13277123984E+03  0.78019004645E+03 -0.56216403029E+03  0.97074874085E+03  0.10100000352E+00 0. -1.
</event>
<event>
 5   0  0.3713516E-04  0.1692696E+04  0.7818609E-02  0.8765541E-01
       -1   -1    0    0    0  501  0.00000000000E+00  0.00000000000E+00  0.40283916396E+03  0.40283916399E+03  0.50400001928E-02 0.  1.
        1   -1    0    0  501    0  0.00000000000E+00  0.00000000000E+00 -0.17781411166E+04  0.17781411166E+04  0.50400001928E-02 0. -1.
    10030    2    1    2    0    0  0.00000000000E+00  0.00000000000E+00 -0.13753019527E+04  0.21809802806E+04  0.16926959336E+04 0.  0.
        5    1    3    3  502    0  0.12873196161E+03 -0.75124872541E+03 -0.21364936502E+03  0.79158998638E+03  0.46999998093E+01 0.  1.
       -5    1    3    3    0  502 -0.12873196161E+03  0.75124872541E+03 -0.11616525877E+04  0.13893902943E+04  0.46999998093E+01 0. -1.
</event>
<event>
 5   0  0.7242144E-04  0.1575610E+04  0.7818609E-02  0.8835673E-01
       -2   -1    0    0    0  501  0.00000000000E+00  0.00000000000E+00  0.64768098042E+03  0.64768098043E+03  0.25500000920E-02 0. -1.
        2   -1    0    0  501    0  0.00000000000E+00  0.00000000000E+00 -0.95824429810E+03  0.95824429811E+03  0.25500000920E-02 0.  1.
    10030    2    1    2    0    0  0.00000000000E+00  0.00000000000E+00 -0.31056331768E+03  0.16059252785E+04  0.15756098584E+04 0.  0.
        3    1    3    3  502    0 -0.17935917692E+03 -0.25465514550E+03 -0.89281860171E+03  0.94559189042E+03  0.10100000352E+00 0.  1.
       -3    1    3    3    0  502  0.17935917692E+03  0.25465514550E+03  0.58225528403E+03  0.66033338811E+03  0.10100000352E+00 0. -1.
</event>
<event>
 5   0  0.3635143E-04  0.1664708E+04  0.7818609E-02  0.8781753E-01
       -1   -1    0    0    0  501  0.00000000000E+00  0.00000000000E+00  0.79545754549E+03  0.79545754551E+03  0.50400001928E-02 0. -1.
        1   -1    0    0  501    0  0.00000000000E+00  0.00000000000E+00 -0.87096157228E+03  0.87096157230E+03  0.50400001928E-02 0.  1.
    10030    2    1    2    0    0  0.00000000000E+00  0.00000000000E+00 -0.75504026789E+02  0.16664191178E+04  0.16647077275E+04 0.  0.
        3    1    3    3  502    0  0.11285195469E+03  0.39218313511E+03 -0.76394233332E+03  0.86611262199E+03  0.10100000352E+00 0.  1.
       -3    1    3    3    0  502 -0.11285195469E+03 -0.39218313511E+03  0.68843830653E+03  0.80030649581E+03  0.10100000352E+00 0. -1.
</event>
<event>
 5   0  0.3713516E-04  0.1712855E+04  0.7818609E-02  0.8754066E-01
        1   -1    0    0  501    0  0.00000000000E+00  0.00000000000E+00  0.82736243346E+03  0.82736243347E+03  0.50400001928E-02 0.  1.
       -1   -1    0    0    0  501  0.00000000000E+00  0.00000000000E+00 -0.88651383018E+03  0.88651383019E+03  0.50400001928E-02 0. -1.
    10030    2    1    2    0    0  0.00000000000E+00  0.00000000000E+00 -0.59151396722E+02  0.17138762637E+04  0.17128552068E+04 0.  0.
        5    1    3    3  502    0 -0.80900445665E+03  0.76682814447E+02  0.24091429436E+03  0.84760264991E+03  0.46999998093E+01 0.  1.
       -5    1    3    3    0  502  0.80900445665E+03 -0.76682814447E+02 -0.30006569108E+03  0.86627361375E+03  0.46999998093E+01 0. -1.
</event>
<event>
 5   0  0.6746664E-04  0.1710457E+04  0.7818609E-02  0.8755423E-01
       -2   -1    0    0    0  501  0.00000000000E+00  0.00000000000E+00  0.75894401846E+03  0.75894401846E+03  0.25500000920E-02 0. -1.
        2   -1    0    0  501    0  0.00000000000E+00  0.00000000000E+00 -0.96372864963E+03  0.96372864963E+03  0.25500000920E-02 0.  1.
    10030    2    1    2    0    0  0.00000000000E+00  0.00000000000E+00 -0.20478463117E+03  0.17226726681E+04  0.17104573588E+04 0.  0.
        5    1    3    3  502    0 -0.29683234024E+03 -0.79094018599E+03  0.31592293646E+02  0.84540876447E+03  0.46999998093E+01 0. -1.
       -5    1    3    3    0  502  0.29683234024E+03  0.79094018599E+03 -0.23637692482E+03  0.87726390363E+03  0.46999998093E+01 0.  1.
</event>
<event>
 5   0  0.3635143E-04  0.1666940E+04  0.7818609E-02  0.8780448E-01
        1   -1    0    0  501    0  0.00000000000E+00  0.00000000000E+00  0.54558075314E+03  0.54558075316E+03  0.50400001928E-02 0. -1.
       -1   -1    0    0    0  501  0.00000000000E+00  0.00000000000E+00 -0.12732707690E+04  0.12732707690E+04  0.50400001928E-02 0.  1.
    10030    2    1    2    0    0  0.00000000000E+00  0.00000000000E+00 -0.72769001588E+03  0.18188515222E+04  0.16669397411E+04 0.  0.
        3    1    3    3  502    0 -0.82720576018E+03 -0.22078907067E+02 -0.47249441659E+03  0.95289444941E+03  0.10100000352E+00 0.  1.
       -3    1    3    3    0  502  0.82720576018E+03  0.22078907067E+02 -0.25519559929E+03  0.86595707278E+03  0.10100000352E+00 0. -1.
</event>
<event>
 5   0  0.3915701E-04  0.1685818E+04  0.7818609E-02  0.8769494E-01
        1   -1    0    0  501    0  0.00000000000E+00  0.00000000000E+00  0.20765382326E+04  0.20765382326E+04  0.50400001928E-02 0.  1.
       -1   -1    0    0    0  501  0.00000000000E+00  0.00000000000E+00 -0.34215396895E+03  0.34215396898E+03  0.50400001928E-02 0. -1.
    10030    2    1    2    0    0  0.00000000000E+00  0.00000000000E+00  0.17343842637E+04  0.24186922016E+04  0.16858182559E+04 0.  0.
        2    1    3    3  502    0  0.32126397374E+03  0.68161728650E+03  0.14091383233E+04  0.15979622900E+04  0.25500000920E-02 0.  1.
       -2    1    3    3    0  502 -0.32126397374E+03 -0.68161728650E+03  0.32524594039E+03  0.82072991162E+03  0.25500000920E-02 0. -1.
</event>
<event>
 5   0  0.7025426E-04  0.1728624E+04  0.7818609E-02  0.8745205E-01
        2   -1    0    0  501    0  0.00000000000E+00  0.00000000000E+00  0.21396937609E+04  0.21396937609E+04  0.25500000920E-02 0.  1.
       -2   -1    0    0    0  501  0.00000000000E+00  0.00000000000E+00 -0.34913192898E+03  0.34913192899E+03  0.25500000920E-02 0. -1.
    10030    2    1    2    0    0  0.00000000000E+00  0.00000000000E+00  0.17905618319E+04  0.24888256899E+04  0.17286242046E+04 0.  0.
        2    1    3    3  502    0  0.39139538582E+02  0.32767558865E+03  0.20454169922E+04  0.20718672416E+04  0.25500000920E-02 0.  1.
       -2    1    3    3    0  502 -0.39139538582E+02 -0.32767558865E+03 -0.25485516027E+03  0.41695844829E+03  0.25500000920E-02 0. -1.
</event>
<event>
 5   0  0.7025426E-04  0.1697595E+04  0.7818609E-02  0.8762737E-01
       -2   -1    0    0    0  501  0.00000000000E+00  0.00000000000E+00  0.48838112600E+03  0.48838112600E+03  0.25500000920E-02 0.  1.
        2   -1    0    0  501    0  0.00000000000E+00  0.00000000000E+00 -0.14751948667E+04  0.14751948667E+04  0.25500000920E-02 0. -1.
    10030    2    1    2    0    0  0.00000000000E+00  0.00000000000E+00 -0.98681374071E+03  0.19635759927E+04  0.16975951579E+04 0.  0.
        2    1    3    3  502    0 -0.39381314644E+03 -0.57748640066E+03 -0.10503916812E+04  0.12617059964E+04  0.25500000920E-02 0. -1.
       -2    1    3    3    0  502  0.39381314644E+03  0.57748640066E+03  0.63577940508E+02  0.70186999635E+03  0.25500000920E-02 0.  1.
</event>
<event>
 5   0  0.7049044E-04  0.1772028E+04  0.7818609E-02  0.8721318E-01
       -2   -1    0    0    0  501  0.00000000000E+00  0.00000000000E+00  0.12941700727E+04  0.12941700727E+04  0.25500000920E-02 0.  1.
        2   -1    0    0  501    0  0.00000000000E+00  0.00000000000E+00 -0.60658260115E+03  0.60658260115E+03  0.25500000920E-02 0. -1.
    10030    2    1    2    0    0  0.00000000000E+00  0.00000000000E+00  0.68758747158E+03  0.19007526739E+04  0.17720282718E+04 0.  0.
        4    1    3    3  502    0  0.42825241809E+03 -0.24439839412E+03  0.11333989762E+04  0.12360119582E+04  0.12699999809E+01 0.  1.
       -4    1    3    3    0  502 -0.42825241809E+03  0.24439839412E+03 -0.44581150457E+03  0.66474071574E+03  0.12699999809E+01 0. -1.
</event>
<event>
 5   0  0.7233728E-04  0.1696241E+04  0.7818609E-02  0.8763511E-01
        2   -1    0    0  501    0  0.00000000000E+00  0.00000000000E+00  0.19942181856E+04  0.19942181856E+04  0.25500000920E-02 0.  1.
       -2   -1    0    0    0  501  0.00000000000E+00  0.00000000000E+00 -0.36069676972E+03  0.36069676973E+03  0.25500000920E-02 0. -1.
    10030    2    1    2    0    0  0.00000000000E+00  0.00000000000E+00  0.16335214158E+04  0.23549149553E+04  0.16962406170E+04 0.  0.
        1    1    3    3  502    0  0.59530177868E+03 -0.44695229484E+03  0.25255572884E+03  0.78608839055E+03  0.50400001928E-02 0.  1.
       -1    1    3    3    0  502 -0.59530177868E+03  0.44695229484E+03  0.13809656870E+04  0.15688265648E+04  0.50400001928E-02 0. -1.
</event>
<event>
 5   0  0.6746664E-04  0.1702370E+04  0.7818609E-02  0.8760014E-01
       -2   -1    0    0    0  501  0.00000000000E+00  0.00000000000E+00  0.56460497936E+03  0.56460497936E+03  0.25500000920E-02 0.  1.
        2   -1    0    0  501    0  0.00000000000E+00  0.00000000000E+00 -0.12832257117E+04  0.12832257117E+04  0.25500000920E-02 0. -1.
    10030    2    1    2    0    0  0.00000000000E+00  0.00000000000E+00 -0.71862073234E+03  0.18478306911E+04  0.17023696737E+04 0.  0.
        5    1    3    3  502    0 -0.40205568873E+03  0.43089460442E+03 -0.10259321801E+04  0.11831643440E+04  0.46999998093E+01 0. -1.
       -5    1    3    3    0  502  0.40205568873E+03 -0.43089460442E+03  0.30731144771E+03  0.66466634701E+03  0.46999998093E+01 0.  1.
</event>
<event>
 5   0  0.7025426E-04  0.1731666E+04  0.7818609E-02  0.8743507E-01
        2   -1    0    0  501    0  0.00000000000E+00  0.00000000000E+00  0.16988132003E+04  0.16988132003E+04  0.25500000920E-02 0.  1.
       -2   -1    0    0    0  501  0.00000000000E+00  0.00000000000E+00 -0.44128868731E+03  0.44128868732E+03  0.25500000920E-02 0. -1.
    10030    2    1    2    0    0  0.00000000000E+00  0.00000000000E+00  0.12575245130E+04  0.21401018876E+04  0.17316663041E+04 0.  0.
        2    1    3    3  502    0  0.33943429335E+03  0.19526746585E+03  0.15831188289E+04  0.16308311528E+04  0.25500000920E-02 0.  1.
       -2    1    3    3    0  502 -0.33943429335E+03 -0.19526746585E+03 -0.32559431591E+03  0.50927073476E+03  0.25500000920E-02 0. -1.
</event>
<event>
 5   0  0.7233728E-04  0.1678349E+04  0.7818609E-02  0.8773810E-01
        2   -1    0    0  501    0  0.00000000000E+00  0.00000000000E+00  0.84005296182E+03  0.84005296182E+03  0.25500000920E-02 0. -1.
       -2   -1    0    0    0  501  0.00000000000E+00  0.00000000000E+00 -0.83829691131E+03  0.83829691131E+03  0.25500000920E-02 0.  1.
    10030    2    1    2    0    0  0.00000000000E+00  0.00000000000E+00  0.17560505128E+01  0.16783498731E+04  0.16783489545E+04 0.  0.
        1    1    3    3  502    0  0.46633658319E+02 -0.60233581258E+03  0.58331346835E+03  0.83978433636E+03  0.50400001928E-02 0. -1.
       -1    1    3    3    0  502 -0.46633658319E+02  0.60233581258E+03 -0.58155741784E+03  0.83856553678E+03  0.50400001928E-02 0.  1.
</event>
<event>
 5   0  0.2639750E-04  0.1686086E+04  0.7818609E-02  0.8769340E-01
       -3   -1    0    0    0  501  0.00000000000E+00  0.00000000000E+00  0.11806006637E+04  0.11806006680E+04  0.10100000352E+00 0.  1.
        3   -1    0    0  501    0  0.00000000000E+00  0.00000000000E+00 -0.60199970299E+03  0.60199971146E+03  0.10100000352E+00 0. -1.
    10030    2    1    2    0    0  0.00000000000E+00  0.00000000000E+00  0.57860096067E+03  0.17826003794E+04  0.16860857158E+04 0.  0.
        1    1    3    3  502    0 -0.62957145766E+03  0.50138486155E+03  0.55461186354E+03  0.97741563263E+03  0.50400001928E-02 0.  1.
       -1    1    3    3    0  502  0.62957145766E+03 -0.50138486155E+03  0.23989097125E+02  0.80518474681E+03  0.50400001928E-02 0. -1.
</event>
<event>
 5   0  0.2639750E-04  0.1684034E+04  0.7818609E-02  0.8770523E-01
        3   -1    0    0  501    0  0.00000000000E+00  0.00000000000E+00  0.52503358988E+03  0.52503359959E+03  0.10100000352E+00 0.  1.
       -3   -1    0    0    0  501  0.00000000000E+00  0.00000000000E+00 -0.13503750184E+04  0.13503750221E+04  0.10100000352E+00 0. -1.
    10030    2    1    2    0    0  0.00000000000E+00  0.00000000000E+00 -0.82534142848E+03  0.18754086217E+04  0.16840335581E+04 0.  0.
        1    1    3    3  502    0 -0.25531075124E+03 -0.15043123674E+03 -0.12903858571E+04  0.13239746209E+04  0.50400001928E-02 0. -1.
       -1    1    3    3    0  502  0.25531075124E+03  0.15043123674E+03  0.46504442858E+03  0.55143400082E+03  0.50400001928E-02 0.  1.
</event>
<event>
 5   0  0.3635143E-04  0.1241637E+04  0.7818609E-02  0.9077173E-01
        1   -1    0    0  501    0  0.00000000000E+00  0.00000000000E+00  0.94788465762E+03  0.94788465764E+03  0.50400001928E-02 0.  1.
       -1   -1    0    0    0  501  0.00000000000E+00  0.00000000000E+00 -0.40660569746E+03  0.40660569749E+03  0.50400001928E-02 0. -1.
    10030    2    1    2    0    0  0.00000000000E+00  0.00000000000E+00  0.54127896017E+03  0.13544903551E+04  0.12416365045E+04 0.  0.
        3    1    3    3  502    0 -0.44177956988E+03  0.34196976677E+03  0.56599267580E+03  0.79527368183E+03  0.10100000352E+00 0.  1.
       -3    1    3    3    0  502  0.44177956988E+03 -0.34196976677E+03 -0.24713715631E+02  0.55921667330E+03  0.10100000352E+00 0. -1.
</event>
<event>
 5   0  0.6746664E-04  0.1755137E+04  0.7818609E-02  0.8730528E-01
        2   -1    0    0  501    0  0.00000000000E+00  0.00000000000E+00  0.10040456149E+04  0.10040456149E+04  0.25500000920E-02 0. -1.
       -2   -1    0    0    0  501  0.00000000000E+00  0.00000000000E+00 -0.76702377883E+03  0.76702377883E+03  0.25500000920E-02 0.  1.
    10030    2    1    2    0    0  0.00000000000E+00  0.00000000000E+00  0.23702183603E+03  0.17710693937E+04  0.17551374438E+04 0.  0.
        5    1    3    3  502    0 -0.18760371076E+03 -0.35696593973E+03 -0.66797726811E+03  0.78027915206E+03  0.46999998093E+01 0.  1.
       -5    1    3    3    0  502  0.18760371076E+03  0.35696593973E+03  0.90499910414E+03  0.99079024163E+03  0.46999998093E+01 0. -1.
</event>
<event>
 5   0  0.3803253E-04  0.1701398E+04  0.7818609E-02  0.8760567E-01
        1   -1    0    0  501    0  0.00000000000E+00  0.00000000000E+00  0.66873735553E+03  0.66873735555E+03  0.50400001928E-02 0. -1.
       -1   -1    0    0    0  501  0.00000000000E+00  0.00000000000E+00 -0.10821717958E+04  0.10821717958E+04  0.50400001928E-02 0.  1.
    10030    2    1    2    0    0  0.00000000000E+00  0.00000000000E+00 -0.41343444024E+03  0.17509091513E+04  0.17013979017E+04 0.  0.
        4    1    3    3  502    0  0.57554723355E+03 -0.57379324124E+03 -0.46541632269E+03  0.93654005150E+03  0.12699999809E+01 0.  1.
       -4    1    3    3    0  502 -0.57554723355E+03  0.57379324124E+03  0.51981882452E+02  0.81436909982E+03  0.12699999809E+01 0. -1.
</event>
<event>
 5   0  0.7233728E-04  0.1664684E+04  0.7818609E-02  0.8781766E-01
       -2   -1    0    0    0  501  0.00000000000E+00  0.00000000000E+00  0.50245935550E+03  0.50245935550E+03  0.25500000920E-02 0. -1.
        2   -1    0    0  501    0  0.00000000000E+00  0.00000000000E+00 -0.13788051135E+04  0.13788051135E+04  0.25500000920E-02 0.  1.
    10030    2    1    2    0    0  0.00000000000E+00  0.00000000000E+00 -0.87634575802E+03  0.18812644690E+04  0.16646843890E+04 0.  0.
        1    1    3    3  502    0  0.10210727771E+03 -0.39056576630E+03  0.38441931812E+03  0.55744571587E+03  0.50400001928E-02 0. -1.
       -1    1    3    3    0  502 -0.10210727771E+03  0.39056576630E+03 -0.12607650761E+04  0.13238187532E+04  0.50400001928E-02 0.  1.
</event>
<event>
 5   0  0.7025426E-04  0.1690163E+04  0.7818609E-02  0.8766995E-01
       -2   -1    0    0    0  501  0.00000000000E+00  0.00000000000E+00  0.57409997905E+03  0.57409997906E+03  0.25500000920E-02 0.  1.
        2   -1    0    0  501    0  0.00000000000E+00  0.00000000000E+00 -0.12439691261E+04  0.12439691261E+04  0.25500000920E-02 0. -1.
    10030    2    1    2    0    0  0.00000000000E+00  0.00000000000E+00 -0.66986914704E+03  0.18180691051E+04  0.16901628906E+04 0.  0.
        2    1    3    3  502    0  0.66196304865E+03 -0.28740885640E+03  0.13807433679E+03  0.73475400714E+03  0.25500000920E-02 0.  1.
       -2    1    3    3    0  502 -0.66196304865E+03  0.28740885640E+03 -0.80794348382E+03  0.10833150980E+04  0.25500000920E-02 0. -1.
</event>
<event>
 5   0  0.3713516E-04  0.1656580E+04  0.7818609E-02  0.8786523E-01
        1   -1    0    0  501    0  0.00000000000E+00  0.00000000000E+00  0.85319951853E+03  0.85319951854E+03  0.50400001928E-02 0. -1.
       -1   -1    0    0    0  501  0.00000000000E+00  0.00000000000E+00 -0.80410806015E+03  0.80410806017E+03  0.50400001928E-02 0.  1.
    10030    2    1    2    0    0  0.00000000000E+00  0.00000000000E+00  0.49091458376E+02  0.16573075787E+04  0.16565803449E+04 0.  0.
        5    1    3    3  502    0 -0.59740365903E+03  0.18664843235E+03  0.56729080111E+03  0.84473055594E+03  0.46999998093E+01 0. -1.
       -5    1    3    3    0  502  0.59740365903E+03 -0.18664843235E+03 -0.51819934273E+03  0.81257702277E+03  0.46999998093E+01 0.  1.
</event>
<event>
 5   0  0.7049044E-04  0.1667462E+04  0.7818609E-02  0.8780143E-01
       -2   -1    0    0    0  501  0.00000000000E+00  0.00000000000E+00  0.69859909225E+03  0.69859909225E+03  0.25500000920E-02 0. -1.
        2   -1    0    0  501    0  0.00000000000E+00  0.00000000000E+00 -0.99500179763E+03  0.99500179763E+03  0.25500000920E-02 0.  1.
    10030    2    1    2    0    0  0.00000000000E+00  0.00000000000E+00 -0.29640270538E+03  0.16936008899E+04  0.16674619667E+04 0.  0.
        4    1    3    3  502    0  0.74357054580E+03 -0.20209938261E+03 -0.47157000150E+03  0.90339426401E+03  0.12699999809E+01 0.  1.
       -4    1    3    3    0  502 -0.74357054580E+03  0.20209938261E+03  0.17516729612E+03  0.79020662587E+03  0.12699999809E+01 0. -1.
</event>
<event>
 5   0  0.6746664E-04  0.1646830E+04  0.7818609E-02  0.8792284E-01
        2   -1    0    0  501    0  0.00000000000E+00  0.00000000000E+00  0.60068655274E+03  0.60068655274E+03  0.25500000920E-02 0. -1.
       -2   -1    0    0    0  501  0.00000000000E+00  0.00000000000E+00 -0.11287288583E+04  0.11287288583E+04  0.25500000920E-02 0.  1.
    10030    2    1    2    0    0  0.00000000000E+00  0.00000000000E+00 -0.52804230559E+03  0.17294154111E+04  0.16468299814E+04 0.  0.
        5    1    3    3  502    0  0.26607614203E+03  0.10341718864E+03  0.54704307685E+03  0.61706551208E+03  0.46999998093E+01 0. -1.
       -5    1    3    3    0  502 -0.26607614203E+03 -0.10341718864E+03 -0.10750853824E+04  0.11123498990E+04  0.46999998093E+01 0.  1.
</event>
<event>
 5   0  0.3803253E-04  0.1660872E+04  0.7818609E-02  0.8784000E-01
        1   -1    0    0  501    0  0.00000000000E+00  0.00000000000E+00  0.10453388474E+04  0.10453388474E+04  0.50400001928E-02 0. -1.
       -1   -1    0    0    0  501  0.00000000000E+00  0.00000000000E+00 -0.65971358356E+03  0.65971358358E+03  0.50400001928E-02 0.  1.
    10030    2    1    2    0    0  0.00000000000E+00  0.00000000000E+00  0.38562526382E+03  0.17050524310E+04  0.16608723456E+04 0.  0.
        4    1    3    3  502    0 -0.66779873439E+03 -0.49362505663E+03  0.19144375108E+03  0.85221662088E+03  0.12699999809E+01 0. -1.
       -4    1    3    3    0  502  0.66779873439E+03  0.49362505663E+03  0.19418151274E+03  0.85283581009E+03  0.12699999809E+01 0.  1.
</event>
<event>
 5   0  0.7233728E-04  0.1628491E+04  0.7818609E-02  0.8803234E-01
        2   -1    0    0  501    0  0.00000000000E+00  0.00000000000E+00  0.12702316219E+04  0.12702316219E+04  0.25500000920E-02 0. -1.
       -2   -1    0    0    0  501  0.00000000000E+00  0.00000000000E+00 -0.52194858094E+03  0.52194858094E+03  0.25500000920E-02 0.  1.
    10030    2    1    2    0    0  0.00000000000E+00  0.00000000000E+00  0.74828304092E+03  0.17921802028E+04  0.16284908259E+04 0.  0.
        1    1    3    3  502    0 -0.19825121874E+03  0.10872300651E+03 -0.48670637121E+03  0.53666314359E+03  0.50400001928E-02 0.  1.
       -1    1    3    3    0  502  0.19825121874E+03 -0.10872300651E+03  0.12349894121E+04  0.12555170592E+04  0.50400001928E-02 0. -1.
</event>
<event>
 5   0  0.3713516E-04  0.1237185E+04  0.7818609E-02  0.9080917E-01
        1   -1    0    0  501    0  0.00000000000E+00  0.00000000000E+00  0.54569199042E+03  0.54569199045E+03  0.50400001928E-02 0. -1.
       -1   -1    0    0    0  501  0.00000000000E+00  0.00000000000E+00 -0.70123214300E+03  0.70123214302E+03  0.50400001928E-02 0.  1.
    10030    2    1    2    0    0  0.00000000000E+00  0.00000000000E+00 -0.15554015258E+03  0.12469241335E+04  0.12371851339E+04 0.  0.
        5    1    3    3  502    0  0.25916104997E+03 -0.32447383712E+03 -0.53984054680E+03  0.68110030595E+03  0.46999998093E+01 0.  1.
       -5    1    3    3    0  502 -0.25916104997E+03  0.32447383712E+03  0.38430039423E+03  0.56582382752E+03  0.46999998093E+01 0. -1.
</event>
<event>
 5   0  0.3635143E-04  0.1715983E+04  0.7818609E-02  0.8752301E-01
        1   -1    0    0  501    0  0.00000000000E+00  0.00000000000E+00  0.13184406427E+04  0.13184406427E+04  0.50400001928E-02 0. -1.
       -1   -1    0    0    0  501  0.00000000000E+00  0.00000000000E+00 -0.55834886982E+03  0.55834886985E+03  0.50400001928E-02 0.  1.
    10030    2    1    2    0    0  0.00000000000E+00  0.00000000000E+00  0.76009177287E+03  0.18767895126E+04  0.17159834997E+04 0.  0.
        3    1    3    3  502    0  0.62379570715E+03  0.18188954701E+03 -0.23276885668E+03  0.69020739087E+03  0.10100000352E+00 0.  1.
       -3    1    3    3    0  502 -0.62379570715E+03 -0.18188954701E+03  0.99286062956E+03  0.11865821217E+04  0.10100000352E+00 0. -1.
</event>
<event>
 5   0  0.3635143E-04  0.1700071E+04  0.7818609E-02  0.8761324E-01
        1   -1    0    0  501    0  0.00000000000E+00  0.00000000000E+00  0.63730068922E+03  0.63730068924E+03  0.50400001928E-02 0. -1.
       -1   -1    0    0    0  501  0.00000000000E+00  0.00000000000E+00 -0.11337819495E+04  0.11337819495E+04  0.50400001928E-02 0.  1.
    10030    2    1    2    0    0  0.00000000000E+00  0.00000000000E+00 -0.49648126024E+03  0.17710826387E+04  0.17000706078E+04 0.  0.
        3    1    3    3  502    0  0.16115292834E+03  0.83240808620E+03 -0.31149348418E+03  0.90327276565E+03  0.10100000352E+00 0. -1.
       -3    1    3    3    0  502 -0.16115292834E+03 -0.83240808620E+03 -0.18498777606E+03  0.86780987305E+03  0.10100000352E+00 0.  1.
</event>
<event>
 5   0  0.3723500E-04  0.1693843E+04  0.7818609E-02  0.8764884E-01
       -1   -1    0    0    0  501  0.00000000000E+00  0.00000000000E+00  0.10653356090E+04  0.10653356090E+04  0.50400001928E-02 0.  1.
        1   -1    0    0  501    0  0.00000000000E+00  0.00000000000E+00 -0.67328612707E+03  0.67328612709E+03  0.50400001928E-02 0. -1.
    10030    2    1    2    0    0  0.00000000000E+00  0.00000000000E+00  0.39204948194E+03  0.17386217361E+04  0.16938425975E+04 0.  0.
        1    1    3    3  502    0 -0.28884352068E+03  0.24430647536E+02  0.10128309935E+04  0.10534961118E+04  0.50400001928E-02 0.  1.
       -1    1    3    3    0  502  0.28884352068E+03 -0.24430647536E+02 -0.62078151160E+03  0.68512562436E+03  0.50400001928E-02 0. -1.
</event>
<event>
 5   0  0.7242144E-04  0.1702889E+04  0.7818609E-02  0.8759718E-01
        2   -1    0    0  501    0  0.00000000000E+00  0.00000000000E+00  0.52460770344E+03  0.52460770344E+03  0.25500000920E-02 0.  1.
       -2   -1    0    0    0  501  0.00000000000E+00  0.00000000000E+00 -0.13819045914E+04  0.13819045914E+04  0.25500000920E-02 0. -1.
    10030    2    1    2    0    0  0.00000000000E+00  0.00000000000E+00 -0.85729688796E+03  0.19065122948E+04  0.17028890675E+04 0.  0.
        3    1    3    3  502    0  0.70735574308E+03  0.23698081346E+02 -0.95858020365E+03  0.11915493122E+04  0.10100000352E+00 0. -1.
       -3    1    3    3    0  502 -0.70735574308E+03 -0.23698081346E+02  0.10128331569E+03  0.71496298266E+03  0.10100000352E+00 0.  1.
</event>
<event>
 5   0  0.2639750E-04  0.1748537E+04  0.7818609E-02  0.8734156E-01
       -3   -1    0    0    0  501  0.00000000000E+00  0.00000000000E+00  0.53632292099E+03  0.53632293050E+03  0.10100000352E+00 0. -1.
        3   -1    0    0  501    0  0.00000000000E+00  0.00000000000E+00 -0.14251582558E+04  0.14251582594E+04  0.10100000352E+00 0.  1.
    10030    2    1    2    0    0  0.00000000000E+00  0.00000000000E+00 -0.88883533481E+03  0.19614811899E+04  0.17485365898E+04 0.  0.
        2    1    3    3  502    0 -0.66055161213E+03  0.52805868081E+03 -0.19566806672E+03  0.86802096461E+03  0.25500000920E-02 0.  1.
       -2    1    3    3    0  502  0.66055161213E+03 -0.52805868081E+03 -0.69316726808E+03  0.10934602253E+04  0.25500000920E-02 0. -1.
</event>
<event>
 5   0  0.7242144E-04  0.1715358E+04  0.7818609E-02  0.8752653E-01
        2   -1    0    0  501    0  0.00000000000E+00  0.00000000000E+00  0.77696900812E+03  0.77696900813E+03  0.25500000920E-02 0. -1.
       -2   -1    0    0    0  501  0.00000000000E+00  0.00000000000E+00 -0.94677267669E+03  0.94677267669E+03  0.25500000920E-02 0.  1.
    10030    2    1    2    0    0  0.00000000000E+00  0.00000000000E+00 -0.16980366857E+03  0.17237416848E+04  0.17153577207E+04 0.  0.
        3    1    3    3  502    0  0.23968279581E+03 -0.81368512171E+03 -0.21233527994E+03  0.87442415406E+03  0.10100000352E+00 0.  1.
       -3    1    3    3    0  502 -0.23968279581E+03  0.81368512171E+03  0.42531611369E+02  0.84931753076E+03  0.10100000352E+00 0. -1.
</event>
<event>
 5   0  0.6746664E-04  0.1244845E+04  0.7818609E-02  0.9074485E-01
       -2   -1    0    0    0  501  0.00000000000E+00  0.00000000000E+00  0.35054409586E+03  0.35054409586E+03  0.25500000920E-02 0. -1.
        2   -1    0    0  501    0  0.00000000000E+00  0.00000000000E+00 -0.11051662574E+04  0.11051662574E+04  0.25500000920E-02 0.  1.
    10030    2    1    2    0    0  0.00000000000E+00  0.00000000000E+00 -0.75462216150E+03  0.14557103532E+04  0.12448445790E+04 0.  0.
        5    1    3    3  502    0  0.28275103295E+03  0.13558044859E+03 -0.10060230711E+04  0.10537716613E+04  0.46999998093E+01 0.  1.
       -5    1    3    3    0  502 -0.28275103295E+03 -0.13558044859E+03  0.25140090961E+03  0.40193869187E+03  0.46999998093E+01 0. -1.
</event>
<event>
 5   0  0.3915701E-04  0.1744710E+04  0.7818609E-02  0.8736267E-01
        1   -1    0    0  501    0  0.00000000000E+00  0.00000000000E+00  0.70654934088E+03  0.70654934090E+03  0.50400001928E-02 0.  1.
       -1   -1    0    0    0  501  0.00000000000E+00  0.00000000000E+00 -0.10770704964E+04  0.10770704964E+04  0.50400001928E-02 0. -1.
    10030    2    1    2    0    0  0.00000000000E+00  0.00000000000E+00 -0.37052115553E+03  0.17836198373E+04  0.17447102331E+04 0.  0.
        2    1    3    3  502    0 -0.16884461380E+03  0.45804573235E+03  0.55383514296E+03  0.73827350089E+03  0.25500000920E-02 0.  1.
       -2    1    3    3    0  502  0.16884461380E+03 -0.45804573235E+03 -0.92435629849E+03  0.10453463364E+04  0.25500000920E-02 0. -1.
</event>
<event>
 5   0  0.3803253E-04  0.1687021E+04  0.7818609E-02  0.8768802E-01
       -1   -1    0    0    0  501  0.00000000000E+00  0.00000000000E+00  0.11298594738E+04  0.11298594738E+04  0.50400001928E-02 0.  1.
        1   -1    0    0  501    0  0.00000000000E+00  0.00000000000E+00 -0.62973300019E+03  0.62973300021E+03  0.50400001928E-02 0. -1.
    10030    2    1    2    0    0  0.00000000000E+00  0.00000000000E+00  0.50012647363E+03  0.17595924740E+04  0.16870208016E+04 0.  0.
        4    1    3    3  502    0  0.15900416710E+03  0.81680255861E+03  0.10606847006E+03  0.83886880866E+03  0.12699999809E+01 0. -1.
       -4    1    3    3    0  502 -0.15900416710E+03 -0.81680255861E+03  0.39405800357E+03  0.92072366538E+03  0.12699999809E+01 0.  1.
</event>
<event>
 5   0  0.7025426E-04  0.1645190E+04  0.7818609E-02  0.8793257E-01
       -2   -1    0    0    0  501  0.00000000000E+00  0.00000000000E+00  0.71365811259E+03  0.71365811259E+03  0.25500000920E-02 0. -1.
        2   -1    0    0  501    0  0.00000000000E+00  0.00000000000E+00 -0.94816116889E+03  0.94816116889E+03  0.25500000920E-02 0.  1.
    10030    2    1    2    0    0  0.00000000000E+00  0.00000000000E+00 -0.23450305630E+03  0.16618192815E+04  0.16451904573E+04 0.  0.
        2    1    3    3  502    0 -0.52835089859E+03 -0.47335751401E+03 -0.53792330288E+03  0.89027158098E+03  0.25500000920E-02 0.  1.
       -2    1    3    3    0  502  0.52835089859E+03  0.47335751401E+03  0.30342024658E+03  0.77154770050E+03  0.25500000920E-02 0. -1.
</event>
<event>
 5   0  0.7242144E-04  0.1701858E+04  0.7818609E-02  0.8760305E-01
       -2   -1    0    0    0  501  0.00000000000E+00  0.00000000000E+00  0.74887217299E+03  0.74887217299E+03  0.25500000920E-02 0. -1.
        2   -1    0    0  501    0  0.00000000000E+00  0.00000000000E+00 -0.96689446356E+03  0.96689446356E+03  0.25500000920E-02 0.  1.
    10030    2    1    2    0    0  0.00000000000E+00  0.00000000000E+00 -0.21802229057E+03  0.17157666366E+04  0.17018582291E+04 0.  0.
        3    1    3    3  502    0  0.48891718577E+03 -0.14392811147E+03  0.57797169356E+03  0.77058847939E+03  0.10100000352E+00 0. -1.
       -3    1    3    3    0  502 -0.48891718577E+03  0.14392811147E+03 -0.79599398413E+03  0.94517815716E+03  0.10100000352E+00 0.  1.
</event>
<event>
 5   0  0.3723500E-04  0.1695496E+04  0.7818609E-02  0.8763937E-01
        1   -1    0    0  501    0  0.00000000000E+00  0.00000000000E+00  0.74997615699E+03  0.74997615701E+03  0.50400001928E-02 0.  1.
       -1   -1    0    0    0  501  0.00000000000E+00  0.00000000000E+00 -0.95826644188E+03  0.95826644189E+03  0.50400001928E-02 0. -1.
    10030    2    1    2    0    0  0.00000000000E+00  0.00000000000E+00 -0.20829028488E+03  0.17082425989E+04  0.16954963680E+04 0.  0.
        1    1    3    3  502    0 -0.48514801443E+03 -0.60232081284E+03  0.24562174216E+03  0.81147334998E+03  0.50400001928E-02 0.  1.
       -1    1    3    3    0  502  0.48514801443E+03  0.60232081284E+03 -0.45391202704E+03  0.89676924892E+03  0.50400001928E-02 0. -1.
</event>
<event>
 5   0  0.6746664E-04  0.1223643E+04  0.7818609E-02  0.9092410E-01
        2   -1    0    0  501    0  0.00000000000E+00  0.00000000000E+00  0.66914687270E+03  0.66914687270E+03  0.25500000920E-02 0. -1.
       -2   -1    0    0    0  501  0.00000000000E+00  0.00000000000E+00 -0.55940676848E+03  0.55940676848E+03  0.25500000920E-02 0.  1.
    10030    2    1    2    0    0  0.00000000000E+00  0.00000000000E+00  0.10974010422E+03  0.12285536412E+04  0.12236425780E+04 0.  0.
        5    1    3    3  502    0 -0.60878022582E+01  0.51899083443E+02  0.66688410934E+03  0.66894475219E+03  0.46999998093E+01 0. -1.
       -5    1    3    3    0  502  0.60878022582E+01 -0.51899083443E+02 -0.55714400512E+03  0.55960888899E+03  0.46999998093E+01 0.  1.
</event>
<event>
 5   0  0.3803253E-04  0.1677857E+04  0.7818609E-02  0.8774095E-01
        1   -1    0    0  501    0  0.00000000000E+00  0.00000000000E+00  0.55433414232E+03  0.55433414234E+03  0.50400001928E-02 0.  1.
       -1   -1    0    0    0  501  0.00000000000E+00  0.00000000000E+00 -0.12696335339E+04  0.12696335339E+04  0.50400001928E-02 0. -1.
    10030    2    1    2    0    0  0.00000000000E+00  0.00000000000E+00 -0.71529939156E+03  0.18239676762E+04  0.16778572241E+04 0.  0.
        4    1    3    3  502    0 -0.50518238016E+03 -0.55362609148E+03  0.52121687633E+02  0.75128514534E+03  0.12699999809E+01 0.  1.
       -4    1    3    3    0  502  0.50518238016E+03  0.55362609148E+03 -0.76742107919E+03  0.10726825309E+04  0.12699999809E+01 0. -1.
</event>
<event>
 5   0  0.3713516E-04  0.1637666E+04  0.7818609E-02  0.8797737E-01
       -1   -1    0    0    0  501  0.00000000000E+00  0.00000000000E+00  0.32657415183E+03  0.32657415187E+03  0.50400001928E-02 0.  1.
        1   -1    0    0  501    0  0.00000000000E+00  0.00000000000E+00 -0.20530932437E+04  0.20530932437E+04  0.50400001928E-02 0. -1.
    10030    2    1    2    0    0  0.00000000000E+00  0.00000000000E+00 -0.17265190918E+04  0.23796673955E+04  0.16376656371E+04 0.  0.
        5    1    3    3  502    0 -0.37292434841E+03  0.67495387020E+03 -0.46312046156E+03  0.89952095497E+03  0.46999998093E+01 0. -1.
       -5    1    3    3    0  502  0.37292434841E+03 -0.67495387020E+03 -0.12633986303E+04  0.14801464406E+04  0.46999998093E+01 0.  1.
</event>
<event>
 5   0  0.7025426E-04  0.1705336E+04  0.7818609E-02  0.8758327E-01
        2   -1    0    0  501    0  0.00000000000E+00  0.00000000000E+00  0.83857480905E+03  0.83857480905E+03  0.25500000920E-02 0. -1.
       -2   -1    0    0    0  501  0.00000000000E+00  0.00000000000E+00 -0.86699827446E+03  0.86699827446E+03  0.25500000920E-02 0.  1.
    10030    2    1    2    0    0  0.00000000000E+00  0.00000000000E+00 -0.28423465413E+02  0.17055730835E+04  0.17053362278E+04 0.  0.
        2    1    3    3  502    0  0.90223670239E+02  0.15710743350E+03  0.81910256045E+03  0.83889931510E+03  0.25500000920E-02 0. -1.
       -2    1    3    3    0  502 -0.90223670239E+02 -0.15710743350E+03 -0.84752602587E+03  0.86667376841E+03  0.25500000920E-02 0.  1.
</event>
<event>
 5   0  0.3723500E-04  0.1711574E+04  0.7818609E-02  0.8754791E-01
       -1   -1    0    0    0  501  0.00000000000E+00  0.00000000000E+00  0.40711388628E+03  0.40711388631E+03  0.50400001928E-02 0.  1.
        1   -1    0    0  501    0  0.00000000000E+00  0.00000000000E+00 -0.17989341375E+04  0.17989341375E+04  0.50400001928E-02 0. -1.
    10030    2    1    2    0    0  0.00000000000E+00  0.00000000000E+00 -0.13918202513E+04  0.22060480239E+04  0.17115736244E+04 0.  0.
        1    1    3    3  502    0  0.39968982141E+03 -0.48353981483E+03 -0.14461435992E+04  0.15763546604E+04  0.50400001928E-02 0. -1.
       -1    1    3    3    0  502 -0.39968982141E+03  0.48353981483E+03  0.54323347893E+02  0.62969336348E+03  0.50400001928E-02 0.  1.
</event>
<event>
 5   0  0.3915701E-04  0.1710490E+04  0.7818609E-02  0.8755404E-01
       -1   -1    0    0    0  501  0.00000000000E+00  0.00000000000E+00  0.86169252628E+03  0.86169252630E+03  0.50400001928E-02 0. -1.
        1   -1    0    0  501    0  0.00000000000E+00  0.00000000000E+00 -0.84884571738E+03  0.84884571740E+03  0.50400001928E-02 0.  1.
    10030    2    1    2    0    0  0.00000000000E+00  0.00000000000E+00  0.12846808902E+02  0.17105382437E+04  0.17104900007E+04 0.  0.
        2    1    3    3  502    0 -0.80297916415E+02  0.83870011457E+03 -0.14047652856E+03  0.85416584610E+03  0.25500000920E-02 0. -1.
       -2    1    3    3    0  502  0.80297916415E+02 -0.83870011457E+03  0.15332333746E+03  0.85637239760E+03  0.25500000920E-02 0.  1.
</event>
<event>
 5   0  0.6746664E-04  0.1640724E+04  0.7818609E-02  0.8795913E-01
       -2   -1    0    0    0  501  0.00000000000E+00  0.00000000000E+00  0.78921942849E+03  0.78921942849E+03  0.25500000920E-02 0. -1.
        2   -1    0    0  501    0  0.00000000000E+00  0.00000000000E+00 -0.85273354024E+03  0.85273354024E+03  0.25500000920E-02 0.  1.
    10030    2    1    2    0    0  0.00000000000E+00  0.00000000000E+00 -0.63514111752E+02  0.16419529687E+04  0.16407240807E+04 0.  0.
        5    1    3    3  502    0 -0.49182025999E+03  0.56436831279E+03 -0.36752739741E+03  0.83396477051E+03  0.46999998093E+01 0. -1.
       -5    1    3    3    0  502  0.49182025999E+03 -0.56436831279E+03  0.30401328566E+03  0.80798819822E+03  0.46999998093E+01 0.  1.
</event>
<event>
 5   0  0.7049044E-04  0.1730628E+04  0.7818609E-02  0.8744087E-01
        2   -1    0    0  501    0  0.00000000000E+00  0.00000000000E+00  0.10187274042E+04  0.10187274042E+04  0.25500000920E-02 0.  1.
       -2   -1    0    0    0  501  0.00000000000E+00  0.00000000000E+00 -0.73500329909E+03  0.73500329910E+03  0.25500000920E-02 0. -1.
    10030    2    1    2    0    0  0.00000000000E+00  0.00000000000E+00  0.28372410511E+03  0.17537307033E+04  0.17306276352E+04 0.  0.
        4    1    3    3  502    0 -0.60999923144E+03  0.20989696673E+03  0.72628506434E+03  0.97141515665E+03  0.12699999809E+01 0.  1.
       -4    1    3    3    0  502  0.60999923144E+03 -0.20989696673E+03 -0.44256095923E+03  0.78231554665E+03  0.12699999809E+01 0. -1.
</event>
<event>
 5   0  0.3915701E-04  0.1437011E+04  0.7818609E-02  0.8927455E-01
       -1   -1    0    0    0  501  0.00000000000E+00  0.00000000000E+00  0.81148403040E+03  0.81148403041E+03  0.50400001928E-02 0. -1.
        1   -1    0    0  501    0  0.00000000000E+00  0.00000000000E+00 -0.63618057346E+03  0.63618057348E+03  0.50400001928E-02 0.  1.
    10030    2    1    2    0    0  0.00000000000E+00  0.00000000000E+00  0.17530345694E+03  0.14476646039E+04  0.14370113094E+04 0.  0.
        2    1    3    3  502    0  0.65707437661E+01 -0.62837882931E+03 -0.26328008088E+03  0.68133657527E+03  0.25500000920E-02 0.  1.
       -2    1    3    3    0  502 -0.65707437661E+01  0.62837882931E+03  0.43858353781E+03  0.76632802862E+03  0.25500000920E-02 0. -1.
</event>
<event>
 5   0  0.3635143E-04  0.1699339E+04  0.7818609E-02  0.8761741E-01
       -1   -1    0    0    0  501  0.00000000000E+00  0.00000000000E+00  0.15166148171E+04  0.15166148171E+04  0.50400001928E-02 0. -1.
        1   -1    0    0  501    0  0.00000000000E+00  0.00000000000E+00 -0.47601968956E+03  0.47601968959E+03  0.50400001928E-02 0.  1.
    10030    2    1    2    0    0  0.00000000000E+00  0.00000000000E+00  0.10405951275E+04  0.19926345067E+04  0.16993393004E+04 0.  0.
        3    1    3    3  502    0  0.31914566839E+03  0.48669453891E+03  0.12461822704E+04  0.13753893242E+04  0.10100000352E+00 0. -1.
       -3    1    3    3    0  502 -0.31914566839E+03 -0.48669453891E+03 -0.20558714283E+03  0.61724518253E+03  0.10100000352E+00 0.  1.
</event>
<event>
 5   0  0.3915701E-04  0.1696768E+04  0.7818609E-02  0.8763210E-01
       -1   -1    0    0    0  501  0.00000000000E+00  0.00000000000E+00  0.54130083151E+03  0.54130083153E+03  0.50400001928E-02 0.  1.
        1   -1    0    0  501    0  0.00000000000E+00  0.00000000000E+00 -0.13296767706E+04  0.13296767706E+04  0.50400001928E-02 0. -1.
    10030    2    1    2    0    0  0.00000000000E+00  0.00000000000E+00 -0.78837593913E+03  0.18709776022E+04  0.16967676819E+04 0.  0.
        2    1    3    3  502    0  0.66420620270E+03  0.49168996570E+03 -0.18258347326E+03  0.84632477619E+03  0.25500000920E-02 0.  1.
       -2    1    3    3    0  502 -0.66420620270E+03 -0.49168996570E+03 -0.60579246587E+03  0.10246528260E+04  0.25500000920E-02 0. -1.
</event>
<event>
 5   0  0.7242144E-04  0.1678987E+04  0.7818609E-02  0.8773441E-01
        2   -1    0    0  501    0  0.00000000000E+00  0.00000000000E+00  0.12688107649E+04  0.12688107649E+04  0.25500000920E-02 0. -1.
       -2   -1    0    0    0  501  0.00000000000E+00  0.00000000000E+00 -0.55544069018E+03  0.55544069019E+03  0.25500000920E-02 0.  1.
    10030    2    1    2    0    0  0.00000000000E+00  0.00000000000E+00  0.71337007475E+03  0.18242514551E+04  0.16789867504E+04 0.  0.
        3    1    3    3  502    0 -0.46213080492E+02  0.33312309438E+03  0.11924171766E+04  0.12389371970E+04  0.10100000352E+00 0. -1.
       -3    1    3    3    0  502  0.46213080492E+02 -0.33312309438E+03 -0.47904710184E+03  0.58531425815E+03  0.10100000352E+00 0.  1.
</event>
<event>
 5   0  0.3713516E-04  0.1683380E+04  0.7818609E-02  0.8770901E-01
        1   -1    0    0  501    0  0.00000000000E+00  0.00000000000E+00  0.81324189583E+03  0.81324189584E+03  0.50400001928E-02 0. -1.
       -1   -1    0    0    0  501  0.00000000000E+00  0.00000000000E+00 -0.87113320311E+03  0.87113320313E+03  0.50400001928E-02 0.  1.
    10030    2    1    2    0    0  0.00000000000E+00  0.00000000000E+00 -0.57891307285E+02  0.16843750990E+04  0.16833799543E+04 0.  0.
        5    1    3    3  502    0 -0.25823715324E+03 -0.14965493433E+03 -0.81639048991E+03  0.86925171768E+03  0.46999998093E+01 0.  1.
       -5    1    3    3    0  502  0.25823715324E+03  0.14965493433E+03  0.75849918262E+03  0.81512338129E+03  0.46999998093E+01 0. -1.
</event>
<event>
 5   0  0.3803253E-04  0.1657078E+04  0.7818609E-02  0.8786230E-01
       -1   -1    0    0    0  501  0.00000000000E+00  0.00000000000E+00  0.87593165543E+03  0.87593165544E+03  0.50400001928E-02 0.  1.
        1   -1    0    0  501    0  0.00000000000E+00  0.00000000000E+00 -0.78371075777E+03  0.78371075779E+03  0.50400001928E-02 0. -1.
    10030    2    1    2    0    0  0.00000000000E+00  0.00000000000E+00  0.92220897658E+02  0.16596424132E+04  0.16570782256E+04 0.  0.
        4    1    3    3  502    0  0.55700413436E+03 -0.29535058116E+03 -0.49229919407E+03  0.79990354473E+03  0.12699999809E+01 0. -1.
       -4    1    3    3    0  502 -0.55700413436E+03  0.29535058116E+03  0.58452009172E+03  0.85973886851E+03  0.12699999809E+01 0.  1.
</event>
<event>
 5   0  0.3635143E-04  0.1800362E+04  0.7818609E-02  0.8706107E-01
       -1   -1    0    0    0  501  0.00000000000E+00  0.00000000000E+00  0.52195478230E+03  0.52195478233E+03  0.50400001928E-02 0. -1.
        1   -1    0    0  501    0  0.00000000000E+00  0.00000000000E+00 -0.15524836005E+04  0.15524836005E+04  0.50400001928E-02 0.  1.
    10030    2    1    2    0    0  0.00000000000E+00  0.00000000000E+00 -0.10305288182E+04  0.20744383828E+04  0.18003624521E+04 0.  0.
        3    1    3    3  502    0 -0.52417994736E+03 -0.56777078515E+02  0.32542256246E+03  0.61958704652E+03  0.10100000352E+00 0. -1.
       -3    1    3    3    0  502  0.52417994736E+03  0.56777078515E+02 -0.13559513806E+04  0.14548513363E+04  0.10100000352E+00 0.  1.
</event>
<event>
 5   0  0.7233728E-04  0.1706524E+04  0.7818609E-02  0.8757652E-01
       -2   -1    0    0    0  501  0.00000000000E+00  0.00000000000E+00  0.85211049683E+03  0.85211049683E+03  0.25500000920E-02 0. -1.
        2   -1    0    0  501    0  0.00000000000E+00  0.00000000000E+00 -0.85441550202E+03  0.85441550202E+03  0.25500000920E-02 0.  1.
    10030    2    1    2    0    0  0.00000000000E+00  0.00000000000E+00 -0.23050051921E+01  0.17065259989E+04  0.17065244422E+04 0.  0.
        1    1    3    3  502    0  0.13244218249E+03 -0.78174876876E+03 -0.31640562320E+03  0.85368881191E+03  0.50400001928E-02 0.  1.
       -1    1    3    3    0  502 -0.13244218249E+03  0.78174876876E+03  0.31410061801E+03  0.85283718694E+03  0.50400001928E-02 0. -1.
</event>
<event>
 5   0  0.3723500E-04  0.1675818E+04  0.7818609E-02  0.8775277E-01
        1   -1    0    0  501    0  0.00000000000E+00  0.00000000000E+00  0.15406649586E+04  0.15406649586E+04  0.50400001928E-02 0. -1.
       -1   -1    0    0    0  501  0.00000000000E+00  0.00000000000E+00 -0.45570703515E+03  0.45570703518E+03  0.50400001928E-02 0.  1.
    10030    2    1    2    0    0  0.00000000000E+00  0.00000000000E+00  0.10849579234E+04  0.19963719938E+04  0.16758184394E+04 0.  0.
        1    1    3    3  502    0  0.24105316461E+03  0.72590658013E+03  0.13491976809E+03  0.77669191774E+03  0.50400001928E-02 0.  1.
       -1    1    3    3    0  502 -0.24105316461E+03 -0.72590658013E+03  0.95003815532E+03  0.12196800760E+04  0.50400001928E-02 0. -1.
</event>
<event>
 5   0  0.7242144E-04  0.1677922E+04  0.7818609E-02  0.8774057E-01
        2   -1    0    0  501    0  0.00000000000E+00  0.00000000000E+00  0.10623985117E+04  0.10623985117E+04  0.25500000920E-02 0. -1.
       -2   -1    0    0    0  501  0.00000000000E+00  0.00000000000E+00 -0.66251592735E+03  0.66251592735E+03  0.25500000920E-02 0.  1.
    10030    2    1    2    0    0  0.00000000000E+00  0.00000000000E+00  0.39988258439E+03  0.17249144391E+04  0.16779224478E+04 0.  0.
        3    1    3    3  502    0  0.46523389989E+03 -0.37408294519E+03 -0.40603779788E+03  0.72197460828E+03  0.10100000352E+00 0.  1.
       -3    1    3    3    0  502 -0.46523389989E+03  0.37408294519E+03  0.80592038227E+03  0.10029398308E+04  0.10100000352E+00 0. -1.
</event>
<event>
 5   0  0.7242144E-04  0.1687284E+04  0.7818609E-02  0.8768650E-01
       -2   -1    0    0    0  501  0.00000000000E+00  0.00000000000E+00  0.82267473297E+03  0.82267473297E+03  0.25500000920E-02 0. -1.
        2   -1    0    0  501    0  0.00000000000E+00  0.00000000000E+00 -0.86514388639E+03  0.86514388640E+03  0.25500000920E-02 0.  1.
    10030    2    1    2    0    0  0.00000000000E+00  0.00000000000E+00 -0.42469153426E+02  0.16878186194E+04  0.16872842271E+04 0.  0.
        3    1    3    3  502    0 -0.32338579357E+03  0.62094688935E+03 -0.49210501799E+03  0.85575742463E+03  0.10100000352E+00 0.  1.
       -3    1    3    3    0  502  0.32338579357E+03 -0.62094688935E+03  0.44963586457E+03  0.83206119474E+03  0.10100000352E+00 0. -1.
</event>
<event>
 5   0  0.7049044E-04  0.1161698E+04  0.7818609E-02  0.9147059E-01
       -2   -1    0    0    0  501  0.00000000000E+00  0.00000000000E+00  0.35985213378E+03  0.35985213378E+03  0.25500000920E-02 0.  1.
        2   -1    0    0  501    0  0.00000000000E+00  0.00000000000E+00 -0.93756694339E+03  0.93756694340E+03  0.25500000920E-02 0. -1.
    10030    2    1    2    0    0  0.00000000000E+00  0.00000000000E+00 -0.57771480962E+03  0.12974190772E+04  0.11616978353E+04 0.  0.
        4    1    3    3  502    0  0.19276130922E+03  0.54186947232E+03 -0.37961938115E+03  0.68912403442E+03  0.12699999809E+01 0.  1.
       -4    1    3    3    0  502 -0.19276130922E+03 -0.54186947232E+03 -0.19809542847E+03  0.60829504276E+03  0.12699999809E+01 0. -1.
</event>
<event>
 5   0  0.3635143E-04  0.1283417E+04  0.7818609E-02  0.9042820E-01
       -1   -1    0    0    0  501  0.00000000000E+00  0.00000000000E+00  0.57651173818E+03  0.57651173820E+03  0.50400001928E-02 0. -1.
        1   -1    0    0  501    0  0.00000000000E+00  0.00000000000E+00 -0.71427801123E+03  0.71427801125E+03  0.50400001928E-02 0.  1.
    10030    2    1    2    0    0  0.00000000000E+00  0.00000000000E+00 -0.13776627305E+03  0.12907897495E+04  0.12834167800E+04 0.  0.
        3    1    3    3  502    0 -0.63511059835E+03  0.91783197652E+02 -0.68740509333E+02  0.64537965209E+03  0.10100000352E+00 0.  1.
       -3    1    3    3    0  502  0.63511059835E+03 -0.91783197652E+02 -0.69025763718E+02  0.64541009736E+03  0.10100000352E+00 0. -1.
</event>
<event>
 5   0  0.7049044E-04  0.1832156E+04  0.7818609E-02  0.8689384E-01
        2   -1    0    0  501    0  0.00000000000E+00  0.00000000000E+00  0.14149272876E+04  0.14149272876E+04  0.25500000920E-02 0. -1.
       -2   -1    0    0    0  501  0.00000000000E+00  0.00000000000E+00 -0.59310410203E+03  0.59310410204E+03  0.25500000920E-02 0.  1.
    10030    2    1    2    0    0  0.00000000000E+00  0.00000000000E+00  0.82182318555E+03  0.20080313896E+04  0.18321563016E+04 0.  0.
        4    1    3    3  502    0  0.11038274666E+03 -0.77147020403E+03  0.93863779747E+03  0.12199971943E+04  0.12699999809E+01 0. -1.
       -4    1    3    3    0  502 -0.11038274666E+03  0.77147020403E+03 -0.11681461192E+03  0.78803419528E+03  0.12699999809E+01 0.  1.
</event>
<event>
 5   0  0.3713516E-04  0.1703217E+04  0.7818609E-02  0.8759532E-01
        1   -1    0    0  501    0  0.00000000000E+00  0.00000000000E+00  0.90547389832E+03  0.90547389834E+03  0.50400001928E-02 0.  1.
       -1   -1    0    0    0  501  0.00000000000E+00  0.00000000000E+00 -0.80094733892E+03  0.80094733894E+03  0.50400001928E-02 0. -1.
    10030    2    1    2    0    0  0.00000000000E+00  0.00000000000E+00  0.10452655940E+03  0.17064212373E+04  0.17032168498E+04 0.  0.
        5    1    3    3  502    0 -0.54138497892E+03 -0.18099960543E+03 -0.58087205902E+03  0.81442801494E+03  0.46999998093E+01 0. -1.
       -5    1    3    3    0  502  0.54138497892E+03  0.18099960543E+03  0.68539861842E+03  0.89199322234E+03  0.46999998093E+01 0.  1.
</event>
<event>
 5   0  0.7233728E-04  0.1676980E+04  0.7818609E-02  0.8774603E-01
        2   -1    0    0  501    0  0.00000000000E+00  0.00000000000E+00  0.14729536617E+04  0.14729536617E+04  0.25500000920E-02 0.  1.
       -2   -1    0    0    0  501  0.00000000000E+00  0.00000000000E+00 -0.47731692401E+03  0.47731692402E+03  0.25500000920E-02 0. -1.
    10030    2    1    2    0    0  0.00000000000E+00  0.00000000000E+00  0.99563673765E+03  0.19502705857E+04  0.16769802754E+04 0.  0.
        1    1    3    3  502    0 -0.55341764534E+02 -0.54141525859E+03  0.12396341950E+04  0.13538412501E+04  0.50400001928E-02 0.  1.
       -1    1    3    3    0  502  0.55341764534E+02  0.54141525859E+03 -0.24399745731E+03  0.59642933558E+03  0.50400001928E-02 0. -1.
</event>
<event>
 5   0  0.3915701E-04  0.1710285E+04  0.7818609E-02  0.8755520E-01
       -1   -1    0    0    0  501  0.00000000000E+00  0.00000000000E+00  0.40722474169E+03  0.40722474172E+03  0.50400001928E-02 0.  1.
        1   -1    0    0  501    0  0.00000000000E+00  0.00000000000E+00 -0.17957371057E+04  0.17957371057E+04  0.50400001928E-02 0. -1.
    10030    2    1    2    0    0  0.00000000000E+00  0.00000000000E+00 -0.13885123640E+04  0.22029618474E+04  0.17102848640E+04 0.  0.
        2    1    3    3  502    0  0.31936172065E+03  0.65205673093E+03 -0.11234241461E+03  0.73470450325E+03  0.25500000920E-02 0.  1.
       -2    1    3    3    0  502 -0.31936172065E+03 -0.65205673093E+03 -0.12761699493E+04  0.14682573441E+04  0.25500000920E-02 0. -1.
</event>
<event>
 5   0  0.6746664E-04  0.1646952E+04  0.7818609E-02  0.8792211E-01
        2   -1    0    0  501    0  0.00000000000E+00  0.00000000000E+00  0.16797421439E+04  0.16797421439E+04  0.25500000920E-02 0.  1.
       -2   -1    0    0    0  501  0.00000000000E+00  0.00000000000E+00 -0.40370064221E+03  0.40370064222E+03  0.25500000920E-02 0. -1.
    10030    2    1    2    0    0  0.00000000000E+00  0.00000000000E+00  0.12760415017E+04  0.20834427861E+04  0.16469523153E+04 0.  0.
        5    1    3    3  502    0 -0.11323575871E+03  0.43145716078E+03 -0.23760727839E+03  0.50542746995E+03  0.46999998093E+01 0. -1.
       -5    1    3    3    0  502  0.11323575871E+03 -0.43145716078E+03  0.15136487801E+04  0.15780153162E+04  0.46999998093E+01 0.  1.
</event>
<event>
 5   0  0.3635143E-04  0.1694745E+04  0.7818609E-02  0.8764367E-01
        1   -1    0    0  501    0  0.00000000000E+00  0.00000000000E+00  0.96034405613E+03  0.96034405614E+03  0.50400001928E-02 0.  1.
       -1   -1    0    0    0  501  0.00000000000E+00  0.00000000000E+00 -0.74769081873E+03  0.74769081875E+03  0.50400001928E-02 0. -1.
    10030    2    1    2    0    0  0.00000000000E+00  0.00000000000E+00  0.21265323740E+03  0.17080348749E+04  0.16947453303E+04 0.  0.
        3    1    3    3  502    0 -0.12776986294E+03 -0.39684544331E+03 -0.63717705701E+03  0.76144996942E+03  0.10100000352E+00 0. -1.
       -3    1    3    3    0  502  0.12776986294E+03  0.39684544331E+03  0.84983029441E+03  0.94658490547E+03  0.10100000352E+00 0.  1.
</event>
<event>
 5   0  0.3635143E-04  0.1700984E+04  0.7818609E-02  0.8760803E-01
       -1   -1    0    0    0  501  0.00000000000E+00  0.00000000000E+00  0.96455099323E+03  0.96455099324E+03  0.50400001928E-02 0.  1.
        1   -1    0    0  501    0  0.00000000000E+00  0.00000000000E+00 -0.74992060940E+03  0.74992060941E+03  0.50400001928E-02 0. -1.
    10030    2    1    2    0    0  0.00000000000E+00  0.00000000000E+00  0.21463038383E+03  0.17144716027E+04  0.17009840313E+04 0.  0.
        3    1    3    3  502    0  0.64700004336E+03  0.23606413694E+03  0.61027222934E+03  0.92019972667E+03  0.10100000352E+00 0.  1.
       -3    1    3    3    0  502 -0.64700004336E+03 -0.23606413694E+03 -0.39564184551E+03  0.79427187598E+03  0.10100000352E+00 0. -1.
</event>
<event>
 5   0  0.2639750E-04  0.1732117E+04  0.7818609E-02  0.8743256E-01
       -3   -1    0    0    0  501  0.00000000000E+00  0.00000000000E+00  0.34996458200E+03  0.34996459657E+03  0.10100000352E+00 0.  1.
        3   -1    0    0  501    0  0.00000000000E+00  0.00000000000E+00 -0.21432367657E+04  0.21432367681E+04  0.10100000352E+00 0. -1.
    10030    2    1    2    0    0  0.00000000000E+00  0.00000000000E+00 -0.17932721837E+04  0.24932013646E+04  0.17321166011E+04 0.  0.
        4    1    3    3  502    0  0.49084654497E+03 -0.50184905647E+03 -0.16267270443E+04  0.17717294646E+04  0.12699999809E+01 0. -1.
       -4    1    3    3    0  502 -0.49084654497E+03  0.50184905647E+03 -0.16654513939E+03  0.72147190004E+03  0.12699999809E+01 0.  1.
</event>
<event>
 5   0  0.3723500E-04  0.1694675E+04  0.7818609E-02  0.8764407E-01
       -1   -1    0    0    0  501  0.00000000000E+00  0.00000000000E+00  0.93150485701E+03  0.93150485702E+03  0.50400001928E-02 0.  1.
        1   -1    0    0  501    0  0.00000000000E+00  0.00000000000E+00 -0.77077500519E+03  0.77077500520E+03  0.50400001928E-02 0. -1.
    10030    2    1    2    0    0  0.00000000000E+00  0.00000000000E+00  0.16072985182E+03  0.17022798622E+04  0.16946747901E+04 0.  0.
        1    1    3    3  502    0  0.46204107762E+03 -0.71023289072E+03  0.72085088329E+02  0.85035814599E+03  0.50400001928E-02 0.  1.
       -1    1    3    3    0  502 -0.46204107762E+03  0.71023289072E+03  0.88644763488E+02  0.85192171623E+03  0.50400001928E-02 0. -1.
</event>
<event>
 5   0  0.3915701E-04  0.1680127E+04  0.7818609E-02  0.8772781E-01
       -1   -1    0    0    0  501  0.00000000000E+00  0.00000000000E+00  0.53448070626E+03  0.53448070628E+03  0.50400001928E-02 0. -1.
        1   -1    0    0  501    0  0.00000000000E+00  0.00000000000E+00 -0.13203594312E+04  0.13203594312E+04  0.50400001928E-02 0.  1.
    10030    2    1    2    0    0  0.00000000000E+00  0.00000000000E+00 -0.78587872490E+03  0.18548401375E+04  0.16801269492E+04 0.  0.
        2    1    3    3  502    0  0.51625912473E+03 -0.39692766365E+03  0.19293577532E+03  0.67919015558E+03  0.25500000920E-02 0. -1.
       -2    1    3    3    0  502 -0.51625912473E+03  0.39692766365E+03 -0.97881450021E+03  0.11756499819E+04  0.25500000920E-02 0.  1.
</event>
<event>
 5   0  0.3713516E-04  0.1670051E+04  0.7818609E-02  0.8778632E-01
       -1   -1    0    0    0  501  0.00000000000E+00  0.00000000000E+00  0.19047683104E+04  0.19047683104E+04  0.50400001928E-02 0. -1.
        1   -1    0    0  501    0  0.00000000000E+00  0.00000000000E+00 -0.36606424885E+03  0.36606424889E+03  0.50400001928E-02 0.  1.
    10030    2    1    2    0    0  0.00000000000E+00  0.00000000000E+00  0.15387040615E+04  0.22708325593E+04  0.16700509942E+04 0.  0.
        5    1    3    3  502    0 -0.61307082892E+03 -0.14904960681E+03  0.25618767360E+02  0.63146657695E+03  0.46999998093E+01 0.  1.
       -5    1    3    3    0  502  0.61307082892E+03  0.14904960681E+03  0.15130852942E+04  0.16393659823E+04  0.46999998093E+01 0. -1.
</event>
<event>
 5   0  0.6746664E-04  0.1682309E+04  0.7818609E-02  0.8771519E-01
       -2   -1    0    0    0  501  0.00000000000E+00  0.00000000000E+00  0.51137894293E+03  0.51137894293E+03  0.25500000920E-02 0.  1.
        2   -1    0    0  501    0  0.00000000000E+00  0.00000000000E+00 -0.13835944184E+04  0.13835944184E+04  0.25500000920E-02 0. -1.
    10030    2    1    2    0    0  0.00000000000E+00  0.00000000000E+00 -0.87221547550E+03  0.18949733614E+04  0.16823091882E+04 0.  0.
        5    1    3    3  502    0 -0.39435687424E+03  0.35833945639E+03  0.29700779889E+03  0.61004936920E+03  0.46999998093E+01 0.  1.
       -5    1    3    3    0  502  0.39435687424E+03 -0.35833945639E+03 -0.11692232744E+04  0.12849239922E+04  0.46999998093E+01 0. -1.
</event>
<event>
 5   0  0.3713516E-04  0.1678959E+04  0.7818609E-02  0.8773457E-01
       -1   -1    0    0    0  501  0.00000000000E+00  0.00000000000E+00  0.46868806553E+03  0.46868806555E+03  0.50400001928E-02 0. -1.
        1   -1    0    0  501    0  0.00000000000E+00  0.00000000000E+00 -0.15036131498E+04  0.15036131498E+04  0.50400001928E-02 0.  1.
    10030    2    1    2    0    0  0.00000000000E+00  0.00000000000E+00 -0.10349250842E+04  0.19723012153E+04  0.16789586517E+04 0.  0.
        5    1    3    3  502    0 -0.33976539093E+03  0.22841641366E+03 -0.13783696981E+04  0.14378941872E+04  0.46999998093E+01 0.  1.
       -5    1    3    3    0  502  0.33976539093E+03 -0.22841641366E+03  0.34344461389E+03  0.53440702812E+03  0.46999998093E+01 0. -1.
</event>
<event>
 5   0  0.7233728E-04  0.1743507E+04  0.7818609E-02  0.8736933E-01
       -2   -1    0    0    0  501  0.00000000000E+00  0.00000000000E+00  0.37381409377E+03  0.37381409377E+03  0.25500000920E-02 0. -1.
        2   -1    0    0  501    0  0.00000000000E+00  0.00000000000E+00 -0.20329727742E+04  0.20329727742E+04  0.25500000920E-02 0.  1.
    10030    2    1    2    0    0  0.00000000000E+00  0.00000000000E+00 -0.16591586804E+04  0.24067868680E+04  0.17435066679E+04 0.  0.
        1    1    3    3  502    0 -0.59045123934E+03 -0.43756114338E+03 -0.18230473363E+03  0.75718388530E+03  0.50400001928E-02 0. -1.
       -1    1    3    3    0  502  0.59045123934E+03  0.43756114338E+03 -0.14768539468E+04  0.16496029827E+04  0.50400001928E-02 0.  1.
</event>
<event>
 5   0  0.3723500E-04  0.1554756E+04  0.7818609E-02  0.8848836E-01
       -1   -1    0    0    0  501  0.00000000000E+00  0.00000000000E+00  0.10190893105E+04  0.10190893105E+04  0.50400001928E-02 0.  1.
        1   -1    0    0  501    0  0.00000000000E+00  0.00000000000E+00 -0.59299653123E+03  0.59299653125E+03  0.50400001928E-02 0. -1.
    10030    2    1    2    0    0  0.00000000000E+00  0.00000000000E+00  0.42609277928E+03  0.16120858418E+04  0.15547558344E+04 0.  0.
        1    1    3    3  502    0  0.25310744377E+03  0.65850425979E+03  0.55162215844E+03  0.89553238018E+03  0.50400001928E-02 0.  1.
       -1    1    3    3    0  502 -0.25310744377E+03 -0.65850425979E+03 -0.12552937916E+03  0.71655346159E+03  0.50400001928E-02 0. -1.
</event>
<event>
 5   0  0.7049044E-04  0.1709579E+04  0.7818609E-02  0.8755920E-01
        2   -1    0    0  501    0  0.00000000000E+00  0.00000000000E+00  0.93346017997E+03  0.93346017997E+03  0.25500000920E-02 0.  1.
       -2   -1    0    0    0  501  0.00000000000E+00  0.00000000000E+00 -0.78274914483E+03  0.78274914483E+03  0.25500000920E-02 0. -1.
    10030    2    1    2    0    0  0.00000000000E+00  0.00000000000E+00  0.15071103514E+03  0.17162093248E+04  0.17095790799E+04 0.  0.
        4    1    3    3  502    0  0.75847223525E+03  0.39416874232E+03  0.79167035629E+02  0.85843937556E+03  0.12699999809E+01 0.  1.
       -4    1    3    3    0  502 -0.75847223525E+03 -0.39416874232E+03  0.71543999512E+02  0.85776994925E+03  0.12699999809E+01 0. -1.
</event>
<event>
 5   0  0.7242144E-04  0.1561175E+04  0.7818609E-02  0.8844761E-01
        2   -1    0    0  501    0  0.00000000000E+00  0.00000000000E+00  0.13379399798E+04  0.13379399798E+04  0.25500000920E-02 0. -1.
       -2   -1    0    0    0  501  0.00000000000E+00  0.00000000000E+00 -0.45541433022E+03  0.45541433023E+03  0.25500000920E-02 0.  1.
    10030    2    1    2    0    0  0.00000000000E+00  0.00000000000E+00  0.88252564962E+03  0.17933543101E+04  0.15611752494E+04 0.  0.
        3    1    3    3  502    0 -0.19654629138E+03  0.61396518920E+03  0.94687394464E+03  0.11454928963E+04  0.10100000352E+00 0. -1.
       -3    1    3    3    0  502  0.19654629138E+03 -0.61396518920E+03 -0.64348295015E+02  0.64786141379E+03  0.10100000352E+00 0.  1.
</event>
<event>
 5   0  0.3635143E-04  0.1707710E+04  0.7818609E-02  0.8756979E-01
       -1   -1    0    0    0  501  0.00000000000E+00  0.00000000000E+00  0.11598013967E+04  0.11598013968E+04  0.50400001928E-02 0. -1.
        1   -1    0    0  501    0  0.00000000000E+00  0.00000000000E+00 -0.62861450662E+03  0.62861450664E+03  0.50400001928E-02 0.  1.
    10030    2    1    2    0    0  0.00000000000E+00  0.00000000000E+00  0.53118689013E+03  0.17884159034E+04  0.17077095571E+04 0.  0.
        3    1    3    3  502    0  0.57139396972E+03 -0.63194639061E+03  0.20616050955E+03  0.87655546039E+03  0.10100000352E+00 0.  1.
       -3    1    3    3    0  502 -0.57139396972E+03  0.63194639061E+03  0.32502638058E+03  0.91186044300E+03  0.10100000352E+00 0. -1.
</event>
<event>
 5   0  0.3713516E-04  0.1512518E+04  0.7818609E-02  0.8876171E-01
       -1   -1    0    0    0  501  0.00000000000E+00  0.00000000000E+00  0.38589509002E+03  0.38589509005E+03  0.50400001928E-02 0. -1.
        1   -1    0    0  501    0  0.00000000000E+00  0.00000000000E+00 -0.14820810127E+04  0.14820810127E+04  0.50400001928E-02 0.  1.
    10030    2    1    2    0    0  0.00000000000E+00  0.00000000000E+00 -0.10961859227E+04  0.18679761027E+04  0.15125181465E+04 0.  0.
        5    1    3    3  502    0 -0.11141789876E+03 -0.16905066089E+03 -0.14479689345E+04  0.14620629944E+04  0.46999998093E+01 0.  1.
       -5    1    3    3    0  502  0.11141789876E+03  0.16905066089E+03  0.35178301188E+03  0.40591310838E+03  0.46999998093E+01 0. -1.
</event>
<event>
 5   0  0.2639750E-04  0.1590194E+04  0.7818609E-02  0.8826595E-01
        3   -1    0    0  501    0  0.00000000000E+00  0.00000000000E+00  0.42422452150E+03  0.42422453352E+03  0.10100000352E+00 0.  1.
       -3   -1    0    0    0  501  0.00000000000E+00  0.00000000000E+00 -0.14902000792E+04  0.14902000826E+04  0.10100000352E+00 0. -1.
    10030    2    1    2    0    0  0.00000000000E+00  0.00000000000E+00 -0.10659755577E+04  0.19144246161E+04  0.15901942401E+04 0.  0.
        3    1    3    3  502    0 -0.30061199942E+03 -0.51009504371E+03 -0.11718627914E+04  0.13129459014E+04  0.10100000352E+00 0. -1.
       -3    1    3    3    0  502  0.30061199942E+03  0.51009504371E+03  0.10588723376E+03  0.60147871474E+03  0.10100000352E+00 0.  1.
</event>
<event>
 5   0  0.3915701E-04  0.1726244E+04  0.7818609E-02  0.8746536E-01
       -1   -1    0    0    0  501  0.00000000000E+00  0.00000000000E+00  0.54578229969E+03  0.54578229972E+03  0.50400001928E-02 0. -1.
        1   -1    0    0  501    0  0.00000000000E+00  0.00000000000E+00 -0.13649754721E+04  0.13649754721E+04  0.50400001928E-02 0.  1.
    10030    2    1    2    0    0  0.00000000000E+00  0.00000000000E+00 -0.81919317237E+03  0.19107577718E+04  0.17262438440E+04 0.  0.
        2    1    3    3  502    0 -0.29712801840E+03 -0.77257599458E+02 -0.13024958335E+04  0.13381887731E+04  0.25500000920E-02 0.  1.
       -2    1    3    3    0  502  0.29712801840E+03  0.77257599458E+02  0.48330266117E+03  0.57256899872E+03  0.25500000920E-02 0. -1.
</event>
<event>
 5   0  0.7242144E-04  0.1722083E+04  0.7818609E-02  0.8748869E-01
        2   -1    0    0  501    0  0.00000000000E+00  0.00000000000E+00  0.61362223409E+03  0.61362223410E+03  0.25500000920E-02 0. -1.
       -2   -1    0    0    0  501  0.00000000000E+00  0.00000000000E+00 -0.12082234409E+04  0.12082234409E+04  0.25500000920E-02 0.  1.
    10030    2    1    2    0    0  0.00000000000E+00  0.00000000000E+00 -0.59460120678E+03  0.18218456750E+04  0.17220833511E+04 0.  0.
        3    1    3    3  502    0  0.22421671811E+03 -0.15407095357E+03  0.56695973796E+03  0.62885161213E+03  0.10100000352E+00 0. -1.
       -3    1    3    3    0  502 -0.22421671811E+03  0.15407095357E+03 -0.11615609447E+04  0.11929940628E+04  0.10100000352E+00 0.  1.
</event>
<event>
 5   0  0.7025426E-04  0.1442120E+04  0.7818609E-02  0.8923882E-01
       -2   -1    0    0    0  501  0.00000000000E+00  0.00000000000E+00  0.84809111385E+03  0.84809111386E+03  0.25500000920E-02 0. -1.
        2   -1    0    0  501    0  0.00000000000E+00  0.00000000000E+00 -0.61305583869E+03  0.61305583869E+03  0.25500000920E-02 0.  1.
    10030    2    1    2    0    0  0.00000000000E+00  0.00000000000E+00  0.23503527517E+03  0.14611469525E+04  0.14421195638E+04 0.  0.
        2    1    3    3  502    0  0.85435434827E+02 -0.34323199479E+03  0.75415494717E+03  0.83298085219E+03  0.25500000920E-02 0. -1.
       -2    1    3    3    0  502 -0.85435434827E+02  0.34323199479E+03 -0.51911967200E+03  0.62816610036E+03  0.25500000920E-02 0.  1.
</event>
<event>
 5   0  0.7242144E-04  0.1673422E+04  0.7818609E-02  0.8776669E-01
       -2   -1    0    0    0  501  0.00000000000E+00  0.00000000000E+00  0.38793084753E+03  0.38793084754E+03  0.25500000920E-02 0. -1.
        2   -1    0    0  501    0  0.00000000000E+00  0.00000000000E+00 -0.18046658436E+04  0.18046658436E+04  0.25500000920E-02 0.  1.
    10030    2    1    2    0    0  0.00000000000E+00  0.00000000000E+00 -0.14167349961E+04  0.21925966912E+04  0.16734223020E+04 0.  0.
        3    1    3    3  502    0  0.80908638345E+03  0.72629360401E+02 -0.97103769579E+03  0.12660213334E+04  0.10100000352E+00 0.  1.
       -3    1    3    3    0  502 -0.80908638345E+03 -0.72629360401E+02 -0.44569730032E+03  0.92657535775E+03  0.10100000352E+00 0. -1.
</event>
<event>
 5   0  0.7025426E-04  0.1644219E+04  0.7818609E-02  0.8793834E-01
        2   -1    0    0  501    0  0.00000000000E+00  0.00000000000E+00  0.25137682988E+04  0.25137682988E+04  0.25500000920E-02 0. -1.
       -2   -1    0    0    0  501  0.00000000000E+00  0.00000000000E+00 -0.26886496017E+03  0.26886496018E+03  0.25500000920E-02 0.  1.
    10030    2    1    2    0    0  0.00000000000E+00  0.00000000000E+00  0.22449033386E+04  0.27826332590E+04  0.16442192233E+04 0.  0.
        2    1    3    3  502    0 -0.11820787926E+03  0.56728367096E+03  0.21093831863E+04  0.21875285810E+04  0.25500000920E-02 0. -1.
       -2    1    3    3    0  502  0.11820787926E+03 -0.56728367096E+03  0.13552015233E+03  0.59510467798E+03  0.25500000920E-02 0.  1.
</event>
<event>
 5   0  0.7242144E-04  0.1529140E+04  0.7818609E-02  0.8865303E-01
        2   -1    0    0  501    0  0.00000000000E+00  0.00000000000E+00  0.83970148546E+03  0.83970148546E+03  0.25500000920E-02 0. -1.
       -2   -1    0    0    0  501  0.00000000000E+00  0.00000000000E+00 -0.69616088469E+03  0.69616088470E+03  0.25500000920E-02 0.  1.
    10030    2    1    2    0    0  0.00000000000E+00  0.00000000000E+00  0.14354060076E+03  0.15358623702E+04  0.15291400577E+04 0.  0.
        3    1    3    3  502    0 -0.71595794621E+03 -0.51368593534E+01 -0.19763479039E+03  0.74275277761E+03  0.10100000352E+00 0. -1.
       -3    1    3    3    0  502  0.71595794621E+03  0.51368593534E+01  0.34117539115E+03  0.79310959255E+03  0.10100000352E+00 0.  1.
</event>
<event>
 5   0  0.6746664E-04  0.1705753E+04  0.7818609E-02  0.8758090E-01
        2   -1    0    0  501    0  0.00000000000E+00  0.00000000000E+00  0.97689400330E+03  0.97689400330E+03  0.25500000920E-02 0.  1.
       -2   -1    0    0    0  501  0.00000000000E+00  0.00000000000E+00 -0.74460327497E+03  0.74460327498E+03  0.25500000920E-02 0. -1.
    10030    2    1    2    0    0  0.00000000000E+00  0.00000000000E+00  0.23229072832E+03  0.17214972783E+04  0.17057531758E+04 0.  0.
        5    1    3    3  502    0 -0.19146278976E+02  0.63661083537E+03 -0.45630822628E+03  0.78350444995E+03  0.46999998093E+01 0. -1.
       -5    1    3    3    0  502  0.19146278976E+02 -0.63661083537E+03  0.68859895461E+03  0.93799282833E+03  0.46999998093E+01 0.  1.
</event>
<event>
 5   0  0.7049044E-04  0.1699544E+04  0.7818609E-02  0.8761624E-01
       -2   -1    0    0    0  501  0.00000000000E+00  0.00000000000E+00  0.68411272633E+03  0.68411272634E+03  0.25500000920E-02 0. -1.
        2   -1    0    0  501    0  0.00000000000E+00  0.00000000000E+00 -0.10555464684E+04  0.10555464684E+04  0.25500000920E-02 0.  1.
    10030    2    1    2    0    0  0.00000000000E+00  0.00000000000E+00 -0.37143374203E+03  0.17396591947E+04  0.16995443769E+04 0.  0.
        4    1    3    3  502    0 -0.60105556883E+02  0.57476210407E+03 -0.82343650422E+03  0.10059887890E+04  0.12699999809E+01 0.  1.
       -4    1    3    3    0  502  0.60105556883E+02 -0.57476210407E+03  0.45200276219E+03  0.73367040568E+03  0.12699999809E+01 0. -1.
</event>
<event>
 5   0  0.7049044E-04  0.1677276E+04  0.7818609E-02  0.8774432E-01
       -2   -1    0    0    0  501  0.00000000000E+00  0.00000000000E+00  0.10489252609E+04  0.10489252609E+04  0.25500000920E-02 0.  1.
        2   -1    0    0  501    0  0.00000000000E+00  0.00000000000E+00 -0.67050899585E+03  0.67050899585E+03  0.25500000920E-02 0. -1.
    10030    2    1    2    0    0  0.00000000000E+00  0.00000000000E+00  0.37841626503E+03  0.17194342567E+04  0.16772761530E+04 0.  0.
        4    1    3    3  502    0  0.41270588908E+03  0.71909741434E+03  0.60004662134E+02  0.83128179011E+03  0.12699999809E+01 0. -1.
       -4    1    3    3    0  502 -0.41270588908E+03 -0.71909741434E+03  0.31841160290E+03  0.88815246662E+03  0.12699999809E+01 0.  1.
</event>
<event>
 5   0  0.3723500E-04  0.1748117E+04  0.7818609E-02  0.8734388E-01
       -1   -1    0    0    0  501  0.00000000000E+00  0.00000000000E+00  0.83995221446E+03  0.83995221447E+03  0.50400001928E-02 0.  1.
        1   -1    0    0  501    0  0.00000000000E+00  0.00000000000E+00 -0.90954930704E+03  0.90954930705E+03  0.50400001928E-02 0. -1.
    10030    2    1    2    0    0  0.00000000000E+00  0.00000000000E+00 -0.69597092584E+02  0.17495015215E+04  0.17481166490E+04 0.  0.
        1    1    3    3  502    0  0.44629961504E+03  0.21878001025E+03 -0.75434651001E+03  0.90337516928E+03  0.50400001928E-02 0. -1.
       -1    1    3    3    0  502 -0.44629961504E+03 -0.21878001025E+03  0.68474941743E+03  0.84612635225E+03  0.50400001928E-02 0.  1.
</event>
<event>
 5   0  0.7025426E-04  0.1657989E+04  0.7818609E-02  0.8785694E-01
       -2   -1    0    0    0  501  0.00000000000E+00  0.00000000000E+00  0.71699854040E+03  0.71699854040E+03  0.25500000920E-02 0.  1.
        2   -1    0    0  501    0  0.00000000000E+00  0.00000000000E+00 -0.95848390595E+03  0.95848390596E+03  0.25500000920E-02 0. -1.
    10030    2    1    2    0    0  0.00000000000E+00  0.00000000000E+00 -0.24148536556E+03  0.16754824464E+04  0.16579886146E+04 0.  0.
        2    1    3    3  502    0  0.21741355903E+03 -0.73939968559E+03  0.18784963646E+03  0.79326416573E+03  0.25500000920E-02 0.  1.
       -2    1    3    3    0  502 -0.21741355903E+03  0.73939968559E+03 -0.42933500202E+03  0.88221828063E+03  0.25500000920E-02 0. -1.
</event>
<event>
 5   0  0.3713516E-04  0.1743841E+04  0.7818609E-02  0.8736748E-01
        1   -1    0    0  501    0  0.00000000000E+00  0.00000000000E+00  0.95813913619E+03  0.95813913620E+03  0.50400001928E-02 0. -1.
       -1   -1    0    0    0  501  0.00000000000E+00  0.00000000000E+00 -0.79346014991E+03  0.79346014992E+03  0.50400001928E-02 0.  1.
    10030    2    1    2    0    0  0.00000000000E+00  0.00000000000E+00  0.16467898628E+03  0.17515992861E+04  0.17438408444E+04 0.  0.
        5    1    3    3  502    0  0.80872364109E+03  0.24758018091E+02 -0.24403110008E+03  0.84511546839E+03  0.46999998093E+01 0.  1.
       -5    1    3    3    0  502 -0.80872364109E+03 -0.24758018091E+02  0.40871008636E+03  0.90648381773E+03  0.46999998093E+01 0. -1.
</event>
<event>
 5   0  0.3803253E-04  0.1706683E+04  0.7818609E-02  0.8757562E-01
        1   -1    0    0  501    0  0.00000000000E+00  0.00000000000E+00  0.65369093399E+03  0.65369093401E+03  0.50400001928E-02 0.  1.
       -1   -1    0    0    0  501  0.00000000000E+00  0.00000000000E+00 -0.11139692446E+04  0.11139692446E+04  0.50400001928E-02 0. -1.
    10030    2    1    2    0    0  0.00000000000E+00  0.00000000000E+00 -0.46027831060E+03  0.17676601786E+04  0.17066828598E+04 0.  0.
        4    1    3    3  502    0  0.72351179725E+03 -0.77694757097E+02  0.23152653829E+03  0.76361767061E+03  0.12699999809E+01 0.  1.
       -4    1    3    3    0  502 -0.72351179725E+03  0.77694757097E+02 -0.69180484888E+03  0.10040425080E+04  0.12699999809E+01 0. -1.
</event>
<event>
 5   0  0.3713516E-04  0.1678616E+04  0.7818609E-02  0.8773656E-01
        1   -1    0    0  501    0  0.00000000000E+00  0.00000000000E+00  0.11255098311E+04  0.11255098311E+04  0.50400001928E-02 0.  1.
       -1   -1    0    0    0  501  0.00000000000E+00  0.00000000000E+00 -0.62588309879E+03  0.62588309881E+03  0.50400001928E-02 0. -1.
    10030    2    1    2    0    0  0.00000000000E+00  0.00000000000E+00  0.49962673230E+03  0.17513929299E+04  0.16786155972E+04 0.  0.
        5    1    3    3  502    0 -0.39093359362E+03  0.17414351406E+03  0.10030990721E+04  0.10905892336E+04  0.46999998093E+01 0.  1.
       -5    1    3    3    0  502  0.39093359362E+03 -0.17414351406E+03 -0.50347233977E+03  0.66080369628E+03  0.46999998093E+01 0. -1.
</event>
<event>
 5   0  0.7233728E-04  0.1688086E+04  0.7818609E-02  0.8768188E-01
        2   -1    0    0  501    0  0.00000000000E+00  0.00000000000E+00  0.15006611430E+04  0.15006611430E+04  0.25500000920E-02 0.  1.
       -2   -1    0    0    0  501  0.00000000000E+00  0.00000000000E+00 -0.47472999088E+03  0.47472999089E+03  0.25500000920E-02 0. -1.
    10030    2    1    2    0    0  0.00000000000E+00  0.00000000000E+00  0.10259311521E+04  0.19753911339E+04  0.16880863138E+04 0.  0.
        1    1    3    3  502    0  0.26374199481E+03  0.23462879197E+02  0.14508015912E+04  0.14747662878E+04  0.50400001928E-02 0.  1.
       -1    1    3    3    0  502 -0.26374199481E+03 -0.23462879197E+02 -0.42487043907E+03  0.50062484612E+03  0.50400001928E-02 0. -1.
</event>
<event>
 5   0  0.7242144E-04  0.1521568E+04  0.7818609E-02  0.8870236E-01
        2   -1    0    0  501    0  0.00000000000E+00  0.00000000000E+00  0.20574174062E+04  0.20574174062E+04  0.25500000920E-02 0.  1.
       -2   -1    0    0    0  501  0.00000000000E+00  0.00000000000E+00 -0.28131968818E+03  0.28131968819E+03  0.25500000920E-02 0. -1.
    10030    2    1    2    0    0  0.00000000000E+00  0.00000000000E+00  0.17760977180E+04  0.23387370944E+04  0.15215676432E+04 0.  0.
        3    1    3    3  502    0 -0.54045194999E+03 -0.77629884402E+02  0.17023663960E+04  0.17877824436E+04  0.10100000352E+00 0.  1.
       -3    1    3    3    0  502  0.54045194999E+03  0.77629884402E+02  0.73731322046E+02  0.55095465082E+03  0.10100000352E+00 0. -1.
</event>
<event>
 5   0  0.6746664E-04  0.1692396E+04  0.7818609E-02  0.8765713E-01
        2   -1    0    0  501    0  0.00000000000E+00  0.00000000000E+00  0.10257604240E+04  0.10257604240E+04  0.25500000920E-02 0. -1.
       -2   -1    0    0    0  501  0.00000000000E+00  0.00000000000E+00 -0.69806850901E+03  0.69806850901E+03  0.25500000920E-02 0.  1.
    10030    2    1    2    0    0  0.00000000000E+00  0.00000000000E+00  0.32769191503E+03  0.17238289331E+04  0.16923959936E+04 0.  0.
        5    1    3    3  502    0  0.46814115259E+03 -0.26618316522E+03 -0.50097826845E+03  0.73553445307E+03  0.46999998093E+01 0.  1.
       -5    1    3    3    0  502 -0.46814115259E+03  0.26618316522E+03  0.82867018348E+03  0.98829447999E+03  0.46999998093E+01 0. -1.
</event>
<event>
 5   0  0.3713516E-04  0.1711256E+04  0.7818609E-02  0.8754971E-01
        1   -1    0    0  501    0  0.00000000000E+00  0.00000000000E+00  0.78217914793E+03  0.78217914795E+03  0.50400001928E-02 0. -1.
       -1   -1    0    0    0  501  0.00000000000E+00  0.00000000000E+00 -0.93597393326E+03  0.93597393327E+03  0.50400001928E-02 0.  1.
    10030    2    1    2    0    0  0.00000000000E+00  0.00000000000E+00 -0.15379478533E+03  0.17181530812E+04  0.17112560225E+04 0.  0.
        5    1    3    3  502    0 -0.69331754540E+03 -0.22436919502E+03 -0.52708658976E+03  0.89937373629E+03  0.46999998093E+01 0.  1.
       -5    1    3    3    0  502  0.69331754540E+03  0.22436919502E+03  0.37329180443E+03  0.81877934493E+03  0.46999998093E+01 0. -1.
</event>
<event>
 5   0  0.7242144E-04  0.1676601E+04  0.7818609E-02  0.8774823E-01
       -2   -1    0    0    0  501  0.00000000000E+00  0.00000000000E+00  0.10682783451E+04  0.10682783451E+04  0.25500000920E-02 0. -1.
        2   -1    0    0  501    0  0.00000000000E+00  0.00000000000E+00 -0.65783225411E+03  0.65783225411E+03  0.25500000920E-02 0.  1.
    10030    2    1    2    0    0  0.00000000000E+00  0.00000000000E+00  0.41044609098E+03  0.17261105992E+04  0.16766012666E+04 0.  0.
        3    1    3    3  502    0 -0.96889314338E+02  0.41360795421E+02  0.10614362511E+04  0.10666513864E+04  0.10100000352E+00 0. -1.
       -3    1    3    3    0  502  0.96889314338E+02 -0.41360795421E+02 -0.65099016013E+03  0.65945921285E+03  0.10100000352E+00 0.  1.
</event>
<event>
 5   0  0.7049044E-04  0.1702238E+04  0.7818609E-02  0.8760089E-01
        2   -1    0    0  501    0  0.00000000000E+00  0.00000000000E+00  0.54707601526E+03  0.54707601527E+03  0.25500000920E-02 0. -1.
       -2   -1    0    0    0  501  0.00000000000E+00  0.00000000000E+00 -0.13241361624E+04  0.13241361624E+04  0.25500000920E-02 0.  1.
    10030    2    1    2    0    0  0.00000000000E+00  0.00000000000E+00 -0.77706014716E+03  0.18712121777E+04  0.17022375103E+04 0.  0.
        4    1    3    3  502    0  0.77152590783E+03 -0.29448858633E+03 -0.16210853450E+03  0.84157979050E+03  0.12699999809E+01 0. -1.
       -4    1    3    3    0  502 -0.77152590783E+03  0.29448858633E+03 -0.61495161266E+03  0.10296323872E+04  0.12699999809E+01 0.  1.
</event>
<event>
 5   0  0.6746664E-04  0.1674301E+04  0.7818609E-02  0.8776159E-01
       -2   -1    0    0    0  501  0.00000000000E+00  0.00000000000E+00  0.56144218903E+03  0.56144218904E+03  0.25500000920E-02 0. -1.
        2   -1    0    0  501    0  0.00000000000E+00  0.00000000000E+00 -0.12482512061E+04  0.12482512061E+04  0.25500000920E-02 0.  1.
    10030    2    1    2    0    0  0.00000000000E+00  0.00000000000E+00 -0.68680901706E+03  0.18096933951E+04  0.16743009163E+04 0.  0.
        5    1    3    3  502    0  0.18704228123E+03  0.81311934169E+03 -0.41711697774E+03  0.93282181681E+03  0.46999998093E+01 0.  1.
       -5    1    3    3    0  502 -0.18704228123E+03 -0.81311934169E+03 -0.26969203932E+03  0.87687157832E+03  0.46999998093E+01 0. -1.
</event>
<event>
 5   0  0.3713516E-04  0.1595047E+04  0.7818609E-02  0.8823596E-01
       -1   -1    0    0    0  501  0.00000000000E+00  0.00000000000E+00  0.49831516327E+03  0.49831516330E+03  0.50400001928E-02 0. -1.
        1   -1    0    0  501    0  0.00000000000E+00  0.00000000000E+00 -0.12763888016E+04  0.12763888016E+04  0.50400001928E-02 0.  1.
    10030    2    1    2    0    0  0.00000000000E+00  0.00000000000E+00 -0.77807363831E+03  0.17747039649E+04  0.15950472019E+04 0.  0.
        5    1    3    3  502    0  0.40612169470E+03 -0.24954094687E+02  0.37412336001E+03  0.55276388834E+03  0.46999998093E+01 0. -1.
       -5    1    3    3    0  502 -0.40612169470E+03  0.24954094687E+02 -0.11521969983E+04  0.12219400765E+04  0.46999998093E+01 0.  1.
</event>
<event>
 5   0  0.7242144E-04  0.1720437E+04  0.7818609E-02  0.8749793E-01
       -2   -1    0    0    0  501  0.00000000000E+00  0.00000000000E+00  0.49625182906E+03  0.49625182906E+03  0.25500000920E-02 0. -1.
        2   -1    0    0  501    0  0.00000000000E+00  0.00000000000E+00 -0.14911297906E+04  0.14911297906E+04  0.25500000920E-02 0.  1.
    10030    2    1    2    0    0  0.00000000000E+00  0.00000000000E+00 -0.99487796151E+03  0.19873816196E+04  0.17204370212E+04 0.  0.
        3    1    3    3  502    0 -0.20813203662E+02  0.41389690864E+03 -0.13682127674E+04  0.14295978552E+04  0.10100000352E+00 0.  1.
       -3    1    3    3    0  502  0.20813203662E+02 -0.41389690864E+03  0.37333480588E+03  0.55778376447E+03  0.10100000352E+00 0. -1.
</event>
<event>
 5   0  0.7233728E-04  0.1669517E+04  0.7818609E-02  0.8778943E-01
        2   -1    0    0  501    0  0.00000000000E+00  0.00000000000E+00  0.11023024599E+04  0.11023024599E+04  0.25500000920E-02 0.  1.
       -2   -1    0    0    0  501  0.00000000000E+00  0.00000000000E+00 -0.63215122460E+03  0.63215122461E+03  0.25500000920E-02 0. -1.
    10030    2    1    2    0    0  0.00000000000E+00  0.00000000000E+00  0.47015123527E+03  0.17344536845E+04  0.16695171157E+04 0.  0.
        1    1    3    3  502    0  0.48281854565E+03  0.18989503398E+03  0.91445919254E+03  0.10513845570E+04  0.50400001928E-02 0.  1.
       -1    1    3    3    0  502 -0.48281854565E+03 -0.18989503398E+03 -0.44430795726E+03  0.68306912744E+03  0.50400001928E-02 0. -1.
</event>
<event>
 5   0  0.7049044E-04  0.1724436E+04  0.7818609E-02  0.8747549E-01
       -2   -1    0    0    0  501  0.00000000000E+00  0.00000000000E+00  0.86006639600E+03  0.86006639601E+03  0.25500000920E-02 0. -1.
        2   -1    0    0  501    0  0.00000000000E+00  0.00000000000E+00 -0.86437457709E+03  0.86437457709E+03  0.25500000920E-02 0.  1.
    10030    2    1    2    0    0  0.00000000000E+00  0.00000000000E+00 -0.43081810815E+01  0.17244409731E+04  0.17244355915E+04 0.  0.
        4    1    3    3  502    0  0.79809140892E+03 -0.15267650560E+03 -0.29052610911E+03  0.86294092807E+03  0.12699999809E+01 0.  1.
       -4    1    3    3    0  502 -0.79809140892E+03  0.15267650560E+03  0.28621792803E+03  0.86150004503E+03  0.12699999809E+01 0. -1.
</event>
<event>
 5   0  0.7233728E-04  0.1692884E+04  0.7818609E-02  0.8765433E-01
        2   -1    0    0  501    0  0.00000000000E+00  0.00000000000E+00  0.55819329374E+03  0.55819329374E+03  0.25500000920E-02 0.  1.
       -2   -1    0    0    0  501  0.00000000000E+00  0.00000000000E+00 -0.12835414411E+04  0.12835414411E+04  0.25500000920E-02 0. -1.
    10030    2    1    2    0    0  0.00000000000E+00  0.00000000000E+00 -0.72534814736E+03  0.18417347348E+04  0.16928841953E+04 0.  0.
        1    1    3    3  502    0 -0.11274034752E+02 -0.36556621632E+02  0.55725230500E+03  0.55856389241E+03  0.50400001928E-02 0.  1.
       -1    1    3    3    0  502  0.11274034752E+02  0.36556621632E+02 -0.12826004524E+04  0.12831708424E+04  0.50400001928E-02 0. -1.
</event>
<event>
 5   0  0.7242144E-04  0.1697780E+04  0.7818609E-02  0.8762631E-01
       -2   -1    0    0    0  501  0.00000000000E+00  0.00000000000E+00  0.34707287597E+03  0.34707287598E+03  0.25500000920E-02 0.  1.
        2   -1    0    0  501    0  0.00000000000E+00  0.00000000000E+00 -0.20762624241E+04  0.20762624241E+04  0.25500000920E-02 0. -1.
    10030    2    1    2    0    0  0.00000000000E+00  0.00000000000E+00 -0.17291895481E+04  0.24233353000E+04  0.16977801634E+04 0.  0.
        3    1    3    3  502    0 -0.27779326157E+03 -0.50856417625E+03 -0.17500242075E+04  0.18434726346E+04  0.10100000352E+00 0. -1.
       -3    1    3    3    0  502  0.27779326157E+03  0.50856417625E+03  0.20834659397E+02  0.57986266544E+03  0.10100000352E+00 0.  1.
</event>
<event>
 5   0  0.7025426E-04  0.1687158E+04  0.7818609E-02  0.8768723E-01
       -2   -1    0    0    0  501  0.00000000000E+00  0.00000000000E+00  0.49565539887E+03  0.49565539888E+03  0.25500000920E-02 0. -1.
        2   -1    0    0  501    0  0.00000000000E+00  0.00000000000E+00 -0.14357265852E+04  0.14357265852E+04  0.25500000920E-02 0.  1.
    10030    2    1    2    0    0  0.00000000000E+00  0.00000000000E+00 -0.94007118630E+03  0.19313819841E+04  0.16871581233E+04 0.  0.
        2    1    3    3  502    0  0.33153806343E+03  0.32046004021E+03 -0.12787003940E+04  0.13592964439E+04  0.25500000920E-02 0.  1.
       -2    1    3    3    0  502 -0.33153806343E+03 -0.32046004021E+03  0.33862920772E+03  0.57208554010E+03  0.25500000920E-02 0. -1.
</event>
<event>
 5   0  0.7233728E-04  0.1703537E+04  0.7818609E-02  0.8759350E-01
        2   -1    0    0  501    0  0.00000000000E+00  0.00000000000E+00  0.12030015685E+04  0.12030015685E+04  0.25500000920E-02 0.  1.
       -2   -1    0    0    0  501  0.00000000000E+00  0.00000000000E+00 -0.60308289113E+03  0.60308289114E+03  0.25500000920E-02 0. -1.
    10030    2    1    2    0    0  0.00000000000E+00  0.00000000000E+00  0.59991867737E+03  0.18060844596E+04  0.17035371014E+04 0.  0.
        1    1    3    3  502    0  0.44469438958E+03  0.72021861911E+03  0.40077119551E+03  0.93652843556E+03  0.50400001928E-02 0. -1.
       -1    1    3    3    0  502 -0.44469438958E+03 -0.72021861911E+03  0.19914748186E+03  0.86955602407E+03  0.50400001928E-02 0.  1.
</event>
<event>
 5   0  0.7025426E-04  0.1725082E+04  0.7818609E-02  0.8747187E-01
       -2   -1    0    0    0  501  0.00000000000E+00  0.00000000000E+00  0.66475227622E+03  0.66475227622E+03  0.25500000920E-02 0.  1.
        2   -1    0    0  501    0  0.00000000000E+00  0.00000000000E+00 -0.11191794428E+04  0.11191794428E+04  0.25500000920E-02 0. -1.
    10030    2    1    2    0    0  0.00000000000E+00  0.00000000000E+00 -0.45442716657E+03  0.17839317190E+04  0.17250821222E+04 0.  0.
        2    1    3    3  502    0  0.41258445837E+02  0.65628147253E+02  0.66114264232E+03  0.66567177089E+03  0.25500000920E-02 0.  1.
       -2    1    3    3    0  502 -0.41258445837E+02 -0.65628147253E+02 -0.11155698089E+04  0.11182599481E+04  0.25500000920E-02 0. -1.
</event>
<event>
 5   0  0.3723500E-04  0.1692010E+04  0.7818609E-02  0.8765935E-01
       -1   -1    0    0    0  501  0.00000000000E+00  0.00000000000E+00  0.40709926287E+03  0.40709926291E+03  0.50400001928E-02 0. -1.
        1   -1    0    0  501    0  0.00000000000E+00  0.00000000000E+00 -0.17581074722E+04  0.17581074722E+04  0.50400001928E-02 0.  1.
    10030    2    1    2    0    0  0.00000000000E+00  0.00000000000E+00 -0.13510082093E+04  0.21652067351E+04  0.16920097589E+04 0.  0.
        1    1    3    3  502    0 -0.47318577525E+03  0.32252437171E+03  0.12138706167E+03  0.58537301528E+03  0.50400001928E-02 0. -1.
       -1    1    3    3    0  502  0.47318577525E+03 -0.32252437171E+03 -0.14723952710E+04  0.15798337198E+04  0.50400001928E-02 0.  1.
</event>
<event>
 5   0  0.3915701E-04  0.1718621E+04  0.7818609E-02  0.8750815E-01
        1   -1    0    0  501    0  0.00000000000E+00  0.00000000000E+00  0.25691673603E+04  0.25691673603E+04  0.50400001928E-02 0.  1.
       -1   -1    0    0    0  501  0.00000000000E+00  0.00000000000E+00 -0.28741393576E+03  0.28741393580E+03  0.50400001928E-02 0. -1.
    10030    2    1    2    0    0  0.00000000000E+00  0.00000000000E+00  0.22817534246E+04  0.28565812961E+04  0.17186209620E+04 0.  0.
        2    1    3    3  502    0  0.48554221840E+03  0.62248545460E+03  0.57679007440E+03  0.97771477281E+03  0.25500000920E-02 0. -1.
       -2    1    3    3    0  502 -0.48554221840E+03 -0.62248545460E+03  0.17049633501E+04  0.18788665233E+04  0.25500000920E-02 0.  1.
</event>
<event>
 5   0  0.3803253E-04  0.1720952E+04  0.7818609E-02  0.8749504E-01
        1   -1    0    0  501    0  0.00000000000E+00  0.00000000000E+00  0.11469814060E+04  0.11469814060E+04  0.50400001928E-02 0. -1.
       -1   -1    0    0    0  501  0.00000000000E+00  0.00000000000E+00 -0.64553700134E+03  0.64553700136E+03  0.50400001928E-02 0.  1.
    10030    2    1    2    0    0  0.00000000000E+00  0.00000000000E+00  0.50144440466E+03  0.17925184074E+04  0.17209519894E+04 0.  0.
        4    1    3    3  502    0  0.52052077865E+03 -0.36613770984E+03 -0.35251546791E+03  0.72750771239E+03  0.12699999809E+01 0.  1.
       -4    1    3    3    0  502 -0.52052077865E+03  0.36613770984E+03  0.85395987257E+03  0.10650106950E+04  0.12699999809E+01 0. -1.
</event>
<event>
 5   0  0.3713516E-04  0.1697508E+04  0.7818609E-02  0.8762787E-01
       -1   -1    0    0    0  501  0.00000000000E+00  0.00000000000E+00  0.13308057861E+04  0.13308057861E+04  0.50400001928E-02 0. -1.
        1   -1    0    0  501    0  0.00000000000E+00  0.00000000000E+00 -0.54131363960E+03  0.54131363963E+03  0.50400001928E-02 0.  1.
    10030    2    1    2    0    0  0.00000000000E+00  0.00000000000E+00  0.78949214646E+03  0.18721194257E+04  0.16975079660E+04 0.  0.
        5    1    3    3  502    0 -0.65649940353E+03 -0.43364203699E+03  0.74580388642E+03  0.10841044277E+04  0.46999998093E+01 0. -1.
       -5    1    3    3    0  502  0.65649940353E+03  0.43364203699E+03  0.43688260042E+02  0.78801499804E+03  0.46999998093E+01 0.  1.
</event>
<event>
 5   0  0.7242144E-04  0.1708279E+04  0.7818609E-02  0.8756656E-01
       -2   -1    0    0    0  501  0.00000000000E+00  0.00000000000E+00  0.42343217639E+03  0.42343217640E+03  0.25500000920E-02 0. -1.
        2   -1    0    0  501    0  0.00000000000E+00  0.00000000000E+00 -0.17229550114E+04  0.17229550114E+04  0.25500000920E-02 0.  1.
    10030    2    1    2    0    0  0.00000000000E+00  0.00000000000E+00 -0.12995228350E+04  0.21463871878E+04  0.17082793569E+04 0.  0.
        3    1    3    3  502    0 -0.21005964400E+03 -0.14854955000E+03  0.37358966136E+03  0.45360915789E+03  0.10100000352E+00 0. -1.
       -3    1    3    3    0  502  0.21005964400E+03  0.14854955000E+03 -0.16731124964E+04  0.16927780299E+04  0.10100000352E+00 0.  1.
</event>
<event>
 5   0  0.2639750E-04  0.1415097E+04  0.7818609E-02  0.8942963E-01
        3   -1    0    0  501    0  0.00000000000E+00  0.00000000000E+00  0.44127028160E+03  0.44127029316E+03  0.10100000352E+00 0.  1.
       -3   -1    0    0    0  501  0.00000000000E+00  0.00000000000E+00 -0.11345079611E+04  0.11345079656E+04  0.10100000352E+00 0. -1.
    10030    2    1    2    0    0  0.00000000000E+00  0.00000000000E+00 -0.69323767951E+03  0.15757782588E+04  0.14150966894E+04 0.  0.
        5    1    3    3  502    0  0.62008421434E+03  0.79348456673E+02  0.22370682994E+02  0.62555826900E+03  0.46999998093E+01 0. -1.
       -5    1    3    3    0  502 -0.62008421434E+03 -0.79348456673E+02 -0.71560836250E+03  0.95021998976E+03  0.46999998093E+01 0.  1.
</event>
<event>
 5   0  0.7242144E-04  0.1685525E+04  0.7818609E-02  0.8769663E-01
       -2   -1    0    0    0  501  0.00000000000E+00  0.00000000000E+00  0.10345502133E+04  0.10345502133E+04  0.25500000920E-02 0.  1.
        2   -1    0    0  501    0  0.00000000000E+00  0.00000000000E+00 -0.68652874803E+03  0.68652874803E+03  0.25500000920E-02 0. -1.
    10030    2    1    2    0    0  0.00000000000E+00  0.00000000000E+00  0.34802146526E+03  0.17210789613E+04  0.16855247998E+04 0.  0.
        3    1    3    3  502    0 -0.42050706657E+03 -0.18350371434E+02 -0.57151749793E+03  0.70978531248E+03  0.10100000352E+00 0. -1.
       -3    1    3    3    0  502  0.42050706657E+03  0.18350371434E+02  0.91953896318E+03  0.10112936488E+04  0.10100000352E+00 0.  1.
</event>
<event>
 5   0  0.3635143E-04  0.1735944E+04  0.7818609E-02  0.8741126E-01
        1   -1    0    0  501    0  0.00000000000E+00  0.00000000000E+00  0.99100347989E+03  0.99100347990E+03  0.50400001928E-02 0.  1.
       -1   -1    0    0    0  501  0.00000000000E+00  0.00000000000E+00 -0.76021448082E+03  0.76021448084E+03  0.50400001928E-02 0. -1.
    10030    2    1    2    0    0  0.00000000000E+00  0.00000000000E+00  0.23078899907E+03  0.17512179607E+04  0.17359437733E+04 0.  0.
        3    1    3    3  502    0 -0.74539846538E+03  0.33708915183E+03  0.40799348122E+03  0.91416992916E+03  0.10100000352E+00 0.  1.
       -3    1    3    3    0  502  0.74539846538E+03 -0.33708915183E+03 -0.17720448215E+03  0.83704803157E+03  0.10100000352E+00 0. -1.
</event>
<event>
 5   0  0.3803253E-04  0.1668355E+04  0.7818609E-02  0.8779621E-01
       -1   -1    0    0    0  501  0.00000000000E+00  0.00000000000E+00  0.48689726659E+03  0.48689726662E+03  0.50400001928E-02 0. -1.
        1   -1    0    0  501    0  0.00000000000E+00  0.00000000000E+00 -0.14291558202E+04  0.14291558202E+04  0.50400001928E-02 0.  1.
    10030    2    1    2    0    0  0.00000000000E+00  0.00000000000E+00 -0.94225855362E+03  0.19160530868E+04  0.16683549532E+04 0.  0.
        4    1    3    3  502    0 -0.53190827155E+03 -0.15216518962E+03  0.24587735574E+03  0.60542376996E+03  0.12699999809E+01 0. -1.
       -4    1    3    3    0  502  0.53190827155E+03  0.15216518962E+03 -0.11881359094E+04  0.13106293169E+04  0.12699999809E+01 0.  1.
</event>
<event>
 5   0  0.3713516E-04  0.1678029E+04  0.7818609E-02  0.8773995E-01
       -1   -1    0    0    0  501  0.00000000000E+00  0.00000000000E+00  0.46364437393E+03  0.46364437395E+03  0.50400001928E-02 0. -1.
        1   -1    0    0  501    0  0.00000000000E+00  0.00000000000E+00 -0.15182872185E+04  0.15182872185E+04  0.50400001928E-02 0.  1.
    10030    2    1    2    0    0  0.00000000000E+00  0.00000000000E+00 -0.10546428446E+04  0.19819315925E+04  0.16780289949E+04 0.  0.
        5    1    3    3  502    0  0.49226756326E+03 -0.14688992718E+02  0.27494503897E+03  0.56405672126E+03  0.46999998093E+01 0. -1.
       -5    1    3    3    0  502 -0.49226756326E+03  0.14688992718E+02 -0.13295878836E+04  0.14178748712E+04  0.46999998093E+01 0.  1.
</event>
<event>
 5   0  0.7049044E-04  0.1728542E+04  0.7818609E-02  0.8745251E-01
        2   -1    0    0  501    0  0.00000000000E+00  0.00000000000E+00  0.19501749725E+04  0.19501749725E+04  0.25500000920E-02 0. -1.
       -2   -1    0    0    0  501  0.00000000000E+00  0.00000000000E+00 -0.38302448271E+03  0.38302448272E+03  0.25500000920E-02 0.  1.
    10030    2    1    2    0    0  0.00000000000E+00  0.00000000000E+00  0.15671504898E+04  0.23331994552E+04  0.17285424612E+04 0.  0.
        4    1    3    3  502    0 -0.29306793231E+03  0.42275483870E+03  0.17210383017E+04  0.17962697223E+04  0.12699999809E+01 0. -1.
       -4    1    3    3    0  502  0.29306793231E+03 -0.42275483870E+03 -0.15388781185E+03  0.53692973295E+03  0.12699999809E+01 0.  1.
</event>
<event>
 5   0  0.7049044E-04  0.1695247E+04  0.7818609E-02  0.8764080E-01
       -2   -1    0    0    0  501  0.00000000000E+00  0.00000000000E+00  0.58655778456E+03  0.58655778457E+03  0.25500000920E-02 0. -1.
        2   -1    0    0  501    0  0.00000000000E+00  0.00000000000E+00 -0.12248848965E+04  0.12248848965E+04  0.25500000920E-02 0.  1.
    10030    2    1    2    0    0  0.00000000000E+00  0.00000000000E+00 -0.63832711197E+03  0.18114426811E+04  0.16952472047E+04 0.  0.
        4    1    3    3  502    0 -0.19199101471E+03  0.82529815057E+03 -0.29559327265E+03  0.89741550176E+03  0.12699999809E+01 0. -1.
       -4    1    3    3    0  502  0.19199101471E+03 -0.82529815057E+03 -0.34273383932E+03  0.91402717935E+03  0.12699999809E+01 0.  1.
</event>
<event>
 5   0  0.7242144E-04  0.1711503E+04  0.7818609E-02  0.8754831E-01
        2   -1    0    0  501    0  0.00000000000E+00  0.00000000000E+00  0.11625508636E+04  0.11625508636E+04  0.25500000920E-02 0.  1.
       -2   -1    0    0    0  501  0.00000000000E+00  0.00000000000E+00 -0.62991733140E+03  0.62991733140E+03  0.25500000920E-02 0. -1.
    10030    2    1    2    0    0  0.00000000000E+00  0.00000000000E+00  0.53263353216E+03  0.17924681950E+04  0.17115033597E+04 0.  0.
        3    1    3    3  502    0 -0.69389089284E+03  0.25268557581E+03  0.71917998394E+03  0.10308028089E+04  0.10100000352E+00 0.  1.
       -3    1    3    3    0  502  0.69389089284E+03 -0.25268557581E+03 -0.18654645179E+03  0.76166538603E+03  0.10100000352E+00 0. -1.
</event>
<event>
 5   0  0.3723500E-04  0.1659780E+04  0.7818609E-02  0.8784642E-01
       -1   -1    0    0    0  501  0.00000000000E+00  0.00000000000E+00  0.68984964011E+03  0.68984964013E+03  0.50400001928E-02 0. -1.
        1   -1    0    0  501    0  0.00000000000E+00  0.00000000000E+00 -0.99835860544E+03  0.99835860545E+03  0.50400001928E-02 0.  1.
    10030    2    1    2    0    0  0.00000000000E+00  0.00000000000E+00 -0.30850896533E+03  0.16882082456E+04  0.16597798947E+04 0.  0.
        1    1    3    3  502    0 -0.56667460547E+03 -0.43774973190E+03 -0.58093005710E+03  0.92207628076E+03  0.50400001928E-02 0.  1.
       -1    1    3    3    0  502  0.56667460547E+03  0.43774973190E+03  0.27242109177E+03  0.76613196483E+03  0.50400001928E-02 0. -1.
</event>
<event>
 5   0  0.7049044E-04  0.1732086E+04  0.7818609E-02  0.8743273E-01
        2   -1    0    0  501    0  0.00000000000E+00  0.00000000000E+00  0.95498865922E+03  0.95498865923E+03  0.25500000920E-02 0. -1.
       -2   -1    0    0    0  501  0.00000000000E+00  0.00000000000E+00 -0.78538159643E+03  0.78538159644E+03  0.25500000920E-02 0.  1.
    10030    2    1    2    0    0  0.00000000000E+00  0.00000000000E+00  0.16960706279E+03  0.17403702557E+04  0.17320860461E+04 0.  0.
        4    1    3    3  502    0 -0.68378655036E+03 -0.31656113526E+03 -0.34415035966E+03  0.82838160396E+03  0.12699999809E+01 0.  1.
       -4    1    3    3    0  502  0.68378655036E+03  0.31656113526E+03  0.51375742245E+03  0.91198865171E+03  0.12699999809E+01 0. -1.
</event>
<event>
 5   0  0.3803253E-04  0.1729399E+04  0.7818609E-02  0.8744773E-01
        1   -1    0    0  501    0  0.00000000000E+00  0.00000000000E+00  0.15398769738E+04  0.15398769738E+04  0.50400001928E-02 0. -1.
       -1   -1    0    0    0  501  0.00000000000E+00  0.00000000000E+00 -0.48556145794E+03  0.48556145796E+03  0.50400001928E-02 0.  1.
    10030    2    1    2    0    0  0.00000000000E+00  0.00000000000E+00  0.10543155159E+04  0.20254384318E+04  0.17293986336E+04 0.  0.
        4    1    3    3  502    0 -0.31932776335E+03  0.66063544782E+03  0.10629571292E+04  0.12916225791E+04  0.12699999809E+01 0. -1.
       -4    1    3    3    0  502  0.31932776335E+03 -0.66063544782E+03 -0.86416132870E+01  0.73381585274E+03  0.12699999809E+01 0.  1.
</event>
<event>
 5   0  0.7233728E-04  0.1713428E+04  0.7818609E-02  0.8753742E-01
       -2   -1    0    0    0  501  0.00000000000E+00  0.00000000000E+00  0.13578912506E+04  0.13578912506E+04  0.25500000920E-02 0.  1.
        2   -1    0    0  501    0  0.00000000000E+00  0.00000000000E+00 -0.54051405476E+03  0.54051405477E+03  0.25500000920E-02 0. -1.
    10030    2    1    2    0    0  0.00000000000E+00  0.00000000000E+00  0.81737719585E+03  0.18984053054E+04  0.17134284996E+04 0.  0.
        1    1    3    3  502    0 -0.34986703651E+03 -0.51990304165E+03  0.10559225818E+04  0.12278756512E+04  0.50400001928E-02 0.  1.
       -1    1    3    3    0  502  0.34986703651E+03  0.51990304165E+03 -0.23854538598E+03  0.67052965419E+03  0.50400001928E-02 0. -1.
</event>
<event>
 5   0  0.6746664E-04  0.1680522E+04  0.7818609E-02  0.8772552E-01
       -2   -1    0    0    0  501  0.00000000000E+00  0.00000000000E+00  0.38583451174E+03  0.38583451175E+03  0.25500000920E-02 0. -1.
        2   -1    0    0  501    0  0.00000000000E+00  0.00000000000E+00 -0.18299006539E+04  0.18299006540E+04  0.25500000920E-02 0.  1.
    10030    2    1    2    0    0  0.00000000000E+00  0.00000000000E+00 -0.14440661422E+04  0.22157351657E+04  0.16805223300E+04 0.  0.
        5    1    3    3  502    0  0.45684859443E+03 -0.33857783907E+03  0.93584212438E+02  0.57630346707E+03  0.46999998093E+01 0. -1.
       -5    1    3    3    0  502 -0.45684859443E+03  0.33857783907E+03 -0.15376503546E+04  0.16394316986E+04  0.46999998093E+01 0.  1.
</event>
<event>
 5   0  0.3723500E-04  0.1735384E+04  0.7818609E-02  0.8741437E-01
       -1   -1    0    0    0  501  0.00000000000E+00  0.00000000000E+00  0.86839163036E+03  0.86839163037E+03  0.50400001928E-02 0. -1.
        1   -1    0    0  501    0  0.00000000000E+00  0.00000000000E+00 -0.86699324091E+03  0.86699324093E+03  0.50400001928E-02 0.  1.
    10030    2    1    2    0    0  0.00000000000E+00  0.00000000000E+00  0.13983894450E+01  0.17353848713E+04  0.17353843079E+04 0.  0.
        1    1    3    3  502    0 -0.36443415287E+01  0.50750804848E+03  0.70448346217E+03  0.86825955163E+03  0.50400001928E-02 0. -1.
       -1    1    3    3    0  502  0.36443415287E+01 -0.50750804848E+03 -0.70308507273E+03  0.86712531967E+03  0.50400001928E-02 0.  1.
</event>
<event>
 5   0  0.3723500E-04  0.1645272E+04  0.7818609E-02  0.8793208E-01
        1   -1    0    0  501    0  0.00000000000E+00  0.00000000000E+00  0.18338302982E+04  0.18338302983E+04  0.50400001928E-02 0. -1.
       -1   -1    0    0    0  501  0.00000000000E+00  0.00000000000E+00 -0.36902547951E+03  0.36902547955E+03  0.50400001928E-02 0.  1.
    10030    2    1    2    0    0  0.00000000000E+00  0.00000000000E+00  0.14648048187E+04  0.22028557778E+04  0.16452721419E+04 0.  0.
        1    1    3    3  502    0 -0.43918630311E+03 -0.64208380830E+03  0.37420239479E+03  0.86324020875E+03  0.50400001928E-02 0.  1.
       -1    1    3    3    0  502  0.43918630311E+03  0.64208380830E+03  0.10906024239E+04  0.13396155691E+04  0.50400001928E-02 0. -1.
</event>
<event>
 5   0  0.3803253E-04  0.1731799E+04  0.7818609E-02  0.8743433E-01
        1   -1    0    0  501    0  0.00000000000E+00  0.00000000000E+00  0.23503076420E+04  0.23503076420E+04  0.50400001928E-02 0.  1.
       -1   -1    0    0    0  501  0.00000000000E+00  0.00000000000E+00 -0.31901445823E+03  0.31901445827E+03  0.50400001928E-02 0. -1.
    10030    2    1    2    0    0  0.00000000000E+00  0.00000000000E+00  0.20312931838E+04  0.26693221003E+04  0.17317992021E+04 0.  0.
        4    1    3    3  502    0  0.60847431286E+03  0.22503641338E+03  0.18996097172E+04  0.20073368096E+04  0.12699999809E+01 0.  1.
       -4    1    3    3    0  502 -0.60847431286E+03 -0.22503641338E+03  0.13168346659E+03  0.66198529064E+03  0.12699999809E+01 0. -1.
</event>
<event>
 5   0  0.7049044E-04  0.1732873E+04  0.7818609E-02  0.8742835E-01
       -2   -1    0    0    0  501  0.00000000000E+00  0.00000000000E+00  0.46036962272E+03  0.46036962273E+03  0.25500000920E-02 0. -1.
        2   -1    0    0  501    0  0.00000000000E+00  0.00000000000E+00 -0.16306729498E+04  0.16306729498E+04  0.25500000920E-02 0.  1.
    10030    2    1    2    0    0  0.00000000000E+00  0.00000000000E+00 -0.11703033271E+04  0.20910425726E+04  0.17328730948E+04 0.  0.
        4    1    3    3  502    0 -0.46674750853E+03  0.32734877935E+03 -0.13724658053E+04  0.14861609804E+04  0.12699999809E+01 0.  1.
       -4    1    3    3    0  502  0.46674750853E+03 -0.32734877935E+03  0.20216247819E+03  0.60488159217E+03  0.12699999809E+01 0. -1.
</event>
<event>
 5   0  0.3723500E-04  0.1685866E+04  0.7818609E-02  0.8769467E-01
       -1   -1    0    0    0  501  0.00000000000E+00  0.00000000000E+00  0.78761692879E+03  0.78761692880E+03  0.50400001928E-02 0.  1.
        1   -1    0    0  501    0  0.00000000000E+00  0.00000000000E+00 -0.90213416272E+03  0.90213416273E+03  0.50400001928E-02 0. -1.
    10030    2    1    2    0    0  0.00000000000E+00  0.00000000000E+00 -0.11451723393E+03  0.16897510915E+04  0.16858661140E+04 0.  0.
        1    1    3    3  502    0  0.72077826176E+03  0.41544757288E+03  0.78767612217E+02  0.83565682262E+03  0.50400001928E-02 0.  1.
       -1    1    3    3    0  502 -0.72077826176E+03 -0.41544757288E+03 -0.19328484615E+03  0.85409426892E+03  0.50400001928E-02 0. -1.
</event>
<event>
 5   0  0.7233728E-04  0.1691392E+04  0.7818609E-02  0.8766289E-01
       -2   -1    0    0    0  501  0.00000000000E+00  0.00000000000E+00  0.11748719569E+04  0.11748719569E+04  0.25500000920E-02 0.  1.
        2   -1    0    0  501    0  0.00000000000E+00  0.00000000000E+00 -0.60874865689E+03  0.60874865689E+03  0.25500000920E-02 0. -1.
    10030    2    1    2    0    0  0.00000000000E+00  0.00000000000E+00  0.56612329998E+03  0.17836206138E+04  0.16913920016E+04 0.  0.
        1    1    3    3  502    0 -0.16536832200E+03  0.73539865336E+03 -0.12131089781E+03  0.76346198022E+03  0.50400001928E-02 0. -1.
       -1    1    3    3    0  502  0.16536832200E+03 -0.73539865336E+03  0.68743419779E+03  0.10201586335E+04  0.50400001928E-02 0.  1.
</event>
<event>
 5   0  0.2639750E-04  0.1687386E+04  0.7818609E-02  0.8768592E-01
       -3   -1    0    0    0  501  0.00000000000E+00  0.00000000000E+00  0.77215358415E+03  0.77215359075E+03  0.10100000352E+00 0.  1.
        3   -1    0    0  501    0  0.00000000000E+00  0.00000000000E+00 -0.92186031477E+03  0.92186032031E+03  0.10100000352E+00 0. -1.
    10030    2    1    2    0    0  0.00000000000E+00  0.00000000000E+00 -0.14970673063E+03  0.16940139111E+04  0.16873858556E+04 0.  0.
        1    1    3    3  502    0  0.72421513887E+03  0.91340744172E+02 -0.49958380011E+03  0.88454206925E+03  0.50400001928E-02 0. -1.
       -1    1    3    3    0  502 -0.72421513887E+03 -0.91340744172E+02  0.34987706948E+03  0.80947184181E+03  0.50400001928E-02 0.  1.
</event>
<event>
 5   0  0.3713516E-04  0.1718752E+04  0.7818609E-02  0.8750741E-01
        1   -1    0    0  501    0  0.00000000000E+00  0.00000000000E+00  0.99719599669E+03  0.99719599671E+03  0.50400001928E-02 0. -1.
       -1   -1    0    0    0  501  0.00000000000E+00  0.00000000000E+00 -0.74060394618E+03  0.74060394620E+03  0.50400001928E-02 0.  1.
    10030    2    1    2    0    0  0.00000000000E+00  0.00000000000E+00  0.25659205051E+03  0.17377999429E+04  0.17187522105E+04 0.  0.
        5    1    3    3  502    0 -0.13357654523E+03  0.84007699018E+03  0.47404546201E+01  0.85065657275E+03  0.46999998093E+01 0.  1.
       -5    1    3    3    0  502  0.13357654523E+03 -0.84007699018E+03  0.25185159589E+03  0.88714337015E+03  0.46999998093E+01 0. -1.
</event>
<event>
 5   0  0.7242144E-04  0.1687449E+04  0.7818609E-02  0.8768555E-01
        2   -1    0    0  501    0  0.00000000000E+00  0.00000000000E+00  0.15608913154E+04  0.15608913154E+04  0.25500000920E-02 0. -1.
       -2   -1    0    0    0  501  0.00000000000E+00  0.00000000000E+00 -0.45606690208E+03  0.45606690208E+03  0.25500000920E-02 0.  1.
    10030    2    1    2    0    0  0.00000000000E+00  0.00000000000E+00  0.11048244133E+04  0.20169582175E+04  0.16874488042E+04 0.  0.
        3    1    3    3  502    0 -0.29635466103E+03  0.50657425436E+03 -0.17211050609E+03  0.61160902283E+03  0.10100000352E+00 0.  1.
       -3    1    3    3    0  502  0.29635466103E+03 -0.50657425436E+03  0.12769349194E+04  0.14053491946E+04  0.10100000352E+00 0. -1.
</event>
<event>
 5   0  0.3723500E-04  0.1581563E+04  0.7818609E-02  0.8831955E-01
        1   -1    0    0  501    0  0.00000000000E+00  0.00000000000E+00  0.12878231453E+04  0.12878231453E+04  0.50400001928E-02 0.  1.
       -1   -1    0    0    0  501  0.00000000000E+00  0.00000000000E+00 -0.48557542971E+03  0.48557542974E+03  0.50400001928E-02 0. -1.
    10030    2    1    2    0    0  0.00000000000E+00  0.00000000000E+00  0.80224771559E+03  0.17733985750E+04  0.15815628691E+04 0.  0.
        1    1    3    3  502    0  0.48298070341E+02  0.77912049763E+03  0.54284163730E+03  0.95080939028E+03  0.50400001928E-02 0.  1.
       -1    1    3    3    0  502 -0.48298070341E+02 -0.77912049763E+03  0.25940607829E+03  0.82258918477E+03  0.50400001928E-02 0. -1.
</event>
<event>
 5   0  0.3713516E-04  0.1715876E+04  0.7818609E-02  0.8752361E-01
        1   -1    0    0  501    0  0.00000000000E+00  0.00000000000E+00  0.16038159155E+04  0.16038159155E+04  0.50400001928E-02 0.  1.
       -1   -1    0    0    0  501  0.00000000000E+00  0.00000000000E+00 -0.45894148011E+03  0.45894148013E+03  0.50400001928E-02 0. -1.
    10030    2    1    2    0    0  0.00000000000E+00  0.00000000000E+00  0.11448744354E+04  0.20627573956E+04  0.17158760446E+04 0.  0.
        5    1    3    3  502    0  0.25038888935E+02 -0.84008904315E+03  0.77947070347E+03  0.11462867067E+04  0.46999998093E+01 0.  1.
       -5    1    3    3    0  502 -0.25038888935E+02  0.84008904315E+03  0.36540373192E+03  0.91647068894E+03  0.46999998093E+01 0. -1.
</event>
<event>
 5   0  0.6746664E-04  0.1770818E+04  0.7818609E-02  0.8721974E-01
       -2   -1    0    0    0  501  0.00000000000E+00  0.00000000000E+00  0.89397681560E+03  0.89397681561E+03  0.25500000920E-02 0. -1.
        2   -1    0    0  501    0  0.00000000000E+00  0.00000000000E+00 -0.87692300349E+03  0.87692300349E+03  0.25500000920E-02 0.  1.
    10030    2    1    2    0    0  0.00000000000E+00  0.00000000000E+00  0.17053812114E+02  0.17708998191E+04  0.17708177029E+04 0.  0.
        5    1    3    3  502    0  0.27789459415E+03  0.50816718533E+03 -0.66118127223E+03  0.87900060207E+03  0.46999998093E+01 0.  1.
       -5    1    3    3    0  502 -0.27789459415E+03 -0.50816718533E+03  0.67823508434E+03  0.89189921703E+03  0.46999998093E+01 0. -1.
</event>
<event>
 5   0  0.3723500E-04  0.1388897E+04  0.7818609E-02  0.8961895E-01
       -1   -1    0    0    0  501  0.00000000000E+00  0.00000000000E+00  0.22048779111E+03  0.22048779117E+03  0.50400001928E-02 0.  1.
        1   -1    0    0  501    0  0.00000000000E+00  0.00000000000E+00 -0.21872340979E+04  0.21872340979E+04  0.50400001928E-02 0. -1.
    10030    2    1    2    0    0  0.00000000000E+00  0.00000000000E+00 -0.19667463068E+04  0.24077218891E+04  0.13888965620E+04 0.  0.
        1    1    3    3  502    0  0.64832193055E+03 -0.79789013799E+02 -0.13920309158E+04  0.15376728140E+04  0.50400001928E-02 0. -1.
       -1    1    3    3    0  502 -0.64832193055E+03  0.79789013799E+02 -0.57471539095E+03  0.87004907504E+03  0.50400001928E-02 0.  1.
</event>
<event>
 5   0  0.3713516E-04  0.1678654E+04  0.7818609E-02  0.8773633E-01
       -1   -1    0    0    0  501  0.00000000000E+00  0.00000000000E+00  0.34468798734E+03  0.34468798738E+03  0.50400001928E-02 0.  1.
        1   -1    0    0  501    0  0.00000000000E+00  0.00000000000E+00 -0.20437895951E+04  0.20437895951E+04  0.50400001928E-02 0. -1.
    10030    2    1    2    0    0  0.00000000000E+00  0.00000000000E+00 -0.16991016078E+04  0.23884775825E+04  0.16786538918E+04 0.  0.
        5    1    3    3  502    0 -0.77130934984E+03 -0.49192230099E+02 -0.13152165520E+04  0.15255014445E+04  0.46999998093E+01 0. -1.
       -5    1    3    3    0  502  0.77130934984E+03  0.49192230099E+02 -0.38388505578E+03  0.86297613796E+03  0.46999998093E+01 0.  1.
</event>
<event>
 5   0  0.3635143E-04  0.1691656E+04  0.7818609E-02  0.8766138E-01
        1   -1    0    0  501    0  0.00000000000E+00  0.00000000000E+00  0.16735757205E+04  0.16735757205E+04  0.50400001928E-02 0.  1.
       -1   -1    0    0    0  501  0.00000000000E+00  0.00000000000E+00 -0.42748281103E+03  0.42748281106E+03  0.50400001928E-02 0. -1.
    10030    2    1    2    0    0  0.00000000000E+00  0.00000000000E+00  0.12460929095E+04  0.21010585316E+04  0.16916558202E+04 0.  0.
        3    1    3    3  502    0  0.51378890541E+03 -0.62132606925E+03  0.94067102268E+03  0.12389056085E+04  0.10100000352E+00 0.  1.
       -3    1    3    3    0  502 -0.51378890541E+03  0.62132606925E+03  0.30542188681E+03  0.86215292309E+03  0.10100000352E+00 0. -1.
</event>
<event>
 5   0  0.7049044E-04  0.1702338E+04  0.7818609E-02  0.8760032E-01
       -2   -1    0    0    0  501  0.00000000000E+00  0.00000000000E+00  0.60419900473E+03  0.60419900474E+03  0.25500000920E-02 0.  1.
        2   -1    0    0  501    0  0.00000000000E+00  0.00000000000E+00 -0.11990899249E+04  0.11990899249E+04  0.25500000920E-02 0. -1.
    10030    2    1    2    0    0  0.00000000000E+00  0.00000000000E+00 -0.59489092021E+03  0.18032889297E+04  0.17023383204E+04 0.  0.
        4    1    3    3  502    0  0.22466330644E+03 -0.14112636398E+03  0.55927777303E+03  0.61901816789E+03  0.12699999809E+01 0.  1.
       -4    1    3    3    0  502 -0.22466330644E+03  0.14112636398E+03 -0.11541686932E+04  0.11842707618E+04  0.12699999809E+01 0. -1.
</event>
<event>
 5   0  0.3915701E-04  0.1705295E+04  0.7818609E-02  0.8758350E-01
        1   -1    0    0  501    0  0.00000000000E+00  0.00000000000E+00  0.11651925323E+04  0.11651925323E+04  0.50400001928E-02 0. -1.
       -1   -1    0    0    0  501  0.00000000000E+00  0.00000000000E+00 -0.62393781743E+03  0.62393781745E+03  0.50400001928E-02 0.  1.
    10030    2    1    2    0    0  0.00000000000E+00  0.00000000000E+00  0.54125471490E+03  0.17891303498E+04  0.17052949135E+04 0.  0.
        2    1    3    3  502    0  0.45575384904E+03  0.56698902282E+03 -0.19600742216E+03  0.75339699526E+03  0.25500000920E-02 0.  1.
       -2    1    3    3    0  502 -0.45575384904E+03 -0.56698902282E+03  0.73726213707E+03  0.10357333545E+04  0.25500000920E-02 0. -1.
</event>
<event>
 5   0  0.2639750E-04  0.1327469E+04  0.7818609E-02  0.9008062E-01
        3   -1    0    0  501    0  0.00000000000E+00  0.00000000000E+00  0.95088655407E+03  0.95088655944E+03  0.10100000352E+00 0. -1.
       -3   -1    0    0    0  501  0.00000000000E+00  0.00000000000E+00 -0.46329730520E+03  0.46329731621E+03  0.10100000352E+00 0.  1.
    10030    2    1    2    0    0  0.00000000000E+00  0.00000000000E+00  0.48758924887E+03  0.14141838756E+04  0.13274685527E+04 0.  0.
        4    1    3    3  502    0  0.38336341002E+03  0.27667573386E+03  0.74008531947E+03  0.87820547644E+03  0.12699999809E+01 0. -1.
       -4    1    3    3    0  502 -0.38336341002E+03 -0.27667573386E+03 -0.25249607061E+03  0.53597839921E+03  0.12699999809E+01 0.  1.
</event>
<event>
 5   0  0.7233728E-04  0.1685236E+04  0.7818609E-02  0.8769830E-01
       -2   -1    0    0    0  501  0.00000000000E+00  0.00000000000E+00  0.60780593074E+03  0.60780593074E+03  0.25500000920E-02 0.  1.
        2   -1    0    0  501    0  0.00000000000E+00  0.00000000000E+00 -0.11681444935E+04  0.11681444935E+04  0.25500000920E-02 0. -1.
    10030    2    1    2    0    0  0.00000000000E+00  0.00000000000E+00 -0.56033856278E+03  0.17759504243E+04  0.16852360679E+04 0.  0.
        1    1    3    3  502    0  0.69663252530E+03 -0.33025033862E+03  0.78199151982E+02  0.77490468372E+03  0.50400001928E-02 0.  1.
       -1    1    3    3    0  502 -0.69663252530E+03  0.33025033862E+03 -0.63853771476E+03  0.10010457405E+04  0.50400001928E-02 0. -1.
</event>
<event>
 5   0  0.7049044E-04  0.1694416E+04  0.7818609E-02  0.8764556E-01
        2   -1    0    0  501    0  0.00000000000E+00  0.00000000000E+00  0.52892097485E+03  0.52892097485E+03  0.25500000920E-02 0.  1.
       -2   -1    0    0    0  501  0.00000000000E+00  0.00000000000E+00 -0.13570296403E+04  0.13570296403E+04  0.25500000920E-02 0. -1.
    10030    2    1    2    0    0  0.00000000000E+00  0.00000000000E+00 -0.82810866545E+03  0.18859506152E+04  0.16944160531E+04 0.  0.
        4    1    3    3  502    0 -0.46949819676E+03 -0.69045781473E+03 -0.25430603308E+03  0.87283086680E+03  0.12699999809E+01 0.  1.
       -4    1    3    3    0  502  0.46949819676E+03  0.69045781473E+03 -0.57380263237E+03  0.10131197483E+04  0.12699999809E+01 0. -1.
</event>
<event>
 5   0  0.7049044E-04  0.1729647E+04  0.7818609E-02  0.8744634E-01
       -2   -1    0    0    0  501  0.00000000000E+00  0.00000000000E+00  0.32294917368E+03  0.32294917369E+03  0.25500000920E-02 0. -1.
        2   -1    0    0  501    0  0.00000000000E+00  0.00000000000E+00 -0.23159052879E+04  0.23159052879E+04  0.25500000920E-02 0.  1.
    10030    2    1    2    0    0  0.00000000000E+00  0.00000000000E+00 -0.19929561143E+04  0.26388544616E+04  0.17296470149E+04 0.  0.
        4    1    3    3  502    0  0.73742375573E+03 -0.38949380486E+03 -0.13457806186E+04  0.15832328653E+04  0.12699999809E+01 0.  1.
       -4    1    3    3    0  502 -0.73742375573E+03  0.38949380486E+03 -0.64717549571E+03  0.10556215964E+04  0.12699999809E+01 0. -1.
</event>
<event>
 5   0  0.7025426E-04  0.1674540E+04  0.7818609E-02  0.8776020E-01
        2   -1    0    0  501    0  0.00000000000E+00  0.00000000000E+00  0.13938525543E+04  0.13938525543E+04  0.25500000920E-02 0.  1.
       -2   -1    0    0    0  501  0.00000000000E+00  0.00000000000E+00 -0.50293788655E+03  0.50293788655E+03  0.25500000920E-02 0. -1.
    10030    2    1    2    0    0  0.00000000000E+00  0.00000000000E+00  0.89091466771E+03  0.18967904408E+04  0.16745402447E+04 0.  0.
        2    1    3    3  502    0  0.47260269708E+03 -0.48082963313E+03 -0.11689242215E+03  0.68426185320E+03  0.25500000920E-02 0. -1.
       -2    1    3    3    0  502 -0.47260269708E+03  0.48082963313E+03  0.10078070899E+04  0.12125285876E+04  0.25500000920E-02 0.  1.
</event>
<event>
 5   0  0.7242144E-04  0.1729152E+04  0.7818609E-02  0.8744910E-01
       -2   -1    0    0    0  501  0.00000000000E+00  0.00000000000E+00  0.43507871876E+03  0.43507871877E+03  0.25500000920E-02 0.  1.
        2   -1    0    0  501    0  0.00000000000E+00  0.00000000000E+00 -0.17180609073E+04  0.17180609073E+04  0.25500000920E-02 0. -1.
    10030    2    1    2    0    0  0.00000000000E+00  0.00000000000E+00 -0.12829821885E+04  0.21531396260E+04  0.17291520908E+04 0.  0.
        3    1    3    3  502    0  0.21388099055E+03  0.38770568076E+03 -0.15661564165E+04  0.16275462218E+04  0.10100000352E+00 0. -1.
       -3    1    3    3    0  502 -0.21388099055E+03 -0.38770568076E+03  0.28317422795E+03  0.52559340425E+03  0.10100000352E+00 0.  1.
</event>
<event>
 5   0  0.3635143E-04  0.1655484E+04  0.7818609E-02  0.8787169E-01
        1   -1    0    0  501    0  0.00000000000E+00  0.00000000000E+00  0.21347600776E+04  0.21347600776E+04  0.50400001928E-02 0.  1.
       -1   -1    0    0    0  501  0.00000000000E+00  0.00000000000E+00 -0.32095242800E+03  0.32095242804E+03  0.50400001928E-02 0. -1.
    10030    2    1    2    0    0  0.00000000000E+00  0.00000000000E+00  0.18138076496E+04  0.24557125056E+04  0.16554835307E+04 0.  0.
        3    1    3    3  502    0 -0.67682147905E+03 -0.35027021955E+03  0.42765500587E+03  0.87387948566E+03  0.10100000352E+00 0. -1.
       -3    1    3    3    0  502  0.67682147905E+03  0.35027021955E+03  0.13861526437E+04  0.15818330199E+04  0.10100000352E+00 0.  1.
</event>
<event>
 5   0  0.3803253E-04  0.1687877E+04  0.7818609E-02  0.8768309E-01
        1   -1    0    0  501    0  0.00000000000E+00  0.00000000000E+00  0.22739678147E+04  0.22739678147E+04  0.50400001928E-02 0. -1.
       -1   -1    0    0    0  501  0.00000000000E+00  0.00000000000E+00 -0.31321110001E+03  0.31321110005E+03  0.50400001928E-02 0.  1.
    10030    2    1    2    0    0  0.00000000000E+00  0.00000000000E+00  0.19607567147E+04  0.25871789148E+04  0.16878767262E+04 0.  0.
        4    1    3    3  502    0 -0.46882164821E+03 -0.62789713533E+03  0.50009091959E+03  0.92959189494E+03  0.12699999809E+01 0.  1.
       -4    1    3    3    0  502  0.46882164821E+03  0.62789713533E+03  0.14606657951E+04  0.16575870198E+04  0.12699999809E+01 0. -1.
</event>
<event>
 5   0  0.7242144E-04  0.1693174E+04  0.7818609E-02  0.8765267E-01
        2   -1    0    0  501    0  0.00000000000E+00  0.00000000000E+00  0.16083875323E+04  0.16083875323E+04  0.25500000920E-02 0. -1.
       -2   -1    0    0    0  501  0.00000000000E+00  0.00000000000E+00 -0.44560752971E+03  0.44560752972E+03  0.25500000920E-02 0.  1.
    10030    2    1    2    0    0  0.00000000000E+00  0.00000000000E+00  0.11627800025E+04  0.20539950620E+04  0.16931740549E+04 0.  0.
        3    1    3    3  502    0  0.54865129293E+03  0.39663248988E+03  0.11980165288E+04  0.13760738304E+04  0.10100000352E+00 0. -1.
       -3    1    3    3    0  502 -0.54865129293E+03 -0.39663248988E+03 -0.35236526215E+02  0.67792123159E+03  0.10100000352E+00 0.  1.
</event>
<event>
 5   0  0.7025426E-04  0.1673916E+04  0.7818609E-02  0.8776382E-01
       -2   -1    0    0    0  501  0.00000000000E+00  0.00000000000E+00  0.10674044210E+04  0.10674044210E+04  0.25500000920E-02 0. -1.
        2   -1    0    0  501    0  0.00000000000E+00  0.00000000000E+00 -0.65626362401E+03  0.65626362401E+03  0.25500000920E-02 0.  1.
    10030    2    1    2    0    0  0.00000000000E+00  0.00000000000E+00  0.41114079700E+03  0.17236680450E+04  0.16739159998E+04 0.  0.
        2    1    3    3  502    0  0.37607846863E+03 -0.26971383917E+03 -0.51252178161E+03  0.69054988686E+03  0.25500000920E-02 0.  1.
       -2    1    3    3    0  502 -0.37607846863E+03  0.26971383917E+03  0.92366257860E+03  0.10331181582E+04  0.25500000920E-02 0. -1.
</event>
<event>
 5   0  0.3723500E-04  0.1388366E+04  0.7818609E-02  0.8962283E-01
        1   -1    0    0  501    0  0.00000000000E+00  0.00000000000E+00  0.39424328759E+03  0.39424328763E+03  0.50400001928E-02 0.  1.
       -1   -1    0    0    0  501  0.00000000000E+00  0.00000000000E+00 -0.12223163354E+04  0.12223163354E+04  0.50400001928E-02 0. -1.
    10030    2    1    2    0    0  0.00000000000E+00  0.00000000000E+00 -0.82807304778E+03  0.16165596230E+04  0.13883659612E+04 0.  0.
        1    1    3    3  502    0 -0.50030076489E+03  0.35727112095E+03 -0.78943517508E+03  0.10005755368E+04  0.50400001928E-02 0. -1.
       -1    1    3    3    0  502  0.50030076489E+03 -0.35727112095E+03 -0.38637872706E+02  0.61598408619E+03  0.50400001928E-02 0.  1.
</event>
<event>
 5   0  0.7233728E-04  0.1673617E+04  0.7818609E-02  0.8776556E-01
        2   -1    0    0  501    0  0.00000000000E+00  0.00000000000E+00  0.49246040239E+03  0.49246040239E+03  0.25500000920E-02 0.  1.
       -2   -1    0    0    0  501  0.00000000000E+00  0.00000000000E+00 -0.14219392901E+04  0.14219392901E+04  0.25500000920E-02 0. -1.
    10030    2    1    2    0    0  0.00000000000E+00  0.00000000000E+00 -0.92947888768E+03  0.19143996925E+04  0.16736173935E+04 0.  0.
        1    1    3    3  502    0  0.69017664957E+03  0.19728694963E+03  0.27234570763E+02  0.71833673856E+03  0.50400001928E-02 0.  1.
       -1    1    3    3    0  502 -0.69017664957E+03 -0.19728694963E+03 -0.95671345844E+03  0.11960629539E+04  0.50400001928E-02 0. -1.
</event>
<event>
 5   0  0.3915701E-04  0.1640217E+04  0.7818609E-02  0.8796215E-01
        1   -1    0    0  501    0  0.00000000000E+00  0.00000000000E+00  0.99576055093E+03  0.99576055094E+03  0.50400001928E-02 0.  1.
       -1   -1    0    0    0  501  0.00000000000E+00  0.00000000000E+00 -0.67544135141E+03  0.67544135143E+03  0.50400001928E-02 0. -1.
    10030    2    1    2    0    0  0.00000000000E+00  0.00000000000E+00  0.32031919952E+03  0.16712019024E+04  0.16402168786E+04 0.  0.
        2    1    3    3  502    0  0.20005949683E+03  0.96172039339E+02  0.96457049852E+03  0.98978235489E+03  0.25500000920E-02 0.  1.
       -2    1    3    3    0  502 -0.20005949683E+03 -0.96172039339E+02 -0.64425129900E+03  0.68141954749E+03  0.25500000920E-02 0. -1.
</event>
<event>
 5   0  0.6746664E-04  0.1687540E+04  0.7818609E-02  0.8768503E-01
       -2   -1    0    0    0  501  0.00000000000E+00  0.00000000000E+00  0.27427240990E+03  0.27427240991E+03  0.25500000920E-02 0.  1.
        2   -1    0    0  501    0  0.00000000000E+00  0.00000000000E+00 -0.25957683068E+04  0.25957683068E+04  0.25500000920E-02 0. -1.
    10030    2    1    2    0    0  0.00000000000E+00  0.00000000000E+00 -0.23214958969E+04  0.28700407167E+04  0.16875397821E+04 0.  0.
        5    1    3    3  502    0 -0.30510869949E+03 -0.37075703686E+03  0.19233285596E+02  0.48056644510E+03  0.46999998093E+01 0.  1.
       -5    1    3    3    0  502  0.30510869949E+03  0.37075703686E+03 -0.23407291825E+04  0.23894742716E+04  0.46999998093E+01 0. -1.
</event>
<event>
 5   0  0.3915701E-04  0.1684845E+04  0.7818609E-02  0.8770056E-01
        1   -1    0    0  501    0  0.00000000000E+00  0.00000000000E+00  0.14493364734E+04  0.14493364734E+04  0.50400001928E-02 0. -1.
       -1   -1    0    0    0  501  0.00000000000E+00  0.00000000000E+00 -0.48965531180E+03  0.48965531182E+03  0.50400001928E-02 0.  1.
    10030    2    1    2    0    0  0.00000000000E+00  0.00000000000E+00  0.95968116157E+03  0.19389917852E+04  0.16848445659E+04 0.  0.
        2    1    3    3  502    0  0.80272597346E+03  0.23807342625E+03  0.37294615995E+03  0.91658975719E+03  0.25500000920E-02 0.  1.
       -2    1    3    3    0  502 -0.80272597346E+03 -0.23807342625E+03  0.58673500162E+03  0.10224020280E+04  0.25500000920E-02 0. -1.
</event>
<event>
 5   0  0.3635143E-04  0.1718840E+04  0.7818609E-02  0.8750692E-01
       -1   -1    0    0    0  501  0.00000000000E+00  0.00000000000E+00  0.29790208385E+03  0.29790208389E+03  0.50400001928E-02 0.  1.
        1   -1    0    0  501    0  0.00000000000E+00  0.00000000000E+00 -0.24793463646E+04  0.24793463646E+04  0.50400001928E-02 0. -1.
    10030    2    1    2    0    0  0.00000000000E+00  0.00000000000E+00 -0.21814442808E+04  0.27772484485E+04  0.17188396652E+04 0.  0.
        3    1    3    3  502    0 -0.51082271660E+03 -0.41094854772E+02  0.24010944559E+02  0.51303525273E+03  0.10100000352E+00 0.  1.
       -3    1    3    3    0  502  0.51082271660E+03  0.41094854772E+02 -0.22054552253E+04  0.22642131958E+04  0.10100000352E+00 0. -1.
</event>
<event>
 5   0  0.3713516E-04  0.1660694E+04  0.7818609E-02  0.8784105E-01
        1   -1    0    0  501    0  0.00000000000E+00  0.00000000000E+00  0.17315760846E+04  0.17315760846E+04  0.50400001928E-02 0.  1.
       -1   -1    0    0    0  501  0.00000000000E+00  0.00000000000E+00 -0.39817828063E+03  0.39817828066E+03  0.50400001928E-02 0. -1.
    10030    2    1    2    0    0  0.00000000000E+00  0.00000000000E+00  0.13333978040E+04  0.21297543653E+04  0.16606938167E+04 0.  0.
        5    1    3    3  502    0 -0.59739542130E+02  0.13369607076E+03 -0.38147073562E+03  0.40863854978E+03  0.46999998093E+01 0. -1.
       -5    1    3    3    0  502  0.59739542130E+02 -0.13369607076E+03  0.17148685396E+04  0.17211158155E+04  0.46999998093E+01 0.  1.
</event>
<event>
 5   0  0.7233728E-04  0.1606987E+04  0.7818609E-02  0.8816267E-01
       -2   -1    0    0    0  501  0.00000000000E+00  0.00000000000E+00  0.53783722585E+03  0.53783722585E+03  0.25500000920E-02 0.  1.
        2   -1    0    0  501    0  0.00000000000E+00  0.00000000000E+00 -0.12003664011E+04  0.12003664011E+04  0.25500000920E-02 0. -1.
    10030    2    1    2    0    0  0.00000000000E+00  0.00000000000E+00 -0.66252917522E+03  0.17382036269E+04  0.16069869136E+04 0.  0.
        1    1    3    3  502    0 -0.45273520861E+03 -0.24679853473E+03 -0.99779779531E+03  0.11231558780E+04  0.50400001928E-02 0. -1.
       -1    1    3    3    0  502  0.45273520861E+03  0.24679853473E+03  0.33526862008E+03  0.61504774896E+03  0.50400001928E-02 0.  1.
</event>
<event>
 5   0  0.3635143E-04  0.1749823E+04  0.7818609E-02  0.8733448E-01
        1   -1    0    0  501    0  0.00000000000E+00  0.00000000000E+00  0.60757333229E+03  0.60757333231E+03  0.50400001928E-02 0.  1.
       -1   -1    0    0    0  501  0.00000000000E+00  0.00000000000E+00 -0.12598808859E+04  0.12598808859E+04  0.50400001928E-02 0. -1.
    10030    2    1    2    0    0  0.00000000000E+00  0.00000000000E+00 -0.65230755356E+03  0.18674542182E+04  0.17498228803E+04 0.  0.
        3    1    3    3  502    0 -0.47541279917E+02  0.47064065093E+03  0.45933174702E+03  0.65935457807E+03  0.10100000352E+00 0.  1.
       -3    1    3    3    0  502  0.47541279917E+02 -0.47064065093E+03 -0.11116393006E+04  0.12080996401E+04  0.10100000352E+00 0. -1.
</event>
<event>
 5   0  0.7025426E-04  0.1544578E+04  0.7818609E-02  0.8855338E-01
       -2   -1    0    0    0  501  0.00000000000E+00  0.00000000000E+00  0.34763607615E+03  0.34763607616E+03  0.25500000920E-02 0.  1.
        2   -1    0    0  501    0  0.00000000000E+00  0.00000000000E+00 -0.17156748562E+04  0.17156748562E+04  0.25500000920E-02 0. -1.
    10030    2    1    2    0    0  0.00000000000E+00  0.00000000000E+00 -0.13680387800E+04  0.20633109324E+04  0.15445782272E+04 0.  0.
        2    1    3    3  502    0  0.23201052093E+03  0.56093499511E+03 -0.46229065908E+02  0.60878081203E+03  0.25500000920E-02 0.  1.
       -2    1    3    3    0  502 -0.23201052093E+03 -0.56093499511E+03 -0.13218097141E+04  0.14545301203E+04  0.25500000920E-02 0. -1.
</event>
<event>
 5   0  0.3803253E-04  0.1710471E+04  0.7818609E-02  0.8755415E-01
       -1   -1    0    0    0  501  0.00000000000E+00  0.00000000000E+00  0.31402943076E+03  0.31402943080E+03  0.50400001928E-02 0. -1.
        1   -1    0    0  501    0  0.00000000000E+00  0.00000000000E+00 -0.23291687663E+04  0.23291687663E+04  0.50400001928E-02 0.  1.
    10030    2    1    2    0    0  0.00000000000E+00  0.00000000000E+00 -0.20151393355E+04  0.26431981971E+04  0.17104707444E+04 0.  0.
        4    1    3    3  502    0  0.71516851584E+03 -0.13770528414E+03 -0.31476778617E+03  0.79341610990E+03  0.12699999809E+01 0.  1.
       -4    1    3    3    0  502 -0.71516851584E+03  0.13770528414E+03 -0.17003715493E+04  0.18497820872E+04  0.12699999809E+01 0. -1.
</event>
<event>
 5   0  0.3713516E-04  0.1681376E+04  0.7818609E-02  0.8772058E-01
       -1   -1    0    0    0  501  0.00000000000E+00  0.00000000000E+00  0.66131746975E+03  0.66131746977E+03  0.50400001928E-02 0. -1.
        1   -1    0    0  501    0  0.00000000000E+00  0.00000000000E+00 -0.10687096778E+04  0.10687096778E+04  0.50400001928E-02 0.  1.
    10030    2    1    2    0    0  0.00000000000E+00  0.00000000000E+00 -0.40739220808E+03  0.17300271476E+04  0.16813760794E+04 0.  0.
        5    1    3    3  502    0  0.50248799972E+03  0.48545509230E+03  0.27735006553E+03  0.75173531602E+03  0.46999998093E+01 0. -1.
       -5    1    3    3    0  502 -0.50248799972E+03 -0.48545509230E+03 -0.68474227361E+03  0.97829183160E+03  0.46999998093E+01 0.  1.
</event>
<event>
 5   0  0.6746664E-04  0.1725409E+04  0.7818609E-02  0.8747004E-01
        2   -1    0    0  501    0  0.00000000000E+00  0.00000000000E+00  0.12579048523E+04  0.12579048523E+04  0.25500000920E-02 0. -1.
       -2   -1    0    0    0  501  0.00000000000E+00  0.00000000000E+00 -0.59166549040E+03  0.59166549041E+03  0.25500000920E-02 0.  1.
    10030    2    1    2    0    0  0.00000000000E+00  0.00000000000E+00  0.66623936187E+03  0.18495703427E+04  0.17254088110E+04 0.  0.
        5    1    3    3  502    0  0.91605197685E+02 -0.59071741644E+03 -0.33365209641E+03  0.68460528026E+03  0.46999998093E+01 0.  1.
       -5    1    3    3    0  502 -0.91605197685E+02  0.59071741644E+03  0.99989145828E+03  0.11649650624E+04  0.46999998093E+01 0. -1.
</event>
<event>
 5   0  0.3713516E-04  0.1674225E+04  0.7818609E-02  0.8776203E-01
       -1   -1    0    0    0  501  0.00000000000E+00  0.00000000000E+00  0.70722547861E+03  0.70722547863E+03  0.50400001928E-02 0.  1.
        1   -1    0    0  501    0  0.00000000000E+00  0.00000000000E+00 -0.99085391529E+03  0.99085391530E+03  0.50400001928E-02 0. -1.
    10030    2    1    2    0    0  0.00000000000E+00  0.00000000000E+00 -0.28362843668E+03  0.16980793939E+04  0.16742247573E+04 0.  0.
        5    1    3    3  502    0 -0.21825931047E+03 -0.59821843158E+03 -0.69290913733E+03  0.94108850863E+03  0.46999998093E+01 0.  1.
       -5    1    3    3    0  502  0.21825931047E+03  0.59821843158E+03  0.40928070065E+03  0.75699088529E+03  0.46999998093E+01 0. -1.
</event>
<event>
 5   0  0.3915701E-04  0.1820829E+04  0.7818609E-02  0.8695301E-01
        1   -1    0    0  501    0  0.00000000000E+00  0.00000000000E+00  0.64480550390E+03  0.64480550392E+03  0.50400001928E-02 0. -1.
       -1   -1    0    0    0  501  0.00000000000E+00  0.00000000000E+00 -0.12854330230E+04  0.12854330230E+04  0.50400001928E-02 0.  1.
    10030    2    1    2    0    0  0.00000000000E+00  0.00000000000E+00 -0.64062751909E+03  0.19302385269E+04  0.18208286994E+04 0.  0.
        2    1    3    3  502    0  0.86623712436E+03  0.18185910566E+03 -0.94401091761E+02  0.89014103156E+03  0.25500000920E-02 0. -1.
       -2    1    3    3    0  502 -0.86623712436E+03 -0.18185910566E+03 -0.54622642733E+03  0.10400974954E+04  0.25500000920E-02 0.  1.
</event>
<event>
 5   0  0.7233728E-04  0.1675642E+04  0.7818609E-02  0.8775380E-01
        2   -1    0    0  501    0  0.00000000000E+00  0.00000000000E+00  0.67679968297E+03  0.67679968298E+03  0.25500000920E-02 0.  1.
       -2   -1    0    0    0  501  0.00000000000E+00  0.00000000000E+00 -0.10371514505E+04  0.10371514505E+04  0.25500000920E-02 0. -1.
    10030    2    1    2    0    0  0.00000000000E+00  0.00000000000E+00 -0.36035176755E+03  0.17139511335E+04  0.16756416955E+04 0.  0.
        1    1    3    3  502    0 -0.30506071171E+03  0.77452865194E+03 -0.27714358980E+03  0.87736266156E+03  0.50400001928E-02 0.  1.
       -1    1    3    3    0  502  0.30506071171E+03 -0.77452865194E+03 -0.83208177748E+02  0.83658847194E+03  0.50400001928E-02 0. -1.
</event>
<event>
 5   0  0.3803253E-04  0.1718901E+04  0.7818609E-02  0.8750657E-01
       -1   -1    0    0    0  501  0.00000000000E+00  0.00000000000E+00  0.50651854261E+03  0.50651854263E+03  0.50400001928E-02 0.  1.
        1   -1    0    0  501    0  0.00000000000E+00  0.00000000000E+00 -0.14582982873E+04  0.14582982874E+04  0.50400001928E-02 0. -1.
    10030    2    1    2    0    0  0.00000000000E+00  0.00000000000E+00 -0.95177974474E+03  0.19648168300E+04  0.17189009549E+04 0.  0.
        4    1    3    3  502    0 -0.22938101968E+03 -0.32960050070E+03 -0.13444704641E+04  0.14031587879E+04  0.12699999809E+01 0. -1.
       -4    1    3    3    0  502  0.22938101968E+03  0.32960050070E+03  0.39269071939E+03  0.56165804209E+03  0.12699999809E+01 0.  1.
</event>
<event>
 5   0  0.7233728E-04  0.1695214E+04  0.7818609E-02  0.8764099E-01
        2   -1    0    0  501    0  0.00000000000E+00  0.00000000000E+00  0.65320053832E+03  0.65320053833E+03  0.25500000920E-02 0.  1.
       -2   -1    0    0    0  501  0.00000000000E+00  0.00000000000E+00 -0.10998731302E+04  0.10998731302E+04  0.25500000920E-02 0. -1.
    10030    2    1    2    0    0  0.00000000000E+00  0.00000000000E+00 -0.44667259185E+03  0.17530736685E+04  0.16952141112E+04 0.  0.
        1    1    3    3  502    0 -0.24793085874E+03 -0.63683101213E+03  0.29518974443E+03  0.74441952820E+03  0.50400001928E-02 0.  1.
       -1    1    3    3    0  502  0.24793085874E+03  0.63683101213E+03 -0.74186233627E+03  0.10086541403E+04  0.50400001928E-02 0. -1.
</event>
<event>
 5   0  0.7233728E-04  0.1694921E+04  0.7818609E-02  0.8764266E-01
       -2   -1    0    0    0  501  0.00000000000E+00  0.00000000000E+00  0.28396808427E+03  0.28396808428E+03  0.25500000920E-02 0. -1.
        2   -1    0    0  501    0  0.00000000000E+00  0.00000000000E+00 -0.25291211232E+04  0.25291211232E+04  0.25500000920E-02 0.  1.
    10030    2    1    2    0    0  0.00000000000E+00  0.00000000000E+00 -0.22451530389E+04  0.28130892075E+04  0.16949214498E+04 0.  0.
        1    1    3    3  502    0 -0.17085043622E+03  0.80691036650E+03 -0.79948350186E+03  0.11486810179E+04  0.50400001928E-02 0. -1.
       -1    1    3    3    0  502  0.17085043622E+03 -0.80691036650E+03 -0.14456695371E+04  0.16644081896E+04  0.50400001928E-02 0.  1.
</event>
<event>
 5   0  0.3803253E-04  0.1744233E+04  0.7818609E-02  0.8736531E-01
       -1   -1    0    0    0  501  0.00000000000E+00  0.00000000000E+00  0.62557215837E+03  0.62557215839E+03  0.50400001928E-02 0.  1.
        1   -1    0    0  501    0  0.00000000000E+00  0.00000000000E+00 -0.12158261703E+04  0.12158261703E+04  0.50400001928E-02 0. -1.
    10030    2    1    2    0    0  0.00000000000E+00  0.00000000000E+00 -0.59025401190E+03  0.18413983287E+04  0.17442327844E+04 0.  0.
        4    1    3    3  502    0  0.22974784967E+03 -0.78066316486E+03  0.35978612072E+02  0.81456437733E+03  0.12699999809E+01 0.  1.
       -4    1    3    3    0  502 -0.22974784967E+03  0.78066316486E+03 -0.62623262397E+03  0.10268339513E+04  0.12699999809E+01 0. -1.
</event>
<event>
 5   0  0.3635143E-04  0.1702645E+04  0.7818609E-02  0.8759857E-01
        1   -1    0    0  501    0  0.00000000000E+00  0.00000000000E+00  0.21628232953E+04  0.21628232953E+04  0.50400001928E-02 0.  1.
       -1   -1    0    0    0  501  0.00000000000E+00  0.00000000000E+00 -0.33509425364E+03  0.33509425368E+03  0.50400001928E-02 0. -1.
    10030    2    1    2    0    0  0.00000000000E+00  0.00000000000E+00  0.18277290417E+04  0.24979175490E+04  0.17026445994E+04 0.  0.
        3    1    3    3  502    0 -0.75211748114E+03  0.30120184532E+03  0.53032344127E+03  0.96832134109E+03  0.10100000352E+00 0.  1.
       -3    1    3    3    0  502  0.75211748114E+03 -0.30120184532E+03  0.12974056004E+04  0.15295962079E+04  0.10100000352E+00 0. -1.
</event>
<event>
 5   0  0.7049044E-04  0.1598865E+04  0.7818609E-02  0.8821246E-01
        2   -1    0    0  501    0  0.00000000000E+00  0.00000000000E+00  0.12884194761E+04  0.12884194761E+04  0.25500000920E-02 0. -1.
       -2   -1    0    0    0  501  0.00000000000E+00  0.00000000000E+00 -0.49602805575E+03  0.49602805576E+03  0.25500000920E-02 0.  1.
    10030    2    1    2    0    0  0.00000000000E+00  0.00000000000E+00  0.79239142030E+03  0.17844475318E+04  0.15988648570E+04 0.  0.
        4    1    3    3  502    0 -0.60587502035E+02  0.52691500753E+03  0.10637709996E+04  0.11886633767E+04  0.12699999809E+01 0. -1.
       -4    1    3    3    0  502  0.60587502035E+02 -0.52691500753E+03 -0.27137957930E+03  0.59578415514E+03  0.12699999809E+01 0.  1.
</event>
<event>
 5   0  0.3803253E-04  0.1706927E+04  0.7818609E-02  0.8757423E-01
       -1   -1    0    0    0  501  0.00000000000E+00  0.00000000000E+00  0.46953225935E+03  0.46953225938E+03  0.50400001928E-02 0. -1.
        1   -1    0    0  501    0  0.00000000000E+00  0.00000000000E+00 -0.15513316252E+04  0.15513316252E+04  0.50400001928E-02 0.  1.
    10030    2    1    2    0    0  0.00000000000E+00  0.00000000000E+00 -0.10817993658E+04  0.20208638846E+04  0.17069273482E+04 0.  0.
        4    1    3    3  502    0  0.81479459122E+03  0.14325066952E+03 -0.29259357316E+03  0.87750988152E+03  0.12699999809E+01 0. -1.
       -4    1    3    3    0  502 -0.81479459122E+03 -0.14325066952E+03 -0.78920579266E+03  0.11433540030E+04  0.12699999809E+01 0.  1.
</event>
<event>
 5   0  0.3723500E-04  0.1690222E+04  0.7818609E-02  0.8766961E-01
       -1   -1    0    0    0  501  0.00000000000E+00  0.00000000000E+00  0.51147128223E+03  0.51147128226E+03  0.50400001928E-02 0.  1.
        1   -1    0    0  501    0  0.00000000000E+00  0.00000000000E+00 -0.13963889224E+04  0.13963889224E+04  0.50400001928E-02 0. -1.
    10030    2    1    2    0    0  0.00000000000E+00  0.00000000000E+00 -0.88491764015E+03  0.19078602046E+04  0.16902222726E+04 0.  0.
        1    1    3    3  502    0 -0.29607065198E+03 -0.65419629012E+03  0.60546878331E+02  0.72062232929E+03  0.50400001928E-02 0. -1.
       -1    1    3    3    0  502  0.29607065198E+03  0.65419629012E+03 -0.94546451848E+03  0.11872378754E+04  0.50400001928E-02 0.  1.
</event>
<event>
 5   0  0.3713516E-04  0.1398002E+04  0.7818609E-02  0.8955266E-01
       -1   -1    0    0    0  501  0.00000000000E+00  0.00000000000E+00  0.13227610872E+04  0.13227610872E+04  0.50400001928E-02 0.  1.
        1   -1    0    0  501    0  0.00000000000E+00  0.00000000000E+00 -0.36938049467E+03  0.36938049471E+03  0.50400001928E-02 0. -1.
    10030    2    1    2    0    0  0.00000000000E+00  0.00000000000E+00  0.95338059250E+03  0.16921415819E+04  0.13980016377E+04 0.  0.
        5    1    3    3  502    0 -0.54087424697E+03  0.42222747740E+03  0.31538856911E+03  0.75519072640E+03  0.46999998093E+01 0. -1.
       -5    1    3    3    0  502  0.54087424697E+03 -0.42222747740E+03  0.63799202340E+03  0.93695085550E+03  0.46999998093E+01 0.  1.
</event>
<event>
 5   0  0.7049044E-04  0.1685638E+04  0.7818609E-02  0.8769598E-01
       -2   -1    0    0    0  501  0.00000000000E+00  0.00000000000E+00  0.65366845041E+03  0.65366845042E+03  0.25500000920E-02 0. -1.
        2   -1    0    0  501    0  0.00000000000E+00  0.00000000000E+00 -0.10867035555E+04  0.10867035555E+04  0.25500000920E-02 0.  1.
    10030    2    1    2    0    0  0.00000000000E+00  0.00000000000E+00 -0.43303510504E+03  0.17403720059E+04  0.16856379554E+04 0.  0.
        4    1    3    3  502    0  0.53362451089E+02  0.43112004551E+02 -0.10838151797E+04  0.10859848769E+04  0.12699999809E+01 0.  1.
       -4    1    3    3    0  502 -0.53362451089E+02 -0.43112004551E+02  0.65078007467E+03  0.65438712900E+03  0.12699999809E+01 0. -1.
</event>
<event>
 5   0  0.7025426E-04  0.1704521E+04  0.7818609E-02  0.8758790E-01
       -2   -1    0    0    0  501  0.00000000000E+00  0.00000000000E+00  0.53476156468E+03  0.53476156469E+03  0.25500000920E-02 0.  1.
        2   -1    0    0  501    0  0.00000000000E+00  0.00000000000E+00 -0.13582650843E+04  0.13582650843E+04  0.25500000920E-02 0. -1.
    10030    2    1    2    0    0  0.00000000000E+00  0.00000000000E+00 -0.82350351959E+03  0.18930266490E+04  0.17045210022E+04 0.  0.
        2    1    3    3  502    0  0.15972292830E+03  0.40476046840E+03 -0.12256005878E+04  0.13005534404E+04  0.25500000920E-02 0. -1.
       -2    1    3    3    0  502 -0.15972292830E+03 -0.40476046840E+03  0.40209706818E+03  0.59247320855E+03  0.25500000920E-02 0.  1.
</event>
<event>
 5   0  0.3713516E-04  0.1688045E+04  0.7818609E-02  0.8768212E-01
        1   -1    0    0  501    0  0.00000000000E+00  0.00000000000E+00  0.12822716207E+04  0.12822716207E+04  0.50400001928E-02 0. -1.
       -1   -1    0    0    0  501  0.00000000000E+00  0.00000000000E+00 -0.55555638583E+03  0.55555638585E+03  0.50400001928E-02 0.  1.
    10030    2    1    2    0    0  0.00000000000E+00  0.00000000000E+00  0.72671523485E+03  0.18378280065E+04  0.16880452450E+04 0.  0.
        5    1    3    3  502    0  0.54198091990E+03 -0.10424731601E+03  0.10585629934E+04  0.11938125989E+04  0.46999998093E+01 0. -1.
       -5    1    3    3    0  502 -0.54198091990E+03  0.10424731601E+03 -0.33184775851E+03  0.64401540762E+03  0.46999998093E+01 0.  1.
</event>
<event>
 5   0  0.3723500E-04  0.1699770E+04  0.7818609E-02  0.8761496E-01
       -1   -1    0    0    0  501  0.00000000000E+00  0.00000000000E+00  0.74952151506E+03  0.74952151508E+03  0.50400001928E-02 0. -1.
        1   -1    0    0  501    0  0.00000000000E+00  0.00000000000E+00 -0.96368730903E+03  0.96368730904E+03  0.50400001928E-02 0.  1.
    10030    2    1    2    0    0  0.00000000000E+00  0.00000000000E+00 -0.21416579397E+03  0.17132088241E+04  0.16997698338E+04 0.  0.
        1    1    3    3  502    0  0.43902865267E+02  0.13940203915E+03 -0.95092626371E+03  0.96209206895E+03  0.50400001928E-02 0.  1.
       -1    1    3    3    0  502 -0.43902865267E+02 -0.13940203915E+03  0.73676046975E+03  0.75111675517E+03  0.50400001928E-02 0. -1.
</event>
<event>
 5   0  0.7242144E-04  0.1702820E+04  0.7818609E-02  0.8759758E-01
       -2   -1    0    0    0  501  0.00000000000E+00  0.00000000000E+00  0.49546389053E+03  0.49546389053E+03  0.25500000920E-02 0.  1.
        2   -1    0    0  501    0  0.00000000000E+00  0.00000000000E+00 -0.14630705214E+04  0.14630705214E+04  0.25500000920E-02 0. -1.
    10030    2    1    2    0    0  0.00000000000E+00  0.00000000000E+00 -0.96760663088E+03  0.19585344119E+04  0.17028195590E+04 0.  0.
        3    1    3    3  502    0 -0.77005568277E+03 -0.21437003401E+03 -0.82101807700E+03  0.11458669028E+04  0.10100000352E+00 0. -1.
       -3    1    3    3    0  502  0.77005568277E+03  0.21437003401E+03 -0.14658855389E+03  0.81266750912E+03  0.10100000352E+00 0.  1.
</event>
<event>
 5   0  0.7049044E-04  0.1704566E+04  0.7818609E-02  0.8758764E-01
       -2   -1    0    0    0  501  0.00000000000E+00  0.00000000000E+00  0.12275613745E+04  0.12275613745E+04  0.25500000920E-02 0. -1.
        2   -1    0    0  501    0  0.00000000000E+00  0.00000000000E+00 -0.59173137201E+03  0.59173137201E+03  0.25500000920E-02 0.  1.
    10030    2    1    2    0    0  0.00000000000E+00  0.00000000000E+00  0.63583000251E+03  0.18192927465E+04  0.17045663101E+04 0.  0.
        4    1    3    3  502    0 -0.23252786075E+02 -0.71794130249E+03  0.80748664902E+03  0.10807482163E+04  0.12699999809E+01 0. -1.
       -4    1    3    3    0  502  0.23252786075E+02  0.71794130249E+03 -0.17165664651E+03  0.73854453019E+03  0.12699999809E+01 0.  1.
</event>
<event>
 5   0  0.7049044E-04  0.1680328E+04  0.7818609E-02  0.8772664E-01
        2   -1    0    0  501    0  0.00000000000E+00  0.00000000000E+00  0.13592781918E+04  0.13592781918E+04  0.25500000920E-02 0. -1.
       -2   -1    0    0    0  501  0.00000000000E+00  0.00000000000E+00 -0.51930181949E+03  0.51930181950E+03  0.25500000920E-02 0.  1.
    10030    2    1    2    0    0  0.00000000000E+00  0.00000000000E+00  0.83997637231E+03  0.18785800113E+04  0.16803281087E+04 0.  0.
        4    1    3    3  502    0 -0.56086663915E+03 -0.28776671896E+03 -0.20096409821E+03  0.66164133269E+03  0.12699999809E+01 0.  1.
       -4    1    3    3    0  502  0.56086663915E+03  0.28776671896E+03  0.10409404705E+04  0.12169386786E+04  0.12699999809E+01 0. -1.
</event>
<event>
 5   0  0.3635143E-04  0.1314053E+04  0.7818609E-02  0.9018494E-01
        1   -1    0    0  501    0  0.00000000000E+00  0.00000000000E+00  0.84647907896E+03  0.84647907898E+03  0.50400001928E-02 0. -1.
       -1   -1    0    0    0  501  0.00000000000E+00  0.00000000000E+00 -0.50997600945E+03  0.50997600947E+03  0.50400001928E-02 0.  1.
    10030    2    1    2    0    0  0.00000000000E+00  0.00000000000E+00  0.33650306952E+03  0.13564550885E+04  0.13140533061E+04 0.  0.
        3    1    3    3  502    0  0.34288222275E+03  0.42197603277E+03  0.54900593906E+03  0.77268332597E+03  0.10100000352E+00 0. -1.
       -3    1    3    3    0  502 -0.34288222275E+03 -0.42197603277E+03 -0.21250286954E+03  0.58377176248E+03  0.10100000352E+00 0.  1.
</event>
<event>
 5   0  0.3635143E-04  0.1657463E+04  0.7818609E-02  0.8786004E-01
        1   -1    0    0  501    0  0.00000000000E+00  0.00000000000E+00  0.95542489696E+03  0.95542489697E+03  0.50400001928E-02 0. -1.
       -1   -1    0    0    0  501  0.00000000000E+00  0.00000000000E+00 -0.71883782804E+03  0.71883782805E+03  0.50400001928E-02 0.  1.
    10030    2    1    2    0    0  0.00000000000E+00  0.00000000000E+00  0.23658706892E+03  0.16742627250E+04  0.16574625882E+04 0.  0.
        3    1    3    3  502    0 -0.50894862089E+02  0.71059806101E+02  0.95075582501E+03  0.95476511877E+03  0.10100000352E+00 0. -1.
       -3    1    3    3    0  502  0.50894862089E+02 -0.71059806101E+02 -0.71416875609E+03  0.71949760625E+03  0.10100000352E+00 0.  1.
</event>
<event>
 5   0  0.3723500E-04  0.1655467E+04  0.7818609E-02  0.8787179E-01
        1   -1    0    0  501    0  0.00000000000E+00  0.00000000000E+00  0.71510723546E+03  0.71510723548E+03  0.50400001928E-02 0.  1.
       -1   -1    0    0    0  501  0.00000000000E+00  0.00000000000E+00 -0.95809756297E+03  0.95809756298E+03  0.50400001928E-02 0. -1.
    10030    2    1    2    0    0  0.00000000000E+00  0.00000000000E+00 -0.24299032751E+03  0.16732047985E+04  0.16554667011E+04 0.  0.
        1    1    3    3  502    0  0.44199843121E+03 -0.50195482162E+02  0.58402457040E+03  0.73414364975E+03  0.50400001928E-02 0.  1.
       -1    1    3    3    0  502 -0.44199843121E+03  0.50195482162E+02 -0.82701489791E+03  0.93906114871E+03  0.50400001928E-02 0. -1.
</event>
<event>
 5   0  0.2639750E-04  0.1733093E+04  0.7818609E-02  0.8742712E-01
       -4   -1    0    0    0  501  0.00000000000E+00  0.00000000000E+00  0.88006449231E+03  0.88006540867E+03  0.12699999809E+01 0.  1.
        4   -1    0    0  501    0  0.00000000000E+00  0.00000000000E+00 -0.85323415332E+03  0.85323509849E+03  0.12699999809E+01 0. -1.
    10030    2    1    2    0    0  0.00000000000E+00  0.00000000000E+00  0.26830338995E+02  0.17333005072E+04  0.17330928368E+04 0.  0.
        5    1    3    3  502    0 -0.31858363520E+03 -0.36008925622E+03 -0.70758785424E+03  0.85548960632E+03  0.46999998093E+01 0. -1.
       -5    1    3    3    0  502  0.31858363520E+03  0.36008925622E+03  0.73441819324E+03  0.87781090083E+03  0.46999998093E+01 0.  1.
</event>
<event>
 5   0  0.7242144E-04  0.1698118E+04  0.7818609E-02  0.8762438E-01
       -2   -1    0    0    0  501  0.00000000000E+00  0.00000000000E+00  0.14820452967E+04  0.14820452967E+04  0.25500000920E-02 0. -1.
        2   -1    0    0  501    0  0.00000000000E+00  0.00000000000E+00 -0.48642341383E+03  0.48642341384E+03  0.25500000920E-02 0.  1.
    10030    2    1    2    0    0  0.00000000000E+00  0.00000000000E+00  0.99562188285E+03  0.19684687105E+04  0.16981184089E+04 0.  0.
        3    1    3    3  502    0  0.28805664279E+03  0.79488698756E+03  0.58819606961E+03  0.10299497944E+04  0.10100000352E+00 0. -1.
       -3    1    3    3    0  502 -0.28805664279E+03 -0.79488698756E+03  0.40742581324E+03  0.93851891614E+03  0.10100000352E+00 0.  1.
</event>
<event>
 5   0  0.7242144E-04  0.1662398E+04  0.7818609E-02  0.8783105E-01
        2   -1    0    0  501    0  0.00000000000E+00  0.00000000000E+00  0.14339138992E+04  0.14339138992E+04  0.25500000920E-02 0. -1.
       -2   -1    0    0    0  501  0.00000000000E+00  0.00000000000E+00 -0.48182261554E+03  0.48182261554E+03  0.25500000920E-02 0.  1.
    10030    2    1    2    0    0  0.00000000000E+00  0.00000000000E+00  0.95209128362E+03  0.19157365147E+04  0.16623984424E+04 0.  0.
        3    1    3    3  502    0  0.52087939603E+03 -0.53006977123E+03  0.90507469106E+03  0.11710890291E+04  0.10100000352E+00 0. -1.
       -3    1    3    3    0  502 -0.52087939603E+03  0.53006977123E+03  0.47016592558E+02  0.74464748556E+03  0.10100000352E+00 0.  1.
</event>
<event>
 5   0  0.3635143E-04  0.1767926E+04  0.7818609E-02  0.8723545E-01
       -1   -1    0    0    0  501  0.00000000000E+00  0.00000000000E+00  0.49895241382E+03  0.49895241384E+03  0.50400001928E-02 0.  1.
        1   -1    0    0  501    0  0.00000000000E+00  0.00000000000E+00 -0.15660620920E+04  0.15660620920E+04  0.50400001928E-02 0. -1.
    10030    2    1    2    0    0  0.00000000000E+00  0.00000000000E+00 -0.10671096782E+04  0.20650145058E+04  0.17679258593E+04 0.  0.
        3    1    3    3  502    0 -0.31229932143E+02  0.80030179829E+03 -0.97049085958E+03  0.12582967836E+04  0.10100000352E+00 0. -1.
       -3    1    3    3    0  502  0.31229932143E+02 -0.80030179829E+03 -0.96618818595E+02  0.80671772220E+03  0.10100000352E+00 0.  1.
</event>
<event>
 5   0  0.7025426E-04  0.1719759E+04  0.7818609E-02  0.8750175E-01
        2   -1    0    0  501    0  0.00000000000E+00  0.00000000000E+00  0.12513471067E+04  0.12513471067E+04  0.25500000920E-02 0. -1.
       -2   -1    0    0    0  501  0.00000000000E+00  0.00000000000E+00 -0.59087731778E+03  0.59087731778E+03  0.25500000920E-02 0.  1.
    10030    2    1    2    0    0  0.00000000000E+00  0.00000000000E+00  0.66046978891E+03  0.18422244245E+04  0.17197588459E+04 0.  0.
        2    1    3    3  502    0 -0.46623851514E+03 -0.11076542035E+03 -0.43457164911E+03  0.64691564331E+03  0.25500000920E-02 0.  1.
       -2    1    3    3    0  502  0.46623851514E+03  0.11076542035E+03  0.10950414380E+04  0.11953087812E+04  0.25500000920E-02 0. -1.
</event>
<event>
 5   0  0.7233728E-04  0.1405383E+04  0.7818609E-02  0.8949931E-01
       -2   -1    0    0    0  501  0.00000000000E+00  0.00000000000E+00  0.37873772632E+03  0.37873772632E+03  0.25500000920E-02 0. -1.
        2   -1    0    0  501    0  0.00000000000E+00  0.00000000000E+00 -0.13037397321E+04  0.13037397321E+04  0.25500000920E-02 0.  1.
    10030    2    1    2    0    0  0.00000000000E+00  0.00000000000E+00 -0.92500200580E+03  0.16824774584E+04  0.14053831106E+04 0.  0.
        1    1    3    3  502    0 -0.46814701153E+03  0.27767506193E+03 -0.99454734508E+03  0.11337501868E+04  0.50400001928E-02 0.  1.
       -1    1    3    3    0  502  0.46814701153E+03 -0.27767506193E+03  0.69545339275E+02  0.54872727166E+03  0.50400001928E-02 0. -1.
</event>
<event>
 5   0  0.7049044E-04  0.1210654E+04  0.7818609E-02  0.9103582E-01
        2   -1    0    0  501    0  0.00000000000E+00  0.00000000000E+00  0.55700999307E+03  0.55700999307E+03  0.25500000920E-02 0.  1.
       -2   -1    0    0    0  501  0.00000000000E+00  0.00000000000E+00 -0.65783537434E+03  0.65783537435E+03  0.25500000920E-02 0. -1.
    10030    2    1    2    0    0  0.00000000000E+00  0.00000000000E+00 -0.10082538128E+03  0.12148453674E+04  0.12106541658E+04 0.  0.
        4    1    3    3  502    0 -0.83083879187E+02  0.31276233471E+03 -0.56374605151E+03  0.65002648599E+03  0.12699999809E+01 0. -1.
       -4    1    3    3    0  502  0.83083879187E+02 -0.31276233471E+03  0.46292067023E+03  0.56481888143E+03  0.12699999809E+01 0.  1.
</event>
<event>
 5   0  0.3713516E-04  0.1644235E+04  0.7818609E-02  0.8793824E-01
       -1   -1    0    0    0  501  0.00000000000E+00  0.00000000000E+00  0.63039018295E+03  0.63039018297E+03  0.50400001928E-02 0.  1.
        1   -1    0    0  501    0  0.00000000000E+00  0.00000000000E+00 -0.10721566488E+04  0.10721566488E+04  0.50400001928E-02 0. -1.
    10030    2    1    2    0    0  0.00000000000E+00  0.00000000000E+00 -0.44176646580E+03  0.17025468317E+04  0.16442348080E+04 0.  0.
        5    1    3    3  502    0  0.16298356454E+03 -0.56814296082E+03 -0.81255392921E+03  0.10047965188E+04  0.46999998093E+01 0. -1.
       -5    1    3    3    0  502 -0.16298356454E+03  0.56814296082E+03  0.37078746341E+03  0.69775031298E+03  0.46999998093E+01 0.  1.
</event>
<event>
 5   0  0.7233728E-04  0.1690989E+04  0.7818609E-02  0.8766520E-01
        2   -1    0    0  501    0  0.00000000000E+00  0.00000000000E+00  0.18059890928E+04  0.18059890928E+04  0.25500000920E-02 0. -1.
       -2   -1    0    0    0  501  0.00000000000E+00  0.00000000000E+00 -0.39582798888E+03  0.39582798889E+03  0.25500000920E-02 0.  1.
    10030    2    1    2    0    0  0.00000000000E+00  0.00000000000E+00  0.14101611040E+04  0.22018170817E+04  0.16909890958E+04 0.  0.
        1    1    3    3  502    0 -0.57312683834E+03 -0.14608972274E+03  0.14917880781E+04  0.16047580035E+04  0.50400001928E-02 0. -1.
       -1    1    3    3    0  502  0.57312683834E+03  0.14608972274E+03 -0.81626974141E+02  0.59705907819E+03  0.50400001928E-02 0.  1.
</event>
<event>
 5   0  0.7242144E-04  0.1700949E+04  0.7818609E-02  0.8760823E-01
        2   -1    0    0  501    0  0.00000000000E+00  0.00000000000E+00  0.15481483776E+04  0.15481483776E+04  0.25500000920E-02 0.  1.
       -2   -1    0    0    0  501  0.00000000000E+00  0.00000000000E+00 -0.46720763960E+03  0.46720763961E+03  0.25500000920E-02 0. -1.
    10030    2    1    2    0    0  0.00000000000E+00  0.00000000000E+00  0.10809407380E+04  0.20153560172E+04  0.17009488520E+04 0.  0.
        3    1    3    3  502    0  0.70030672527E+03  0.16958455108E+03  0.51651180636E+01  0.72056583187E+03  0.10100000352E+00 0. -1.
       -3    1    3    3    0  502 -0.70030672527E+03 -0.16958455108E+03  0.10757756200E+04  0.12947901854E+04  0.10100000352E+00 0.  1.
</event>
<event>
 5   0  0.3803253E-04  0.1722527E+04  0.7818609E-02  0.8748620E-01
       -1   -1    0    0    0  501  0.00000000000E+00  0.00000000000E+00  0.43560848808E+03  0.43560848811E+03  0.50400001928E-02 0.  1.
        1   -1    0    0  501    0  0.00000000000E+00  0.00000000000E+00 -0.17028475235E+04  0.17028475235E+04  0.50400001928E-02 0. -1.
    10030    2    1    2    0    0  0.00000000000E+00  0.00000000000E+00 -0.12672390354E+04  0.21384560116E+04  0.17225270218E+04 0.  0.
        4    1    3    3  502    0 -0.62340317956E+03  0.19287143571E+03 -0.13314310948E+04  0.14827478842E+04  0.12699999809E+01 0. -1.
       -4    1    3    3    0  502  0.62340317956E+03 -0.19287143571E+03  0.64192059359E+02  0.65570812743E+03  0.12699999809E+01 0.  1.
</event>
<event>
 5   0  0.6746664E-04  0.1683306E+04  0.7818609E-02  0.8770943E-01
        2   -1    0    0  501    0  0.00000000000E+00  0.00000000000E+00  0.84041323686E+03  0.84041323686E+03  0.25500000920E-02 0. -1.
       -2   -1    0    0    0  501  0.00000000000E+00  0.00000000000E+00 -0.84289430130E+03  0.84289430130E+03  0.25500000920E-02 0.  1.
    10030    2    1    2    0    0  0.00000000000E+00  0.00000000000E+00 -0.24810644398E+01  0.16833075382E+04  0.16833057097E+04 0.  0.
        5    1    3    3  502    0 -0.76235315067E+03 -0.35552686360E+03  0.26611984925E+02  0.84161271664E+03  0.46999998093E+01 0.  1.
       -5    1    3    3    0  502  0.76235315067E+03  0.35552686360E+03 -0.29093049365E+02  0.84169482153E+03  0.46999998093E+01 0. -1.
</event>
<event>
 5   0  0.7025426E-04  0.1746712E+04  0.7818609E-02  0.8735162E-01
       -2   -1    0    0    0  501  0.00000000000E+00  0.00000000000E+00  0.34515659689E+03  0.34515659690E+03  0.25500000920E-02 0.  1.
        2   -1    0    0  501    0  0.00000000000E+00  0.00000000000E+00 -0.22098685453E+04  0.22098685453E+04  0.25500000920E-02 0. -1.
    10030    2    1    2    0    0  0.00000000000E+00  0.00000000000E+00 -0.18647119484E+04  0.25550251422E+04  0.17467120045E+04 0.  0.
        2    1    3    3  502    0 -0.28670241796E+03  0.93757121629E+02 -0.21312522196E+04  0.21524926708E+04  0.25500000920E-02 0. -1.
       -2    1    3    3    0  502  0.28670241796E+03 -0.93757121629E+02  0.26654027122E+03  0.40253247137E+03  0.25500000920E-02 0.  1.
</event>
<event>
 5   0  0.7025426E-04  0.1659397E+04  0.7818609E-02  0.8784867E-01
        2   -1    0    0  501    0  0.00000000000E+00  0.00000000000E+00  0.15013648767E+04  0.15013648767E+04  0.25500000920E-02 0. -1.
       -2   -1    0    0    0  501  0.00000000000E+00  0.00000000000E+00 -0.45851561327E+03  0.45851561327E+03  0.25500000920E-02 0.  1.
    10030    2    1    2    0    0  0.00000000000E+00  0.00000000000E+00  0.10428492634E+04  0.19598804900E+04  0.16593965616E+04 0.  0.
        2    1    3    3  502    0  0.18837958453E+03  0.59793737870E+03 -0.12048271130E+03  0.63838237792E+03  0.25500000920E-02 0.  1.
       -2    1    3    3    0  502 -0.18837958453E+03 -0.59793737870E+03  0.11633319747E+04  0.13214981120E+04  0.25500000920E-02 0. -1.
</event>
<event>
 5   0  0.3635143E-04  0.1925782E+04  0.7818609E-02  0.8642129E-01
       -1   -1    0    0    0  501  0.00000000000E+00  0.00000000000E+00  0.88158528179E+03  0.88158528180E+03  0.50400001928E-02 0.  1.
        1   -1    0    0  501    0  0.00000000000E+00  0.00000000000E+00 -0.10516948743E+04  0.10516948743E+04  0.50400001928E-02 0. -1.
    10030    2    1    2    0    0  0.00000000000E+00  0.00000000000E+00 -0.17010959248E+03  0.19332801561E+04  0.19257816305E+04 0.  0.
        3    1    3    3  502    0 -0.71915546684E+03  0.54940657078E+03 -0.41516117717E+03  0.99568618486E+03  0.10100000352E+00 0. -1.
       -3    1    3    3    0  502  0.71915546684E+03 -0.54940657078E+03  0.24505158469E+03  0.93759397121E+03  0.10100000352E+00 0.  1.
</event>
<event>
 5   0  0.3915701E-04  0.1704995E+04  0.7818609E-02  0.8758521E-01
        1   -1    0    0  501    0  0.00000000000E+00  0.00000000000E+00  0.69911483126E+03  0.69911483128E+03  0.50400001928E-02 0. -1.
       -1   -1    0    0    0  501  0.00000000000E+00  0.00000000000E+00 -0.10395313871E+04  0.10395313871E+04  0.50400001928E-02 0.  1.
    10030    2    1    2    0    0  0.00000000000E+00  0.00000000000E+00 -0.34041655585E+03  0.17386462184E+04  0.17049947922E+04 0.  0.
        2    1    3    3  502    0  0.49305780123E+01 -0.39219196976E+03 -0.94205752753E+03  0.10204465870E+04  0.25500000920E-02 0.  1.
       -2    1    3    3    0  502 -0.49305780123E+01  0.39219196976E+03  0.60164097168E+03  0.71819963141E+03  0.25500000920E-02 0. -1.
</event>
<event>
 5   0  0.7233728E-04  0.1705196E+04  0.7818609E-02  0.8758406E-01
       -2   -1    0    0    0  501  0.00000000000E+00  0.00000000000E+00  0.43626198865E+03  0.43626198866E+03  0.25500000920E-02 0.  1.
        2   -1    0    0  501    0  0.00000000000E+00  0.00000000000E+00 -0.16662543312E+04  0.16662543312E+04  0.25500000920E-02 0. -1.
    10030    2    1    2    0    0  0.00000000000E+00  0.00000000000E+00 -0.12299923426E+04  0.21025163199E+04  0.17051960921E+04 0.  0.
        1    1    3    3  502    0 -0.26099581458E+03 -0.47625010752E+03 -0.14254011842E+04  0.15253529153E+04  0.50400001928E-02 0. -1.
       -1    1    3    3    0  502  0.26099581458E+03  0.47625010752E+03  0.19540884168E+03  0.57716340457E+03  0.50400001928E-02 0.  1.
</event>
<event>
 5   0  0.2639750E-04  0.1804797E+04  0.7818609E-02  0.8703752E-01
        4   -1    0    0  501    0  0.00000000000E+00  0.00000000000E+00  0.78434525697E+03  0.78434628515E+03  0.12699999809E+01 0. -1.
       -4   -1    0    0    0  501  0.00000000000E+00  0.00000000000E+00 -0.10382186269E+04  0.10382194037E+04  0.12699999809E+01 0.  1.
    10030    2    1    2    0    0  0.00000000000E+00  0.00000000000E+00 -0.25387336993E+03  0.18225656888E+04  0.18047974961E+04 0.  0.
        1    1    3    3  502    0 -0.40999667929E+03  0.81155257504E+02 -0.93458545082E+03  0.10237838726E+04  0.50400001928E-02 0.  1.
       -1    1    3    3    0  502  0.40999667929E+03 -0.81155257504E+02  0.68071208089E+03  0.79878181623E+03  0.50400001928E-02 0. -1.
</event>
<event>
 5   0  0.3713516E-04  0.1773825E+04  0.7818609E-02  0.8720344E-01
        1   -1    0    0  501    0  0.00000000000E+00  0.00000000000E+00  0.76200036964E+03  0.76200036965E+03  0.50400001928E-02 0. -1.
       -1   -1    0    0    0  501  0.00000000000E+00  0.00000000000E+00 -0.10323011225E+04  0.10323011225E+04  0.50400001928E-02 0.  1.
    10030    2    1    2    0    0  0.00000000000E+00  0.00000000000E+00 -0.27030075284E+03  0.17943014921E+04  0.17738250612E+04 0.  0.
        5    1    3    3  502    0  0.86620003424E+03  0.15849616643E+03 -0.28250679728E+02  0.88104694823E+03  0.46999998093E+01 0. -1.
       -5    1    3    3    0  502 -0.86620003424E+03 -0.15849616643E+03 -0.24205007311E+03  0.91325454391E+03  0.46999998093E+01 0.  1.
</event>
<event>
 5   0  0.6746664E-04  0.1726219E+04  0.7818609E-02  0.8746550E-01
        2   -1    0    0  501    0  0.00000000000E+00  0.00000000000E+00  0.88549821568E+03  0.88549821568E+03  0.25500000920E-02 0.  1.
       -2   -1    0    0    0  501  0.00000000000E+00  0.00000000000E+00 -0.84128702585E+03  0.84128702585E+03  0.25500000920E-02 0. -1.
    10030    2    1    2    0    0  0.00000000000E+00  0.00000000000E+00  0.44211189830E+02  0.17267852415E+04  0.17262191753E+04 0.  0.
        5    1    3    3  502    0  0.69806599502E+03 -0.91443121719E+02  0.52154688976E+03  0.87617990512E+03  0.46999998093E+01 0.  1.
       -5    1    3    3    0  502 -0.69806599502E+03  0.91443121719E+02 -0.47733569993E+03  0.85060533642E+03  0.46999998093E+01 0. -1.
</event>
<event>
 5   0  0.2639750E-04  0.1706083E+04  0.7818609E-02  0.8757902E-01
        4   -1    0    0  501    0  0.00000000000E+00  0.00000000000E+00  0.59693939412E+03  0.59694074509E+03  0.12699999809E+01 0. -1.
       -4   -1    0    0    0  501  0.00000000000E+00  0.00000000000E+00 -0.12190153624E+04  0.12190160239E+04  0.12699999809E+01 0.  1.
    10030    2    1    2    0    0  0.00000000000E+00  0.00000000000E+00 -0.62207596824E+03  0.18159567690E+04  0.17060833733E+04 0.  0.
        5    1    3    3  502    0 -0.38976158311E+03 -0.54954572734E+03  0.24586187500E+03  0.71720621141E+03  0.46999998093E+01 0. -1.
       -5    1    3    3    0  502  0.38976158311E+03  0.54954572734E+03 -0.86793784323E+03  0.10987505576E+04  0.46999998093E+01 0.  1.
</event>
<event>
 5   0  0.3635143E-04  0.1660758E+04  0.7818609E-02  0.8784067E-01
        1   -1    0    0  501    0  0.00000000000E+00  0.00000000000E+00  0.90551763572E+03  0.90551763574E+03  0.50400001928E-02 0. -1.
       -1   -1    0    0    0  501  0.00000000000E+00  0.00000000000E+00 -0.76147555372E+03  0.76147555373E+03  0.50400001928E-02 0.  1.
    10030    2    1    2    0    0  0.00000000000E+00  0.00000000000E+00  0.14404208201E+03  0.16669931895E+04  0.16607583124E+04 0.  0.
        3    1    3    3  502    0 -0.42494305089E+03  0.62821122230E+03 -0.26733637048E+03  0.80417329072E+03  0.10100000352E+00 0.  1.
       -3    1    3    3    0  502  0.42494305089E+03 -0.62821122230E+03  0.41137845249E+03  0.86281989876E+03  0.10100000352E+00 0. -1.
</event>
<event>
 5   0  0.3713516E-04  0.1695261E+04  0.7818609E-02  0.8764072E-01
       -1   -1    0    0    0  501  0.00000000000E+00  0.00000000000E+00  0.44361952353E+03  0.44361952356E+03  0.50400001928E-02 0.  1.
        1   -1    0    0  501    0  0.00000000000E+00  0.00000000000E+00 -0.16195803821E+04  0.16195803822E+04  0.50400001928E-02 0. -1.
    10030    2    1    2    0    0  0.00000000000E+00  0.00000000000E+00 -0.11759608586E+04  0.20631999057E+04  0.16952610153E+04 0.  0.
        5    1    3    3  502    0  0.59493598254E+03 -0.59215239284E+03 -0.73127158003E+03  0.11132715273E+04  0.46999998093E+01 0.  1.
       -5    1    3    3    0  502 -0.59493598254E+03  0.59215239284E+03 -0.44468927858E+03  0.94992837844E+03  0.46999998093E+01 0. -1.
</event>
<event>
 5   0  0.7025426E-04  0.1527324E+04  0.7818609E-02  0.8866483E-01
        2   -1    0    0  501    0  0.00000000000E+00  0.00000000000E+00  0.99565827664E+03  0.99565827665E+03  0.25500000920E-02 0.  1.
       -2   -1    0    0    0  501  0.00000000000E+00  0.00000000000E+00 -0.58572299248E+03  0.58572299249E+03  0.25500000920E-02 0. -1.
    10030    2    1    2    0    0  0.00000000000E+00  0.00000000000E+00  0.40993528416E+03  0.15813812691E+04  0.15273243864E+04 0.  0.
        2    1    3    3  502    0 -0.18329318272E+03  0.19077578955E+03 -0.53675854999E+03  0.59841585349E+03  0.25500000920E-02 0. -1.
       -2    1    3    3    0  502  0.18329318272E+03 -0.19077578955E+03  0.94669383416E+03  0.98296541564E+03  0.25500000920E-02 0.  1.
</event>
<event>
 5   0  0.7233728E-04  0.1721259E+04  0.7818609E-02  0.8749332E-01
        2   -1    0    0  501    0  0.00000000000E+00  0.00000000000E+00  0.10255452572E+04  0.10255452572E+04  0.25500000920E-02 0. -1.
       -2   -1    0    0    0  501  0.00000000000E+00  0.00000000000E+00 -0.72223362434E+03  0.72223362435E+03  0.25500000920E-02 0.  1.
    10030    2    1    2    0    0  0.00000000000E+00  0.00000000000E+00  0.30331163285E+03  0.17477788815E+04  0.17212591531E+04 0.  0.
        1    1    3    3  502    0  0.37923035745E+03  0.71994092570E+03 -0.13293487674E+03  0.82450123226E+03  0.50400001928E-02 0. -1.
       -1    1    3    3    0  502 -0.37923035745E+03 -0.71994092570E+03  0.43624650959E+03  0.92327764928E+03  0.50400001928E-02 0.  1.
</event>
<event>
 5   0  0.3635143E-04  0.1741587E+04  0.7818609E-02  0.8737995E-01
       -1   -1    0    0    0  501  0.00000000000E+00  0.00000000000E+00  0.42175158246E+03  0.42175158249E+03  0.50400001928E-02 0. -1.
        1   -1    0    0  501    0  0.00000000000E+00  0.00000000000E+00 -0.17979339800E+04  0.17979339800E+04  0.50400001928E-02 0.  1.
    10030    2    1    2    0    0  0.00000000000E+00  0.00000000000E+00 -0.13761823975E+04  0.22196855625E+04  0.17415872086E+04 0.  0.
        3    1    3    3  502    0  0.66483636395E+03 -0.56214911705E+03 -0.66744279844E+03  0.10970409838E+04  0.10100000352E+00 0.  1.
       -3    1    3    3    0  502 -0.66483636395E+03  0.56214911705E+03 -0.70873959907E+03  0.11226445787E+04  0.10100000352E+00 0. -1.
</event>
<event>
 5   0  0.7233728E-04  0.1194826E+04  0.7818609E-02  0.9117398E-01
        2   -1    0    0  501    0  0.00000000000E+00  0.00000000000E+00  0.19940044828E+04  0.19940044828E+04  0.25500000920E-02 0.  1.
       -2   -1    0    0    0  501  0.00000000000E+00  0.00000000000E+00 -0.17898764852E+03  0.17898764854E+03  0.25500000920E-02 0. -1.
    10030    2    1    2    0    0  0.00000000000E+00  0.00000000000E+00  0.18150168342E+04  0.21729921313E+04  0.11948258007E+04 0.  0.
        1    1    3    3  502    0  0.44331376785E+02  0.55620085725E+03  0.51924287085E+03  0.76219277321E+03  0.50400001928E-02 0. -1.
       -1    1    3    3    0  502 -0.44331376785E+02 -0.55620085725E+03  0.12957739634E+04  0.14107993581E+04  0.50400001928E-02 0.  1.
</event>
<event>
 5   0  0.7233728E-04  0.1681673E+04  0.7818609E-02  0.8771886E-01
       -2   -1    0    0    0  501  0.00000000000E+00  0.00000000000E+00  0.79884323741E+03  0.79884323741E+03  0.25500000920E-02 0.  1.
        2   -1    0    0  501    0  0.00000000000E+00  0.00000000000E+00 -0.88503770095E+03  0.88503770096E+03  0.25500000920E-02 0. -1.
    10030    2    1    2    0    0  0.00000000000E+00  0.00000000000E+00 -0.86194463545E+02  0.16838809384E+04  0.16816734312E+04 0.  0.
        1    1    3    3  502    0  0.23453615510E+03  0.16178937475E+03 -0.83522567369E+03  0.88248792391E+03  0.50400001928E-02 0. -1.
       -1    1    3    3    0  502 -0.23453615510E+03 -0.16178937475E+03  0.74903121014E+03  0.80139301446E+03  0.50400001928E-02 0.  1.
</event>
<event>
 5   0  0.6746664E-04  0.1748573E+04  0.7818609E-02  0.8734136E-01
       -2   -1    0    0    0  501  0.00000000000E+00  0.00000000000E+00  0.54224722811E+03  0.54224722812E+03  0.25500000920E-02 0. -1.
        2   -1    0    0  501    0  0.00000000000E+00  0.00000000000E+00 -0.14096457886E+04  0.14096457886E+04  0.25500000920E-02 0.  1.
    10030    2    1    2    0    0  0.00000000000E+00  0.00000000000E+00 -0.86739856052E+03  0.19518930168E+04  0.17485725853E+04 0.  0.
        5    1    3    3  502    0 -0.75475316839E+03 -0.13067610378E+03  0.36763661988E+02  0.76687824727E+03  0.46999998093E+01 0. -1.
       -5    1    3    3    0  502  0.75475316839E+03  0.13067610378E+03 -0.90416222251E+03  0.11850147695E+04  0.46999998093E+01 0.  1.
</event>
<event>
 5   0  0.7242144E-04  0.1690471E+04  0.7818609E-02  0.8766818E-01
       -2   -1    0    0    0  501  0.00000000000E+00  0.00000000000E+00  0.51288796938E+03  0.51288796938E+03  0.25500000920E-02 0. -1.
        2   -1    0    0  501    0  0.00000000000E+00  0.00000000000E+00 -0.13929420035E+04  0.13929420035E+04  0.25500000920E-02 0.  1.
    10030    2    1    2    0    0  0.00000000000E+00  0.00000000000E+00 -0.88005403416E+03  0.19058299729E+04  0.16904711718E+04 0.  0.
        3    1    3    3  502    0  0.68341316316E+03  0.49710628380E+03 -0.45802925311E+03  0.96122786886E+03  0.10100000352E+00 0. -1.
       -3    1    3    3    0  502 -0.68341316316E+03 -0.49710628380E+03 -0.42202478104E+03  0.94460210406E+03  0.10100000352E+00 0.  1.
</event>
<event>
 5   0  0.3723500E-04  0.1650920E+04  0.7818609E-02  0.8789863E-01
       -1   -1    0    0    0  501  0.00000000000E+00  0.00000000000E+00  0.63035131160E+03  0.63035131162E+03  0.50400001928E-02 0. -1.
        1   -1    0    0  501    0  0.00000000000E+00  0.00000000000E+00 -0.10809591862E+04  0.10809591862E+04  0.50400001928E-02 0.  1.
    10030    2    1    2    0    0  0.00000000000E+00  0.00000000000E+00 -0.45060787462E+03  0.17113104978E+04  0.16509197931E+04 0.  0.
        1    1    3    3  502    0 -0.18764282205E+03  0.96004845669E+02 -0.10525943541E+04  0.10734903974E+04  0.50400001928E-02 0.  1.
       -1    1    3    3    0  502  0.18764282205E+03 -0.96004845669E+02  0.60198647946E+03  0.63782010044E+03  0.50400001928E-02 0. -1.
</event>
<event>
 5   0  0.3723500E-04  0.1678893E+04  0.7818609E-02  0.8773495E-01
        1   -1    0    0  501    0  0.00000000000E+00  0.00000000000E+00  0.11402358100E+04  0.11402358100E+04  0.50400001928E-02 0. -1.
       -1   -1    0    0    0  501  0.00000000000E+00  0.00000000000E+00 -0.61800414844E+03  0.61800414846E+03  0.50400001928E-02 0.  1.
    10030    2    1    2    0    0  0.00000000000E+00  0.00000000000E+00  0.52223166154E+03  0.17582399585E+04  0.16788930410E+04 0.  0.
        1    1    3    3  502    0  0.43259613594E+03  0.67364990233E+03 -0.32567150430E+01  0.80059616159E+03  0.50400001928E-02 0.  1.
       -1    1    3    3    0  502 -0.43259613594E+03 -0.67364990233E+03  0.52548837658E+03  0.95764379687E+03  0.50400001928E-02 0. -1.
</event>
<event>
 5   0  0.3723500E-04  0.1673832E+04  0.7818609E-02  0.8776431E-01
       -1   -1    0    0    0  501  0.00000000000E+00  0.00000000000E+00  0.68411547096E+03  0.68411547098E+03  0.50400001928E-02 0.  1.
        1   -1    0    0  501    0  0.00000000000E+00  0.00000000000E+00 -0.10238449062E+04  0.10238449062E+04  0.50400001928E-02 0. -1.
    10030    2    1    2    0    0  0.00000000000E+00  0.00000000000E+00 -0.33972943525E+03  0.17079603772E+04  0.16738317003E+04 0.  0.
        1    1    3    3  502    0  0.19622259822E+03  0.12435884314E+03  0.65055621822E+03  0.69079072302E+03  0.50400001928E-02 0.  1.
       -1    1    3    3    0  502 -0.19622259822E+03 -0.12435884314E+03 -0.99028565347E+03  0.10171696542E+04  0.50400001928E-02 0. -1.
</event>
<event>
 5   0  0.6746664E-04  0.1551691E+04  0.7818609E-02  0.8850789E-01
       -2   -1    0    0    0  501  0.00000000000E+00  0.00000000000E+00  0.25384426081E+03  0.25384426082E+03  0.25500000920E-02 0.  1.
        2   -1    0    0  501    0  0.00000000000E+00  0.00000000000E+00 -0.23712805386E+04  0.23712805386E+04  0.25500000920E-02 0. -1.
    10030    2    1    2    0    0  0.00000000000E+00  0.00000000000E+00 -0.21174362778E+04  0.26251247994E+04  0.15516906335E+04 0.  0.
        5    1    3    3  502    0 -0.61091571783E+03 -0.47216456793E+03 -0.93036011731E+03  0.12090283005E+04  0.46999998093E+01 0.  1.
       -5    1    3    3    0  502  0.61091571783E+03  0.47216456793E+03 -0.11870761605E+04  0.14160964989E+04  0.46999998093E+01 0. -1.
</event>
<event>
 5   0  0.7233728E-04  0.1700299E+04  0.7818609E-02  0.8761194E-01
        2   -1    0    0  501    0  0.00000000000E+00  0.00000000000E+00  0.27980825520E+04  0.27980825520E+04  0.25500000920E-02 0.  1.
       -2   -1    0    0    0  501  0.00000000000E+00  0.00000000000E+00 -0.25830346053E+03  0.25830346055E+03  0.25500000920E-02 0. -1.
    10030    2    1    2    0    0  0.00000000000E+00  0.00000000000E+00  0.25397790914E+04  0.30563860125E+04  0.17002992749E+04 0.  0.
        1    1    3    3  502    0  0.28028795440E+02  0.45539995891E+02  0.27950564855E+04  0.27955679676E+04  0.50400001928E-02 0.  1.
       -1    1    3    3    0  502 -0.28028795440E+02 -0.45539995891E+02 -0.25527739405E+03  0.26081804488E+03  0.50400001928E-02 0. -1.
</event>
<event>
 5   0  0.3713516E-04  0.1600748E+04  0.7818609E-02  0.8820089E-01
        1   -1    0    0  501    0  0.00000000000E+00  0.00000000000E+00  0.54762112763E+03  0.54762112765E+03  0.50400001928E-02 0. -1.
       -1   -1    0    0    0  501  0.00000000000E+00  0.00000000000E+00 -0.11697842604E+04  0.11697842604E+04  0.50400001928E-02 0.  1.
    10030    2    1    2    0    0  0.00000000000E+00  0.00000000000E+00 -0.62216313275E+03  0.17174053880E+04  0.16007480449E+04 0.  0.
        5    1    3    3  502    0  0.92507542343E+02  0.56938014355E+03 -0.90633491931E+03  0.10743446697E+04  0.46999998093E+01 0.  1.
       -5    1    3    3    0  502 -0.92507542343E+02 -0.56938014355E+03  0.28417178656E+03  0.64306071839E+03  0.46999998093E+01 0. -1.
</event>
<event>
 5   0  0.3635143E-04  0.1764538E+04  0.7818609E-02  0.8725388E-01
       -1   -1    0    0    0  501  0.00000000000E+00  0.00000000000E+00  0.11998182589E+04  0.11998182589E+04  0.50400001928E-02 0.  1.
        1   -1    0    0  501    0  0.00000000000E+00  0.00000000000E+00 -0.64876411005E+03  0.64876411007E+03  0.50400001928E-02 0. -1.
    10030    2    1    2    0    0  0.00000000000E+00  0.00000000000E+00  0.55105414883E+03  0.18485823690E+04  0.17645384949E+04 0.  0.
        3    1    3    3  502    0  0.69352864365E+03  0.37157268136E+03  0.69372778165E+03  0.10489549477E+04  0.10100000352E+00 0.  1.
       -3    1    3    3    0  502 -0.69352864365E+03 -0.37157268136E+03 -0.14267363282E+03  0.79962742124E+03  0.10100000352E+00 0. -1.
</event>
<event>
 5   0  0.7233728E-04  0.1796377E+04  0.7818609E-02  0.8708229E-01
       -2   -1    0    0    0  501  0.00000000000E+00  0.00000000000E+00  0.44345649439E+03  0.44345649440E+03  0.25500000920E-02 0. -1.
        2   -1    0    0  501    0  0.00000000000E+00  0.00000000000E+00 -0.18192147218E+04  0.18192147218E+04  0.25500000920E-02 0.  1.
    10030    2    1    2    0    0  0.00000000000E+00  0.00000000000E+00 -0.13757582274E+04  0.22626712162E+04  0.17963770017E+04 0.  0.
        1    1    3    3  502    0 -0.66065831224E+01 -0.43807018456E+03  0.29973794246E+03  0.53084081203E+03  0.50400001928E-02 0. -1.
       -1    1    3    3    0  502  0.66065831224E+01  0.43807018456E+03 -0.16754961698E+04  0.17318304041E+04  0.50400001928E-02 0.  1.
</event>
<event>
 5   0  0.3723500E-04  0.1714229E+04  0.7818609E-02  0.8753290E-01
        1   -1    0    0  501    0  0.00000000000E+00  0.00000000000E+00  0.53940012273E+03  0.53940012275E+03  0.50400001928E-02 0.  1.
       -1   -1    0    0    0  501  0.00000000000E+00  0.00000000000E+00 -0.13619672136E+04  0.13619672136E+04  0.50400001928E-02 0. -1.
    10030    2    1    2    0    0  0.00000000000E+00  0.00000000000E+00 -0.82256709088E+03  0.19013673364E+04  0.17142290188E+04 0.  0.
        1    1    3    3  502    0  0.26119706054E+02  0.79890311328E+03 -0.68127697097E+02  0.80222802656E+03  0.50400001928E-02 0.  1.
       -1    1    3    3    0  502 -0.26119706054E+02 -0.79890311328E+03 -0.75443939379E+03  0.10991393098E+04  0.50400001928E-02 0. -1.
</event>
<event>
 5   0  0.3915701E-04  0.1699679E+04  0.7818609E-02  0.8761548E-01
        1   -1    0    0  501    0  0.00000000000E+00  0.00000000000E+00  0.10888496947E+04  0.10888496947E+04  0.50400001928E-02 0. -1.
       -1   -1    0    0    0  501  0.00000000000E+00  0.00000000000E+00 -0.66329349975E+03  0.66329349977E+03  0.50400001928E-02 0.  1.
    10030    2    1    2    0    0  0.00000000000E+00  0.00000000000E+00  0.42555619495E+03  0.17521431945E+04  0.16996787046E+04 0.  0.
        2    1    3    3  502    0 -0.94842015332E+02 -0.63975162665E+03  0.78111214546E+03  0.10141071617E+04  0.25500000920E-02 0. -1.
       -2    1    3    3    0  502  0.94842015332E+02  0.63975162665E+03 -0.35555595052E+03  0.73803603274E+03  0.25500000920E-02 0.  1.
</event>
<event>
 5   0  0.3803253E-04  0.1658024E+04  0.7818609E-02  0.8785674E-01
       -1   -1    0    0    0  501  0.00000000000E+00  0.00000000000E+00  0.10085164216E+04  0.10085164216E+04  0.50400001928E-02 0. -1.
        1   -1    0    0  501    0  0.00000000000E+00  0.00000000000E+00 -0.68145736780E+03  0.68145736782E+03  0.50400001928E-02 0.  1.
    10030    2    1    2    0    0  0.00000000000E+00  0.00000000000E+00  0.32705905382E+03  0.16899737895E+04  0.16580240602E+04 0.  0.
        4    1    3    3  502    0 -0.45310226131E+03 -0.67984251683E+03  0.30685141924E+03  0.87272384709E+03  0.12699999809E+01 0. -1.
       -4    1    3    3    0  502  0.45310226131E+03  0.67984251683E+03  0.20207634581E+02  0.81724994236E+03  0.12699999809E+01 0.  1.
</event>
<event>
 5   0  0.3803253E-04  0.1721468E+04  0.7818609E-02  0.8749214E-01
       -1   -1    0    0    0  501  0.00000000000E+00  0.00000000000E+00  0.19597186926E+04  0.19597186926E+04  0.50400001928E-02 0. -1.
        1   -1    0    0  501    0  0.00000000000E+00  0.00000000000E+00 -0.37804545832E+03  0.37804545836E+03  0.50400001928E-02 0.  1.
    10030    2    1    2    0    0  0.00000000000E+00  0.00000000000E+00  0.15816732343E+04  0.23377641509E+04  0.17214676894E+04 0.  0.
        4    1    3    3  502    0  0.61751945437E+03  0.57912448109E+03  0.57981755177E+03  0.10261118104E+04  0.12699999809E+01 0.  1.
       -4    1    3    3    0  502 -0.61751945437E+03 -0.57912448109E+03  0.10018556825E+04  0.13116523406E+04  0.12699999809E+01 0. -1.
</event>
<event>
 5   0  0.3723500E-04  0.1617071E+04  0.7818609E-02  0.8810129E-01
        1   -1    0    0  501    0  0.00000000000E+00  0.00000000000E+00  0.73829587842E+03  0.73829587844E+03  0.50400001928E-02 0.  1.
       -1   -1    0    0    0  501  0.00000000000E+00  0.00000000000E+00 -0.88545724137E+03  0.88545724138E+03  0.50400001928E-02 0. -1.
    10030    2    1    2    0    0  0.00000000000E+00  0.00000000000E+00 -0.14716136295E+03  0.16237531198E+04  0.16170707243E+04 0.  0.
        1    1    3    3  502    0 -0.64032093056E+03 -0.43100416632E+03  0.16815039775E+03  0.78996838024E+03  0.50400001928E-02 0. -1.
       -1    1    3    3    0  502  0.64032093056E+03  0.43100416632E+03 -0.31531176070E+03  0.83378473958E+03  0.50400001928E-02 0.  1.
</event>
<event>
 5   0  0.3635143E-04  0.1693161E+04  0.7818609E-02  0.8765274E-01
       -1   -1    0    0    0  501  0.00000000000E+00  0.00000000000E+00  0.10944368578E+04  0.10944368578E+04  0.50400001928E-02 0.  1.
        1   -1    0    0  501    0  0.00000000000E+00  0.00000000000E+00 -0.65485608378E+03  0.65485608380E+03  0.50400001928E-02 0. -1.
    10030    2    1    2    0    0  0.00000000000E+00  0.00000000000E+00  0.43958077404E+03  0.17492929416E+04  0.16931611083E+04 0.  0.
        3    1    3    3  502    0 -0.43780852458E+03 -0.72249399149E+03  0.27661142802E+03  0.88892506109E+03  0.10100000352E+00 0.  1.
       -3    1    3    3    0  502  0.43780852458E+03  0.72249399149E+03  0.16296934602E+03  0.86036788054E+03  0.10100000352E+00 0. -1.
</event>
<event>
 5   0  0.3803253E-04  0.1964160E+04  0.7818609E-02  0.8623563E-01
       -1   -1    0    0    0  501  0.00000000000E+00  0.00000000000E+00  0.11337793854E+04  0.11337793854E+04  0.50400001928E-02 0. -1.
        1   -1    0    0  501    0  0.00000000000E+00  0.00000000000E+00 -0.85067802327E+03  0.85067802328E+03  0.50400001928E-02 0.  1.
    10030    2    1    2    0    0  0.00000000000E+00  0.00000000000E+00  0.28310136216E+03  0.19844574087E+04  0.19641600815E+04 0.  0.
        4    1    3    3  502    0 -0.43964515746E+03 -0.86802292490E+03  0.70284915988E+01  0.97303785909E+03  0.12699999809E+01 0.  1.
       -4    1    3    3    0  502  0.43964515746E+03  0.86802292490E+03  0.27607287056E+03  0.10114195496E+04  0.12699999809E+01 0. -1.
</event>
<event>
 5   0  0.7242144E-04  0.1677526E+04  0.7818609E-02  0.8774287E-01
        2   -1    0    0  501    0  0.00000000000E+00  0.00000000000E+00  0.16154844521E+04  0.16154844521E+04  0.25500000920E-02 0.  1.
       -2   -1    0    0    0  501  0.00000000000E+00  0.00000000000E+00 -0.43548772201E+03  0.43548772201E+03  0.25500000920E-02 0. -1.
    10030    2    1    2    0    0  0.00000000000E+00  0.00000000000E+00  0.11799967301E+04  0.20509721741E+04  0.16775263264E+04 0.  0.
        3    1    3    3  502    0  0.66829065076E+03  0.96954326617E+02 -0.18259540947E+02  0.67553383067E+03  0.10100000352E+00 0. -1.
       -3    1    3    3    0  502 -0.66829065076E+03 -0.96954326617E+02  0.11982562710E+04  0.13754383434E+04  0.10100000352E+00 0.  1.
</event>
<event>
 5   0  0.3915701E-04  0.1274315E+04  0.7818609E-02  0.9050185E-01
       -1   -1    0    0    0  501  0.00000000000E+00  0.00000000000E+00  0.52678059110E+03  0.52678059112E+03  0.50400001928E-02 0.  1.
        1   -1    0    0  501    0  0.00000000000E+00  0.00000000000E+00 -0.77066197946E+03  0.77066197948E+03  0.50400001928E-02 0. -1.
    10030    2    1    2    0    0  0.00000000000E+00  0.00000000000E+00 -0.24388138836E+03  0.12974425706E+04  0.12743151464E+04 0.  0.
        2    1    3    3  502    0 -0.30391058487E+03 -0.52301068197E+02  0.44573802033E+03  0.54201423238E+03  0.25500000920E-02 0.  1.
       -2    1    3    3    0  502  0.30391058487E+03  0.52301068197E+02 -0.68961940870E+03  0.75542833822E+03  0.25500000920E-02 0. -1.
</event>
<event>
 5   0  0.3635143E-04  0.1700511E+04  0.7818609E-02  0.8761073E-01
       -1   -1    0    0    0  501  0.00000000000E+00  0.00000000000E+00  0.90641897117E+03  0.90641897119E+03  0.50400001928E-02 0.  1.
        1   -1    0    0  501    0  0.00000000000E+00  0.00000000000E+00 -0.79757209967E+03  0.79757209968E+03  0.50400001928E-02 0. -1.
    10030    2    1    2    0    0  0.00000000000E+00  0.00000000000E+00  0.10884687151E+03  0.17039910709E+04  0.17005110785E+04 0.  0.
        3    1    3    3  502    0  0.47614533329E+03 -0.59004609712E+03  0.44000394829E+03  0.87662549578E+03  0.10100000352E+00 0.  1.
       -3    1    3    3    0  502 -0.47614533329E+03  0.59004609712E+03 -0.33115707678E+03  0.82736557509E+03  0.10100000352E+00 0. -1.
</event>
<event>
 5   0  0.3915701E-04  0.1709914E+04  0.7818609E-02  0.8755730E-01
       -1   -1    0    0    0  501  0.00000000000E+00  0.00000000000E+00  0.15255453709E+04  0.15255453709E+04  0.50400001928E-02 0. -1.
        1   -1    0    0  501    0  0.00000000000E+00  0.00000000000E+00 -0.47914097005E+03  0.47914097007E+03  0.50400001928E-02 0.  1.
    10030    2    1    2    0    0  0.00000000000E+00  0.00000000000E+00  0.10464044008E+04  0.20046863410E+04  0.17099137860E+04 0.  0.
        2    1    3    3  502    0 -0.89650347280E+02  0.31089838034E+03  0.14509891767E+04  0.14866285947E+04  0.25500000920E-02 0. -1.
       -2    1    3    3    0  502  0.89650347280E+02 -0.31089838034E+03 -0.40458477583E+03  0.51805774630E+03  0.25500000920E-02 0.  1.
</event>
<event>
 5   0  0.7233728E-04  0.1686167E+04  0.7818609E-02  0.8769293E-01
       -2   -1    0    0    0  501  0.00000000000E+00  0.00000000000E+00  0.36395696710E+03  0.36395696711E+03  0.25500000920E-02 0.  1.
        2   -1    0    0  501    0  0.00000000000E+00  0.00000000000E+00 -0.19529500184E+04  0.19529500184E+04  0.25500000920E-02 0. -1.
    10030    2    1    2    0    0  0.00000000000E+00  0.00000000000E+00 -0.15889930513E+04  0.23169069855E+04  0.16861669735E+04 0.  0.
        1    1    3    3  502    0 -0.12407575937E+03  0.50651302924E+03 -0.17047469443E+04  0.17827261111E+04  0.50400001928E-02 0. -1.
       -1    1    3    3    0  502  0.12407575937E+03 -0.50651302924E+03  0.11575389303E+03  0.53418087445E+03  0.50400001928E-02 0.  1.
</event>
<event>
 5   0  0.3723500E-04  0.1736002E+04  0.7818609E-02  0.8741093E-01
       -1   -1    0    0    0  501  0.00000000000E+00  0.00000000000E+00  0.74600451862E+03  0.74600451864E+03  0.50400001928E-02 0.  1.
        1   -1    0    0  501    0  0.00000000000E+00  0.00000000000E+00 -0.10099481173E+04  0.10099481173E+04  0.50400001928E-02 0. -1.
    10030    2    1    2    0    0  0.00000000000E+00  0.00000000000E+00 -0.26394359871E+03  0.17559526360E+04  0.17360021418E+04 0.  0.
        1    1    3    3  502    0 -0.59988264801E+03 -0.34687420471E+03 -0.66070747629E+03  0.95745249205E+03  0.50400001928E-02 0. -1.
       -1    1    3    3    0  502  0.59988264801E+03  0.34687420471E+03  0.39676387758E+03  0.79850014393E+03  0.50400001928E-02 0.  1.
</event>
<event>
 5   0  0.7025426E-04  0.1690739E+04  0.7818609E-02  0.8766664E-01
       -2   -1    0    0    0  501  0.00000000000E+00  0.00000000000E+00  0.44225437829E+03  0.44225437830E+03  0.25500000920E-02 0. -1.
        2   -1    0    0  501    0  0.00000000000E+00  0.00000000000E+00 -0.16159235598E+04  0.16159235598E+04  0.25500000920E-02 0.  1.
    10030    2    1    2    0    0  0.00000000000E+00  0.00000000000E+00 -0.11736691815E+04  0.20581779381E+04  0.16907386188E+04 0.  0.
        2    1    3    3  502    0  0.73250834589E+03  0.18370035001E+03 -0.12435535896E+03  0.76536171233E+03  0.25500000920E-02 0. -1.
       -2    1    3    3    0  502 -0.73250834589E+03 -0.18370035001E+03 -0.10493138225E+04  0.12928162257E+04  0.25500000920E-02 0.  1.
</event>
<event>
 5   0  0.3713516E-04  0.1694311E+04  0.7818609E-02  0.8764616E-01
        1   -1    0    0  501    0  0.00000000000E+00  0.00000000000E+00  0.12843651584E+04  0.12843651584E+04  0.50400001928E-02 0.  1.
       -1   -1    0    0    0  501  0.00000000000E+00  0.00000000000E+00 -0.55877577147E+03  0.55877577150E+03  0.50400001928E-02 0. -1.
    10030    2    1    2    0    0  0.00000000000E+00  0.00000000000E+00  0.72558938693E+03  0.18431409299E+04  0.16943106354E+04 0.  0.
        5    1    3    3  502    0 -0.66986577707E+03 -0.51629653000E+03  0.41572882861E+03  0.94240904873E+03  0.46999998093E+01 0. -1.
       -5    1    3    3    0  502  0.66986577707E+03  0.51629653000E+03  0.30986055832E+03  0.90073188119E+03  0.46999998093E+01 0.  1.
</event>
<event>
 5   0  0.3803253E-04  0.1698355E+04  0.7818609E-02  0.8762303E-01
        1   -1    0    0  501    0  0.00000000000E+00  0.00000000000E+00  0.18505717998E+04  0.18505717998E+04  0.50400001928E-02 0. -1.
       -1   -1    0    0    0  501  0.00000000000E+00  0.00000000000E+00 -0.38966474343E+03  0.38966474346E+03  0.50400001928E-02 0.  1.
    10030    2    1    2    0    0  0.00000000000E+00  0.00000000000E+00  0.14609070564E+04  0.22402365433E+04  0.16983551874E+04 0.  0.
        4    1    3    3  502    0  0.53564054426E+02 -0.70788892783E+03  0.11581412061E+03  0.71929852322E+03  0.12699999809E+01 0.  1.
       -4    1    3    3    0  502 -0.53564054426E+02  0.70788892783E+03  0.13450929358E+04  0.15209380201E+04  0.12699999809E+01 0. -1.
</event>
<event>
 5   0  0.3635143E-04  0.1736631E+04  0.7818609E-02  0.8740744E-01
        1   -1    0    0  501    0  0.00000000000E+00  0.00000000000E+00  0.53398849676E+03  0.53398849679E+03  0.50400001928E-02 0.  1.
       -1   -1    0    0    0  501  0.00000000000E+00  0.00000000000E+00 -0.14119618478E+04  0.14119618478E+04  0.50400001928E-02 0. -1.
    10030    2    1    2    0    0  0.00000000000E+00  0.00000000000E+00 -0.87797335101E+03  0.19459503446E+04  0.17366305129E+04 0.  0.
        3    1    3    3  502    0  0.72149887352E+01 -0.76095510517E+03 -0.90756027637E+03  0.11843860830E+04  0.10100000352E+00 0.  1.
       -3    1    3    3    0  502 -0.72149887352E+01  0.76095510517E+03  0.29586925360E+02  0.76156426157E+03  0.10100000352E+00 0. -1.
</event>
<event>
 5   0  0.2639750E-04  0.1718294E+04  0.7818609E-02  0.8750999E-01
        3   -1    0    0  501    0  0.00000000000E+00  0.00000000000E+00  0.12201434607E+04  0.12201434649E+04  0.10100000352E+00 0. -1.
       -3   -1    0    0    0  501  0.00000000000E+00  0.00000000000E+00 -0.60495602429E+03  0.60495603272E+03  0.10100000352E+00 0.  1.
    10030    2    1    2    0    0  0.00000000000E+00  0.00000000000E+00  0.61518743638E+03  0.18250994976E+04  0.17182935122E+04 0.  0.
        5    1    3    3  502    0  0.10851929861E+03 -0.42176178634E+03 -0.47901427537E+03  0.64740729730E+03  0.46999998093E+01 0.  1.
       -5    1    3    3    0  502 -0.10851929861E+03  0.42176178634E+03  0.10942017118E+04  0.11776922003E+04  0.46999998093E+01 0. -1.
</event>
<event>
 5   0  0.7242144E-04  0.1648026E+04  0.7818609E-02  0.8791575E-01
        2   -1    0    0  501    0  0.00000000000E+00  0.00000000000E+00  0.57642472008E+03  0.57642472008E+03  0.25500000920E-02 0.  1.
       -2   -1    0    0    0  501  0.00000000000E+00  0.00000000000E+00 -0.11779463035E+04  0.11779463035E+04  0.25500000920E-02 0. -1.
    10030    2    1    2    0    0  0.00000000000E+00  0.00000000000E+00 -0.60152158345E+03  0.17543710236E+04  0.16480259322E+04 0.  0.
        3    1    3    3  502    0  0.20041233016E+03 -0.72602486691E+02  0.54656742403E+03  0.58666189783E+03  0.10100000352E+00 0.  1.
       -3    1    3    3    0  502 -0.20041233016E+03  0.72602486691E+02 -0.11480890075E+04  0.11677091258E+04  0.10100000352E+00 0. -1.
</event>
<event>
 5   0  0.7049044E-04  0.1688717E+04  0.7818609E-02  0.8767826E-01
       -2   -1    0    0    0  501  0.00000000000E+00  0.00000000000E+00  0.79520269188E+03  0.79520269188E+03  0.25500000920E-02 0.  1.
        2   -1    0    0  501    0  0.00000000000E+00  0.00000000000E+00 -0.89655239327E+03  0.89655239327E+03  0.25500000920E-02 0. -1.
    10030    2    1    2    0    0  0.00000000000E+00  0.00000000000E+00 -0.10134970139E+03  0.16917550852E+04  0.16887165263E+04 0.  0.
        4    1    3    3  502    0 -0.23939821855E+03 -0.61924309759E+03 -0.57330861922E+03  0.87718749804E+03  0.12699999809E+01 0. -1.
       -4    1    3    3    0  502  0.23939821855E+03  0.61924309759E+03  0.47195891783E+03  0.81456758711E+03  0.12699999809E+01 0.  1.
</event>
<event>
 5   0  0.3723500E-04  0.1703375E+04  0.7818609E-02  0.8759442E-01
       -1   -1    0    0    0  501  0.00000000000E+00  0.00000000000E+00  0.45934371345E+03  0.45934371348E+03  0.50400001928E-02 0. -1.
        1   -1    0    0  501    0  0.00000000000E+00  0.00000000000E+00 -0.15791476761E+04  0.15791476761E+04  0.50400001928E-02 0.  1.
    10030    2    1    2    0    0  0.00000000000E+00  0.00000000000E+00 -0.11198039627E+04  0.20384913896E+04  0.17033749531E+04 0.  0.
        1    1    3    3  502    0 -0.84935198819E+03  0.24655742803E+02 -0.49048245943E+03  0.98111148629E+03  0.50400001928E-02 0.  1.
       -1    1    3    3    0  502  0.84935198819E+03 -0.24655742803E+02 -0.62932150325E+03  0.10573799033E+04  0.50400001928E-02 0. -1.
</event>
<event>
 5   0  0.3713516E-04  0.1682180E+04  0.7818609E-02  0.8771594E-01
        1   -1    0    0  501    0  0.00000000000E+00  0.00000000000E+00  0.12285125009E+04  0.12285125009E+04  0.50400001928E-02 0. -1.
       -1   -1    0    0    0  501  0.00000000000E+00  0.00000000000E+00 -0.57584438585E+03  0.57584438587E+03  0.50400001928E-02 0.  1.
    10030    2    1    2    0    0  0.00000000000E+00  0.00000000000E+00  0.65266811502E+03  0.18043568867E+04  0.16821795702E+04 0.  0.
        5    1    3    3  502    0 -0.12959272366E+02 -0.52903798624E+03  0.10275429752E+04  0.11558182338E+04  0.46999998093E+01 0. -1.
       -5    1    3    3    0  502  0.12959272366E+02  0.52903798624E+03 -0.37487486018E+03  0.64853865299E+03  0.46999998093E+01 0.  1.
</event>
<event>
 5   0  0.7242144E-04  0.1679338E+04  0.7818609E-02  0.8773237E-01
        2   -1    0    0  501    0  0.00000000000E+00  0.00000000000E+00  0.18512763945E+04  0.18512763945E+04  0.25500000920E-02 0. -1.
       -2   -1    0    0    0  501  0.00000000000E+00  0.00000000000E+00 -0.38084193371E+03  0.38084193372E+03  0.25500000920E-02 0.  1.
    10030    2    1    2    0    0  0.00000000000E+00  0.00000000000E+00  0.14704344608E+04  0.22321183283E+04  0.16793375860E+04 0.  0.
        3    1    3    3  502    0 -0.32174395804E+03 -0.12302499931E+03  0.17530401850E+04  0.17865621247E+04  0.10100000352E+00 0. -1.
       -3    1    3    3    0  502  0.32174395804E+03  0.12302499931E+03 -0.28260572418E+03  0.44555620356E+03  0.10100000352E+00 0.  1.
</event>
<event>
 5   0  0.3803253E-04  0.1689348E+04  0.7818609E-02  0.8767463E-01
       -1   -1    0    0    0  501  0.00000000000E+00  0.00000000000E+00  0.47576580091E+03  0.47576580094E+03  0.50400001928E-02 0. -1.
        1   -1    0    0  501    0  0.00000000000E+00  0.00000000000E+00 -0.14996324830E+04  0.14996324830E+04  0.50400001928E-02 0.  1.
    10030    2    1    2    0    0  0.00000000000E+00  0.00000000000E+00 -0.10238666821E+04  0.19753982840E+04  0.16893476248E+04 0.  0.
        4    1    3    3  502    0 -0.71531468510E+03 -0.91373615774E+02  0.23681326453E+01  0.72113206650E+03  0.12699999809E+01 0. -1.
       -4    1    3    3    0  502  0.71531468510E+03  0.91373615774E+02 -0.10262348148E+04  0.12542662175E+04  0.12699999809E+01 0.  1.
</event>
<event>
 5   0  0.7242144E-04  0.1254891E+04  0.7818609E-02  0.9066122E-01
       -2   -1    0    0    0  501  0.00000000000E+00  0.00000000000E+00  0.32321795441E+03  0.32321795442E+03  0.25500000920E-02 0.  1.
        2   -1    0    0  501    0  0.00000000000E+00  0.00000000000E+00 -0.12180267656E+04  0.12180267656E+04  0.25500000920E-02 0. -1.
    10030    2    1    2    0    0  0.00000000000E+00  0.00000000000E+00 -0.89480881118E+03  0.15412447200E+04  0.12548914210E+04 0.  0.
        3    1    3    3  502    0  0.34973339052E+03  0.30449532946E+03  0.71725185827E+02  0.46922847589E+03  0.10100000352E+00 0.  1.
       -3    1    3    3    0  502 -0.34973339052E+03 -0.30449532946E+03 -0.96653399701E+03  0.10720162441E+04  0.10100000352E+00 0. -1.
</event>
<event>
 5   0  0.3713516E-04  0.1334915E+04  0.7818609E-02  0.9002326E-01
        1   -1    0    0  501    0  0.00000000000E+00  0.00000000000E+00  0.12592147234E+04  0.12592147234E+04  0.50400001928E-02 0.  1.
       -1   -1    0    0    0  501  0.00000000000E+00  0.00000000000E+00 -0.35379167946E+03  0.35379167949E+03  0.50400001928E-02 0. -1.
    10030    2    1    2    0    0  0.00000000000E+00  0.00000000000E+00  0.90542304398E+03  0.16130064029E+04  0.13349152660E+04 0.  0.
        5    1    3    3  502    0  0.22790783772E+03 -0.37245515390E+03  0.10626597764E+04  0.11488832467E+04  0.46999998093E+01 0.  1.
       -5    1    3    3    0  502 -0.22790783772E+03  0.37245515390E+03 -0.15723673241E+03  0.46412315626E+03  0.46999998093E+01 0. -1.
</event>
<event>
 5   0  0.3915701E-04  0.1709552E+04  0.7818609E-02  0.8755935E-01
       -1   -1    0    0    0  501  0.00000000000E+00  0.00000000000E+00  0.56247312892E+03  0.56247312894E+03  0.50400001928E-02 0. -1.
        1   -1    0    0  501    0  0.00000000000E+00  0.00000000000E+00 -0.12989811887E+04  0.12989811888E+04  0.50400001928E-02 0.  1.
    10030    2    1    2    0    0  0.00000000000E+00  0.00000000000E+00 -0.73650805983E+03  0.18614543177E+04  0.17095520041E+04 0.  0.
        2    1    3    3  502    0 -0.64515071100E+03  0.48394832584E+03 -0.59862693669E+02  0.80870820702E+03  0.25500000920E-02 0. -1.
       -2    1    3    3    0  502  0.64515071100E+03 -0.48394832584E+03 -0.67664536616E+03  0.10527461107E+04  0.25500000920E-02 0.  1.
</event>
<event>
 5   0  0.6746664E-04  0.1704337E+04  0.7818609E-02  0.8758895E-01
        2   -1    0    0  501    0  0.00000000000E+00  0.00000000000E+00  0.57233807895E+03  0.57233807895E+03  0.25500000920E-02 0. -1.
       -2   -1    0    0    0  501  0.00000000000E+00  0.00000000000E+00 -0.12688152143E+04  0.12688152143E+04  0.25500000920E-02 0.  1.
    10030    2    1    2    0    0  0.00000000000E+00  0.00000000000E+00 -0.69647713539E+03  0.18411532933E+04  0.17043371290E+04 0.  0.
        5    1    3    3  502    0 -0.37028854200E+03  0.51150797758E+03  0.26989714262E+03  0.68674636734E+03  0.46999998093E+01 0. -1.
       -5    1    3    3    0  502  0.37028854200E+03 -0.51150797758E+03 -0.96637427801E+03  0.11544069259E+04  0.46999998093E+01 0.  1.
</event>
<event>
 5   0  0.3723500E-04  0.1732794E+04  0.7818609E-02  0.8742879E-01
        1   -1    0    0  501    0  0.00000000000E+00  0.00000000000E+00  0.96221986773E+03  0.96221986774E+03  0.50400001928E-02 0.  1.
       -1   -1    0    0    0  501  0.00000000000E+00  0.00000000000E+00 -0.78011683425E+03  0.78011683427E+03  0.50400001928E-02 0. -1.
    10030    2    1    2    0    0  0.00000000000E+00  0.00000000000E+00  0.18210303348E+03  0.17423367020E+04  0.17327941795E+04 0.  0.
        1    1    3    3  502    0  0.22958200966E+02 -0.42347836283E+03 -0.66861080563E+03  0.79177106048E+03  0.50400001928E-02 0. -1.
       -1    1    3    3    0  502 -0.22958200966E+02  0.42347836283E+03  0.85071383911E+03  0.95056564153E+03  0.50400001928E-02 0.  1.
</event>
<event>
 5   0  0.3723500E-04  0.1763131E+04  0.7818609E-02  0.8726155E-01
       -1   -1    0    0    0  501  0.00000000000E+00  0.00000000000E+00  0.10720308631E+04  0.10720308631E+04  0.50400001928E-02 0.  1.
        1   -1    0    0  501    0  0.00000000000E+00  0.00000000000E+00 -0.72493975747E+03  0.72493975749E+03  0.50400001928E-02 0. -1.
    10030    2    1    2    0    0  0.00000000000E+00  0.00000000000E+00  0.34709110562E+03  0.17969706206E+04  0.17631310716E+04 0.  0.
        1    1    3    3  502    0 -0.45164234272E+03 -0.39015466792E+03 -0.48771847242E+03  0.77075987116E+03  0.50400001928E-02 0. -1.
       -1    1    3    3    0  502  0.45164234272E+03  0.39015466792E+03  0.83480957804E+03  0.10262107494E+04  0.50400001928E-02 0.  1.
</event>
<event>
 5   0  0.7242144E-04  0.1707844E+04  0.7818609E-02  0.8756903E-01
        2   -1    0    0  501    0  0.00000000000E+00  0.00000000000E+00  0.77080708348E+03  0.77080708348E+03  0.25500000920E-02 0. -1.
       -2   -1    0    0    0  501  0.00000000000E+00  0.00000000000E+00 -0.94599870701E+03  0.94599870701E+03  0.25500000920E-02 0.  1.
    10030    2    1    2    0    0  0.00000000000E+00  0.00000000000E+00 -0.17519162353E+03  0.17168057905E+04  0.17078436747E+04 0.  0.
        3    1    3    3  502    0 -0.48965894720E+02 -0.42914326821E+02  0.76830816227E+03  0.77106208616E+03  0.10100000352E+00 0. -1.
       -3    1    3    3    0  502  0.48965894720E+02  0.42914326821E+02 -0.94349978580E+03  0.94574370434E+03  0.10100000352E+00 0.  1.
</event>
<event>
 5   0  0.3803253E-04  0.1702087E+04  0.7818609E-02  0.8760175E-01
        1   -1    0    0  501    0  0.00000000000E+00  0.00000000000E+00  0.80306846782E+03  0.80306846784E+03  0.50400001928E-02 0.  1.
       -1   -1    0    0    0  501  0.00000000000E+00  0.00000000000E+00 -0.90188408702E+03  0.90188408703E+03  0.50400001928E-02 0. -1.
    10030    2    1    2    0    0  0.00000000000E+00  0.00000000000E+00 -0.98815619198E+02  0.17049525549E+04  0.17020865688E+04 0.  0.
        4    1    3    3  502    0 -0.70451995593E+03  0.37700023407E+03  0.24399410543E+03  0.83547129285E+03  0.12699999809E+01 0.  1.
       -4    1    3    3    0  502  0.70451995593E+03 -0.37700023407E+03 -0.34280972463E+03  0.86948126202E+03  0.12699999809E+01 0. -1.
</event>
<event>
 5   0  0.3723500E-04  0.1697530E+04  0.7818609E-02  0.8762774E-01
       -1   -1    0    0    0  501  0.00000000000E+00  0.00000000000E+00  0.63679166309E+03  0.63679166311E+03  0.50400001928E-02 0. -1.
        1   -1    0    0  501    0  0.00000000000E+00  0.00000000000E+00 -0.11312993422E+04  0.11312993422E+04  0.50400001928E-02 0.  1.
    10030    2    1    2    0    0  0.00000000000E+00  0.00000000000E+00 -0.49450767907E+03  0.17680910053E+04  0.16975299580E+04 0.  0.
        1    1    3    3  502    0  0.67190944284E+03 -0.36431607954E+03  0.13715841023E+03  0.77653134818E+03  0.50400001928E-02 0.  1.
       -1    1    3    3    0  502 -0.67190944284E+03  0.36431607954E+03 -0.63166608930E+03  0.99155965710E+03  0.50400001928E-02 0. -1.
</event>
<event>
 5   0  0.6746664E-04  0.1689658E+04  0.7818609E-02  0.8767285E-01
        2   -1    0    0  501    0  0.00000000000E+00  0.00000000000E+00  0.11584648930E+04  0.11584648930E+04  0.25500000920E-02 0.  1.
       -2   -1    0    0    0  501  0.00000000000E+00  0.00000000000E+00 -0.61610532838E+03  0.61610532838E+03  0.25500000920E-02 0. -1.
    10030    2    1    2    0    0  0.00000000000E+00  0.00000000000E+00  0.54235956464E+03  0.17745702214E+04  0.16896584191E+04 0.  0.
        5    1    3    3  502    0  0.40790468519E+03  0.42009156294E+03  0.91075862350E+03  0.10827587514E+04  0.46999998093E+01 0.  1.
       -5    1    3    3    0  502 -0.40790468519E+03 -0.42009156294E+03 -0.36839905887E+03  0.69181147000E+03  0.46999998093E+01 0. -1.
</event>
<event>
 5   0  0.3713516E-04  0.1706845E+04  0.7818609E-02  0.8757470E-01
        1   -1    0    0  501    0  0.00000000000E+00  0.00000000000E+00  0.19752090971E+04  0.19752090971E+04  0.50400001928E-02 0.  1.
       -1   -1    0    0    0  501  0.00000000000E+00  0.00000000000E+00 -0.36873564604E+03  0.36873564607E+03  0.50400001928E-02 0. -1.
    10030    2    1    2    0    0  0.00000000000E+00  0.00000000000E+00  0.16064734511E+04  0.23439447432E+04  0.17068450457E+04 0.  0.
        5    1    3    3  502    0  0.11728227996E+03  0.24368316682E+02  0.19635891095E+04  0.19672450862E+04  0.46999998093E+01 0.  1.
       -5    1    3    3    0  502 -0.11728227996E+03 -0.24368316682E+02 -0.35711565847E+03  0.37669965699E+03  0.46999998093E+01 0. -1.
</event>
<event>
 5   0  0.7242144E-04  0.1368394E+04  0.7818609E-02  0.8977020E-01
        2   -1    0    0  501    0  0.00000000000E+00  0.00000000000E+00  0.28980039248E+03  0.28980039250E+03  0.25500000920E-02 0. -1.
       -2   -1    0    0    0  501  0.00000000000E+00  0.00000000000E+00 -0.16153367042E+04  0.16153367042E+04  0.25500000920E-02 0.  1.
    10030    2    1    2    0    0  0.00000000000E+00  0.00000000000E+00 -0.13255363117E+04  0.19051370967E+04  0.13683935265E+04 0.  0.
        3    1    3    3  502    0 -0.60986196144E+03  0.21778113884E+03 -0.35532192183E+03  0.73865683154E+03  0.10100000352E+00 0.  1.
       -3    1    3    3    0  502  0.60986196144E+03 -0.21778113884E+03 -0.97021438985E+03  0.11664802651E+04  0.10100000352E+00 0. -1.
</event>
<event>
 5   0  0.3915701E-04  0.1704694E+04  0.7818609E-02  0.8758692E-01
       -1   -1    0    0    0  501  0.00000000000E+00  0.00000000000E+00  0.36332552564E+03  0.36332552567E+03  0.50400001928E-02 0.  1.
        1   -1    0    0  501    0  0.00000000000E+00  0.00000000000E+00 -0.19995704548E+04  0.19995704548E+04  0.50400001928E-02 0. -1.
    10030    2    1    2    0    0  0.00000000000E+00  0.00000000000E+00 -0.16362449292E+04  0.23628959805E+04  0.17046935051E+04 0.  0.
        2    1    3    3  502    0 -0.56655783860E+03  0.21310448322E+02  0.64051546826E+02  0.57056508861E+03  0.25500000920E-02 0.  1.
       -2    1    3    3    0  502  0.56655783860E+03 -0.21310448322E+02 -0.17002964760E+04  0.17923308919E+04  0.25500000920E-02 0. -1.
</event>
<event>
 5   0  0.3803253E-04  0.1711852E+04  0.7818609E-02  0.8754633E-01
        1   -1    0    0  501    0  0.00000000000E+00  0.00000000000E+00  0.13303965694E+04  0.13303965694E+04  0.50400001928E-02 0. -1.
       -1   -1    0    0    0  501  0.00000000000E+00  0.00000000000E+00 -0.55066988533E+03  0.55066988535E+03  0.50400001928E-02 0.  1.
    10030    2    1    2    0    0  0.00000000000E+00  0.00000000000E+00  0.77972668409E+03  0.18810664548E+04  0.17118520104E+04 0.  0.
        4    1    3    3  502    0  0.22718397663E+03 -0.81213758265E+03  0.22901162142E+03  0.87385808232E+03  0.12699999809E+01 0.  1.
       -4    1    3    3    0  502 -0.22718397663E+03  0.81213758265E+03  0.55071506267E+03  0.10072083725E+04  0.12699999809E+01 0. -1.
</event>
<event>
 5   0  0.3723500E-04  0.1709481E+04  0.7818609E-02  0.8755975E-01
       -1   -1    0    0    0  501  0.00000000000E+00  0.00000000000E+00  0.10018198006E+04  0.10018198006E+04  0.50400001928E-02 0.  1.
        1   -1    0    0  501    0  0.00000000000E+00  0.00000000000E+00 -0.72925431832E+03  0.72925431834E+03  0.50400001928E-02 0. -1.
    10030    2    1    2    0    0  0.00000000000E+00  0.00000000000E+00  0.27256548228E+03  0.17310741190E+04  0.17094811093E+04 0.  0.
        1    1    3    3  502    0 -0.41741030790E+03  0.62007089865E+03 -0.28351631131E+03  0.79943779201E+03  0.50400001928E-02 0. -1.
       -1    1    3    3    0  502  0.41741030790E+03 -0.62007089865E+03  0.55608179359E+03  0.93163632694E+03  0.50400001928E-02 0.  1.
</event>
<event>
 5   0  0.3803253E-04  0.1470433E+04  0.7818609E-02  0.8904356E-01
       -1   -1    0    0    0  501  0.00000000000E+00  0.00000000000E+00  0.48153060235E+03  0.48153060238E+03  0.50400001928E-02 0.  1.
        1   -1    0    0  501    0  0.00000000000E+00  0.00000000000E+00 -0.11225527581E+04  0.11225527581E+04  0.50400001928E-02 0. -1.
    10030    2    1    2    0    0  0.00000000000E+00  0.00000000000E+00 -0.64102215573E+03  0.16040833605E+04  0.14704332774E+04 0.  0.
        4    1    3    3  502    0  0.18911880410E+03  0.36109785568E+03  0.34697226250E+03  0.53530266885E+03  0.12699999809E+01 0.  1.
       -4    1    3    3    0  502 -0.18911880410E+03 -0.36109785568E+03 -0.98799441822E+03  0.10687806916E+04  0.12699999809E+01 0. -1.
</event>
<event>
 5   0  0.7025426E-04  0.1737907E+04  0.7818609E-02  0.8740035E-01
       -2   -1    0    0    0  501  0.00000000000E+00  0.00000000000E+00  0.77886614383E+03  0.77886614384E+03  0.25500000920E-02 0.  1.
        2   -1    0    0  501    0  0.00000000000E+00  0.00000000000E+00 -0.96946109380E+03  0.96946109380E+03  0.25500000920E-02 0. -1.
    10030    2    1    2    0    0  0.00000000000E+00  0.00000000000E+00 -0.19059494996E+03  0.17483272376E+04  0.17379072745E+04 0.  0.
        2    1    3    3  502    0 -0.72319193288E+03 -0.54040462303E+02 -0.57686739422E+03  0.92666225448E+03  0.25500000920E-02 0. -1.
       -2    1    3    3    0  502  0.72319193288E+03  0.54040462303E+02  0.38627244426E+03  0.82166498316E+03  0.25500000920E-02 0.  1.
</event>
<event>
 5   0  0.7233728E-04  0.1707393E+04  0.7818609E-02  0.8757159E-01
       -2   -1    0    0    0  501  0.00000000000E+00  0.00000000000E+00  0.82014099608E+03  0.82014099609E+03  0.25500000920E-02 0. -1.
        2   -1    0    0  501    0  0.00000000000E+00  0.00000000000E+00 -0.88862538978E+03  0.88862538978E+03  0.25500000920E-02 0.  1.
    10030    2    1    2    0    0  0.00000000000E+00  0.00000000000E+00 -0.68484393691E+02  0.17087663859E+04  0.17073934665E+04 0.  0.
        1    1    3    3  502    0  0.12427611244E+03  0.55228737335E+03 -0.67376480268E+03  0.88001415002E+03  0.50400001928E-02 0.  1.
       -1    1    3    3    0  502 -0.12427611244E+03 -0.55228737335E+03  0.60528040899E+03  0.82875223584E+03  0.50400001928E-02 0. -1.
</event>
<event>
 5   0  0.7242144E-04  0.1699638E+04  0.7818609E-02  0.8761571E-01
        2   -1    0    0  501    0  0.00000000000E+00  0.00000000000E+00  0.80956783705E+03  0.80956783706E+03  0.25500000920E-02 0. -1.
       -2   -1    0    0    0  501  0.00000000000E+00  0.00000000000E+00 -0.89207090820E+03  0.89207090820E+03  0.25500000920E-02 0.  1.
    10030    2    1    2    0    0  0.00000000000E+00  0.00000000000E+00 -0.82503071146E+02  0.17016387453E+04  0.16996375092E+04 0.  0.
        3    1    3    3  502    0  0.42107987956E+03 -0.52593711344E+03  0.47730986139E+03  0.82567719251E+03  0.10100000352E+00 0. -1.
       -3    1    3    3    0  502 -0.42107987956E+03  0.52593711344E+03 -0.55981293253E+03  0.87596155275E+03  0.10100000352E+00 0.  1.
</event>
<event>
 5   0  0.7233728E-04  0.1720861E+04  0.7818609E-02  0.8749555E-01
        2   -1    0    0  501    0  0.00000000000E+00  0.00000000000E+00  0.73831670459E+03  0.73831670460E+03  0.25500000920E-02 0. -1.
       -2   -1    0    0    0  501  0.00000000000E+00  0.00000000000E+00 -0.10027407729E+04  0.10027407729E+04  0.25500000920E-02 0.  1.
    10030    2    1    2    0    0  0.00000000000E+00  0.00000000000E+00 -0.26442406835E+03  0.17410574775E+04  0.17208605557E+04 0.  0.
        1    1    3    3  502    0  0.17240819043E+03 -0.82979693407E+03  0.18032464918E+02  0.84771027229E+03  0.50400001928E-02 0. -1.
       -1    1    3    3    0  502 -0.17240819043E+03  0.82979693407E+03 -0.28245653327E+03  0.89334720525E+03  0.50400001928E-02 0.  1.
</event>
<event>
 5   0  0.7049044E-04  0.1668502E+04  0.7818609E-02  0.8779535E-01
        2   -1    0    0  501    0  0.00000000000E+00  0.00000000000E+00  0.95160247766E+03  0.95160247767E+03  0.25500000920E-02 0.  1.
       -2   -1    0    0    0  501  0.00000000000E+00  0.00000000000E+00 -0.73137172045E+03  0.73137172046E+03  0.25500000920E-02 0. -1.
    10030    2    1    2    0    0  0.00000000000E+00  0.00000000000E+00  0.22023075721E+03  0.16829741981E+04  0.16685024918E+04 0.  0.
        4    1    3    3  502    0 -0.24819085967E+03  0.41550890447E+03  0.79551414196E+03  0.93117705914E+03  0.12699999809E+01 0.  1.
       -4    1    3    3    0  502  0.24819085967E+03 -0.41550890447E+03 -0.57528338474E+03  0.75179713898E+03  0.12699999809E+01 0. -1.
</event>
<event>
 5   0  0.3635143E-04  0.1699860E+04  0.7818609E-02  0.8761444E-01
        1   -1    0    0  501    0  0.00000000000E+00  0.00000000000E+00  0.17084869012E+04  0.17084869012E+04  0.50400001928E-02 0. -1.
       -1   -1    0    0    0  501  0.00000000000E+00  0.00000000000E+00 -0.42281928582E+03  0.42281928585E+03  0.50400001928E-02 0.  1.
    10030    2    1    2    0    0  0.00000000000E+00  0.00000000000E+00  0.12856676154E+04  0.21313061870E+04  0.16998602430E+04 0.  0.
        3    1    3    3  502    0  0.66244544797E+03 -0.48161786619E+03  0.92762171284E+03  0.12374456727E+04  0.10100000352E+00 0. -1.
       -3    1    3    3    0  502 -0.66244544797E+03  0.48161786619E+03  0.35804590252E+03  0.89386051433E+03  0.10100000352E+00 0.  1.
</event>
<event>
 5   0  0.3723500E-04  0.1685578E+04  0.7818609E-02  0.8769633E-01
        1   -1    0    0  501    0  0.00000000000E+00  0.00000000000E+00  0.10658631168E+04  0.10658631168E+04  0.50400001928E-02 0.  1.
       -1   -1    0    0    0  501  0.00000000000E+00  0.00000000000E+00 -0.66640230736E+03  0.66640230738E+03  0.50400001928E-02 0. -1.
    10030    2    1    2    0    0  0.00000000000E+00  0.00000000000E+00  0.39946080943E+03  0.17322654242E+04  0.16855784056E+04 0.  0.
        1    1    3    3  502    0 -0.80687030793E+03 -0.33730629501E+02  0.44748062547E+03  0.92326397058E+03  0.50400001928E-02 0.  1.
       -1    1    3    3    0  502  0.80687030793E+03  0.33730629501E+02 -0.48019816043E+02  0.80900145361E+03  0.50400001928E-02 0. -1.
</event>
<event>
 5   0  0.3713516E-04  0.1162825E+04  0.7818609E-02  0.9146033E-01
       -1   -1    0    0    0  501  0.00000000000E+00  0.00000000000E+00  0.73299637948E+03  0.73299637950E+03  0.50400001928E-02 0. -1.
        1   -1    0    0  501    0  0.00000000000E+00  0.00000000000E+00 -0.46117611865E+03  0.46117611868E+03  0.50400001928E-02 0.  1.
    10030    2    1    2    0    0  0.00000000000E+00  0.00000000000E+00  0.27182026084E+03  0.11941724982E+04  0.11628248799E+04 0.  0.
        5    1    3    3  502    0 -0.42767388739E+03  0.38283423101E+03  0.23087646088E+03  0.61870270128E+03  0.46999998093E+01 0. -1.
       -5    1    3    3    0  502  0.42767388739E+03 -0.38283423101E+03  0.40943799956E+02  0.57546979690E+03  0.46999998093E+01 0.  1.
</event>
<event>
 5   0  0.3723500E-04  0.1633983E+04  0.7818609E-02  0.8799939E-01
        1   -1    0    0  501    0  0.00000000000E+00  0.00000000000E+00  0.12534305340E+04  0.12534305340E+04  0.50400001928E-02 0.  1.
       -1   -1    0    0    0  501  0.00000000000E+00  0.00000000000E+00 -0.53251839893E+03  0.53251839896E+03  0.50400001928E-02 0. -1.
    10030    2    1    2    0    0  0.00000000000E+00  0.00000000000E+00  0.72091213508E+03  0.17859489330E+04  0.16339826452E+04 0.  0.
        1    1    3    3  502    0  0.17863582748E+03  0.58969257447E+03  0.94684688231E+03  0.11296756658E+04  0.50400001928E-02 0.  1.
       -1    1    3    3    0  502 -0.17863582748E+03 -0.58969257447E+03 -0.22593474723E+03  0.65627326722E+03  0.50400001928E-02 0. -1.
</event>
<event>
 5   0  0.3803253E-04  0.1670737E+04  0.7818609E-02  0.8778232E-01
       -1   -1    0    0    0  501  0.00000000000E+00  0.00000000000E+00  0.41158747361E+03  0.41158747364E+03  0.50400001928E-02 0.  1.
        1   -1    0    0  501    0  0.00000000000E+00  0.00000000000E+00 -0.16954850768E+04  0.16954850768E+04  0.50400001928E-02 0. -1.
    10030    2    1    2    0    0  0.00000000000E+00  0.00000000000E+00 -0.12838976032E+04  0.21070725505E+04  0.16707368666E+04 0.  0.
        4    1    3    3  502    0 -0.48840468528E+03  0.35540109852E+03  0.85808971106E+02  0.61009332881E+03  0.12699999809E+01 0.  1.
       -4    1    3    3    0  502  0.48840468528E+03 -0.35540109852E+03 -0.13697065743E+04  0.14969792216E+04  0.12699999809E+01 0. -1.
</event>
<event>
 5   0  0.3635143E-04  0.1659333E+04  0.7818609E-02  0.8784904E-01
       -1   -1    0    0    0  501  0.00000000000E+00  0.00000000000E+00  0.20788607069E+04  0.20788607069E+04  0.50400001928E-02 0.  1.
        1   -1    0    0  501    0  0.00000000000E+00  0.00000000000E+00 -0.33111717879E+03  0.33111717883E+03  0.50400001928E-02 0. -1.
    10030    2    1    2    0    0  0.00000000000E+00  0.00000000000E+00  0.17477435281E+04  0.24099778857E+04  0.16593329894E+04 0.  0.
        3    1    3    3  502    0  0.21184316657E+03  0.71867328408E+03  0.13914108798E+04  0.15803142292E+04  0.10100000352E+00 0. -1.
       -3    1    3    3    0  502 -0.21184316657E+03 -0.71867328408E+03  0.35633264829E+03  0.82966365649E+03  0.10100000352E+00 0.  1.
</event>
<event>
 5   0  0.7049044E-04  0.1808058E+04  0.7818609E-02  0.8702026E-01
        2   -1    0    0  501    0  0.00000000000E+00  0.00000000000E+00  0.69968188212E+03  0.69968188213E+03  0.25500000920E-02 0. -1.
       -2   -1    0    0    0  501  0.00000000000E+00  0.00000000000E+00 -0.11680576805E+04  0.11680576805E+04  0.25500000920E-02 0.  1.
    10030    2    1    2    0    0  0.00000000000E+00  0.00000000000E+00 -0.46837579841E+03  0.18677395627E+04  0.18080584021E+04 0.  0.
        4    1    3    3  502    0 -0.60154494017E+03 -0.44678928273E+03  0.28826340643E+03  0.80285389866E+03  0.12699999809E+01 0. -1.
       -4    1    3    3    0  502  0.60154494017E+03  0.44678928273E+03 -0.75663920484E+03  0.10648856640E+04  0.12699999809E+01 0.  1.
</event>
<event>
 5   0  0.3915701E-04  0.1686539E+04  0.7818609E-02  0.8769079E-01
        1   -1    0    0  501    0  0.00000000000E+00  0.00000000000E+00  0.10476197033E+04  0.10476197033E+04  0.50400001928E-02 0. -1.
       -1   -1    0    0    0  501  0.00000000000E+00  0.00000000000E+00 -0.67878046826E+03  0.67878046828E+03  0.50400001928E-02 0.  1.
    10030    2    1    2    0    0  0.00000000000E+00  0.00000000000E+00  0.36883923501E+03  0.17264001716E+04  0.16865394069E+04 0.  0.
        2    1    3    3  502    0  0.32336896049E+02 -0.51395368372E+03  0.86796672723E+03  0.10092374861E+04  0.25500000920E-02 0. -1.
       -2    1    3    3    0  502 -0.32336896049E+02  0.51395368372E+03 -0.49912749222E+03  0.71716268542E+03  0.25500000920E-02 0.  1.
</event>
<event>
 5   0  0.3635143E-04  0.1706145E+04  0.7818609E-02  0.8757867E-01
        1   -1    0    0  501    0  0.00000000000E+00  0.00000000000E+00  0.12569092435E+04  0.12569092435E+04  0.50400001928E-02 0.  1.
       -1   -1    0    0    0  501  0.00000000000E+00  0.00000000000E+00 -0.57898618651E+03  0.57898618653E+03  0.50400001928E-02 0. -1.
    10030    2    1    2    0    0  0.00000000000E+00  0.00000000000E+00  0.67792305700E+03  0.18358954301E+04  0.17061454683E+04 0.  0.
        3    1    3    3  502    0  0.60744375338E+03 -0.55434989815E+02 -0.30277505885E+03  0.68097995425E+03  0.10100000352E+00 0. -1.
       -3    1    3    3    0  502 -0.60744375338E+03  0.55434989815E+02  0.98069811585E+03  0.11549154758E+04  0.10100000352E+00 0.  1.
</event>
<event>
 5   0  0.6746664E-04  0.1764864E+04  0.7818609E-02  0.8725211E-01
        2   -1    0    0  501    0  0.00000000000E+00  0.00000000000E+00  0.24525906325E+04  0.24525906325E+04  0.25500000920E-02 0.  1.
       -2   -1    0    0    0  501  0.00000000000E+00  0.00000000000E+00 -0.31749550438E+03  0.31749550439E+03  0.25500000920E-02 0. -1.
    10030    2    1    2    0    0  0.00000000000E+00  0.00000000000E+00  0.21350951282E+04  0.27700861369E+04  0.17648643006E+04 0.  0.
        5    1    3    3  502    0 -0.67273170973E+03  0.51866408145E+03  0.14425544634E+04  0.16740865726E+04  0.46999998093E+01 0.  1.
       -5    1    3    3    0  502  0.67273170973E+03 -0.51866408145E+03  0.69254066476E+03  0.10959995643E+04  0.46999998093E+01 0. -1.
</event>
<event>
 5   0  0.3915701E-04  0.1751904E+04  0.7818609E-02  0.8732303E-01
       -1   -1    0    0    0  501  0.00000000000E+00  0.00000000000E+00  0.15820731920E+04  0.15820731920E+04  0.50400001928E-02 0. -1.
        1   -1    0    0  501    0  0.00000000000E+00  0.00000000000E+00 -0.48499116825E+03  0.48499116828E+03  0.50400001928E-02 0.  1.
    10030    2    1    2    0    0  0.00000000000E+00  0.00000000000E+00  0.10970820237E+04  0.20670643603E+04  0.17519035655E+04 0.  0.
        2    1    3    3  502    0 -0.28217779143E+03 -0.45728383777E+03 -0.26768685077E+03  0.60032413273E+03  0.25500000920E-02 0.  1.
       -2    1    3    3    0  502  0.28217779143E+03  0.45728383777E+03  0.13647688745E+04  0.14667402275E+04  0.25500000920E-02 0. -1.
</event>
<event>
 5   0  0.3713516E-04  0.1717621E+04  0.7818609E-02  0.8751378E-01
       -1   -1    0    0    0  501  0.00000000000E+00  0.00000000000E+00  0.24243025248E+04  0.24243025248E+04  0.50400001928E-02 0. -1.
        1   -1    0    0  501    0  0.00000000000E+00  0.00000000000E+00 -0.30423403945E+03  0.30423403949E+03  0.50400001928E-02 0.  1.
    10030    2    1    2    0    0  0.00000000000E+00  0.00000000000E+00  0.21200684854E+04  0.27285365643E+04  0.17176208546E+04 0.  0.
        5    1    3    3  502    0  0.65187205729E+03  0.28525935991E+03  0.18239019615E+04  0.19577922608E+04  0.46999998093E+01 0. -1.
       -5    1    3    3    0  502 -0.65187205729E+03 -0.28525935991E+03  0.29616652390E+03  0.77074430350E+03  0.46999998093E+01 0.  1.
</event>
<event>
 5   0  0.3713516E-04  0.1681040E+04  0.7818609E-02  0.8772252E-01
       -1   -1    0    0    0  501  0.00000000000E+00  0.00000000000E+00  0.77236339041E+03  0.77236339042E+03  0.50400001928E-02 0. -1.
        1   -1    0    0  501    0  0.00000000000E+00  0.00000000000E+00 -0.91469111530E+03  0.91469111532E+03  0.50400001928E-02 0.  1.
    10030    2    1    2    0    0  0.00000000000E+00  0.00000000000E+00 -0.14232772489E+03  0.16870545057E+04  0.16810400721E+04 0.  0.
        5    1    3    3  502    0 -0.68360261871E+03  0.41871778037E+03  0.18235570532E+03  0.82213916898E+03  0.46999998093E+01 0.  1.
       -5    1    3    3    0  502  0.68360261871E+03 -0.41871778037E+03 -0.32468343022E+03  0.86491533676E+03  0.46999998093E+01 0. -1.
</event>
<event>
 5   0  0.7025426E-04  0.1707546E+04  0.7818609E-02  0.8757072E-01
        2   -1    0    0  501    0  0.00000000000E+00  0.00000000000E+00  0.80918798548E+03  0.80918798548E+03  0.25500000920E-02 0. -1.
       -2   -1    0    0    0  501  0.00000000000E+00  0.00000000000E+00 -0.90081422576E+03  0.90081422577E+03  0.25500000920E-02 0.  1.
    10030    2    1    2    0    0  0.00000000000E+00  0.00000000000E+00 -0.91626240282E+02  0.17100022113E+04  0.17075456640E+04 0.  0.
        2    1    3    3  502    0  0.59663034077E+02 -0.39105655756E+03 -0.80350131874E+03  0.89559995426E+03  0.25500000920E-02 0.  1.
       -2    1    3    3    0  502 -0.59663034077E+02  0.39105655756E+03  0.71187507846E+03  0.81440225699E+03  0.25500000920E-02 0. -1.
</event>
<event>
 5   0  0.7025426E-04  0.1695634E+04  0.7818609E-02  0.8763858E-01
       -2   -1    0    0    0  501  0.00000000000E+00  0.00000000000E+00  0.10478692273E+04  0.10478692273E+04  0.25500000920E-02 0.  1.
        2   -1    0    0  501    0  0.00000000000E+00  0.00000000000E+00 -0.68595733894E+03  0.68595733895E+03  0.25500000920E-02 0. -1.
    10030    2    1    2    0    0  0.00000000000E+00  0.00000000000E+00  0.36191188831E+03  0.17338265662E+04  0.16956339071E+04 0.  0.
        2    1    3    3  502    0  0.49506587092E+03 -0.25578805163E+03 -0.47240083643E+03  0.73053425257E+03  0.25500000920E-02 0. -1.
       -2    1    3    3    0  502 -0.49506587092E+03  0.25578805163E+03  0.83431272474E+03  0.10032923136E+04  0.25500000920E-02 0.  1.
</event>
<event>
 5   0  0.6746664E-04  0.1676276E+04  0.7818609E-02  0.8775012E-01
        2   -1    0    0  501    0  0.00000000000E+00  0.00000000000E+00  0.19861617388E+04  0.19861617388E+04  0.25500000920E-02 0.  1.
       -2   -1    0    0    0  501  0.00000000000E+00  0.00000000000E+00 -0.35368491879E+03  0.35368491880E+03  0.25500000920E-02 0. -1.
    10030    2    1    2    0    0  0.00000000000E+00  0.00000000000E+00  0.16324768200E+04  0.23398466576E+04  0.16762761745E+04 0.  0.
        5    1    3    3  502    0  0.16540469420E+03 -0.82152543594E+03  0.79696702175E+03  0.11564779628E+04  0.46999998093E+01 0.  1.
       -5    1    3    3    0  502 -0.16540469420E+03  0.82152543594E+03  0.83550979822E+03  0.11833686947E+04  0.46999998093E+01 0. -1.
</event>
<event>
 5   0  0.7049044E-04  0.1603996E+04  0.7818609E-02  0.8818097E-01
        2   -1    0    0  501    0  0.00000000000E+00  0.00000000000E+00  0.79648469588E+03  0.79648469589E+03  0.25500000920E-02 0. -1.
       -2   -1    0    0    0  501  0.00000000000E+00  0.00000000000E+00 -0.80754925948E+03  0.80754925949E+03  0.25500000920E-02 0.  1.
    10030    2    1    2    0    0  0.00000000000E+00  0.00000000000E+00 -0.11064563604E+02  0.16040339554E+04  0.16039957935E+04 0.  0.
        4    1    3    3  502    0  0.61790720758E+03  0.17944711476E+03  0.47321539183E+03  0.79871459492E+03  0.12699999809E+01 0. -1.
       -4    1    3    3    0  502 -0.61790720758E+03 -0.17944711476E+03 -0.48427995543E+03  0.80531936045E+03  0.12699999809E+01 0.  1.
</event>
<event>
 5   0  0.3723500E-04  0.1508653E+04  0.7818609E-02  0.8878719E-01
       -1   -1    0    0    0  501  0.00000000000E+00  0.00000000000E+00  0.59515885204E+03  0.59515885206E+03  0.50400001928E-02 0. -1.
        1   -1    0    0  501    0  0.00000000000E+00  0.00000000000E+00 -0.95606179115E+03  0.95606179116E+03  0.50400001928E-02 0.  1.
    10030    2    1    2    0    0  0.00000000000E+00  0.00000000000E+00 -0.36090293911E+03  0.15512206432E+04  0.15086532247E+04 0.  0.
        1    1    3    3  502    0 -0.17469420152E+03 -0.69988820528E+03 -0.40723552263E+03  0.82837330646E+03  0.50400001928E-02 0.  1.
       -1    1    3    3    0  502  0.17469420152E+03  0.69988820528E+03  0.46332583518E+02  0.72284733676E+03  0.50400001928E-02 0. -1.
</event>
<event>
 5   0  0.7049044E-04  0.1734282E+04  0.7818609E-02  0.8742050E-01
       -2   -1    0    0    0  501  0.00000000000E+00  0.00000000000E+00  0.80652245203E+03  0.80652245203E+03  0.25500000920E-02 0.  1.
        2   -1    0    0  501    0  0.00000000000E+00  0.00000000000E+00 -0.93231583994E+03  0.93231583994E+03  0.25500000920E-02 0. -1.
    10030    2    1    2    0    0  0.00000000000E+00  0.00000000000E+00 -0.12579338791E+03  0.17388382920E+04  0.17342821654E+04 0.  0.
        4    1    3    3  502    0 -0.43906604757E+02 -0.47442402456E+03 -0.78931791147E+03  0.92197089069E+03  0.12699999809E+01 0. -1.
       -4    1    3    3    0  502  0.43906604757E+02  0.47442402456E+03  0.66352452355E+03  0.81686740128E+03  0.12699999809E+01 0.  1.
</event>
<event>
 5   0  0.3803253E-04  0.1689841E+04  0.7818609E-02  0.8767180E-01
        1   -1    0    0  501    0  0.00000000000E+00  0.00000000000E+00  0.20924645979E+04  0.20924645979E+04  0.50400001928E-02 0. -1.
       -1   -1    0    0    0  501  0.00000000000E+00  0.00000000000E+00 -0.34117200218E+03  0.34117200222E+03  0.50400001928E-02 0.  1.
    10030    2    1    2    0    0  0.00000000000E+00  0.00000000000E+00  0.17512925957E+04  0.24336366001E+04  0.16898406273E+04 0.  0.
        4    1    3    3  502    0  0.39547820376E+03  0.70851197848E+03  0.53637842191E+03  0.97267448702E+03  0.12699999809E+01 0.  1.
       -4    1    3    3    0  502 -0.39547820376E+03 -0.70851197848E+03  0.12149141738E+04  0.14609621131E+04  0.12699999809E+01 0. -1.
</event>
<event>
 5   0  0.7233728E-04  0.1663469E+04  0.7818609E-02  0.8782478E-01
        2   -1    0    0  501    0  0.00000000000E+00  0.00000000000E+00  0.14380089385E+04  0.14380089385E+04  0.25500000920E-02 0. -1.
       -2   -1    0    0    0  501  0.00000000000E+00  0.00000000000E+00 -0.48106975751E+03  0.48106975751E+03  0.25500000920E-02 0.  1.
    10030    2    1    2    0    0  0.00000000000E+00  0.00000000000E+00  0.95693918098E+03  0.19190786960E+04  0.16634694002E+04 0.  0.
        1    1    3    3  502    0 -0.31572607940E+03  0.11056904268E+03 -0.40003662599E+03  0.52147653118E+03  0.50400001928E-02 0.  1.
       -1    1    3    3    0  502  0.31572607940E+03 -0.11056904268E+03  0.13569758070E+04  0.13976021648E+04  0.50400001928E-02 0. -1.
</event>
<event>
 5   0  0.3635143E-04  0.1728592E+04  0.7818609E-02  0.8745223E-01
       -1   -1    0    0    0  501  0.00000000000E+00  0.00000000000E+00  0.49385520834E+03  0.49385520836E+03  0.50400001928E-02 0.  1.
        1   -1    0    0  501    0  0.00000000000E+00  0.00000000000E+00 -0.15126038656E+04  0.15126038656E+04  0.50400001928E-02 0. -1.
    10030    2    1    2    0    0  0.00000000000E+00  0.00000000000E+00 -0.10187486573E+04  0.20064590740E+04  0.17285916779E+04 0.  0.
        3    1    3    3  502    0 -0.36746853961E+03  0.56126869750E+02  0.39632437572E+03  0.54337498480E+03  0.10100000352E+00 0.  1.
       -3    1    3    3    0  502  0.36746853961E+03 -0.56126869750E+02 -0.14150730330E+04  0.14630840892E+04  0.10100000352E+00 0. -1.
</event>
<event>
 5   0  0.7242144E-04  0.1655532E+04  0.7818609E-02  0.8787140E-01
        2   -1    0    0  501    0  0.00000000000E+00  0.00000000000E+00  0.19897446634E+04  0.19897446634E+04  0.25500000920E-02 0. -1.
       -2   -1    0    0    0  501  0.00000000000E+00  0.00000000000E+00 -0.34436411137E+03  0.34436411137E+03  0.25500000920E-02 0.  1.
    10030    2    1    2    0    0  0.00000000000E+00  0.00000000000E+00  0.16453805520E+04  0.23341087747E+04  0.16555321233E+04 0.  0.
        3    1    3    3  502    0 -0.59051364506E+03  0.19893035721E+03  0.54443043754E+02  0.62549476995E+03  0.10100000352E+00 0.  1.
       -3    1    3    3    0  502  0.59051364506E+03 -0.19893035721E+03  0.15909375082E+04  0.17086140048E+04  0.10100000352E+00 0. -1.
</event>
<event>
 5   0  0.3713516E-04  0.1708589E+04  0.7818609E-02  0.8756481E-01
        1   -1    0    0  501    0  0.00000000000E+00  0.00000000000E+00  0.13583158581E+04  0.13583158581E+04  0.50400001928E-02 0. -1.
       -1   -1    0    0    0  501  0.00000000000E+00  0.00000000000E+00 -0.53729734005E+03  0.53729734007E+03  0.50400001928E-02 0.  1.
    10030    2    1    2    0    0  0.00000000000E+00  0.00000000000E+00  0.82101851809E+03  0.18956131982E+04  0.17085894739E+04 0.  0.
        5    1    3    3  502    0  0.61110980066E+03  0.32759153939E+03 -0.14313951913E+03  0.70801300629E+03  0.46999998093E+01 0.  1.
       -5    1    3    3    0  502 -0.61110980066E+03 -0.32759153939E+03  0.96415803722E+03  0.11876001919E+04  0.46999998093E+01 0. -1.
</event>
<event>
 5   0  0.7233728E-04  0.1697796E+04  0.7818609E-02  0.8762622E-01
        2   -1    0    0  501    0  0.00000000000E+00  0.00000000000E+00  0.12572896320E+04  0.12572896320E+04  0.25500000920E-02 0.  1.
       -2   -1    0    0    0  501  0.00000000000E+00  0.00000000000E+00 -0.57315984781E+03  0.57315984781E+03  0.25500000920E-02 0. -1.
    10030    2    1    2    0    0  0.00000000000E+00  0.00000000000E+00  0.68412978417E+03  0.18304494798E+04  0.16977961410E+04 0.  0.
        1    1    3    3  502    0  0.84536343907E+03 -0.64485259876E+02  0.29594095473E+03  0.89798593617E+03  0.50400001928E-02 0.  1.
       -1    1    3    3    0  502 -0.84536343907E+03  0.64485259876E+02  0.38818882943E+03  0.93246354362E+03  0.50400001928E-02 0. -1.
</event>
<event>
 5   0  0.7242144E-04  0.1721733E+04  0.7818609E-02  0.8749065E-01
       -2   -1    0    0    0  501  0.00000000000E+00  0.00000000000E+00  0.47331011806E+03  0.47331011807E+03  0.25500000920E-02 0. -1.
        2   -1    0    0  501    0  0.00000000000E+00  0.00000000000E+00 -0.15657629895E+04  0.15657629895E+04  0.25500000920E-02 0.  1.
    10030    2    1    2    0    0  0.00000000000E+00  0.00000000000E+00 -0.10924528714E+04  0.20390731075E+04  0.17217333887E+04 0.  0.
        3    1    3    3  502    0  0.15418346445E+03 -0.38781893484E+03  0.34548845335E+03  0.54179179444E+03  0.10100000352E+00 0. -1.
       -3    1    3    3    0  502 -0.15418346445E+03  0.38781893484E+03 -0.14379413247E+04  0.14972813131E+04  0.10100000352E+00 0.  1.
</event>
<event>
 5   0  0.3713516E-04  0.1742611E+04  0.7818609E-02  0.8737428E-01
       -1   -1    0    0    0  501  0.00000000000E+00  0.00000000000E+00  0.10140155084E+04  0.10140155084E+04  0.50400001928E-02 0. -1.
        1   -1    0    0  501    0  0.00000000000E+00  0.00000000000E+00 -0.74868003860E+03  0.74868003862E+03  0.50400001928E-02 0.  1.
    10030    2    1    2    0    0  0.00000000000E+00  0.00000000000E+00  0.26533546982E+03  0.17626955470E+04  0.17426108803E+04 0.  0.
        5    1    3    3  502    0 -0.40029678546E+03  0.31949861863E+03  0.84565640076E+03  0.98867270717E+03  0.46999998093E+01 0. -1.
       -5    1    3    3    0  502  0.40029678546E+03 -0.31949861863E+03 -0.58032093095E+03  0.77402283987E+03  0.46999998093E+01 0.  1.
</event>
<event>
 5   0  0.3803253E-04  0.1709062E+04  0.7818609E-02  0.8756213E-01
       -1   -1    0    0    0  501  0.00000000000E+00  0.00000000000E+00  0.67512772527E+03  0.67512772529E+03  0.50400001928E-02 0. -1.
        1   -1    0    0  501    0  0.00000000000E+00  0.00000000000E+00 -0.10816077631E+04  0.10816077631E+04  0.50400001928E-02 0.  1.
    10030    2    1    2    0    0  0.00000000000E+00  0.00000000000E+00 -0.40648003782E+03  0.17567354884E+04  0.17090621858E+04 0.  0.
        4    1    3    3  502    0  0.35679348520E+03 -0.43921306197E+03 -0.86142327659E+03  0.10306606518E+04  0.12699999809E+01 0.  1.
       -4    1    3    3    0  502 -0.35679348520E+03  0.43921306197E+03  0.45494323877E+03  0.72607483656E+03  0.12699999809E+01 0. -1.
</event>
<event>
 5   0  0.3915701E-04  0.1730190E+04  0.7818609E-02  0.8744331E-01
        1   -1    0    0  501    0  0.00000000000E+00  0.00000000000E+00  0.13606651055E+04  0.13606651055E+04  0.50400001928E-02 0. -1.
       -1   -1    0    0    0  501  0.00000000000E+00  0.00000000000E+00 -0.55001703765E+03  0.55001703768E+03  0.50400001928E-02 0.  1.
    10030    2    1    2    0    0  0.00000000000E+00  0.00000000000E+00  0.81064806785E+03  0.19106821432E+04  0.17301895741E+04 0.  0.
        2    1    3    3  502    0  0.29573247015E+03 -0.75894607726E+03  0.72715720862E+03  0.10918857304E+04  0.25500000920E-02 0.  1.
       -2    1    3    3    0  502 -0.29573247015E+03  0.75894607726E+03  0.83490859228E+02  0.81879641284E+03  0.25500000920E-02 0. -1.
</event>
<event>
 5   0  0.7049044E-04  0.1699549E+04  0.7818609E-02  0.8761622E-01
        2   -1    0    0  501    0  0.00000000000E+00  0.00000000000E+00  0.99299361740E+03  0.99299361740E+03  0.25500000920E-02 0. -1.
       -2   -1    0    0    0  501  0.00000000000E+00  0.00000000000E+00 -0.72721200067E+03  0.72721200068E+03  0.25500000920E-02 0.  1.
    10030    2    1    2    0    0  0.00000000000E+00  0.00000000000E+00  0.26578161673E+03  0.17202056181E+04  0.16995492051E+04 0.  0.
        4    1    3    3  502    0  0.42791539091E+03  0.70591346003E+03  0.33705978713E+03  0.89164808519E+03  0.12699999809E+01 0. -1.
       -4    1    3    3    0  502 -0.42791539091E+03 -0.70591346003E+03 -0.71278170408E+02  0.82855753288E+03  0.12699999809E+01 0.  1.
</event>
<event>
 5   0  0.7233728E-04  0.1445812E+04  0.7818609E-02  0.8921309E-01
        2   -1    0    0  501    0  0.00000000000E+00  0.00000000000E+00  0.14895219080E+04  0.14895219080E+04  0.25500000920E-02 0.  1.
       -2   -1    0    0    0  501  0.00000000000E+00  0.00000000000E+00 -0.35084625841E+03  0.35084625842E+03  0.25500000920E-02 0. -1.
    10030    2    1    2    0    0  0.00000000000E+00  0.00000000000E+00  0.11386756496E+04  0.18403681665E+04  0.14458121431E+04 0.  0.
        1    1    3    3  502    0 -0.14491685907E+03  0.33830499433E+02 -0.33113836165E+03  0.36303996105E+03  0.50400001928E-02 0. -1.
       -1    1    3    3    0  502  0.14491685907E+03 -0.33830499433E+02  0.14698140113E+04  0.14773282054E+04  0.50400001928E-02 0.  1.
</event>
<event>
 5   0  0.3723500E-04  0.1767679E+04  0.7818609E-02  0.8723679E-01
        1   -1    0    0  501    0  0.00000000000E+00  0.00000000000E+00  0.12907041093E+04  0.12907041093E+04  0.50400001928E-02 0. -1.
       -1   -1    0    0    0  501  0.00000000000E+00  0.00000000000E+00 -0.60522985323E+03  0.60522985325E+03  0.50400001928E-02 0.  1.
    10030    2    1    2    0    0  0.00000000000E+00  0.00000000000E+00  0.68547425608E+03  0.18959339626E+04  0.17676794491E+04 0.  0.
        1    1    3    3  502    0 -0.10387852596E+03 -0.71812652482E+03 -0.19853277383E+03  0.75227103900E+03  0.50400001928E-02 0. -1.
       -1    1    3    3    0  502  0.10387852596E+03  0.71812652482E+03  0.88400702991E+03  0.11436629236E+04  0.50400001928E-02 0.  1.
</event>
<event>
 5   0  0.6746664E-04  0.1631493E+04  0.7818609E-02  0.8801431E-01
        2   -1    0    0  501    0  0.00000000000E+00  0.00000000000E+00  0.14093782371E+04  0.14093782371E+04  0.25500000920E-02 0.  1.
       -2   -1    0    0    0  501  0.00000000000E+00  0.00000000000E+00 -0.47215335003E+03  0.47215335004E+03  0.25500000920E-02 0. -1.
    10030    2    1    2    0    0  0.00000000000E+00  0.00000000000E+00  0.93722488711E+03  0.18815315872E+04  0.16314933725E+04 0.  0.
        5    1    3    3  502    0  0.33327979457E+03 -0.67328305386E+03  0.10203791746E+03  0.75816839731E+03  0.46999998093E+01 0. -1.
       -5    1    3    3    0  502 -0.33327979457E+03  0.67328305386E+03  0.83518696964E+03  0.11233631899E+04  0.46999998093E+01 0.  1.
</event>
<event>
 5   0  0.3803253E-04  0.1706932E+04  0.7818609E-02  0.8757421E-01
        1   -1    0    0  501    0  0.00000000000E+00  0.00000000000E+00  0.95666700831E+03  0.95666700832E+03  0.50400001928E-02 0.  1.
       -1   -1    0    0    0  501  0.00000000000E+00  0.00000000000E+00 -0.76139804188E+03  0.76139804190E+03  0.50400001928E-02 0. -1.
    10030    2    1    2    0    0  0.00000000000E+00  0.00000000000E+00  0.19526896642E+03  0.17180650502E+04  0.17069322036E+04 0.  0.
        4    1    3    3  502    0 -0.60862466765E+03 -0.44903191682E+03  0.49562347480E+03  0.90426649284E+03  0.12699999809E+01 0.  1.
       -4    1    3    3    0  502  0.60862466765E+03  0.44903191682E+03 -0.30035450838E+03  0.81379855738E+03  0.12699999809E+01 0. -1.
</event>
<event>
 5   0  0.3635143E-04  0.1708820E+04  0.7818609E-02  0.8756350E-01
       -1   -1    0    0    0  501  0.00000000000E+00  0.00000000000E+00  0.73399418817E+03  0.73399418819E+03  0.50400001928E-02 0.  1.
        1   -1    0    0  501    0  0.00000000000E+00  0.00000000000E+00 -0.99458033183E+03  0.99458033184E+03  0.50400001928E-02 0. -1.
    10030    2    1    2    0    0  0.00000000000E+00  0.00000000000E+00 -0.26058614365E+03  0.17285745200E+04  0.17088196900E+04 0.  0.
        3    1    3    3  502    0  0.67207756573E+03  0.52732988778E+03 -0.14632265651E+03  0.86670375268E+03  0.10100000352E+00 0. -1.
       -3    1    3    3    0  502 -0.67207756573E+03 -0.52732988778E+03 -0.11426348714E+03  0.86187076734E+03  0.10100000352E+00 0.  1.
</event>
<event>
 5   0  0.2639750E-04  0.1701346E+04  0.7818609E-02  0.8760597E-01
        3   -1    0    0  501    0  0.00000000000E+00  0.00000000000E+00  0.66914974294E+03  0.66914975056E+03  0.10100000352E+00 0.  1.
       -3   -1    0    0    0  501  0.00000000000E+00  0.00000000000E+00 -0.10814394981E+04  0.10814395028E+04  0.10100000352E+00 0. -1.
    10030    2    1    2    0    0  0.00000000000E+00  0.00000000000E+00 -0.41228975513E+03  0.17505892533E+04  0.17013464937E+04 0.  0.
        5    1    3    3  502    0 -0.10800914820E+03  0.84318530167E+03 -0.17368087510E+03  0.86764887219E+03  0.46999998093E+01 0.  1.
       -5    1    3    3    0  502  0.10800914820E+03 -0.84318530167E+03 -0.23860888003E+03  0.88294038115E+03  0.46999998093E+01 0. -1.
</event>
<event>
 5   0  0.3915701E-04  0.1695470E+04  0.7818609E-02  0.8763952E-01
        1   -1    0    0  501    0  0.00000000000E+00  0.00000000000E+00  0.17121076088E+04  0.17121076088E+04  0.50400001928E-02 0.  1.
       -1   -1    0    0    0  501  0.00000000000E+00  0.00000000000E+00 -0.41974860175E+03  0.41974860178E+03  0.50400001928E-02 0. -1.
    10030    2    1    2    0    0  0.00000000000E+00  0.00000000000E+00  0.12923590071E+04  0.21318562106E+04  0.16954701707E+04 0.  0.
        2    1    3    3  502    0 -0.19165794873E+03 -0.54068221994E+03  0.14309970890E+04  0.15416947496E+04  0.25500000920E-02 0.  1.
       -2    1    3    3    0  502  0.19165794873E+03  0.54068221994E+03 -0.13863808193E+03  0.59016146099E+03  0.25500000920E-02 0. -1.
</event>
<event>
 5   0  0.7049044E-04  0.1689579E+04  0.7818609E-02  0.8767330E-01
        2   -1    0    0  501    0  0.00000000000E+00  0.00000000000E+00  0.10120285481E+04  0.10120285481E+04  0.25500000920E-02 0. -1.
       -2   -1    0    0    0  501  0.00000000000E+00  0.00000000000E+00 -0.70518722811E+03  0.70518722812E+03  0.25500000920E-02 0.  1.
    10030    2    1    2    0    0  0.00000000000E+00  0.00000000000E+00  0.30684132002E+03  0.17172157763E+04  0.16895793638E+04 0.  0.
        4    1    3    3  502    0  0.31120917516E+03 -0.54068276121E+03 -0.42552735225E+03  0.75515835385E+03  0.12699999809E+01 0.  1.
       -4    1    3    3    0  502 -0.31120917516E+03  0.54068276121E+03  0.73236867227E+03  0.96205742240E+03  0.12699999809E+01 0. -1.
</event>
<event>
 5   0  0.3723500E-04  0.1702633E+04  0.7818609E-02  0.8759864E-01
       -1   -1    0    0    0  501  0.00000000000E+00  0.00000000000E+00  0.21591369927E+04  0.21591369927E+04  0.50400001928E-02 0.  1.
        1   -1    0    0  501    0  0.00000000000E+00  0.00000000000E+00 -0.33566175836E+03  0.33566175840E+03  0.50400001928E-02 0. -1.
    10030    2    1    2    0    0  0.00000000000E+00  0.00000000000E+00  0.18234752344E+04  0.24947987511E+04  0.17026329253E+04 0.  0.
        1    1    3    3  502    0 -0.68257532667E+03  0.22390744887E+03  0.24235927846E+03  0.75814354981E+03  0.50400001928E-02 0. -1.
       -1    1    3    3    0  502  0.68257532667E+03 -0.22390744887E+03  0.15811159559E+04  0.17366552013E+04  0.50400001928E-02 0.  1.
</event>
<event>
 5   0  0.3635143E-04  0.1672808E+04  0.7818609E-02  0.8777026E-01
       -1   -1    0    0    0  501  0.00000000000E+00  0.00000000000E+00  0.29452966284E+03  0.29452966289E+03  0.50400001928E-02 0.  1.
        1   -1    0    0  501    0  0.00000000000E+00  0.00000000000E+00 -0.23752174468E+04  0.23752174468E+04  0.50400001928E-02 0. -1.
    10030    2    1    2    0    0  0.00000000000E+00  0.00000000000E+00 -0.20806877840E+04  0.26697471097E+04  0.16728084097E+04 0.  0.
        3    1    3    3  502    0  0.55645432151E+03  0.50192415999E+03 -0.16332251589E+04  0.17969400948E+04  0.10100000352E+00 0.  1.
       -3    1    3    3    0  502 -0.55645432151E+03 -0.50192415999E+03 -0.44746262509E+03  0.87280701496E+03  0.10100000352E+00 0. -1.
</event>
<event>
 5   0  0.7025426E-04  0.1707020E+04  0.7818609E-02  0.8757371E-01
        2   -1    0    0  501    0  0.00000000000E+00  0.00000000000E+00  0.93150974091E+03  0.93150974091E+03  0.25500000920E-02 0. -1.
       -2   -1    0    0    0  501  0.00000000000E+00  0.00000000000E+00 -0.78204117472E+03  0.78204117472E+03  0.25500000920E-02 0.  1.
    10030    2    1    2    0    0  0.00000000000E+00  0.00000000000E+00  0.14946856619E+03  0.17135509156E+04  0.17070195922E+04 0.  0.
        2    1    3    3  502    0  0.54703433257E+03  0.46285331892E+03  0.54018847504E+03  0.89737581002E+03  0.25500000920E-02 0. -1.
       -2    1    3    3    0  502 -0.54703433257E+03 -0.46285331892E+03 -0.39071990884E+03  0.81617510561E+03  0.25500000920E-02 0.  1.
</event>
<event>
 5   0  0.7049044E-04  0.1766079E+04  0.7818609E-02  0.8724549E-01
       -2   -1    0    0    0  501  0.00000000000E+00  0.00000000000E+00  0.47763677123E+03  0.47763677124E+03  0.25500000920E-02 0.  1.
        2   -1    0    0  501    0  0.00000000000E+00  0.00000000000E+00 -0.16325348137E+04  0.16325348137E+04  0.25500000920E-02 0. -1.
    10030    2    1    2    0    0  0.00000000000E+00  0.00000000000E+00 -0.11548980425E+04  0.21101715849E+04  0.17660788854E+04 0.  0.
        4    1    3    3  502    0 -0.69452801446E+03 -0.76689392341E+02 -0.12225562112E+04  0.14081533042E+04  0.12699999809E+01 0. -1.
       -4    1    3    3    0  502  0.69452801446E+03  0.76689392341E+02  0.67658168724E+02  0.70201828072E+03  0.12699999809E+01 0.  1.
</event>
<event>
 5   0  0.3713516E-04  0.1753174E+04  0.7818609E-02  0.8731605E-01
        1   -1    0    0  501    0  0.00000000000E+00  0.00000000000E+00  0.91320058140E+03  0.91320058142E+03  0.50400001928E-02 0.  1.
       -1   -1    0    0    0  501  0.00000000000E+00  0.00000000000E+00 -0.84144186701E+03  0.84144186702E+03  0.50400001928E-02 0. -1.
    10030    2    1    2    0    0  0.00000000000E+00  0.00000000000E+00  0.71758714396E+02  0.17546424484E+04  0.17531744947E+04 0.  0.
        5    1    3    3  502    0  0.55964239564E+03 -0.38285885228E+03 -0.52010590341E+03  0.85458337950E+03  0.46999998093E+01 0. -1.
       -5    1    3    3    0  502 -0.55964239564E+03  0.38285885228E+03  0.59186461780E+03  0.90005906893E+03  0.46999998093E+01 0.  1.
</event>
<event>
 5   0  0.7049044E-04  0.1733345E+04  0.7818609E-02  0.8742572E-01
       -2   -1    0    0    0  501  0.00000000000E+00  0.00000000000E+00  0.44005158750E+03  0.44005158751E+03  0.25500000920E-02 0. -1.
        2   -1    0    0  501    0  0.00000000000E+00  0.00000000000E+00 -0.17068932853E+04  0.17068932853E+04  0.25500000920E-02 0.  1.
    10030    2    1    2    0    0  0.00000000000E+00  0.00000000000E+00 -0.12668416978E+04  0.21469448729E+04  0.17333448588E+04 0.  0.
        4    1    3    3  502    0  0.70967889004E+03 -0.21758517551E+03 -0.79313078968E+02  0.74651162949E+03  0.12699999809E+01 0. -1.
       -4    1    3    3    0  502 -0.70967889004E+03  0.21758517551E+03 -0.11875286189E+04  0.14004332434E+04  0.12699999809E+01 0.  1.
</event>
<event>
 5   0  0.3915701E-04  0.1666232E+04  0.7818609E-02  0.8780861E-01
       -1   -1    0    0    0  501  0.00000000000E+00  0.00000000000E+00  0.44253553071E+03  0.44253553074E+03  0.50400001928E-02 0. -1.
        1   -1    0    0  501    0  0.00000000000E+00  0.00000000000E+00 -0.15684211488E+04  0.15684211488E+04  0.50400001928E-02 0.  1.
    10030    2    1    2    0    0  0.00000000000E+00  0.00000000000E+00 -0.11258856180E+04  0.20109566795E+04  0.16662317792E+04 0.  0.
        2    1    3    3  502    0 -0.78075018457E+03  0.23883642480E+03 -0.36291795635E+03  0.89348930132E+03  0.25500000920E-02 0. -1.
       -2    1    3    3    0  502  0.78075018457E+03 -0.23883642480E+03 -0.76296766169E+03  0.11174673782E+04  0.25500000920E-02 0.  1.
</event>
<event>
 5   0  0.6746664E-04  0.1611345E+04  0.7818609E-02  0.8813609E-01
       -2   -1    0    0    0  501  0.00000000000E+00  0.00000000000E+00  0.85576925869E+03  0.85576925869E+03  0.25500000920E-02 0.  1.
        2   -1    0    0  501    0  0.00000000000E+00  0.00000000000E+00 -0.75850822398E+03  0.75850822398E+03  0.25500000920E-02 0. -1.
    10030    2    1    2    0    0  0.00000000000E+00  0.00000000000E+00  0.97261034714E+02  0.16142774827E+04  0.16113448055E+04 0.  0.
        5    1    3    3  502    0 -0.42280448939E+03 -0.68124370956E+03  0.12770009440E+03  0.81190272334E+03  0.46999998093E+01 0. -1.
       -5    1    3    3    0  502  0.42280448939E+03  0.68124370956E+03 -0.30439059687E+02  0.80237475933E+03  0.46999998093E+01 0.  1.
</event>
<event>
 5   0  0.3803253E-04  0.1707423E+04  0.7818609E-02  0.8757142E-01
        1   -1    0    0  501    0  0.00000000000E+00  0.00000000000E+00  0.80266653473E+03  0.80266653475E+03  0.50400001928E-02 0. -1.
       -1   -1    0    0    0  501  0.00000000000E+00  0.00000000000E+00 -0.90800211025E+03  0.90800211027E+03  0.50400001928E-02 0.  1.
    10030    2    1    2    0    0  0.00000000000E+00  0.00000000000E+00 -0.10533557552E+03  0.17106686450E+04  0.17074225106E+04 0.  0.
        4    1    3    3  502    0 -0.88989842659E+02  0.35375896652E+03 -0.82598799481E+03  0.90295203580E+03  0.12699999809E+01 0.  1.
       -4    1    3    3    0  502  0.88989842659E+02 -0.35375896652E+03  0.72065241929E+03  0.80771660922E+03  0.12699999809E+01 0. -1.
</event>
<event>
 5   0  0.7242144E-04  0.1681250E+04  0.7818609E-02  0.8772131E-01
        2   -1    0    0  501    0  0.00000000000E+00  0.00000000000E+00  0.86576494764E+03  0.86576494764E+03  0.25500000920E-02 0.  1.
       -2   -1    0    0    0  501  0.00000000000E+00  0.00000000000E+00 -0.81621538833E+03  0.81621538834E+03  0.25500000920E-02 0. -1.
    10030    2    1    2    0    0  0.00000000000E+00  0.00000000000E+00  0.49549559304E+02  0.16819803360E+04  0.16812503358E+04 0.  0.
        3    1    3    3  502    0 -0.57509201333E+03 -0.55848073672E+03  0.27790461199E+03  0.84844713486E+03  0.10100000352E+00 0.  1.
       -3    1    3    3    0  502  0.57509201333E+03  0.55848073672E+03 -0.22835505269E+03  0.83353320112E+03  0.10100000352E+00 0. -1.
</event>
<event>
 5   0  0.6746664E-04  0.1722345E+04  0.7818609E-02  0.8748722E-01
       -2   -1    0    0    0  501  0.00000000000E+00  0.00000000000E+00  0.61708041392E+03  0.61708041393E+03  0.25500000920E-02 0. -1.
        2   -1    0    0  501    0  0.00000000000E+00  0.00000000000E+00 -0.12018173993E+04  0.12018173993E+04  0.25500000920E-02 0.  1.
    10030    2    1    2    0    0  0.00000000000E+00  0.00000000000E+00 -0.58473698538E+03  0.18188978132E+04  0.17223448879E+04 0.  0.
        5    1    3    3  502    0  0.34844945715E+03  0.76268042428E+03 -0.49957532650E+03  0.97606149941E+03  0.46999998093E+01 0. -1.
       -5    1    3    3    0  502 -0.34844945715E+03 -0.76268042428E+03 -0.85161658879E+02  0.84283631383E+03  0.46999998093E+01 0.  1.
</event>
<event>
 5   0  0.7025426E-04  0.1611736E+04  0.7818609E-02  0.8813370E-01
        2   -1    0    0  501    0  0.00000000000E+00  0.00000000000E+00  0.11184410646E+04  0.11184410646E+04  0.25500000920E-02 0. -1.
       -2   -1    0    0    0  501  0.00000000000E+00  0.00000000000E+00 -0.58065051204E+03  0.58065051205E+03  0.25500000920E-02 0.  1.
    10030    2    1    2    0    0  0.00000000000E+00  0.00000000000E+00  0.53779055253E+03  0.16990915766E+04  0.16117361780E+04 0.  0.
        2    1    3    3  502    0 -0.83236334887E+02  0.61704301667E+03  0.80824277683E+03  0.10202581821E+04  0.25500000920E-02 0. -1.
       -2    1    3    3    0  502  0.83236334887E+02 -0.61704301667E+03 -0.27045222430E+03  0.67883339451E+03  0.25500000920E-02 0.  1.
</event>
<event>
 5   0  0.2639750E-04  0.1423839E+04  0.7818609E-02  0.8936741E-01
        3   -1    0    0  501    0  0.00000000000E+00  0.00000000000E+00  0.53174188219E+03  0.53174189178E+03  0.10100000352E+00 0. -1.
       -3   -1    0    0    0  501  0.00000000000E+00  0.00000000000E+00 -0.95314929324E+03  0.95314929859E+03  0.10100000352E+00 0.  1.
    10030    2    1    2    0    0  0.00000000000E+00  0.00000000000E+00 -0.42140741105E+03  0.14848911904E+04  0.14238390503E+04 0.  0.
        4    1    3    3  502    0  0.62574589999E+03  0.15574333810E+03 -0.52532458614E+03  0.83173400340E+03  0.12699999809E+01 0.  1.
       -4    1    3    3    0  502 -0.62574589999E+03 -0.15574333810E+03  0.10391717509E+03  0.65315718697E+03  0.12699999809E+01 0. -1.
</event>
<event>
 5   0  0.7049044E-04  0.1695165E+04  0.7818609E-02  0.8764127E-01
        2   -1    0    0  501    0  0.00000000000E+00  0.00000000000E+00  0.83991263420E+03  0.83991263420E+03  0.25500000920E-02 0.  1.
       -2   -1    0    0    0  501  0.00000000000E+00  0.00000000000E+00 -0.85532238554E+03  0.85532238554E+03  0.25500000920E-02 0. -1.
    10030    2    1    2    0    0  0.00000000000E+00  0.00000000000E+00 -0.15409751340E+02  0.16952350197E+04  0.16951649807E+04 0.  0.
        4    1    3    3  502    0 -0.10338759340E+03 -0.46202928167E+03  0.69534224566E+03  0.84122678458E+03  0.12699999809E+01 0.  1.
       -4    1    3    3    0  502  0.10338759340E+03  0.46202928167E+03 -0.71075199700E+03  0.85400823516E+03  0.12699999809E+01 0. -1.
</event>
<event>
 5   0  0.6746664E-04  0.1661230E+04  0.7818609E-02  0.8783790E-01
        2   -1    0    0  501    0  0.00000000000E+00  0.00000000000E+00  0.48785668920E+03  0.48785668921E+03  0.25500000920E-02 0. -1.
       -2   -1    0    0    0  501  0.00000000000E+00  0.00000000000E+00 -0.14141891863E+04  0.14141891863E+04  0.25500000920E-02 0.  1.
    10030    2    1    2    0    0  0.00000000000E+00  0.00000000000E+00 -0.92633249709E+03  0.19020458755E+04  0.16612304528E+04 0.  0.
        5    1    3    3  502    0 -0.79989033041E+02  0.21567758428E+03 -0.13769754684E+04  0.13960653983E+04  0.46999998093E+01 0.  1.
       -5    1    3    3    0  502  0.79989033041E+02 -0.21567758428E+03  0.45064297128E+03  0.50598047722E+03  0.46999998093E+01 0. -1.
</event>
<event>
 5   0  0.3803253E-04  0.1718912E+04  0.7818609E-02  0.8750651E-01
        1   -1    0    0  501    0  0.00000000000E+00  0.00000000000E+00  0.97651518906E+03  0.97651518908E+03  0.50400001928E-02 0.  1.
       -1   -1    0    0    0  501  0.00000000000E+00  0.00000000000E+00 -0.75642948771E+03  0.75642948773E+03  0.50400001928E-02 0. -1.
    10030    2    1    2    0    0  0.00000000000E+00  0.00000000000E+00  0.22008570135E+03  0.17329446768E+04  0.17189123122E+04 0.  0.
        4    1    3    3  502    0 -0.81875448896E+03  0.18680127057E+03  0.29431805290E+03  0.88987547277E+03  0.12699999809E+01 0.  1.
       -4    1    3    3    0  502  0.81875448896E+03 -0.18680127057E+03 -0.74232351543E+02  0.84306920403E+03  0.12699999809E+01 0. -1.
</event>
<event>
 5   0  0.2639750E-04  0.1708382E+04  0.7818609E-02  0.8756598E-01
        4   -1    0    0  501    0  0.00000000000E+00  0.00000000000E+00  0.92157000580E+03  0.92157088088E+03  0.12699999809E+01 0.  1.
       -4   -1    0    0    0  501  0.00000000000E+00  0.00000000000E+00 -0.79173636586E+03  0.79173738445E+03  0.12699999809E+01 0. -1.
    10030    2    1    2    0    0  0.00000000000E+00  0.00000000000E+00  0.12983363994E+03  0.17133082653E+04  0.17083818186E+04 0.  0.
        4    1    3    3  502    0  0.47313230742E+03 -0.46370098448E+03 -0.47586696324E+03  0.81567380915E+03  0.12699999809E+01 0. -1.
       -4    1    3    3    0  502 -0.47313230742E+03  0.46370098448E+03  0.60570060317E+03  0.89763445618E+03  0.12699999809E+01 0.  1.
</event>
<event>
 5   0  0.6746664E-04  0.1670512E+04  0.7818609E-02  0.8778363E-01
        2   -1    0    0  501    0  0.00000000000E+00  0.00000000000E+00  0.27154704104E+04  0.27154704104E+04  0.25500000920E-02 0.  1.
       -2   -1    0    0    0  501  0.00000000000E+00  0.00000000000E+00 -0.25691785969E+03  0.25691785971E+03  0.25500000920E-02 0. -1.
    10030    2    1    2    0    0  0.00000000000E+00  0.00000000000E+00  0.24585525507E+04  0.29723882701E+04  0.16705123117E+04 0.  0.
        5    1    3    3  502    0 -0.88723101509E+02  0.82635161722E+03  0.10814531257E+04  0.13639251215E+04  0.46999998093E+01 0. -1.
       -5    1    3    3    0  502  0.88723101509E+02 -0.82635161722E+03  0.13770994250E+04  0.16084631486E+04  0.46999998093E+01 0.  1.
</event>
<event>
 5   0  0.3635143E-04  0.1769553E+04  0.7818609E-02  0.8722660E-01
        1   -1    0    0  501    0  0.00000000000E+00  0.00000000000E+00  0.60126993774E+03  0.60126993776E+03  0.50400001928E-02 0.  1.
       -1   -1    0    0    0  501  0.00000000000E+00  0.00000000000E+00 -0.13019606601E+04  0.13019606601E+04  0.50400001928E-02 0. -1.
    10030    2    1    2    0    0  0.00000000000E+00  0.00000000000E+00 -0.70069072234E+03  0.19032305978E+04  0.17695533957E+04 0.  0.
        3    1    3    3  502    0 -0.20613413156E+01  0.79393131928E+03  0.69665649991E+02  0.79698463087E+03  0.10100000352E+00 0.  1.
       -3    1    3    3    0  502  0.20613413156E+01 -0.79393131928E+03 -0.77035637234E+03  0.11062459670E+04  0.10100000352E+00 0. -1.
</event>
<event>
 5   0  0.7233728E-04  0.1717578E+04  0.7818609E-02  0.8751402E-01
       -2   -1    0    0    0  501  0.00000000000E+00  0.00000000000E+00  0.97138400406E+03  0.97138400406E+03  0.25500000920E-02 0.  1.
        2   -1    0    0  501    0  0.00000000000E+00  0.00000000000E+00 -0.75924513109E+03  0.75924513109E+03  0.25500000920E-02 0. -1.
    10030    2    1    2    0    0  0.00000000000E+00  0.00000000000E+00  0.21213887297E+03  0.17306291352E+04  0.17175780338E+04 0.  0.
        1    1    3    3  502    0 -0.70766050333E+03  0.27293482428E+03 -0.29978366611E+03  0.81556548037E+03  0.50400001928E-02 0. -1.
       -1    1    3    3    0  502  0.70766050333E+03 -0.27293482428E+03  0.51192253908E+03  0.91506365479E+03  0.50400001928E-02 0.  1.
</event>
<event>
 5   0  0.3723500E-04  0.1701273E+04  0.7818609E-02  0.8760639E-01
       -1   -1    0    0    0  501  0.00000000000E+00  0.00000000000E+00  0.65130606036E+03  0.65130606038E+03  0.50400001928E-02 0. -1.
        1   -1    0    0  501    0  0.00000000000E+00  0.00000000000E+00 -0.11109715483E+04  0.11109715484E+04  0.50400001928E-02 0.  1.
    10030    2    1    2    0    0  0.00000000000E+00  0.00000000000E+00 -0.45966548798E+03  0.17622776087E+04  0.17012730555E+04 0.  0.
        1    1    3    3  502    0 -0.34410331722E+03 -0.14419045456E+03 -0.10216950163E+04  0.10876850125E+04  0.50400001928E-02 0.  1.
       -1    1    3    3    0  502  0.34410331722E+03  0.14419045456E+03  0.56202952833E+03  0.67459259620E+03  0.50400001928E-02 0. -1.
</event>
<event>
 5   0  0.7233728E-04  0.1765649E+04  0.7818609E-02  0.8724783E-01
        2   -1    0    0  501    0  0.00000000000E+00  0.00000000000E+00  0.15644396584E+04  0.15644396584E+04  0.25500000920E-02 0. -1.
       -2   -1    0    0    0  501  0.00000000000E+00  0.00000000000E+00 -0.49818408613E+03  0.49818408614E+03  0.25500000920E-02 0.  1.
    10030    2    1    2    0    0  0.00000000000E+00  0.00000000000E+00  0.10662555722E+04  0.20626237445E+04  0.17656488230E+04 0.  0.
        1    1    3    3  502    0 -0.33888757457E+03  0.77585134639E+03  0.24087131197E+03  0.88023240615E+03  0.50400001928E-02 0.  1.
       -1    1    3    3    0  502  0.33888757457E+03 -0.77585134639E+03  0.82538426025E+03  0.11823913383E+04  0.50400001928E-02 0. -1.
</event>
<event>
 5   0  0.7233728E-04  0.1665925E+04  0.7818609E-02  0.8781041E-01
        2   -1    0    0  501    0  0.00000000000E+00  0.00000000000E+00  0.45455324818E+03  0.45455324819E+03  0.25500000920E-02 0. -1.
       -2   -1    0    0    0  501  0.00000000000E+00  0.00000000000E+00 -0.15263912810E+04  0.15263912810E+04  0.25500000920E-02 0.  1.
    10030    2    1    2    0    0  0.00000000000E+00  0.00000000000E+00 -0.10718380328E+04  0.19809445292E+04  0.16659245058E+04 0.  0.
        1    1    3    3  502    0 -0.58395978133E+03  0.59011404080E+03 -0.45542407559E+03  0.94691852659E+03  0.50400001928E-02 0. -1.
       -1    1    3    3    0  502  0.58395978133E+03 -0.59011404080E+03 -0.61641395725E+03  0.10340260026E+04  0.50400001928E-02 0.  1.
</event>
<event>
 5   0  0.6746664E-04  0.1746358E+04  0.7818609E-02  0.8735357E-01
       -2   -1    0    0    0  501  0.00000000000E+00  0.00000000000E+00  0.11336169419E+04  0.11336169419E+04  0.25500000920E-02 0.  1.
        2   -1    0    0  501    0  0.00000000000E+00  0.00000000000E+00 -0.67257459567E+03  0.67257459567E+03  0.25500000920E-02 0. -1.
    10030    2    1    2    0    0  0.00000000000E+00  0.00000000000E+00  0.46104234619E+03  0.18061915375E+04  0.17463584470E+04 0.  0.
        5    1    3    3  502    0  0.17423709594E+03  0.12344182914E+03  0.11061831774E+04  0.11266142919E+04  0.46999998093E+01 0.  1.
       -5    1    3    3    0  502 -0.17423709594E+03 -0.12344182914E+03 -0.64514083117E+03  0.67957724566E+03  0.46999998093E+01 0. -1.
</event>
<event>
 5   0  0.7242144E-04  0.1685795E+04  0.7818609E-02  0.8769508E-01
       -2   -1    0    0    0  501  0.00000000000E+00  0.00000000000E+00  0.74691525534E+03  0.74691525534E+03  0.25500000920E-02 0.  1.
        2   -1    0    0  501    0  0.00000000000E+00  0.00000000000E+00 -0.95121406704E+03  0.95121406704E+03  0.25500000920E-02 0. -1.
    10030    2    1    2    0    0  0.00000000000E+00  0.00000000000E+00 -0.20429881170E+03  0.16981293224E+04  0.16857951213E+04 0.  0.
        3    1    3    3  502    0  0.74359078766E+03  0.39519704789E+03 -0.64887931966E+02  0.84458180188E+03  0.10100000352E+00 0.  1.
       -3    1    3    3    0  502 -0.74359078766E+03 -0.39519704789E+03 -0.13941087973E+03  0.85354752050E+03  0.10100000352E+00 0. -1.
</event>
<event>
 5   0  0.3915701E-04  0.1592039E+04  0.7818609E-02  0.8825454E-01
        1   -1    0    0  501    0  0.00000000000E+00  0.00000000000E+00  0.14937654937E+04  0.14937654937E+04  0.50400001928E-02 0.  1.
       -1   -1    0    0    0  501  0.00000000000E+00  0.00000000000E+00 -0.42419429720E+03  0.42419429723E+03  0.50400001928E-02 0. -1.
    10030    2    1    2    0    0  0.00000000000E+00  0.00000000000E+00  0.10695711965E+04  0.19179597909E+04  0.15920386978E+04 0.  0.
        2    1    3    3  502    0  0.35274498683E+03 -0.34151925425E+03 -0.22004809670E+03  0.53803865254E+03  0.25500000920E-02 0. -1.
       -2    1    3    3    0  502 -0.35274498683E+03  0.34151925425E+03  0.12896192932E+04  0.13799211384E+04  0.25500000920E-02 0.  1.
</event>
<event>
 5   0  0.3635143E-04  0.1767914E+04  0.7818609E-02  0.8723551E-01
        1   -1    0    0  501    0  0.00000000000E+00  0.00000000000E+00  0.11497065236E+04  0.11497065236E+04  0.50400001928E-02 0.  1.
       -1   -1    0    0    0  501  0.00000000000E+00  0.00000000000E+00 -0.67963406366E+03  0.67963406367E+03  0.50400001928E-02 0. -1.
    10030    2    1    2    0    0  0.00000000000E+00  0.00000000000E+00  0.47007245990E+03  0.18293405872E+04  0.17679137045E+04 0.  0.
        3    1    3    3  502    0 -0.25759199202E+03  0.70980031124E+03 -0.24050735201E+03  0.79247328836E+03  0.10100000352E+00 0.  1.
       -3    1    3    3    0  502  0.25759199202E+03 -0.70980031124E+03  0.71057981191E+03  0.10368672989E+04  0.10100000352E+00 0. -1.
</event>
<event>
 5   0  0.2639750E-04  0.1678720E+04  0.7818609E-02  0.8773595E-01
       -3   -1    0    0    0  501  0.00000000000E+00  0.00000000000E+00  0.47118592612E+03  0.47118593695E+03  0.10100000352E+00 0.  1.
        3   -1    0    0  501    0  0.00000000000E+00  0.00000000000E+00 -0.14952174347E+04  0.14952174381E+04  0.10100000352E+00 0. -1.
    10030    2    1    2    0    0  0.00000000000E+00  0.00000000000E+00 -0.10240315086E+04  0.19664033751E+04  0.16787202575E+04 0.  0.
        1    1    3    3  502    0  0.39438557868E+03  0.30998806379E+03 -0.13003166278E+04  0.13937201716E+04  0.50400001928E-02 0. -1.
       -1    1    3    3    0  502 -0.39438557868E+03 -0.30998806379E+03  0.27628511919E+03  0.57268320342E+03  0.50400001928E-02 0.  1.
</event>
<event>
 5   0  0.3915701E-04  0.1739354E+04  0.7818609E-02  0.8739232E-01
        1   -1    0    0  501    0  0.00000000000E+00  0.00000000000E+00  0.86690232969E+03  0.86690232970E+03  0.50400001928E-02 0.  1.
       -1   -1    0    0    0  501  0.00000000000E+00  0.00000000000E+00 -0.87246069644E+03  0.87246069645E+03  0.50400001928E-02 0. -1.
    10030    2    1    2    0    0  0.00000000000E+00  0.00000000000E+00 -0.55583667514E+01  0.17393630262E+04  0.17393541449E+04 0.  0.
        2    1    3    3  502    0  0.52947298112E+03  0.20169265135E+03  0.65700948923E+03  0.86757307029E+03  0.25500000920E-02 0.  1.
       -2    1    3    3    0  502 -0.52947298112E+03 -0.20169265135E+03 -0.66256785598E+03  0.87178995586E+03  0.25500000920E-02 0. -1.
</event>
<event>
 5   0  0.3723500E-04  0.1684558E+04  0.7818609E-02  0.8770221E-01
        1   -1    0    0  501    0  0.00000000000E+00  0.00000000000E+00  0.87513725796E+03  0.87513725798E+03  0.50400001928E-02 0.  1.
       -1   -1    0    0    0  501  0.00000000000E+00  0.00000000000E+00 -0.81065429558E+03  0.81065429559E+03  0.50400001928E-02 0. -1.
    10030    2    1    2    0    0  0.00000000000E+00  0.00000000000E+00  0.64482962384E+02  0.16857915536E+04  0.16845578380E+04 0.  0.
        1    1    3    3  502    0  0.52320076428E+03 -0.48107132979E+03 -0.42004649914E+03  0.82559537641E+03  0.50400001928E-02 0. -1.
       -1    1    3    3    0  502 -0.52320076428E+03  0.48107132979E+03  0.48452946152E+03  0.86019617716E+03  0.50400001928E-02 0.  1.
</event>
<event>
 5   0  0.7049044E-04  0.1784444E+04  0.7818609E-02  0.8714616E-01
        2   -1    0    0  501    0  0.00000000000E+00  0.00000000000E+00  0.67336824131E+03  0.67336824131E+03  0.25500000920E-02 0.  1.
       -2   -1    0    0    0  501  0.00000000000E+00  0.00000000000E+00 -0.11822061529E+04  0.11822061529E+04  0.25500000920E-02 0. -1.
    10030    2    1    2    0    0  0.00000000000E+00  0.00000000000E+00 -0.50883791155E+03  0.18555743942E+04  0.17844439784E+04 0.  0.
        4    1    3    3  502    0  0.50866080008E+03  0.55075532667E+03  0.24858944582E+03  0.78985160940E+03  0.12699999809E+01 0.  1.
       -4    1    3    3    0  502 -0.50866080008E+03 -0.55075532667E+03 -0.75742735736E+03  0.10657227848E+04  0.12699999809E+01 0. -1.
</event>
<event>
 5   0  0.3635143E-04  0.1684686E+04  0.7818609E-02  0.8770147E-01
        1   -1    0    0  501    0  0.00000000000E+00  0.00000000000E+00  0.16820485238E+04  0.16820485238E+04  0.50400001928E-02 0. -1.
       -1   -1    0    0    0  501  0.00000000000E+00  0.00000000000E+00 -0.42183181509E+03  0.42183181512E+03  0.50400001928E-02 0.  1.
    10030    2    1    2    0    0  0.00000000000E+00  0.00000000000E+00  0.12602167087E+04  0.21038803389E+04  0.16846858246E+04 0.  0.
        3    1    3    3  502    0  0.24721854903E+02 -0.43183595118E+03  0.15327673111E+04  0.15926296177E+04  0.10100000352E+00 0. -1.
       -3    1    3    3    0  502 -0.24721854903E+02  0.43183595118E+03 -0.27255060246E+03  0.51125072121E+03  0.10100000352E+00 0.  1.
</event>
<event>
 5   0  0.7025426E-04  0.1454015E+04  0.7818609E-02  0.8915622E-01
        2   -1    0    0  501    0  0.00000000000E+00  0.00000000000E+00  0.10304069424E+04  0.10304069424E+04  0.25500000920E-02 0. -1.
       -2   -1    0    0    0  501  0.00000000000E+00  0.00000000000E+00 -0.51294303660E+03  0.51294303661E+03  0.25500000920E-02 0.  1.
    10030    2    1    2    0    0  0.00000000000E+00  0.00000000000E+00  0.51746390576E+03  0.15433499790E+04  0.14540152213E+04 0.  0.
        2    1    3    3  502    0  0.26546020567E+03  0.46648522150E+03 -0.26176612650E+03  0.59715918117E+03  0.25500000920E-02 0.  1.
       -2    1    3    3    0  502 -0.26546020567E+03 -0.46648522150E+03  0.77923003226E+03  0.94619079780E+03  0.25500000920E-02 0. -1.
</event>
<event>
 5   0  0.3713516E-04  0.1722506E+04  0.7818609E-02  0.8748632E-01
       -1   -1    0    0    0  501  0.00000000000E+00  0.00000000000E+00  0.89577523320E+03  0.89577523321E+03  0.50400001928E-02 0. -1.
        1   -1    0    0  501    0  0.00000000000E+00  0.00000000000E+00 -0.82806096708E+03  0.82806096709E+03  0.50400001928E-02 0.  1.
    10030    2    1    2    0    0  0.00000000000E+00  0.00000000000E+00  0.67714266120E+02  0.17238362003E+04  0.17225057398E+04 0.  0.
        5    1    3    3  502    0  0.39598695890E+03 -0.42223648023E+03 -0.60432272061E+03  0.83684966242E+03  0.46999998093E+01 0.  1.
       -5    1    3    3    0  502 -0.39598695890E+03  0.42223648023E+03  0.67203698673E+03  0.88698653788E+03  0.46999998093E+01 0. -1.
</event>
<event>
 5   0  0.7049044E-04  0.1685961E+04  0.7818609E-02  0.8769412E-01
        2   -1    0    0  501    0  0.00000000000E+00  0.00000000000E+00  0.11127704267E+04  0.11127704267E+04  0.25500000920E-02 0.  1.
       -2   -1    0    0    0  501  0.00000000000E+00  0.00000000000E+00 -0.63860050600E+03  0.63860050600E+03  0.25500000920E-02 0. -1.
    10030    2    1    2    0    0  0.00000000000E+00  0.00000000000E+00  0.47416992072E+03  0.17513709327E+04  0.16859605660E+04 0.  0.
        4    1    3    3  502    0  0.36781925292E+03 -0.20046814486E+03 -0.52282593805E+03  0.66994556071E+03  0.12699999809E+01 0. -1.
       -4    1    3    3    0  502 -0.36781925292E+03  0.20046814486E+03  0.99699585877E+03  0.10814253720E+04  0.12699999809E+01 0.  1.
</event>
<event>
 5   0  0.7233728E-04  0.1576479E+04  0.7818609E-02  0.8835129E-01
       -2   -1    0    0    0  501  0.00000000000E+00  0.00000000000E+00  0.63088833995E+03  0.63088833996E+03  0.25500000920E-02 0.  1.
        2   -1    0    0  501    0  0.00000000000E+00  0.00000000000E+00 -0.98483655575E+03  0.98483655575E+03  0.25500000920E-02 0. -1.
    10030    2    1    2    0    0  0.00000000000E+00  0.00000000000E+00 -0.35394821580E+03  0.16157248957E+04  0.15764794953E+04 0.  0.
        1    1    3    3  502    0  0.28507588680E+03  0.58319813890E+03  0.28129644329E+03  0.70747156796E+03  0.50400001928E-02 0.  1.
       -1    1    3    3    0  502 -0.28507588680E+03 -0.58319813890E+03 -0.63524465908E+03  0.90825332775E+03  0.50400001928E-02 0. -1.
</event>
<event>
 5   0  0.7233728E-04  0.1679107E+04  0.7818609E-02  0.8773371E-01
       -2   -1    0    0    0  501  0.00000000000E+00  0.00000000000E+00  0.43472686805E+03  0.43472686806E+03  0.25500000920E-02 0.  1.
        2   -1    0    0  501    0  0.00000000000E+00  0.00000000000E+00 -0.16213626905E+04  0.16213626905E+04  0.25500000920E-02 0. -1.
    10030    2    1    2    0    0  0.00000000000E+00  0.00000000000E+00 -0.11866358224E+04  0.20560895586E+04  0.16791068155E+04 0.  0.
        1    1    3    3  502    0  0.38083947339E+03 -0.65872604286E+03 -0.10277895429E+04  0.12787924181E+04  0.50400001928E-02 0. -1.
       -1    1    3    3    0  502 -0.38083947339E+03  0.65872604286E+03 -0.15884627954E+03  0.77729714047E+03  0.50400001928E-02 0.  1.
</event>
<event>
 5   0  0.3803253E-04  0.1713833E+04  0.7818609E-02  0.8753514E-01
        1   -1    0    0  501    0  0.00000000000E+00  0.00000000000E+00  0.10500378926E+04  0.10500378926E+04  0.50400001928E-02 0.  1.
       -1   -1    0    0    0  501  0.00000000000E+00  0.00000000000E+00 -0.69931358663E+03  0.69931358664E+03  0.50400001928E-02 0. -1.
    10030    2    1    2    0    0  0.00000000000E+00  0.00000000000E+00  0.35072430595E+03  0.17493514792E+04  0.17138328562E+04 0.  0.
        4    1    3    3  502    0 -0.35788896757E+03 -0.11021286498E+03  0.96209708312E+03  0.10324067992E+04  0.12699999809E+01 0.  1.
       -4    1    3    3    0  502  0.35788896757E+03  0.11021286498E+03 -0.61137277717E+03  0.71694468007E+03  0.12699999809E+01 0. -1.
</event>
<event>
 5   0  0.7049044E-04  0.1710842E+04  0.7818609E-02  0.8755205E-01
       -2   -1    0    0    0  501  0.00000000000E+00  0.00000000000E+00  0.33730359120E+03  0.33730359121E+03  0.25500000920E-02 0. -1.
        2   -1    0    0  501    0  0.00000000000E+00  0.00000000000E+00 -0.21693951019E+04  0.21693951020E+04  0.25500000920E-02 0.  1.
    10030    2    1    2    0    0  0.00000000000E+00  0.00000000000E+00 -0.18320915107E+04  0.25066986932E+04  0.17108416159E+04 0.  0.
        4    1    3    3  502    0  0.56145507187E+03 -0.21712065452E+01 -0.18616366689E+04  0.19444611623E+04  0.12699999809E+01 0.  1.
       -4    1    3    3    0  502 -0.56145507187E+03  0.21712065452E+01  0.29545158113E+02  0.56223753089E+03  0.12699999809E+01 0. -1.
</event>
<event>
 5   0  0.7049044E-04  0.1627611E+04  0.7818609E-02  0.8803763E-01
       -2   -1    0    0    0  501  0.00000000000E+00  0.00000000000E+00  0.64653968803E+03  0.64653968804E+03  0.25500000920E-02 0.  1.
        2   -1    0    0  501    0  0.00000000000E+00  0.00000000000E+00 -0.10243448849E+04  0.10243448849E+04  0.25500000920E-02 0. -1.
    10030    2    1    2    0    0  0.00000000000E+00  0.00000000000E+00 -0.37780519689E+03  0.16708845730E+04  0.16276112832E+04 0.  0.
        4    1    3    3  502    0 -0.16066439132E+03  0.75231822536E+03  0.83640782413E+02  0.77381726023E+03  0.12699999809E+01 0.  1.
       -4    1    3    3    0  502  0.16066439132E+03 -0.75231822536E+03 -0.46144597930E+03  0.89706731273E+03  0.12699999809E+01 0. -1.
</event>
<event>
 5   0  0.2639750E-04  0.1801678E+04  0.7818609E-02  0.8705408E-01
        4   -1    0    0  501    0  0.00000000000E+00  0.00000000000E+00  0.78588441845E+03  0.78588544462E+03  0.12699999809E+01 0. -1.
       -4   -1    0    0    0  501  0.00000000000E+00  0.00000000000E+00 -0.10326061247E+04  0.10326069057E+04  0.12699999809E+01 0.  1.
    10030    2    1    2    0    0  0.00000000000E+00  0.00000000000E+00 -0.24672170630E+03  0.18184923504E+04  0.18016777814E+04 0.  0.
        1    1    3    3  502    0 -0.79801590654E+03  0.37189872770E+03  0.69135215561E+02  0.88312950852E+03  0.50400001928E-02 0. -1.
       -1    1    3    3    0  502  0.79801590654E+03 -0.37189872770E+03 -0.31585692186E+03  0.93536284183E+03  0.50400001928E-02 0.  1.
</event>
<event>
 5   0  0.7049044E-04  0.1645328E+04  0.7818609E-02  0.8793175E-01
       -2   -1    0    0    0  501  0.00000000000E+00  0.00000000000E+00  0.12472831779E+04  0.12472831779E+04  0.25500000920E-02 0. -1.
        2   -1    0    0  501    0  0.00000000000E+00  0.00000000000E+00 -0.54260031677E+03  0.54260031677E+03  0.25500000920E-02 0.  1.
    10030    2    1    2    0    0  0.00000000000E+00  0.00000000000E+00  0.70468286109E+03  0.17898834946E+04  0.16453282316E+04 0.  0.
        4    1    3    3  502    0 -0.49621940696E+03  0.13096860209E+03  0.10517826626E+04  0.11703139992E+04  0.12699999809E+01 0. -1.
       -4    1    3    3    0  502  0.49621940696E+03 -0.13096860209E+03 -0.34709980147E+03  0.61956949542E+03  0.12699999809E+01 0.  1.
</event>
<event>
 5   0  0.3713516E-04  0.1727539E+04  0.7818609E-02  0.8745812E-01
        1   -1    0    0  501    0  0.00000000000E+00  0.00000000000E+00  0.13414278179E+04  0.13414278179E+04  0.50400001928E-02 0.  1.
       -1   -1    0    0    0  501  0.00000000000E+00  0.00000000000E+00 -0.55619646131E+03  0.55619646133E+03  0.50400001928E-02 0. -1.
    10030    2    1    2    0    0  0.00000000000E+00  0.00000000000E+00  0.78523135659E+03  0.18976242792E+04  0.17275386021E+04 0.  0.
        5    1    3    3  502    0  0.37746038500E+03 -0.75602594855E+03  0.58918624147E+03  0.10301524617E+04  0.46999998093E+01 0.  1.
       -5    1    3    3    0  502 -0.37746038500E+03  0.75602594855E+03  0.19604511513E+03  0.86747181758E+03  0.46999998093E+01 0. -1.
</event>
<event>
 5   0  0.3713516E-04  0.1711047E+04  0.7818609E-02  0.8755089E-01
       -1   -1    0    0    0  501  0.00000000000E+00  0.00000000000E+00  0.77501814457E+03  0.77501814459E+03  0.50400001928E-02 0.  1.
        1   -1    0    0  501    0  0.00000000000E+00  0.00000000000E+00 -0.94439150844E+03  0.94439150846E+03  0.50400001928E-02 0. -1.
    10030    2    1    2    0    0  0.00000000000E+00  0.00000000000E+00 -0.16937336387E+03  0.17194096530E+04  0.17110471117E+04 0.  0.
        5    1    3    3  502    0  0.78479038200E+03 -0.32398595517E+03  0.20877308256E+02  0.84930606664E+03  0.46999998093E+01 0.  1.
       -5    1    3    3    0  502 -0.78479038200E+03  0.32398595517E+03 -0.19025067213E+03  0.87010358640E+03  0.46999998093E+01 0. -1.
</event>
<event>
 5   0  0.3713516E-04  0.1701531E+04  0.7818609E-02  0.8760492E-01
        1   -1    0    0  501    0  0.00000000000E+00  0.00000000000E+00  0.15596023514E+04  0.15596023514E+04  0.50400001928E-02 0. -1.
       -1   -1    0    0    0  501  0.00000000000E+00  0.00000000000E+00 -0.46409401370E+03  0.46409401373E+03  0.50400001928E-02 0.  1.
    10030    2    1    2    0    0  0.00000000000E+00  0.00000000000E+00  0.10955083377E+04  0.20236963651E+04  0.17015312105E+04 0.  0.
        5    1    3    3  502    0  0.73731299153E+03  0.36164049132E+02  0.10507216120E+04  0.12841247143E+04  0.46999998093E+01 0. -1.
       -5    1    3    3    0  502 -0.73731299153E+03 -0.36164049132E+02  0.44786725707E+02  0.73957165084E+03  0.46999998093E+01 0.  1.
</event>
<event>
 5   0  0.3915701E-04  0.1646794E+04  0.7818609E-02  0.8792306E-01
        1   -1    0    0  501    0  0.00000000000E+00  0.00000000000E+00  0.17161834582E+04  0.17161834582E+04  0.50400001928E-02 0. -1.
       -1   -1    0    0    0  501  0.00000000000E+00  0.00000000000E+00 -0.39505236772E+03  0.39505236775E+03  0.50400001928E-02 0.  1.
    10030    2    1    2    0    0  0.00000000000E+00  0.00000000000E+00  0.13211310904E+04  0.21112358259E+04  0.16467936588E+04 0.  0.
        2    1    3    3  502    0 -0.95700958358E+01  0.49017809388E+02  0.17142398322E+04  0.17149672109E+04  0.25500000920E-02 0. -1.
       -2    1    3    3    0  502  0.95700958358E+01 -0.49017809388E+02 -0.39310874174E+03  0.39626861497E+03  0.25500000920E-02 0.  1.
</event>
<event>
 5   0  0.7242144E-04  0.1755330E+04  0.7818609E-02  0.8730422E-01
       -2   -1    0    0    0  501  0.00000000000E+00  0.00000000000E+00  0.55022276546E+03  0.55022276547E+03  0.25500000920E-02 0.  1.
        2   -1    0    0  501    0  0.00000000000E+00  0.00000000000E+00 -0.13999706754E+04  0.13999706754E+04  0.25500000920E-02 0. -1.
    10030    2    1    2    0    0  0.00000000000E+00  0.00000000000E+00 -0.84974790996E+03  0.19501934409E+04  0.17553298683E+04 0.  0.
        3    1    3    3  502    0  0.69765576809E+03 -0.14323108078E+03 -0.99470209327E+03  0.12233850489E+04  0.10100000352E+00 0. -1.
       -3    1    3    3    0  502 -0.69765576809E+03  0.14323108078E+03  0.14495418330E+03  0.72680839202E+03  0.10100000352E+00 0.  1.
</event>
<event>
 5   0  0.6746664E-04  0.1571925E+04  0.7818609E-02  0.8837983E-01
        2   -1    0    0  501    0  0.00000000000E+00  0.00000000000E+00  0.71489344107E+03  0.71489344108E+03  0.25500000920E-02 0.  1.
       -2   -1    0    0    0  501  0.00000000000E+00  0.00000000000E+00 -0.86409695960E+03  0.86409695960E+03  0.25500000920E-02 0. -1.
    10030    2    1    2    0    0  0.00000000000E+00  0.00000000000E+00 -0.14920351852E+03  0.15789904007E+04  0.15719252512E+04 0.  0.
        5    1    3    3  502    0 -0.21535332427E+03 -0.40991627173E+03 -0.71252047973E+03  0.84977404534E+03  0.46999998093E+01 0. -1.
       -5    1    3    3    0  502  0.21535332427E+03  0.40991627173E+03  0.56331696121E+03  0.72921635533E+03  0.46999998093E+01 0.  1.
</event>
<event>
 5   0  0.7025426E-04  0.1690791E+04  0.7818609E-02  0.8766634E-01
        2   -1    0    0  501    0  0.00000000000E+00  0.00000000000E+00  0.17921802577E+04  0.17921802577E+04  0.25500000920E-02 0.  1.
       -2   -1    0    0    0  501  0.00000000000E+00  0.00000000000E+00 -0.39878431397E+03  0.39878431398E+03  0.25500000920E-02 0. -1.
    10030    2    1    2    0    0  0.00000000000E+00  0.00000000000E+00  0.13933959438E+04  0.21909645717E+04  0.16907907909E+04 0.  0.
        2    1    3    3  502    0 -0.16949489425E+03 -0.18986174873E+03  0.17413569812E+04  0.17598579882E+04  0.25500000920E-02 0.  1.
       -2    1    3    3    0  502  0.16949489425E+03  0.18986174873E+03 -0.34796103739E+03  0.43110658352E+03  0.25500000920E-02 0. -1.
</event>
<event>
 5   0  0.3915701E-04  0.1683217E+04  0.7818609E-02  0.8770995E-01
        1   -1    0    0  501    0  0.00000000000E+00  0.00000000000E+00  0.89214087058E+03  0.89214087059E+03  0.50400001928E-02 0.  1.
       -1   -1    0    0    0  501  0.00000000000E+00  0.00000000000E+00 -0.79393791934E+03  0.79393791936E+03  0.50400001928E-02 0. -1.
    10030    2    1    2    0    0  0.00000000000E+00  0.00000000000E+00  0.98202951234E+02  0.16860787900E+04  0.16832165239E+04 0.  0.
        2    1    3    3  502    0  0.70664253172E+03 -0.45709974410E+03  0.53650439900E+02  0.84330434210E+03  0.25500000920E-02 0. -1.
       -2    1    3    3    0  502 -0.70664253172E+03  0.45709974410E+03  0.44552511335E+02  0.84277444786E+03  0.25500000920E-02 0.  1.
</event>
<event>
 5   0  0.7233728E-04  0.1708897E+04  0.7818609E-02  0.8756306E-01
        2   -1    0    0  501    0  0.00000000000E+00  0.00000000000E+00  0.88448048436E+03  0.88448048437E+03  0.25500000920E-02 0. -1.
       -2   -1    0    0    0  501  0.00000000000E+00  0.00000000000E+00 -0.82543621837E+03  0.82543621837E+03  0.25500000920E-02 0.  1.
    10030    2    1    2    0    0  0.00000000000E+00  0.00000000000E+00  0.59044265995E+02  0.17099167027E+04  0.17088969849E+04 0.  0.
        1    1    3    3  502    0 -0.52316914147E+03 -0.13715159025E+03  0.69140435318E+03  0.87781347046E+03  0.50400001928E-02 0. -1.
       -1    1    3    3    0  502  0.52316914147E+03  0.13715159025E+03 -0.63236008718E+03  0.83210323229E+03  0.50400001928E-02 0.  1.
</event>
<event>
 5   0  0.2639750E-04  0.1675437E+04  0.7818609E-02  0.8775499E-01
       -3   -1    0    0    0  501  0.00000000000E+00  0.00000000000E+00  0.66409493856E+03  0.66409494624E+03  0.10100000352E+00 0. -1.
        3   -1    0    0  501    0  0.00000000000E+00  0.00000000000E+00 -0.10567348191E+04  0.10567348239E+04  0.10100000352E+00 0.  1.
    10030    2    1    2    0    0  0.00000000000E+00  0.00000000000E+00 -0.39263988054E+03  0.17208297702E+04  0.16754369645E+04 0.  0.
        3    1    3    3  502    0  0.38040369991E+02  0.83185153615E+03 -0.10247601340E+03  0.83900261708E+03  0.10100000352E+00 0. -1.
       -3    1    3    3    0  502 -0.38040369991E+02 -0.83185153615E+03 -0.29016386714E+03  0.88182715309E+03  0.10100000352E+00 0.  1.
</event>
<event>
 5   0  0.2639750E-04  0.1611562E+04  0.7818609E-02  0.8813476E-01
        4   -1    0    0  501    0  0.00000000000E+00  0.00000000000E+00  0.69563229362E+03  0.69563345293E+03  0.12699999809E+01 0.  1.
       -4   -1    0    0    0  501  0.00000000000E+00  0.00000000000E+00 -0.93336907604E+03  0.93336994006E+03  0.12699999809E+01 0. -1.
    10030    2    1    2    0    0  0.00000000000E+00  0.00000000000E+00 -0.23773678242E+03  0.16290033930E+04  0.16115623713E+04 0.  0.
        4    1    3    3  502    0 -0.52745945244E+03  0.60745618184E+03 -0.16480489858E+03  0.82120567115E+03  0.12699999809E+01 0.  1.
       -4    1    3    3    0  502  0.52745945244E+03 -0.60745618184E+03 -0.72931883836E+02  0.80779772184E+03  0.12699999809E+01 0. -1.
</event>
<event>
 5   0  0.3723500E-04  0.1685937E+04  0.7818609E-02  0.8769426E-01
       -1   -1    0    0    0  501  0.00000000000E+00  0.00000000000E+00  0.61525090884E+03  0.61525090886E+03  0.50400001928E-02 0. -1.
        1   -1    0    0  501    0  0.00000000000E+00  0.00000000000E+00 -0.11549694628E+04  0.11549694628E+04  0.50400001928E-02 0.  1.
    10030    2    1    2    0    0  0.00000000000E+00  0.00000000000E+00 -0.53971855395E+03  0.17702203717E+04  0.16859371420E+04 0.  0.
        1    1    3    3  502    0 -0.29018776510E+02 -0.28966195516E+03 -0.11005149594E+04  0.11383669503E+04  0.50400001928E-02 0.  1.
       -1    1    3    3    0  502  0.29018776510E+02  0.28966195516E+03  0.56079640547E+03  0.63185342135E+03  0.50400001928E-02 0. -1.
</event>
<event>
 5   0  0.3635143E-04  0.1717168E+04  0.7818609E-02  0.8751633E-01
        1   -1    0    0  501    0  0.00000000000E+00  0.00000000000E+00  0.15760677170E+04  0.15760677170E+04  0.50400001928E-02 0.  1.
       -1   -1    0    0    0  501  0.00000000000E+00  0.00000000000E+00 -0.46772493785E+03  0.46772493788E+03  0.50400001928E-02 0. -1.
    10030    2    1    2    0    0  0.00000000000E+00  0.00000000000E+00  0.11083427792E+04  0.20437926549E+04  0.17171676389E+04 0.  0.
        3    1    3    3  502    0 -0.73759184253E+01  0.25020038112E+03  0.15316760296E+04  0.15519942348E+04  0.10100000352E+00 0.  1.
       -3    1    3    3    0  502  0.73759184253E+01 -0.25020038112E+03 -0.42333325045E+03  0.49179842011E+03  0.10100000352E+00 0. -1.
</event>
<event>
 5   0  0.3915701E-04  0.1744968E+04  0.7818609E-02  0.8736125E-01
       -1   -1    0    0    0  501  0.00000000000E+00  0.00000000000E+00  0.49697716605E+03  0.49697716608E+03  0.50400001928E-02 0. -1.
        1   -1    0    0  501    0  0.00000000000E+00  0.00000000000E+00 -0.15317170095E+04  0.15317170095E+04  0.50400001928E-02 0.  1.
    10030    2    1    2    0    0  0.00000000000E+00  0.00000000000E+00 -0.10347398434E+04  0.20286941756E+04  0.17449680554E+04 0.  0.
        2    1    3    3  502    0  0.21288759714E+03  0.13157822836E+03  0.45435123277E+03  0.51871861536E+03  0.25500000920E-02 0. -1.
       -2    1    3    3    0  502 -0.21288759714E+03 -0.13157822836E+03 -0.14890910762E+04  0.15099755602E+04  0.25500000920E-02 0.  1.
</event>
<event>
 5   0  0.3635143E-04  0.1745107E+04  0.7818609E-02  0.8736048E-01
        1   -1    0    0  501    0  0.00000000000E+00  0.00000000000E+00  0.76026891783E+03  0.76026891785E+03  0.50400001928E-02 0.  1.
       -1   -1    0    0    0  501  0.00000000000E+00  0.00000000000E+00 -0.10014216935E+04  0.10014216935E+04  0.50400001928E-02 0. -1.
    10030    2    1    2    0    0  0.00000000000E+00  0.00000000000E+00 -0.24115277565E+03  0.17616906114E+04  0.17451072027E+04 0.  0.
        3    1    3    3  502    0 -0.76995238668E+02  0.86505803762E+03 -0.20561525128E+03  0.89248603182E+03  0.10100000352E+00 0. -1.
       -3    1    3    3    0  502  0.76995238668E+02 -0.86505803762E+03 -0.35537524375E+02  0.86920457953E+03  0.10100000352E+00 0.  1.
</event>
<event>
 5   0  0.3803253E-04  0.1713497E+04  0.7818609E-02  0.8753704E-01
        1   -1    0    0  501    0  0.00000000000E+00  0.00000000000E+00  0.12731212682E+04  0.12731212682E+04  0.50400001928E-02 0.  1.
       -1   -1    0    0    0  501  0.00000000000E+00  0.00000000000E+00 -0.57654981729E+03  0.57654981731E+03  0.50400001928E-02 0. -1.
    10030    2    1    2    0    0  0.00000000000E+00  0.00000000000E+00  0.69657145093E+03  0.18496710855E+04  0.17134968160E+04 0.  0.
        4    1    3    3  502    0 -0.21232892049E+03  0.50414606122E+03  0.10600573836E+04  0.11928831002E+04  0.12699999809E+01 0.  1.
       -4    1    3    3    0  502  0.21232892049E+03 -0.50414606122E+03 -0.36348593262E+03  0.65678798530E+03  0.12699999809E+01 0. -1.
</event>
<event>
 5   0  0.3915701E-04  0.1690249E+04  0.7818609E-02  0.8766945E-01
       -1   -1    0    0    0  501  0.00000000000E+00  0.00000000000E+00  0.12417052032E+04  0.12417052033E+04  0.50400001928E-02 0. -1.
        1   -1    0    0  501    0  0.00000000000E+00  0.00000000000E+00 -0.57520512146E+03  0.57520512148E+03  0.50400001928E-02 0.  1.
    10030    2    1    2    0    0  0.00000000000E+00  0.00000000000E+00  0.66650008178E+03  0.18169103247E+04  0.16902487299E+04 0.  0.
        2    1    3    3  502    0  0.17692544910E+03 -0.43030573157E+03 -0.42514771597E+03  0.63025091635E+03  0.25500000920E-02 0.  1.
       -2    1    3    3    0  502 -0.17692544910E+03  0.43030573157E+03  0.10916477977E+04  0.11866594084E+04  0.25500000920E-02 0. -1.
</event>
<event>
 5   0  0.7025426E-04  0.1694452E+04  0.7818609E-02  0.8764535E-01
        2   -1    0    0  501    0  0.00000000000E+00  0.00000000000E+00  0.10581518990E+04  0.10581518990E+04  0.25500000920E-02 0. -1.
       -2   -1    0    0    0  501  0.00000000000E+00  0.00000000000E+00 -0.67834481214E+03  0.67834481215E+03  0.25500000920E-02 0.  1.
    10030    2    1    2    0    0  0.00000000000E+00  0.00000000000E+00  0.37980708685E+03  0.17364967111E+04  0.16944519482E+04 0.  0.
        2    1    3    3  502    0  0.17025026255E+03  0.61582160154E+03 -0.38029284199E+03  0.74353482938E+03  0.25500000920E-02 0.  1.
       -2    1    3    3    0  502 -0.17025026255E+03 -0.61582160154E+03  0.76009992884E+03  0.99296188177E+03  0.25500000920E-02 0. -1.
</event>
<event>
 5   0  0.3915701E-04  0.1671844E+04  0.7818609E-02  0.8777588E-01
       -1   -1    0    0    0  501  0.00000000000E+00  0.00000000000E+00  0.53401791488E+03  0.53401791490E+03  0.50400001928E-02 0. -1.
        1   -1    0    0  501    0  0.00000000000E+00  0.00000000000E+00 -0.13085056121E+04  0.13085056122E+04  0.50400001928E-02 0.  1.
    10030    2    1    2    0    0  0.00000000000E+00  0.00000000000E+00 -0.77448769727E+03  0.18425235271E+04  0.16718438188E+04 0.  0.
        2    1    3    3  502    0 -0.43478529553E+03 -0.60853682412E+03  0.24251080088E+02  0.74829368192E+03  0.25500000920E-02 0. -1.
       -2    1    3    3    0  502  0.43478529553E+03  0.60853682412E+03 -0.79873877736E+03  0.10942298451E+04  0.25500000920E-02 0.  1.
</event>
<event>
 5   0  0.3713516E-04  0.1688048E+04  0.7818609E-02  0.8768210E-01
        1   -1    0    0  501    0  0.00000000000E+00  0.00000000000E+00  0.98175724646E+03  0.98175724648E+03  0.50400001928E-02 0.  1.
       -1   -1    0    0    0  501  0.00000000000E+00  0.00000000000E+00 -0.72561385633E+03  0.72561385635E+03  0.50400001928E-02 0. -1.
    10030    2    1    2    0    0  0.00000000000E+00  0.00000000000E+00  0.25614339013E+03  0.17073711028E+04  0.16880481766E+04 0.  0.
        5    1    3    3  502    0  0.72403094355E+03 -0.43343592838E+03  0.14460074273E+03  0.85616527377E+03  0.46999998093E+01 0.  1.
       -5    1    3    3    0  502 -0.72403094355E+03  0.43343592838E+03  0.11154264741E+03  0.85120582905E+03  0.46999998093E+01 0. -1.
</event>
<event>
 5   0  0.2639750E-04  0.1824490E+04  0.7818609E-02  0.8693383E-01
        3   -1    0    0  501    0  0.00000000000E+00  0.00000000000E+00  0.12110442323E+04  0.12110442365E+04  0.10100000352E+00 0.  1.
       -3   -1    0    0    0  501  0.00000000000E+00  0.00000000000E+00 -0.68716833474E+03  0.68716834217E+03  0.10100000352E+00 0. -1.
    10030    2    1    2    0    0  0.00000000000E+00  0.00000000000E+00  0.52387589759E+03  0.18982125787E+04  0.18244903502E+04 0.  0.
        1    1    3    3  502    0  0.21598474145E+03  0.85356330977E+03  0.13606222987E+02  0.88057075903E+03  0.50400001928E-02 0. -1.
       -1    1    3    3    0  502 -0.21598474145E+03 -0.85356330977E+03  0.51026967460E+03  0.10176418197E+04  0.50400001928E-02 0.  1.
</event>
<event>
 5   0  0.7242144E-04  0.1678320E+04  0.7818609E-02  0.8773827E-01
        2   -1    0    0  501    0  0.00000000000E+00  0.00000000000E+00  0.12967348769E+04  0.12967348769E+04  0.25500000920E-02 0.  1.
       -2   -1    0    0    0  501  0.00000000000E+00  0.00000000000E+00 -0.54304800647E+03  0.54304800647E+03  0.25500000920E-02 0. -1.
    10030    2    1    2    0    0  0.00000000000E+00  0.00000000000E+00  0.75368687046E+03  0.18397828834E+04  0.16783197429E+04 0.  0.
        3    1    3    3  502    0  0.11397741720E+03  0.81204419983E+03  0.57227148262E+03  0.99995064584E+03  0.10100000352E+00 0. -1.
       -3    1    3    3    0  502 -0.11397741720E+03 -0.81204419983E+03  0.18141538784E+03  0.83983223756E+03  0.10100000352E+00 0.  1.
</event>
<event>
 5   0  0.7242144E-04  0.1674285E+04  0.7818609E-02  0.8776168E-01
       -2   -1    0    0    0  501  0.00000000000E+00  0.00000000000E+00  0.60049629606E+03  0.60049629607E+03  0.25500000920E-02 0. -1.
        2   -1    0    0  501    0  0.00000000000E+00  0.00000000000E+00 -0.11670468765E+04  0.11670468765E+04  0.25500000920E-02 0.  1.
    10030    2    1    2    0    0  0.00000000000E+00  0.00000000000E+00 -0.56655058044E+03  0.17675431726E+04  0.16742847149E+04 0.  0.
        3    1    3    3  502    0  0.69996567647E+03 -0.10573817697E+02  0.20136317054E+03  0.72843042942E+03  0.10100000352E+00 0. -1.
       -3    1    3    3    0  502 -0.69996567647E+03  0.10573817697E+02 -0.76791375097E+03  0.10391127432E+04  0.10100000352E+00 0.  1.
</event>
<event>
 5   0  0.7049044E-04  0.1977982E+04  0.7818609E-02  0.8616984E-01
        2   -1    0    0  501    0  0.00000000000E+00  0.00000000000E+00  0.54626762291E+03  0.54626762292E+03  0.25500000920E-02 0. -1.
       -2   -1    0    0    0  501  0.00000000000E+00  0.00000000000E+00 -0.17905204849E+04  0.17905204849E+04  0.25500000920E-02 0.  1.
    10030    2    1    2    0    0  0.00000000000E+00  0.00000000000E+00 -0.12442528620E+04  0.23367881078E+04  0.19779821729E+04 0.  0.
        4    1    3    3  502    0  0.82305209653E+03  0.16019786361E+03 -0.12416844452E+04  0.14982856816E+04  0.12699999809E+01 0.  1.
       -4    1    3    3    0  502 -0.82305209653E+03 -0.16019786361E+03 -0.25684167019E+01  0.83850242622E+03  0.12699999809E+01 0. -1.
</event>
<event>
 5   0  0.7242144E-04  0.1672572E+04  0.7818609E-02  0.8777164E-01
        2   -1    0    0  501    0  0.00000000000E+00  0.00000000000E+00  0.81882812639E+03  0.81882812640E+03  0.25500000920E-02 0.  1.
       -2   -1    0    0    0  501  0.00000000000E+00  0.00000000000E+00 -0.85411610275E+03  0.85411610275E+03  0.25500000920E-02 0. -1.
    10030    2    1    2    0    0  0.00000000000E+00  0.00000000000E+00 -0.35287976357E+02  0.16729442291E+04  0.16725720172E+04 0.  0.
        3    1    3    3  502    0  0.22210945790E+03 -0.59794214854E+03 -0.55860337328E+03  0.84788275317E+03  0.10100000352E+00 0. -1.
       -3    1    3    3    0  502 -0.22210945790E+03  0.59794214854E+03  0.52331539692E+03  0.82506147598E+03  0.10100000352E+00 0.  1.
</event>
<event>
 5   0  0.7233728E-04  0.1570860E+04  0.7818609E-02  0.8838652E-01
       -2   -1    0    0    0  501  0.00000000000E+00  0.00000000000E+00  0.25074683474E+03  0.25074683475E+03  0.25500000920E-02 0.  1.
        2   -1    0    0  501    0  0.00000000000E+00  0.00000000000E+00 -0.24602529291E+04  0.24602529291E+04  0.25500000920E-02 0. -1.
    10030    2    1    2    0    0  0.00000000000E+00  0.00000000000E+00 -0.22095060944E+04  0.27109997639E+04  0.15708604453E+04 0.  0.
        1    1    3    3  502    0 -0.48458920447E+03  0.39530965604E+01 -0.21714884312E+04  0.22249054656E+04  0.50400001928E-02 0. -1.
       -1    1    3    3    0  502  0.48458920447E+03 -0.39530965604E+01 -0.38017663176E+02  0.48609429826E+03  0.50400001928E-02 0.  1.
</event>
<event>
 5   0  0.7242144E-04  0.1695519E+04  0.7818609E-02  0.8763924E-01
        2   -1    0    0  501    0  0.00000000000E+00  0.00000000000E+00  0.68766409684E+03  0.68766409684E+03  0.25500000920E-02 0. -1.
       -2   -1    0    0    0  501  0.00000000000E+00  0.00000000000E+00 -0.10451273534E+04  0.10451273534E+04  0.25500000920E-02 0.  1.
    10030    2    1    2    0    0  0.00000000000E+00  0.00000000000E+00 -0.35746325659E+03  0.17327914503E+04  0.16955194574E+04 0.  0.
        3    1    3    3  502    0  0.75805104198E+03 -0.28172898845E+03 -0.43865286135E+03  0.92001573256E+03  0.10100000352E+00 0.  1.
       -3    1    3    3    0  502 -0.75805104198E+03  0.28172898845E+03  0.81189604758E+02  0.81277571772E+03  0.10100000352E+00 0. -1.
</event>
<event>
 5   0  0.6746664E-04  0.1276027E+04  0.7818609E-02  0.9048795E-01
        2   -1    0    0  501    0  0.00000000000E+00  0.00000000000E+00  0.39885702371E+03  0.39885702372E+03  0.25500000920E-02 0.  1.
       -2   -1    0    0    0  501  0.00000000000E+00  0.00000000000E+00 -0.10205694618E+04  0.10205694618E+04  0.25500000920E-02 0. -1.
    10030    2    1    2    0    0  0.00000000000E+00  0.00000000000E+00 -0.62171243811E+03  0.14194264855E+04  0.12760271126E+04 0.  0.
        5    1    3    3  502    0 -0.23171919089E+03  0.46655091301E+03 -0.72059209334E+03  0.88917860571E+03  0.46999998093E+01 0. -1.
       -5    1    3    3    0  502  0.23171919089E+03 -0.46655091301E+03  0.98879655236E+02  0.53024787984E+03  0.46999998093E+01 0.  1.
</event>
<event>
 5   0  0.3635143E-04  0.1691049E+04  0.7818609E-02  0.8766486E-01
       -1   -1    0    0    0  501  0.00000000000E+00  0.00000000000E+00  0.76340636065E+03  0.76340636066E+03  0.50400001928E-02 0. -1.
        1   -1    0    0  501    0  0.00000000000E+00  0.00000000000E+00 -0.93647558798E+03  0.93647558800E+03  0.50400001928E-02 0.  1.
    10030    2    1    2    0    0  0.00000000000E+00  0.00000000000E+00 -0.17306922733E+03  0.16998819487E+04  0.16910486929E+04 0.  0.
        3    1    3    3  502    0 -0.63418727642E+03  0.34868598076E+03 -0.52600932591E+03  0.89468499255E+03  0.10100000352E+00 0.  1.
       -3    1    3    3    0  502  0.63418727642E+03 -0.34868598076E+03  0.35294009857E+03  0.80519695611E+03  0.10100000352E+00 0. -1.
</event>
<event>
 5   0  0.3723500E-04  0.1718111E+04  0.7818609E-02  0.8751102E-01
       -1   -1    0    0    0  501  0.00000000000E+00  0.00000000000E+00  0.60167661882E+03  0.60167661884E+03  0.50400001928E-02 0.  1.
        1   -1    0    0  501    0  0.00000000000E+00  0.00000000000E+00 -0.12265330033E+04  0.12265330033E+04  0.50400001928E-02 0. -1.
    10030    2    1    2    0    0  0.00000000000E+00  0.00000000000E+00 -0.62485638446E+03  0.18282096221E+04  0.17181108583E+04 0.  0.
        1    1    3    3  502    0  0.34809041073E+03 -0.13901116601E+03  0.51007649386E+03  0.63298425567E+03  0.50400001928E-02 0.  1.
       -1    1    3    3    0  502 -0.34809041073E+03  0.13901116601E+03 -0.11349328783E+04  0.11952253665E+04  0.50400001928E-02 0. -1.
</event>
<event>
 5   0  0.3635143E-04  0.1692390E+04  0.7818609E-02  0.8765716E-01
       -1   -1    0    0    0  501  0.00000000000E+00  0.00000000000E+00  0.11214795721E+04  0.11214795721E+04  0.50400001928E-02 0.  1.
        1   -1    0    0  501    0  0.00000000000E+00  0.00000000000E+00 -0.63848345202E+03  0.63848345204E+03  0.50400001928E-02 0. -1.
    10030    2    1    2    0    0  0.00000000000E+00  0.00000000000E+00  0.48299612005E+03  0.17599630241E+04  0.16923902015E+04 0.  0.
        3    1    3    3  502    0 -0.66177109626E+03  0.51412747328E+03  0.36356488277E+03  0.91348096686E+03  0.10100000352E+00 0. -1.
       -3    1    3    3    0  502  0.66177109626E+03 -0.51412747328E+03  0.11943123728E+03  0.84648205726E+03  0.10100000352E+00 0.  1.
</event>
<event>
 5   0  0.3723500E-04  0.1760933E+04  0.7818609E-02  0.8727355E-01
       -1   -1    0    0    0  501  0.00000000000E+00  0.00000000000E+00  0.32709261074E+03  0.32709261078E+03  0.50400001928E-02 0.  1.
        1   -1    0    0  501    0  0.00000000000E+00  0.00000000000E+00 -0.23700355105E+04  0.23700355105E+04  0.50400001928E-02 0. -1.
    10030    2    1    2    0    0  0.00000000000E+00  0.00000000000E+00 -0.20429428997E+04  0.26971281213E+04  0.17609328241E+04 0.  0.
        1    1    3    3  502    0  0.57724117636E+03  0.12145486753E+02 -0.20396036813E+04  0.21197495289E+04  0.50400001928E-02 0. -1.
       -1    1    3    3    0  502 -0.57724117636E+03 -0.12145486753E+02 -0.33392184598E+01  0.57737859238E+03  0.50400001928E-02 0.  1.
</event>
<event>
 5   0  0.3803253E-04  0.1677740E+04  0.7818609E-02  0.8774163E-01
        1   -1    0    0  501    0  0.00000000000E+00  0.00000000000E+00  0.97898393923E+03  0.97898393925E+03  0.50400001928E-02 0. -1.
       -1   -1    0    0    0  501  0.00000000000E+00  0.00000000000E+00 -0.71880983581E+03  0.71880983582E+03  0.50400001928E-02 0.  1.
    10030    2    1    2    0    0  0.00000000000E+00  0.00000000000E+00  0.26017410343E+03  0.16977937751E+04  0.16777404861E+04 0.  0.
        4    1    3    3  502    0 -0.81622399390E+03 -0.10221212022E+03  0.29646862788E+03  0.87439361043E+03  0.12699999809E+01 0.  1.
       -4    1    3    3    0  502  0.81622399390E+03  0.10221212022E+03 -0.36294524456E+02  0.82340016465E+03  0.12699999809E+01 0. -1.
</event>
<event>
 5   0  0.7049044E-04  0.1867944E+04  0.7818609E-02  0.8670979E-01
       -2   -1    0    0    0  501  0.00000000000E+00  0.00000000000E+00  0.76098357184E+03  0.76098357185E+03  0.25500000920E-02 0.  1.
        2   -1    0    0  501    0  0.00000000000E+00  0.00000000000E+00 -0.11462845471E+04  0.11462845471E+04  0.25500000920E-02 0. -1.
    10030    2    1    2    0    0  0.00000000000E+00  0.00000000000E+00 -0.38530097523E+03  0.19072681189E+04  0.18679440131E+04 0.  0.
        4    1    3    3  502    0 -0.77733731330E+03 -0.46338901547E+03  0.43120625248E+02  0.90600423814E+03  0.12699999809E+01 0.  1.
       -4    1    3    3    0  502  0.77733731330E+03  0.46338901547E+03 -0.42842160048E+03  0.10012638808E+04  0.12699999809E+01 0. -1.
</event>
<event>
 5   0  0.6746664E-04  0.1345405E+04  0.7818609E-02  0.8994314E-01
       -2   -1    0    0    0  501  0.00000000000E+00  0.00000000000E+00  0.77017662599E+03  0.77017662599E+03  0.25500000920E-02 0. -1.
        2   -1    0    0  501    0  0.00000000000E+00  0.00000000000E+00 -0.58756498548E+03  0.58756498548E+03  0.25500000920E-02 0.  1.
    10030    2    1    2    0    0  0.00000000000E+00  0.00000000000E+00  0.18261164051E+03  0.13577416115E+04  0.13454052446E+04 0.  0.
        5    1    3    3  502    0  0.46402499409E+03 -0.72185248048E+02  0.57736182193E+03  0.74424368898E+03  0.46999998093E+01 0.  1.
       -5    1    3    3    0  502 -0.46402499409E+03  0.72185248048E+02 -0.39475018142E+03  0.61349792249E+03  0.46999998093E+01 0. -1.
</event>
<event>
 5   0  0.3723500E-04  0.1670749E+04  0.7818609E-02  0.8778226E-01
       -1   -1    0    0    0  501  0.00000000000E+00  0.00000000000E+00  0.47560655761E+03  0.47560655763E+03  0.50400001928E-02 0.  1.
        1   -1    0    0  501    0  0.00000000000E+00  0.00000000000E+00 -0.14672847265E+04  0.14672847265E+04  0.50400001928E-02 0. -1.
    10030    2    1    2    0    0  0.00000000000E+00  0.00000000000E+00 -0.99167816887E+03  0.19428912841E+04  0.16707486200E+04 0.  0.
        1    1    3    3  502    0 -0.77388017669E+03 -0.31325394720E+03 -0.46230286683E+03  0.95432829991E+03  0.50400001928E-02 0. -1.
       -1    1    3    3    0  502  0.77388017669E+03  0.31325394720E+03 -0.52937530204E+03  0.98856298421E+03  0.50400001928E-02 0.  1.
</event>
<event>
 5   0  0.7242144E-04  0.1657422E+04  0.7818609E-02  0.8786028E-01
        2   -1    0    0  501    0  0.00000000000E+00  0.00000000000E+00  0.11643061859E+04  0.11643061859E+04  0.25500000920E-02 0. -1.
       -2   -1    0    0    0  501  0.00000000000E+00  0.00000000000E+00 -0.58984668757E+03  0.58984668758E+03  0.25500000920E-02 0.  1.
    10030    2    1    2    0    0  0.00000000000E+00  0.00000000000E+00  0.57445949835E+03  0.17541528735E+04  0.16574222722E+04 0.  0.
        3    1    3    3  502    0  0.36031910094E+03 -0.22204784321E+03  0.10412910303E+04  0.11240205155E+04  0.10100000352E+00 0. -1.
       -3    1    3    3    0  502 -0.36031910094E+03  0.22204784321E+03 -0.46683153197E+03  0.63013235802E+03  0.10100000352E+00 0.  1.
</event>
<event>
 5   0  0.7233728E-04  0.1698791E+04  0.7818609E-02  0.8762054E-01
       -2   -1    0    0    0  501  0.00000000000E+00  0.00000000000E+00  0.77215969976E+03  0.77215969977E+03  0.25500000920E-02 0.  1.
        2   -1    0    0  501    0  0.00000000000E+00  0.00000000000E+00 -0.93435724255E+03  0.93435724255E+03  0.25500000920E-02 0. -1.
    10030    2    1    2    0    0  0.00000000000E+00  0.00000000000E+00 -0.16219754278E+03  0.17065169423E+04  0.16987913443E+04 0.  0.
        1    1    3    3  502    0 -0.61956276257E+03  0.56611995989E+03  0.50351898187E+02  0.84076461594E+03  0.50400001928E-02 0.  1.
       -1    1    3    3    0  502  0.61956276257E+03 -0.56611995989E+03 -0.21254944097E+03  0.86575232638E+03  0.50400001928E-02 0. -1.
</event>
<event>
 5   0  0.7025426E-04  0.1693204E+04  0.7818609E-02  0.8765250E-01
        2   -1    0    0  501    0  0.00000000000E+00  0.00000000000E+00  0.17117664555E+04  0.17117664555E+04  0.25500000920E-02 0. -1.
       -2   -1    0    0    0  501  0.00000000000E+00  0.00000000000E+00 -0.41871087073E+03  0.41871087074E+03  0.25500000920E-02 0.  1.
    10030    2    1    2    0    0  0.00000000000E+00  0.00000000000E+00  0.12930555848E+04  0.21304773262E+04  0.16932043268E+04 0.  0.
        2    1    3    3  502    0  0.57920581796E+03  0.48786212342E+02  0.14210180354E+04  0.15353018371E+04  0.25500000920E-02 0. -1.
       -2    1    3    3    0  502 -0.57920581796E+03 -0.48786212342E+02 -0.12796245064E+03  0.59517548913E+03  0.25500000920E-02 0.  1.
</event>
<event>
 5   0  0.2639750E-04  0.1708198E+04  0.7818609E-02  0.8756703E-01
       -4   -1    0    0    0  501  0.00000000000E+00  0.00000000000E+00  0.62000430702E+03  0.62000560774E+03  0.12699999809E+01 0.  1.
        4   -1    0    0  501    0  0.00000000000E+00  0.00000000000E+00 -0.11765775294E+04  0.11765782149E+04  0.12699999809E+01 0. -1.
    10030    2    1    2    0    0  0.00000000000E+00  0.00000000000E+00 -0.55657322242E+03  0.17965838226E+04  0.17081977871E+04 0.  0.
        1    1    3    3  502    0 -0.51335767998E+03  0.43127166953E+03  0.27819693335E+03  0.72589592525E+03  0.50400001928E-02 0.  1.
       -1    1    3    3    0  502  0.51335767998E+03 -0.43127166953E+03 -0.83477015577E+03  0.10706878973E+04  0.50400001928E-02 0. -1.
</event>
<event>
 5   0  0.3803253E-04  0.1676810E+04  0.7818609E-02  0.8774702E-01
        1   -1    0    0  501    0  0.00000000000E+00  0.00000000000E+00  0.12392499052E+04  0.12392499052E+04  0.50400001928E-02 0. -1.
       -1   -1    0    0    0  501  0.00000000000E+00  0.00000000000E+00 -0.56721623579E+03  0.56721623581E+03  0.50400001928E-02 0.  1.
    10030    2    1    2    0    0  0.00000000000E+00  0.00000000000E+00  0.67203366941E+03  0.18064661410E+04  0.16768096689E+04 0.  0.
        4    1    3    3  502    0 -0.32818659795E+03 -0.34563975445E+03 -0.40706122302E+03  0.62679640643E+03  0.12699999809E+01 0.  1.
       -4    1    3    3    0  502  0.32818659795E+03  0.34563975445E+03  0.10790948924E+04  0.11796697346E+04  0.12699999809E+01 0. -1.
</event>
<event>
 5   0  0.6746664E-04  0.1705072E+04  0.7818609E-02  0.8758477E-01
       -2   -1    0    0    0  501  0.00000000000E+00  0.00000000000E+00  0.70116793191E+03  0.70116793192E+03  0.25500000920E-02 0. -1.
        2   -1    0    0  501    0  0.00000000000E+00  0.00000000000E+00 -0.10365810268E+04  0.10365810268E+04  0.25500000920E-02 0.  1.
    10030    2    1    2    0    0  0.00000000000E+00  0.00000000000E+00 -0.33541309486E+03  0.17377489587E+04  0.17050716991E+04 0.  0.
        5    1    3    3  502    0 -0.76114323197E+03  0.92071125321E+02 -0.54765025175E+03  0.94220963693E+03  0.46999998093E+01 0.  1.
       -5    1    3    3    0  502  0.76114323197E+03 -0.92071125321E+02  0.21223715689E+03  0.79553932175E+03  0.46999998093E+01 0. -1.
</event>
<event>
 5   0  0.6746664E-04  0.1711719E+04  0.7818609E-02  0.8754709E-01
       -2   -1    0    0    0  501  0.00000000000E+00  0.00000000000E+00  0.43865394807E+03  0.43865394808E+03  0.25500000920E-02 0.  1.
        2   -1    0    0  501    0  0.00000000000E+00  0.00000000000E+00 -0.16698703732E+04  0.16698703732E+04  0.25500000920E-02 0. -1.
    10030    2    1    2    0    0  0.00000000000E+00  0.00000000000E+00 -0.12312164252E+04  0.21085243213E+04  0.17117187058E+04 0.  0.
        5    1    3    3  502    0  0.28371231904E+03  0.53198458243E+03  0.13263611475E+03  0.61734488323E+03  0.46999998093E+01 0.  1.
       -5    1    3    3    0  502 -0.28371231904E+03 -0.53198458243E+03 -0.13638525399E+04  0.14911794381E+04  0.46999998093E+01 0. -1.
</event>
<event>
 5   0  0.3713516E-04  0.1269989E+04  0.7818609E-02  0.9053708E-01
        1   -1    0    0  501    0  0.00000000000E+00  0.00000000000E+00  0.53543846482E+03  0.53543846485E+03  0.50400001928E-02 0. -1.
       -1   -1    0    0    0  501  0.00000000000E+00  0.00000000000E+00 -0.75306174741E+03  0.75306174743E+03  0.50400001928E-02 0.  1.
    10030    2    1    2    0    0  0.00000000000E+00  0.00000000000E+00 -0.21762328258E+03  0.12885002123E+04  0.12699893322E+04 0.  0.
        5    1    3    3  502    0 -0.51220631996E+02 -0.21008853573E+03 -0.71453570948E+03  0.74655483128E+03  0.46999998093E+01 0.  1.
       -5    1    3    3    0  502  0.51220631996E+02  0.21008853573E+03  0.49691242689E+03  0.54194538100E+03  0.46999998093E+01 0. -1.
</event>
<event>
 5   0  0.3803253E-04  0.1697747E+04  0.7818609E-02  0.8762650E-01
        1   -1    0    0  501    0  0.00000000000E+00  0.00000000000E+00  0.90394181060E+03  0.90394181061E+03  0.50400001928E-02 0.  1.
       -1   -1    0    0    0  501  0.00000000000E+00  0.00000000000E+00 -0.79716023333E+03  0.79716023334E+03  0.50400001928E-02 0. -1.
    10030    2    1    2    0    0  0.00000000000E+00  0.00000000000E+00  0.10678157727E+03  0.17011020440E+04  0.16977472894E+04 0.  0.
        4    1    3    3  502    0  0.56754058708E+03 -0.44304919166E+02  0.68433310329E+03  0.89015653287E+03  0.12699999809E+01 0.  1.
       -4    1    3    3    0  502 -0.56754058708E+03  0.44304919166E+02 -0.57755152602E+03  0.81094551109E+03  0.12699999809E+01 0. -1.
</event>
<event>
 5   0  0.3635143E-04  0.1700753E+04  0.7818609E-02  0.8760935E-01
       -1   -1    0    0    0  501  0.00000000000E+00  0.00000000000E+00  0.86273259089E+03  0.86273259090E+03  0.50400001928E-02 0. -1.
        1   -1    0    0  501    0  0.00000000000E+00  0.00000000000E+00 -0.83819758993E+03  0.83819758995E+03  0.50400001928E-02 0.  1.
    10030    2    1    2    0    0  0.00000000000E+00  0.00000000000E+00  0.24535000956E+02  0.17009301809E+04  0.17007532196E+04 0.  0.
        3    1    3    3  502    0  0.56019633099E+03  0.32331356260E+02 -0.62676308399E+03  0.84124741872E+03  0.10100000352E+00 0.  1.
       -3    1    3    3    0  502 -0.56019633099E+03 -0.32331356260E+02  0.65129808494E+03  0.85968276213E+03  0.10100000352E+00 0. -1.
</event>
<event>
 5   0  0.3713516E-04  0.1767240E+04  0.7818609E-02  0.8723918E-01
       -1   -1    0    0    0  501  0.00000000000E+00  0.00000000000E+00  0.87393735248E+03  0.87393735250E+03  0.50400001928E-02 0.  1.
        1   -1    0    0  501    0  0.00000000000E+00  0.00000000000E+00 -0.89340971943E+03  0.89340971945E+03  0.50400001928E-02 0. -1.
    10030    2    1    2    0    0  0.00000000000E+00  0.00000000000E+00 -0.19472366952E+02  0.17673470719E+04  0.17672397969E+04 0.  0.
        5    1    3    3  502    0 -0.11649855684E+03 -0.10003359176E+03  0.86047949648E+03  0.87408562915E+03  0.46999998093E+01 0.  1.
       -5    1    3    3    0  502  0.11649855684E+03  0.10003359176E+03 -0.87995186343E+03  0.89326144279E+03  0.46999998093E+01 0. -1.
</event>
<event>
 5   0  0.3723500E-04  0.1748844E+04  0.7818609E-02  0.8733987E-01
       -1   -1    0    0    0  501  0.00000000000E+00  0.00000000000E+00  0.90849190383E+03  0.90849190385E+03  0.50400001928E-02 0. -1.
        1   -1    0    0  501    0  0.00000000000E+00  0.00000000000E+00 -0.84162985556E+03  0.84162985557E+03  0.50400001928E-02 0.  1.
    10030    2    1    2    0    0  0.00000000000E+00  0.00000000000E+00  0.66862048275E+02  0.17501217594E+04  0.17488440866E+04 0.  0.
        1    1    3    3  502    0 -0.72571512776E+03  0.23201555596E+03 -0.39597481284E+03  0.85865576181E+03  0.50400001928E-02 0.  1.
       -1    1    3    3    0  502  0.72571512776E+03 -0.23201555596E+03  0.46283686112E+03  0.89146599761E+03  0.50400001928E-02 0. -1.
</event>
<event>
 5   0  0.2639750E-04  0.1704784E+04  0.7818609E-02  0.8758641E-01
       -3   -1    0    0    0  501  0.00000000000E+00  0.00000000000E+00  0.17719342393E+04  0.17719342422E+04  0.10100000352E+00 0. -1.
        3   -1    0    0  501    0  0.00000000000E+00  0.00000000000E+00 -0.41004464805E+03  0.41004466048E+03  0.10100000352E+00 0.  1.
    10030    2    1    2    0    0  0.00000000000E+00  0.00000000000E+00  0.13618895913E+04  0.21819789027E+04  0.17047840546E+04 0.  0.
        1    1    3    3  502    0 -0.68799973950E+03  0.14779905030E+03  0.12966145293E+04  0.14752618203E+04  0.50400001928E-02 0. -1.
       -1    1    3    3    0  502  0.68799973950E+03 -0.14779905030E+03  0.65275061998E+02  0.70671708240E+03  0.50400001928E-02 0.  1.
</event>
<event>
 5   0  0.7233728E-04  0.1754945E+04  0.7818609E-02  0.8730633E-01
       -2   -1    0    0    0  501  0.00000000000E+00  0.00000000000E+00  0.57973706538E+03  0.57973706539E+03  0.25500000920E-02 0. -1.
        2   -1    0    0  501    0  0.00000000000E+00  0.00000000000E+00 -0.13281153788E+04  0.13281153788E+04  0.25500000920E-02 0.  1.
    10030    2    1    2    0    0  0.00000000000E+00  0.00000000000E+00 -0.74837831346E+03  0.19078524442E+04  0.17549446854E+04 0.  0.
        1    1    3    3  502    0 -0.32799121580E+03 -0.46824861231E+02 -0.12575025264E+04  0.13004166291E+04  0.50400001928E-02 0.  1.
       -1    1    3    3    0  502  0.32799121580E+03  0.46824861231E+02  0.50912421295E+03  0.60743581514E+03  0.50400001928E-02 0. -1.
</event>
<event>
 5   0  0.3723500E-04  0.1568022E+04  0.7818609E-02  0.8840438E-01
        1   -1    0    0  501    0  0.00000000000E+00  0.00000000000E+00  0.12724761133E+04  0.12724761133E+04  0.50400001928E-02 0.  1.
       -1   -1    0    0    0  501  0.00000000000E+00  0.00000000000E+00 -0.48305277761E+03  0.48305277763E+03  0.50400001928E-02 0. -1.
    10030    2    1    2    0    0  0.00000000000E+00  0.00000000000E+00  0.78942333565E+03  0.17555288909E+04  0.15680218378E+04 0.  0.
        1    1    3    3  502    0  0.46644143115E+03  0.26446177485E+03 -0.24567106407E+03  0.58979819498E+03  0.50400001928E-02 0. -1.
       -1    1    3    3    0  502 -0.46644143115E+03 -0.26446177485E+03  0.10350943997E+04  0.11657306959E+04  0.50400001928E-02 0.  1.
</event>
<event>
 5   0  0.7049044E-04  0.1696634E+04  0.7818609E-02  0.8763287E-01
        2   -1    0    0  501    0  0.00000000000E+00  0.00000000000E+00  0.14471759182E+04  0.14471759182E+04  0.25500000920E-02 0. -1.
       -2   -1    0    0    0  501  0.00000000000E+00  0.00000000000E+00 -0.49727290793E+03  0.49727290794E+03  0.25500000920E-02 0.  1.
    10030    2    1    2    0    0  0.00000000000E+00  0.00000000000E+00  0.94990301025E+03  0.19444488261E+04  0.16966335811E+04 0.  0.
        4    1    3    3  502    0 -0.73824955849E+03 -0.41532768387E+03  0.52784784783E+03  0.99806535806E+03  0.12699999809E+01 0.  1.
       -4    1    3    3    0  502  0.73824955849E+03  0.41532768387E+03  0.42205516242E+03  0.94638346807E+03  0.12699999809E+01 0. -1.
</event>
<event>
 5   0  0.6746664E-04  0.1676754E+04  0.7818609E-02  0.8774735E-01
       -2   -1    0    0    0  501  0.00000000000E+00  0.00000000000E+00  0.14658688371E+04  0.14658688371E+04  0.25500000920E-02 0.  1.
        2   -1    0    0  501    0  0.00000000000E+00  0.00000000000E+00 -0.47949422874E+03  0.47949422874E+03  0.25500000920E-02 0. -1.
    10030    2    1    2    0    0  0.00000000000E+00  0.00000000000E+00  0.98637460838E+03  0.19453630659E+04  0.16767535865E+04 0.  0.
        5    1    3    3  502    0  0.12070430077E+03 -0.53774365068E+03  0.12261483265E+04  0.13443212304E+04  0.46999998093E+01 0.  1.
       -5    1    3    3    0  502 -0.12070430077E+03  0.53774365068E+03 -0.23977371808E+03  0.60104183544E+03  0.46999998093E+01 0. -1.
</event>
<event>
 5   0  0.3915701E-04  0.1707942E+04  0.7818609E-02  0.8756848E-01
        1   -1    0    0  501    0  0.00000000000E+00  0.00000000000E+00  0.81817745764E+03  0.81817745765E+03  0.50400001928E-02 0. -1.
       -1   -1    0    0    0  501  0.00000000000E+00  0.00000000000E+00 -0.89133007116E+03  0.89133007118E+03  0.50400001928E-02 0.  1.
    10030    2    1    2    0    0  0.00000000000E+00  0.00000000000E+00 -0.73152613527E+02  0.17095075288E+04  0.17079416519E+04 0.  0.
        2    1    3    3  502    0  0.21172274083E+03 -0.85371086533E+02  0.78707025140E+03  0.81950858571E+03  0.25500000920E-02 0. -1.
       -2    1    3    3    0  502 -0.21172274083E+03  0.85371086533E+02 -0.86022286493E+03  0.88999894312E+03  0.25500000920E-02 0.  1.
</event>
<event>
 5   0  0.3723500E-04  0.1687055E+04  0.7818609E-02  0.8768782E-01
        1   -1    0    0  501    0  0.00000000000E+00  0.00000000000E+00  0.61620818512E+03  0.61620818514E+03  0.50400001928E-02 0. -1.
       -1   -1    0    0    0  501  0.00000000000E+00  0.00000000000E+00 -0.11547055577E+04  0.11547055577E+04  0.50400001928E-02 0.  1.
    10030    2    1    2    0    0  0.00000000000E+00  0.00000000000E+00 -0.53849737254E+03  0.17709137428E+04  0.16870554420E+04 0.  0.
        1    1    3    3  502    0  0.11752523904E+03 -0.63193628802E+03  0.30414823224E+03  0.71109900937E+03  0.50400001928E-02 0. -1.
       -1    1    3    3    0  502 -0.11752523904E+03  0.63193628802E+03 -0.84264560478E+03  0.10598147334E+04  0.50400001928E-02 0.  1.
</event>
<event>
 5   0  0.7025426E-04  0.1691618E+04  0.7818609E-02  0.8766159E-01
       -2   -1    0    0    0  501  0.00000000000E+00  0.00000000000E+00  0.19035562287E+04  0.19035562287E+04  0.25500000920E-02 0. -1.
        2   -1    0    0  501    0  0.00000000000E+00  0.00000000000E+00 -0.37581926849E+03  0.37581926850E+03  0.25500000920E-02 0.  1.
    10030    2    1    2    0    0  0.00000000000E+00  0.00000000000E+00  0.15277369602E+04  0.22793754972E+04  0.16916182896E+04 0.  0.
        2    1    3    3  502    0 -0.10616051240E+03  0.34277126416E+03  0.17959071649E+04  0.18314051269E+04  0.25500000920E-02 0. -1.
       -2    1    3    3    0  502  0.10616051240E+03 -0.34277126416E+03 -0.26817020472E+03  0.44797037026E+03  0.25500000920E-02 0.  1.
</event>
<event>
 5   0  0.3635143E-04  0.1569021E+04  0.7818609E-02  0.8839809E-01
        1   -1    0    0  501    0  0.00000000000E+00  0.00000000000E+00  0.47106823597E+03  0.47106823600E+03  0.50400001928E-02 0.  1.
       -1   -1    0    0    0  501  0.00000000000E+00  0.00000000000E+00 -0.13065134440E+04  0.13065134440E+04  0.50400001928E-02 0. -1.
    10030    2    1    2    0    0  0.00000000000E+00  0.00000000000E+00 -0.83544520798E+03  0.17775816800E+04  0.15690213298E+04 0.  0.
        3    1    3    3  502    0  0.77305018950E+03  0.96757605222E+02 -0.31334383016E+03  0.83973388389E+03  0.10100000352E+00 0.  1.
       -3    1    3    3    0  502 -0.77305018950E+03 -0.96757605222E+02 -0.52210137782E+03  0.93784779606E+03  0.10100000352E+00 0. -1.
</event>
<event>
 5   0  0.3635143E-04  0.1656823E+04  0.7818609E-02  0.8786380E-01
       -1   -1    0    0    0  501  0.00000000000E+00  0.00000000000E+00  0.55476790355E+03  0.55476790357E+03  0.50400001928E-02 0.  1.
        1   -1    0    0  501    0  0.00000000000E+00  0.00000000000E+00 -0.12370318074E+04  0.12370318075E+04  0.50400001928E-02 0. -1.
    10030    2    1    2    0    0  0.00000000000E+00  0.00000000000E+00 -0.68226390389E+03  0.17917997110E+04  0.16568229145E+04 0.  0.
        3    1    3    3  502    0  0.45883651968E+03 -0.45539404146E+03  0.21909610547E+03  0.68258171556E+03  0.10100000352E+00 0.  1.
       -3    1    3    3    0  502 -0.45883651968E+03  0.45539404146E+03 -0.90136000936E+03  0.11092179955E+04  0.10100000352E+00 0. -1.
</event>
<event>
 5   0  0.7025426E-04  0.1758033E+04  0.7818609E-02  0.8728941E-01
        2   -1    0    0  501    0  0.00000000000E+00  0.00000000000E+00  0.10329260220E+04  0.10329260220E+04  0.25500000920E-02 0. -1.
       -2   -1    0    0    0  501  0.00000000000E+00  0.00000000000E+00 -0.74803976178E+03  0.74803976178E+03  0.25500000920E-02 0.  1.
    10030    2    1    2    0    0  0.00000000000E+00  0.00000000000E+00  0.28488626024E+03  0.17809657838E+04  0.17580326908E+04 0.  0.
        2    1    3    3  502    0 -0.51246779032E+03  0.17225525626E+02  0.86572429055E+03  0.10061801539E+04  0.25500000920E-02 0. -1.
       -2    1    3    3    0  502  0.51246779032E+03 -0.17225525626E+02 -0.58083803031E+03  0.77478562990E+03  0.25500000920E-02 0.  1.
</event>
<event>
 5   0  0.3713516E-04  0.1677993E+04  0.7818609E-02  0.8774016E-01
        1   -1    0    0  501    0  0.00000000000E+00  0.00000000000E+00  0.80492388063E+03  0.80492388064E+03  0.50400001928E-02 0. -1.
       -1   -1    0    0    0  501  0.00000000000E+00  0.00000000000E+00 -0.87451118988E+03  0.87451118989E+03  0.50400001928E-02 0.  1.
    10030    2    1    2    0    0  0.00000000000E+00  0.00000000000E+00 -0.69587309250E+02  0.16794350705E+04  0.16779927779E+04 0.  0.
        5    1    3    3  502    0 -0.29608509169E+03 -0.70939975934E+02 -0.81725459622E+03  0.87213876576E+03  0.46999998093E+01 0.  1.
       -5    1    3    3    0  502  0.29608509169E+03  0.70939975934E+02  0.74766728697E+03  0.80729630478E+03  0.46999998093E+01 0. -1.
</event>
<event>
 5   0  0.7242144E-04  0.1707559E+04  0.7818609E-02  0.8757065E-01
       -2   -1    0    0    0  501  0.00000000000E+00  0.00000000000E+00  0.14648934288E+04  0.14648934288E+04  0.25500000920E-02 0. -1.
        2   -1    0    0  501    0  0.00000000000E+00  0.00000000000E+00 -0.49760592496E+03  0.49760592497E+03  0.25500000920E-02 0.  1.
    10030    2    1    2    0    0  0.00000000000E+00  0.00000000000E+00  0.96728750380E+03  0.19624993537E+04  0.17075592518E+04 0.  0.
        3    1    3    3  502    0  0.71983978321E+03 -0.32696846886E+03  0.11325143609E+03  0.79868866970E+03  0.10100000352E+00 0.  1.
       -3    1    3    3    0  502 -0.71983978321E+03  0.32696846886E+03  0.85403606771E+03  0.11638106840E+04  0.10100000352E+00 0. -1.
</event>
<event>
 5   0  0.7242144E-04  0.1701909E+04  0.7818609E-02  0.8760277E-01
       -2   -1    0    0    0  501  0.00000000000E+00  0.00000000000E+00  0.12376040041E+04  0.12376040041E+04  0.25500000920E-02 0. -1.
        2   -1    0    0  501    0  0.00000000000E+00  0.00000000000E+00 -0.58510091918E+03  0.58510091918E+03  0.25500000920E-02 0.  1.
    10030    2    1    2    0    0  0.00000000000E+00  0.00000000000E+00  0.65250308496E+03  0.18227049233E+04  0.17019086232E+04 0.  0.
        3    1    3    3  502    0  0.10575740920E+03 -0.72833255668E+03  0.78373585465E+03  0.10751255009E+04  0.10100000352E+00 0. -1.
       -3    1    3    3    0  502 -0.10575740920E+03  0.72833255668E+03 -0.13123276969E+03  0.74757942237E+03  0.10100000352E+00 0.  1.
</event>
<event>
 5   0  0.7025426E-04  0.1689500E+04  0.7818609E-02  0.8767376E-01
        2   -1    0    0  501    0  0.00000000000E+00  0.00000000000E+00  0.72123113500E+03  0.72123113501E+03  0.25500000920E-02 0. -1.
       -2   -1    0    0    0  501  0.00000000000E+00  0.00000000000E+00 -0.98942312002E+03  0.98942312003E+03  0.25500000920E-02 0.  1.
    10030    2    1    2    0    0  0.00000000000E+00  0.00000000000E+00 -0.26819198502E+03  0.17106542550E+04  0.16895002336E+04 0.  0.
        2    1    3    3  502    0  0.37255049584E+03 -0.67918908181E+03 -0.47522850420E+03  0.90880900744E+03  0.25500000920E-02 0.  1.
       -2    1    3    3    0  502 -0.37255049584E+03  0.67918908181E+03  0.20703651918E+03  0.80184524759E+03  0.25500000920E-02 0. -1.
</event>
<event>
 5   0  0.3803253E-04  0.1671499E+04  0.7818609E-02  0.8777789E-01
        1   -1    0    0  501    0  0.00000000000E+00  0.00000000000E+00  0.11260728947E+04  0.11260728947E+04  0.50400001928E-02 0. -1.
       -1   -1    0    0    0  501  0.00000000000E+00  0.00000000000E+00 -0.62027710568E+03  0.62027710571E+03  0.50400001928E-02 0.  1.
    10030    2    1    2    0    0  0.00000000000E+00  0.00000000000E+00  0.50579578900E+03  0.17463500004E+04  0.16714990110E+04 0.  0.
        4    1    3    3  502    0 -0.47565091151E+03  0.31773697019E+03  0.88950729593E+03  0.10575563409E+04  0.12699999809E+01 0. -1.
       -4    1    3    3    0  502  0.47565091151E+03 -0.31773697019E+03 -0.38371150694E+03  0.68879365946E+03  0.12699999809E+01 0.  1.
</event>
<event>
 5   0  0.7233728E-04  0.1578812E+04  0.7818609E-02  0.8833671E-01
        2   -1    0    0  501    0  0.00000000000E+00  0.00000000000E+00  0.14969193057E+04  0.14969193057E+04  0.25500000920E-02 0. -1.
       -2   -1    0    0    0  501  0.00000000000E+00  0.00000000000E+00 -0.41629611092E+03  0.41629611093E+03  0.25500000920E-02 0.  1.
    10030    2    1    2    0    0  0.00000000000E+00  0.00000000000E+00  0.10806231948E+04  0.19132154166E+04  0.15788118131E+04 0.  0.
        1    1    3    3  502    0  0.11603419686E+03  0.92337846346E+01 -0.40583935722E+03  0.42220229927E+03  0.50400001928E-02 0.  1.
       -1    1    3    3    0  502 -0.11603419686E+03 -0.92337846346E+01  0.14864625520E+04  0.14910131173E+04  0.50400001928E-02 0. -1.
</event>
<event>
 5   0  0.7025426E-04  0.1730636E+04  0.7818609E-02  0.8744082E-01
       -2   -1    0    0    0  501  0.00000000000E+00  0.00000000000E+00  0.68987676580E+03  0.68987676580E+03  0.25500000920E-02 0.  1.
        2   -1    0    0  501    0  0.00000000000E+00  0.00000000000E+00 -0.10853753373E+04  0.10853753373E+04  0.25500000920E-02 0. -1.
    10030    2    1    2    0    0  0.00000000000E+00  0.00000000000E+00 -0.39549857151E+03  0.17752521031E+04  0.17306359841E+04 0.  0.
        2    1    3    3  502    0 -0.31809125952E+03  0.52517292220E+03  0.42771304789E+03  0.74828276670E+03  0.25500000920E-02 0.  1.
       -2    1    3    3    0  502  0.31809125952E+03 -0.52517292220E+03 -0.82321161940E+03  0.10269693364E+04  0.25500000920E-02 0. -1.
</event>
<event>
 5   0  0.7233728E-04  0.1704814E+04  0.7818609E-02  0.8758623E-01
       -2   -1    0    0    0  501  0.00000000000E+00  0.00000000000E+00  0.11520469121E+04  0.11520469121E+04  0.25500000920E-02 0. -1.
        2   -1    0    0  501    0  0.00000000000E+00  0.00000000000E+00 -0.63070169288E+03  0.63070169288E+03  0.25500000920E-02 0.  1.
    10030    2    1    2    0    0  0.00000000000E+00  0.00000000000E+00  0.52134521926E+03  0.17827486050E+04  0.17048142864E+04 0.  0.
        1    1    3    3  502    0 -0.76147374999E+03 -0.30751246122E+03  0.21773810273E+02  0.82151097653E+03  0.50400001928E-02 0. -1.
       -1    1    3    3    0  502  0.76147374999E+03  0.30751246122E+03  0.49957140899E+03  0.96123762849E+03  0.50400001928E-02 0.  1.
</event>
<event>
 5   0  0.7242144E-04  0.1633932E+04  0.7818609E-02  0.8799969E-01
        2   -1    0    0  501    0  0.00000000000E+00  0.00000000000E+00  0.99578834860E+03  0.99578834860E+03  0.25500000920E-02 0.  1.
       -2   -1    0    0    0  501  0.00000000000E+00  0.00000000000E+00 -0.67025630788E+03  0.67025630789E+03  0.25500000920E-02 0. -1.
    10030    2    1    2    0    0  0.00000000000E+00  0.00000000000E+00  0.32553204071E+03  0.16660446565E+04  0.16339319716E+04 0.  0.
        3    1    3    3  502    0 -0.82042097405E+02  0.76010001654E+03 -0.13090567814E+03  0.77564118486E+03  0.10100000352E+00 0. -1.
       -3    1    3    3    0  502  0.82042097405E+02 -0.76010001654E+03  0.45643771886E+03  0.89040347163E+03  0.10100000352E+00 0.  1.
</event>
<event>
 5   0  0.3915701E-04  0.1685351E+04  0.7818609E-02  0.8769763E-01
       -1   -1    0    0    0  501  0.00000000000E+00  0.00000000000E+00  0.10628609688E+04  0.10628609689E+04  0.50400001928E-02 0.  1.
        1   -1    0    0  501    0  0.00000000000E+00  0.00000000000E+00 -0.66810454088E+03  0.66810454089E+03  0.50400001928E-02 0. -1.
    10030    2    1    2    0    0  0.00000000000E+00  0.00000000000E+00  0.39475642797E+03  0.17309655098E+04  0.16853512864E+04 0.  0.
        2    1    3    3  502    0 -0.56259500189E+03  0.54198257255E+03 -0.12715485107E+03  0.79147116262E+03  0.25500000920E-02 0. -1.
       -2    1    3    3    0  502  0.56259500189E+03 -0.54198257255E+03  0.52191127904E+03  0.93949434713E+03  0.25500000920E-02 0.  1.
</event>
<event>
 5   0  0.7233728E-04  0.1729219E+04  0.7818609E-02  0.8744873E-01
       -2   -1    0    0    0  501  0.00000000000E+00  0.00000000000E+00  0.10233649368E+04  0.10233649368E+04  0.25500000920E-02 0.  1.
        2   -1    0    0  501    0  0.00000000000E+00  0.00000000000E+00 -0.73048219428E+03  0.73048219429E+03  0.25500000920E-02 0. -1.
    10030    2    1    2    0    0  0.00000000000E+00  0.00000000000E+00  0.29288274254E+03  0.17538471311E+04  0.17292193205E+04 0.  0.
        1    1    3    3  502    0  0.75683542400E+03 -0.41802007297E+03  0.14336098728E+03  0.87640915851E+03  0.50400001928E-02 0.  1.
       -1    1    3    3    0  502 -0.75683542400E+03  0.41802007297E+03  0.14952175525E+03  0.87743797259E+03  0.50400001928E-02 0. -1.
</event>
<event>
 5   0  0.7049044E-04  0.1655508E+04  0.7818609E-02  0.8787155E-01
       -2   -1    0    0    0  501  0.00000000000E+00  0.00000000000E+00  0.70399653974E+03  0.70399653975E+03  0.25500000920E-02 0. -1.
        2   -1    0    0  501    0  0.00000000000E+00  0.00000000000E+00 -0.97326717822E+03  0.97326717822E+03  0.25500000920E-02 0.  1.
    10030    2    1    2    0    0  0.00000000000E+00  0.00000000000E+00 -0.26927063847E+03  0.16772637180E+04  0.16555080498E+04 0.  0.
        4    1    3    3  502    0 -0.52889901192E+03  0.30361348089E+03  0.43241603302E+03  0.74759651491E+03  0.12699999809E+01 0. -1.
       -4    1    3    3    0  502  0.52889901192E+03 -0.30361348089E+03 -0.70168667150E+03  0.92966720306E+03  0.12699999809E+01 0.  1.
</event>
<event>
 5   0  0.3723500E-04  0.1651033E+04  0.7818609E-02  0.8789796E-01
       -1   -1    0    0    0  501  0.00000000000E+00  0.00000000000E+00  0.57291532428E+03  0.57291532430E+03  0.50400001928E-02 0.  1.
        1   -1    0    0  501    0  0.00000000000E+00  0.00000000000E+00 -0.11894901261E+04  0.11894901261E+04  0.50400001928E-02 0. -1.
    10030    2    1    2    0    0  0.00000000000E+00  0.00000000000E+00 -0.61657480177E+03  0.17624054504E+04  0.16510325512E+04 0.  0.
        1    1    3    3  502    0  0.59643327924E+03 -0.45681624911E+02  0.29899840757E+03  0.66874473097E+03  0.50400001928E-02 0.  1.
       -1    1    3    3    0  502 -0.59643327924E+03  0.45681624911E+02 -0.91557320935E+03  0.10936607194E+04  0.50400001928E-02 0. -1.
</event>
<event>
 5   0  0.3915701E-04  0.1794083E+04  0.7818609E-02  0.8709453E-01
       -1   -1    0    0    0  501  0.00000000000E+00  0.00000000000E+00  0.54552517114E+03  0.54552517116E+03  0.50400001928E-02 0.  1.
        1   -1    0    0  501    0  0.00000000000E+00  0.00000000000E+00 -0.14750611886E+04  0.14750611886E+04  0.50400001928E-02 0. -1.
    10030    2    1    2    0    0  0.00000000000E+00  0.00000000000E+00 -0.92953601745E+03  0.20205863598E+04  0.17940825035E+04 0.  0.
        2    1    3    3  502    0 -0.49398807945E+03 -0.59671299535E+03  0.44656387700E+02  0.77594124419E+03  0.25500000920E-02 0. -1.
       -2    1    3    3    0  502  0.49398807945E+03  0.59671299535E+03 -0.97419240515E+03  0.12446451156E+04  0.25500000920E-02 0.  1.
</event>
<event>
 5   0  0.3713516E-04  0.1515568E+04  0.7818609E-02  0.8874166E-01
       -1   -1    0    0    0  501  0.00000000000E+00  0.00000000000E+00  0.12388699192E+04  0.12388699192E+04  0.50400001928E-02 0. -1.
        1   -1    0    0  501    0  0.00000000000E+00  0.00000000000E+00 -0.46351675679E+03  0.46351675681E+03  0.50400001928E-02 0.  1.
    10030    2    1    2    0    0  0.00000000000E+00  0.00000000000E+00  0.77535316244E+03  0.17023866760E+04  0.15155684967E+04 0.  0.
        5    1    3    3  502    0  0.64322048550E+03  0.28521398866E+03  0.71690704254E+02  0.70727735675E+03  0.46999998093E+01 0.  1.
       -5    1    3    3    0  502 -0.64322048550E+03 -0.28521398866E+03  0.70366245819E+03  0.99510931930E+03  0.46999998093E+01 0. -1.
</event>
<event>
 5   0  0.2639750E-04  0.1721350E+04  0.7818609E-02  0.8749280E-01
        3   -1    0    0  501    0  0.00000000000E+00  0.00000000000E+00  0.90155808963E+03  0.90155809528E+03  0.10100000352E+00 0.  1.
       -3   -1    0    0    0  501  0.00000000000E+00  0.00000000000E+00 -0.82164624013E+03  0.82164624634E+03  0.10100000352E+00 0. -1.
    10030    2    1    2    0    0  0.00000000000E+00  0.00000000000E+00  0.79911849498E+02  0.17232043416E+04  0.17213504290E+04 0.  0.
        4    1    3    3  502    0 -0.17205889095E+03 -0.18932372455E+03 -0.78270311642E+03  0.82345219411E+03  0.12699999809E+01 0. -1.
       -4    1    3    3    0  502  0.17205889095E+03  0.18932372455E+03  0.86261496591E+03  0.89975214751E+03  0.12699999809E+01 0.  1.
</event>
<event>
 5   0  0.3635143E-04  0.1677422E+04  0.7818609E-02  0.8774347E-01
        1   -1    0    0  501    0  0.00000000000E+00  0.00000000000E+00  0.10646084345E+04  0.10646084345E+04  0.50400001928E-02 0.  1.
       -1   -1    0    0    0  501  0.00000000000E+00  0.00000000000E+00 -0.66074668917E+03  0.66074668919E+03  0.50400001928E-02 0. -1.
    10030    2    1    2    0    0  0.00000000000E+00  0.00000000000E+00  0.40386174535E+03  0.17253551237E+04  0.16774224255E+04 0.  0.
        3    1    3    3  502    0  0.63510302879E+03 -0.18039869081E+03  0.73395084168E+03  0.98720990323E+03  0.10100000352E+00 0. -1.
       -3    1    3    3    0  502 -0.63510302879E+03  0.18039869081E+03 -0.33008909633E+03  0.73814522050E+03  0.10100000352E+00 0.  1.
</event>
<event>
 5   0  0.7049044E-04  0.1707069E+04  0.7818609E-02  0.8757343E-01
        2   -1    0    0  501    0  0.00000000000E+00  0.00000000000E+00  0.14632691879E+04  0.14632691879E+04  0.25500000920E-02 0. -1.
       -2   -1    0    0    0  501  0.00000000000E+00  0.00000000000E+00 -0.49787202010E+03  0.49787202011E+03  0.25500000920E-02 0.  1.
    10030    2    1    2    0    0  0.00000000000E+00  0.00000000000E+00  0.96539716775E+03  0.19611412080E+04  0.17070685827E+04 0.  0.
        4    1    3    3  502    0 -0.21630286853E+03 -0.50990278927E+03 -0.26336502797E+03  0.61331112521E+03  0.12699999809E+01 0.  1.
       -4    1    3    3    0  502  0.21630286853E+03  0.50990278927E+03  0.12287621957E+04  0.13478300828E+04  0.12699999809E+01 0. -1.
</event>
<event>
 5   0  0.3723500E-04  0.1691027E+04  0.7818609E-02  0.8766499E-01
        1   -1    0    0  501    0  0.00000000000E+00  0.00000000000E+00  0.14011761674E+04  0.14011761674E+04  0.50400001928E-02 0.  1.
       -1   -1    0    0    0  501  0.00000000000E+00  0.00000000000E+00 -0.51020928387E+03  0.51020928389E+03  0.50400001928E-02 0. -1.
    10030    2    1    2    0    0  0.00000000000E+00  0.00000000000E+00  0.89096688355E+03  0.19113854513E+04  0.16910270122E+04 0.  0.
        1    1    3    3  502    0 -0.54242712373E+03  0.42722879387E+03  0.99707198726E+03  0.12128083833E+04  0.50400001928E-02 0.  1.
       -1    1    3    3    0  502  0.54242712373E+03 -0.42722879387E+03 -0.10610510371E+03  0.69857706799E+03  0.50400001928E-02 0. -1.
</event>
<event>
 5   0  0.6746664E-04  0.1709535E+04  0.7818609E-02  0.8755945E-01
       -2   -1    0    0    0  501  0.00000000000E+00  0.00000000000E+00  0.46978872654E+03  0.46978872655E+03  0.25500000920E-02 0.  1.
        2   -1    0    0  501    0  0.00000000000E+00  0.00000000000E+00 -0.15552262167E+04  0.15552262167E+04  0.25500000920E-02 0. -1.
    10030    2    1    2    0    0  0.00000000000E+00  0.00000000000E+00 -0.10854374902E+04  0.20250149433E+04  0.17095353098E+04 0.  0.
        5    1    3    3  502    0  0.74490731846E+03 -0.33952448974E+03 -0.25150016966E+03  0.85641007558E+03  0.46999998093E+01 0.  1.
       -5    1    3    3    0  502 -0.74490731846E+03  0.33952448974E+03 -0.83393732053E+03  0.11686048677E+04  0.46999998093E+01 0. -1.
</event>
<event>
 5   0  0.6746664E-04  0.1705884E+04  0.7818609E-02  0.8758015E-01
        2   -1    0    0  501    0  0.00000000000E+00  0.00000000000E+00  0.85630690708E+03  0.85630690708E+03  0.25500000920E-02 0.  1.
       -2   -1    0    0    0  501  0.00000000000E+00  0.00000000000E+00 -0.84959076943E+03  0.84959076943E+03  0.25500000920E-02 0. -1.
    10030    2    1    2    0    0  0.00000000000E+00  0.00000000000E+00  0.67161376469E+01  0.17058976765E+04  0.17058844557E+04 0.  0.
        5    1    3    3  502    0 -0.22434865848E+02  0.75993173827E+03 -0.38328272203E+03  0.85142662927E+03  0.46999998093E+01 0. -1.
       -5    1    3    3    0  502  0.22434865848E+02 -0.75993173827E+03  0.38999885967E+03  0.85447104724E+03  0.46999998093E+01 0.  1.
</event>
<event>
 5   0  0.6746664E-04  0.1671817E+04  0.7818609E-02  0.8777604E-01
        2   -1    0    0  501    0  0.00000000000E+00  0.00000000000E+00  0.15648377966E+04  0.15648377966E+04  0.25500000920E-02 0. -1.
       -2   -1    0    0    0  501  0.00000000000E+00  0.00000000000E+00 -0.44652720711E+03  0.44652720712E+03  0.25500000920E-02 0.  1.
    10030    2    1    2    0    0  0.00000000000E+00  0.00000000000E+00  0.11183105895E+04  0.20113650038E+04  0.16718165580E+04 0.  0.
        5    1    3    3  502    0  0.18696932229E+03  0.70169603775E+03  0.10572243541E+04  0.12826068306E+04  0.46999998093E+01 0. -1.
       -5    1    3    3    0  502 -0.18696932229E+03 -0.70169603775E+03  0.61086235413E+02  0.72875817321E+03  0.46999998093E+01 0.  1.
</event>
<event>
 5   0  0.7025426E-04  0.1676777E+04  0.7818609E-02  0.8774721E-01
       -2   -1    0    0    0  501  0.00000000000E+00  0.00000000000E+00  0.92532036024E+03  0.92532036025E+03  0.25500000920E-02 0.  1.
        2   -1    0    0  501    0  0.00000000000E+00  0.00000000000E+00 -0.75962394206E+03  0.75962394207E+03  0.25500000920E-02 0. -1.
    10030    2    1    2    0    0  0.00000000000E+00  0.00000000000E+00  0.16569641818E+03  0.16849443023E+04  0.16767772657E+04 0.  0.
        2    1    3    3  502    0 -0.37280982343E+02 -0.56426780908E+03  0.70481970364E+03  0.90363645713E+03  0.25500000920E-02 0.  1.
       -2    1    3    3    0  502  0.37280982343E+02  0.56426780908E+03 -0.53912328546E+03  0.78130784518E+03  0.25500000920E-02 0. -1.
</event>
<event>
 5   0  0.3803253E-04  0.1666015E+04  0.7818609E-02  0.8780988E-01
       -1   -1    0    0    0  501  0.00000000000E+00  0.00000000000E+00  0.92155937020E+03  0.92155937022E+03  0.50400001928E-02 0. -1.
        1   -1    0    0  501    0  0.00000000000E+00  0.00000000000E+00 -0.75296433484E+03  0.75296433486E+03  0.50400001928E-02 0.  1.
    10030    2    1    2    0    0  0.00000000000E+00  0.00000000000E+00  0.16859503536E+03  0.16745237051E+04  0.16660148117E+04 0.  0.
        4    1    3    3  502    0 -0.68985481030E+03 -0.22906807197E+03 -0.32463158919E+03  0.79608989599E+03  0.12699999809E+01 0.  1.
       -4    1    3    3    0  502  0.68985481030E+03  0.22906807197E+03  0.49322662455E+03  0.87843380909E+03  0.12699999809E+01 0. -1.
</event>
<event>
 5   0  0.7233728E-04  0.1696599E+04  0.7818609E-02  0.8763306E-01
        2   -1    0    0  501    0  0.00000000000E+00  0.00000000000E+00  0.90797699441E+03  0.90797699441E+03  0.25500000920E-02 0. -1.
       -2   -1    0    0    0  501  0.00000000000E+00  0.00000000000E+00 -0.79254465863E+03  0.79254465863E+03  0.25500000920E-02 0.  1.
    10030    2    1    2    0    0  0.00000000000E+00  0.00000000000E+00  0.11543233578E+03  0.17005216530E+04  0.16965993246E+04 0.  0.
        1    1    3    3  502    0 -0.58747602424E+03 -0.34062328742E+03 -0.45184879443E+03  0.81567127941E+03  0.50400001928E-02 0.  1.
       -1    1    3    3    0  502  0.58747602424E+03  0.34062328742E+03  0.56728113021E+03  0.88485037363E+03  0.50400001928E-02 0. -1.
</event>
<event>
 5   0  0.6746664E-04  0.1708229E+04  0.7818609E-02  0.8756685E-01
       -2   -1    0    0    0  501  0.00000000000E+00  0.00000000000E+00  0.40814918592E+03  0.40814918592E+03  0.25500000920E-02 0. -1.
        2   -1    0    0  501    0  0.00000000000E+00  0.00000000000E+00 -0.17873651949E+04  0.17873651950E+04  0.25500000920E-02 0.  1.
    10030    2    1    2    0    0  0.00000000000E+00  0.00000000000E+00 -0.13792160090E+04  0.21955143809E+04  0.17082290821E+04 0.  0.
        5    1    3    3  502    0 -0.20017911970E+03 -0.75256757552E+03 -0.23874095689E+03  0.81452376894E+03  0.46999998093E+01 0. -1.
       -5    1    3    3    0  502  0.20017911970E+03  0.75256757552E+03 -0.11404750521E+04  0.13809906119E+04  0.46999998093E+01 0.  1.
</event>
<event>
 5   0  0.7049044E-04  0.1700804E+04  0.7818609E-02  0.8760906E-01
       -2   -1    0    0    0  501  0.00000000000E+00  0.00000000000E+00  0.76096033642E+03  0.76096033643E+03  0.25500000920E-02 0.  1.
        2   -1    0    0  501    0  0.00000000000E+00  0.00000000000E+00 -0.95035680554E+03  0.95035680554E+03  0.25500000920E-02 0. -1.
    10030    2    1    2    0    0  0.00000000000E+00  0.00000000000E+00 -0.18939646911E+03  0.17113171420E+04  0.17008043209E+04 0.  0.
        4    1    3    3  502    0  0.32384624944E+03  0.51234119072E+03 -0.69488532318E+03  0.92208303002E+03  0.12699999809E+01 0. -1.
       -4    1    3    3    0  502 -0.32384624944E+03 -0.51234119072E+03  0.50548885406E+03  0.78923411195E+03  0.12699999809E+01 0.  1.
</event>
<event>
 5   0  0.7242144E-04  0.1732988E+04  0.7818609E-02  0.8742770E-01
       -2   -1    0    0    0  501  0.00000000000E+00  0.00000000000E+00  0.42576599267E+03  0.42576599268E+03  0.25500000920E-02 0. -1.
        2   -1    0    0  501    0  0.00000000000E+00  0.00000000000E+00 -0.17634387255E+04  0.17634387255E+04  0.25500000920E-02 0.  1.
    10030    2    1    2    0    0  0.00000000000E+00  0.00000000000E+00 -0.13376727328E+04  0.21892047182E+04  0.17329884471E+04 0.  0.
        3    1    3    3  502    0 -0.67203373292E+03 -0.24471004550E+02  0.21441611505E+02  0.67282086855E+03  0.10100000352E+00 0. -1.
       -3    1    3    3    0  502  0.67203373292E+03  0.24471004550E+02 -0.13591143443E+04  0.15163838496E+04  0.10100000352E+00 0.  1.
</event>
<event>
 5   0  0.6746664E-04  0.1545917E+04  0.7818609E-02  0.8854480E-01
        2   -1    0    0  501    0  0.00000000000E+00  0.00000000000E+00  0.23438006656E+04  0.23438006656E+04  0.25500000920E-02 0.  1.
       -2   -1    0    0    0  501  0.00000000000E+00  0.00000000000E+00 -0.25491279640E+03  0.25491279641E+03  0.25500000920E-02 0. -1.
    10030    2    1    2    0    0  0.00000000000E+00  0.00000000000E+00  0.20888878692E+04  0.25987134620E+04  0.15459169213E+04 0.  0.
        5    1    3    3  502    0 -0.44957266192E+03  0.32957325952E+03  0.14434014475E+03  0.57583876139E+03  0.46999998093E+01 0. -1.
       -5    1    3    3    0  502  0.44957266192E+03 -0.32957325952E+03  0.19445477245E+04  0.20228747006E+04  0.46999998093E+01 0.  1.
</event>
<event>
 5   0  0.3803253E-04  0.1709543E+04  0.7818609E-02  0.8755940E-01
        1   -1    0    0  501    0  0.00000000000E+00  0.00000000000E+00  0.74396948064E+03  0.74396948066E+03  0.50400001928E-02 0.  1.
       -1   -1    0    0    0  501  0.00000000000E+00  0.00000000000E+00 -0.98207536989E+03  0.98207536990E+03  0.50400001928E-02 0. -1.
    10030    2    1    2    0    0  0.00000000000E+00  0.00000000000E+00 -0.23810588925E+03  0.17260448506E+04  0.17095427493E+04 0.  0.
        4    1    3    3  502    0  0.83674685818E+03 -0.17397760614E+03 -0.13399368956E+03  0.86508348375E+03  0.12699999809E+01 0. -1.
       -4    1    3    3    0  502 -0.83674685818E+03  0.17397760614E+03 -0.10411219969E+03  0.86096136681E+03  0.12699999809E+01 0.  1.
</event>
<event>
 5   0  0.3635143E-04  0.1677222E+04  0.7818609E-02  0.8774463E-01
        1   -1    0    0  501    0  0.00000000000E+00  0.00000000000E+00  0.29572408311E+03  0.29572408315E+03  0.50400001928E-02 0. -1.
       -1   -1    0    0    0  501  0.00000000000E+00  0.00000000000E+00 -0.23781243201E+04  0.23781243201E+04  0.50400001928E-02 0.  1.
    10030    2    1    2    0    0  0.00000000000E+00  0.00000000000E+00 -0.20824002370E+04  0.26738484033E+04  0.16772222681E+04 0.  0.
        3    1    3    3  502    0 -0.70751018319E+03  0.39062171276E+03 -0.68432208952E+03  0.10589866450E+04  0.10100000352E+00 0. -1.
       -3    1    3    3    0  502  0.70751018319E+03 -0.39062171276E+03 -0.13980781475E+04  0.16148617583E+04  0.10100000352E+00 0.  1.
</event>
<event>
 5   0  0.3713516E-04  0.1058547E+04  0.7818609E-02  0.9246564E-01
        1   -1    0    0  501    0  0.00000000000E+00  0.00000000000E+00  0.25120485952E+03  0.25120485958E+03  0.50400001928E-02 0.  1.
       -1   -1    0    0    0  501  0.00000000000E+00  0.00000000000E+00 -0.11151468813E+04  0.11151468813E+04  0.50400001928E-02 0. -1.
    10030    2    1    2    0    0  0.00000000000E+00  0.00000000000E+00 -0.86394202176E+03  0.13663517409E+04  0.10585467693E+04 0.  0.
        5    1    3    3  502    0 -0.51335071284E+03  0.15613103883E+02 -0.26699579312E+03  0.57886230394E+03  0.46999998093E+01 0.  1.
       -5    1    3    3    0  502  0.51335071284E+03 -0.15613103883E+02 -0.59694622864E+03  0.78748943693E+03  0.46999998093E+01 0. -1.
</event>
<event>
 5   0  0.7233728E-04  0.1702226E+04  0.7818609E-02  0.8760096E-01
       -2   -1    0    0    0  501  0.00000000000E+00  0.00000000000E+00  0.43037300166E+03  0.43037300167E+03  0.25500000920E-02 0. -1.
        2   -1    0    0  501    0  0.00000000000E+00  0.00000000000E+00 -0.16831763303E+04  0.16831763303E+04  0.25500000920E-02 0.  1.
    10030    2    1    2    0    0  0.00000000000E+00  0.00000000000E+00 -0.12528033286E+04  0.21135493319E+04  0.17022263652E+04 0.  0.
        1    1    3    3  502    0 -0.71302539612E+03  0.12719419118E+03 -0.71387886739E+02  0.72779104706E+03  0.50400001928E-02 0. -1.
       -1    1    3    3    0  502  0.71302539612E+03 -0.12719419118E+03 -0.11814154419E+04  0.13857582849E+04  0.50400001928E-02 0.  1.
</event>
<event>
 5   0  0.6746664E-04  0.1694037E+04  0.7818609E-02  0.8764772E-01
        2   -1    0    0  501    0  0.00000000000E+00  0.00000000000E+00  0.20583141829E+04  0.20583141829E+04  0.25500000920E-02 0.  1.
       -2   -1    0    0    0  501  0.00000000000E+00  0.00000000000E+00 -0.34855733635E+03  0.34855733636E+03  0.25500000920E-02 0. -1.
    10030    2    1    2    0    0  0.00000000000E+00  0.00000000000E+00  0.17097568465E+04  0.24068715193E+04  0.16940372003E+04 0.  0.
        5    1    3    3  502    0  0.73014362889E+03  0.31745842618E+03  0.12655060928E+04  0.14951312090E+04  0.46999998093E+01 0. -1.
       -5    1    3    3    0  502 -0.73014362889E+03 -0.31745842618E+03  0.44425075372E+03  0.91174031026E+03  0.46999998093E+01 0.  1.
</event>
<event>
 5   0  0.3713516E-04  0.1671211E+04  0.7818609E-02  0.8777957E-01
        1   -1    0    0  501    0  0.00000000000E+00  0.00000000000E+00  0.97314870860E+03  0.97314870861E+03  0.50400001928E-02 0. -1.
       -1   -1    0    0    0  501  0.00000000000E+00  0.00000000000E+00 -0.71750199982E+03  0.71750199984E+03  0.50400001928E-02 0.  1.
    10030    2    1    2    0    0  0.00000000000E+00  0.00000000000E+00  0.25564670877E+03  0.16906507085E+04  0.16712105129E+04 0.  0.
        5    1    3    3  502    0 -0.69207671490E+03  0.27649141452E+03 -0.25445641921E+03  0.78752005745E+03  0.46999998093E+01 0.  1.
       -5    1    3    3    0  502  0.69207671490E+03 -0.27649141452E+03  0.51010312798E+03  0.90313065100E+03  0.46999998093E+01 0. -1.
</event>
<event>
 5   0  0.3723500E-04  0.1685923E+04  0.7818609E-02  0.8769434E-01
        1   -1    0    0  501    0  0.00000000000E+00  0.00000000000E+00  0.19775484095E+04  0.19775484095E+04  0.50400001928E-02 0. -1.
       -1   -1    0    0    0  501  0.00000000000E+00  0.00000000000E+00 -0.35932590305E+03  0.35932590308E+03  0.50400001928E-02 0.  1.
    10030    2    1    2    0    0  0.00000000000E+00  0.00000000000E+00  0.16182225065E+04  0.23368743126E+04  0.16859233294E+04 0.  0.
        1    1    3    3  502    0 -0.21429561240E+03  0.44837335207E+03 -0.13468894815E+03  0.51488094266E+03  0.50400001928E-02 0.  1.
       -1    1    3    3    0  502  0.21429561240E+03 -0.44837335207E+03  0.17529114546E+04  0.18219933699E+04  0.50400001928E-02 0. -1.
</event>
<event>
 5   0  0.7049044E-04  0.1714783E+04  0.7818609E-02  0.8752978E-01
       -2   -1    0    0    0  501  0.00000000000E+00  0.00000000000E+00  0.53578538503E+03  0.53578538503E+03  0.25500000920E-02 0.  1.
        2   -1    0    0  501    0  0.00000000000E+00  0.00000000000E+00 -0.13720426184E+04  0.13720426184E+04  0.25500000920E-02 0. -1.
    10030    2    1    2    0    0  0.00000000000E+00  0.00000000000E+00 -0.83625723332E+03  0.19078280034E+04  0.17147832313E+04 0.  0.
        4    1    3    3  502    0  0.48886569384E+03  0.48373531333E+03 -0.98775190083E+03  0.12035966727E+04  0.12699999809E+01 0. -1.
       -4    1    3    3    0  502 -0.48886569384E+03 -0.48373531333E+03  0.15149466751E+03  0.70423133071E+03  0.12699999809E+01 0.  1.
</event>
<event>
 5   0  0.3723500E-04  0.1703841E+04  0.7818609E-02  0.8759177E-01
       -1   -1    0    0    0  501  0.00000000000E+00  0.00000000000E+00  0.57627897073E+03  0.57627897075E+03  0.50400001928E-02 0. -1.
        1   -1    0    0  501    0  0.00000000000E+00  0.00000000000E+00 -0.12594051727E+04  0.12594051727E+04  0.50400001928E-02 0.  1.
    10030    2    1    2    0    0  0.00000000000E+00  0.00000000000E+00 -0.68312620195E+03  0.18356841434E+04  0.17038412093E+04 0.  0.
        1    1    3    3  502    0  0.66856792989E+03  0.41874604687E+03 -0.68806658934E+03  0.10467888804E+04  0.50400001928E-02 0.  1.
       -1    1    3    3    0  502 -0.66856792989E+03 -0.41874604687E+03  0.49403873971E+01  0.78889526308E+03  0.50400001928E-02 0. -1.
</event>
<event>
 5   0  0.7049044E-04  0.1713615E+04  0.7818609E-02  0.8753637E-01
       -2   -1    0    0    0  501  0.00000000000E+00  0.00000000000E+00  0.11654959404E+04  0.11654959404E+04  0.25500000920E-02 0. -1.
        2   -1    0    0  501    0  0.00000000000E+00  0.00000000000E+00 -0.62987712293E+03  0.62987712293E+03  0.25500000920E-02 0.  1.
    10030    2    1    2    0    0  0.00000000000E+00  0.00000000000E+00  0.53561881746E+03  0.17953730633E+04  0.17136151607E+04 0.  0.
        4    1    3    3  502    0 -0.22465411238E+03 -0.62446298989E+03  0.83560110349E+03  0.10670774635E+04  0.12699999809E+01 0. -1.
       -4    1    3    3    0  502  0.22465411238E+03  0.62446298989E+03 -0.29998228603E+03  0.72829559987E+03  0.12699999809E+01 0.  1.
</event>
<event>
 5   0  0.7233728E-04  0.1745649E+04  0.7818609E-02  0.8735749E-01
       -2   -1    0    0    0  501  0.00000000000E+00  0.00000000000E+00  0.63491534079E+03  0.63491534079E+03  0.25500000920E-02 0.  1.
        2   -1    0    0  501    0  0.00000000000E+00  0.00000000000E+00 -0.11998805231E+04  0.11998805231E+04  0.25500000920E-02 0. -1.
    10030    2    1    2    0    0  0.00000000000E+00  0.00000000000E+00 -0.56496518230E+03  0.18347958639E+04  0.17456489352E+04 0.  0.
        1    1    3    3  502    0  0.79663873712E+02  0.45650145065E+03 -0.10599054625E+04  0.11567797961E+04  0.50400001928E-02 0. -1.
       -1    1    3    3    0  502 -0.79663873712E+02 -0.45650145065E+03  0.49494028018E+03  0.67801606780E+03  0.50400001928E-02 0.  1.
</event>
<event>
 5   0  0.6746664E-04  0.1791287E+04  0.7818609E-02  0.8710947E-01
        2   -1    0    0  501    0  0.00000000000E+00  0.00000000000E+00  0.14532911639E+04  0.14532911639E+04  0.25500000920E-02 0.  1.
       -2   -1    0    0    0  501  0.00000000000E+00  0.00000000000E+00 -0.55197303188E+03  0.55197303189E+03  0.25500000920E-02 0. -1.
    10030    2    1    2    0    0  0.00000000000E+00  0.00000000000E+00  0.90131813201E+03  0.20052641958E+04  0.17912872801E+04 0.  0.
        5    1    3    3  502    0  0.26643520827E+03  0.74528952939E+02  0.14042430129E+04  0.14312451971E+04  0.46999998093E+01 0.  1.
       -5    1    3    3    0  502 -0.26643520827E+03 -0.74528952939E+02 -0.50292488087E+03  0.57401899867E+03  0.46999998093E+01 0. -1.
</event>
<event>
 5   0  0.3723500E-04  0.1689459E+04  0.7818609E-02  0.8767399E-01
       -1   -1    0    0    0  501  0.00000000000E+00  0.00000000000E+00  0.86111390346E+03  0.86111390348E+03  0.50400001928E-02 0.  1.
        1   -1    0    0  501    0  0.00000000000E+00  0.00000000000E+00 -0.82865651613E+03  0.82865651614E+03  0.50400001928E-02 0. -1.
    10030    2    1    2    0    0  0.00000000000E+00  0.00000000000E+00  0.32457387336E+02  0.16897704196E+04  0.16894586675E+04 0.  0.
        1    1    3    3  502    0  0.22409886326E+02 -0.44771665799E+03  0.73233234497E+03  0.85864024618E+03  0.50400001928E-02 0.  1.
       -1    1    3    3    0  502 -0.22409886326E+02  0.44771665799E+03 -0.69987495764E+03  0.83113017344E+03  0.50400001928E-02 0. -1.
</event>
<event>
 5   0  0.2639750E-04  0.1669782E+04  0.7818609E-02  0.8778789E-01
        3   -1    0    0  501    0  0.00000000000E+00  0.00000000000E+00  0.64190139457E+03  0.64190140252E+03  0.10100000352E+00 0. -1.
       -3   -1    0    0    0  501  0.00000000000E+00  0.00000000000E+00 -0.10859034747E+04  0.10859034794E+04  0.10100000352E+00 0.  1.
    10030    2    1    2    0    0  0.00000000000E+00  0.00000000000E+00 -0.44400208017E+03  0.17278048820E+04  0.16697819807E+04 0.  0.
        2    1    3    3  502    0  0.14014584702E+03  0.63521948353E+03  0.31953779572E+03  0.72474068024E+03  0.25500000920E-02 0. -1.
       -2    1    3    3    0  502 -0.14014584702E+03 -0.63521948353E+03 -0.76353987589E+03  0.10030642017E+04  0.25500000920E-02 0.  1.
</event>
<event>
 5   0  0.7049044E-04  0.1738980E+04  0.7818609E-02  0.8739440E-01
       -2   -1    0    0    0  501  0.00000000000E+00  0.00000000000E+00  0.47424742231E+03  0.47424742231E+03  0.25500000920E-02 0. -1.
        2   -1    0    0  501    0  0.00000000000E+00  0.00000000000E+00 -0.15941315445E+04  0.15941315445E+04  0.25500000920E-02 0.  1.
    10030    2    1    2    0    0  0.00000000000E+00  0.00000000000E+00 -0.11198841222E+04  0.20683789668E+04  0.17389799030E+04 0.  0.
        4    1    3    3  502    0  0.85755748999E+03  0.69727685970E+02 -0.41069763801E+03  0.95338395287E+03  0.12699999809E+01 0.  1.
       -4    1    3    3    0  502 -0.85755748999E+03 -0.69727685970E+02 -0.70918648415E+03  0.11149950139E+04  0.12699999809E+01 0. -1.
</event>
<event>
 5   0  0.3803253E-04  0.1672300E+04  0.7818609E-02  0.8777323E-01
        1   -1    0    0  501    0  0.00000000000E+00  0.00000000000E+00  0.81074178019E+03  0.81074178021E+03  0.50400001928E-02 0.  1.
       -1   -1    0    0    0  501  0.00000000000E+00  0.00000000000E+00 -0.86235406087E+03  0.86235406089E+03  0.50400001928E-02 0. -1.
    10030    2    1    2    0    0  0.00000000000E+00  0.00000000000E+00 -0.51612280682E+02  0.16730958411E+04  0.16722995742E+04 0.  0.
        4    1    3    3  502    0 -0.10156130671E+03 -0.20577356479E+03 -0.83023338517E+03  0.86136319038E+03  0.12699999809E+01 0. -1.
       -4    1    3    3    0  502  0.10156130671E+03  0.20577356479E+03  0.77862110449E+03  0.81173265072E+03  0.12699999809E+01 0.  1.
</event>
<event>
 5   0  0.7049044E-04  0.1685118E+04  0.7818609E-02  0.8769898E-01
       -2   -1    0    0    0  501  0.00000000000E+00  0.00000000000E+00  0.23673724701E+04  0.23673724701E+04  0.25500000920E-02 0.  1.
        2   -1    0    0  501    0  0.00000000000E+00  0.00000000000E+00 -0.29987087052E+03  0.29987087053E+03  0.25500000920E-02 0. -1.
    10030    2    1    2    0    0  0.00000000000E+00  0.00000000000E+00  0.20675015996E+04  0.26672433406E+04  0.16851184451E+04 0.  0.
        4    1    3    3  502    0 -0.49770381953E+03 -0.46751929277E+03  0.25250155233E+03  0.72803985325E+03  0.12699999809E+01 0. -1.
       -4    1    3    3    0  502  0.49770381953E+03  0.46751929277E+03  0.18150000472E+04  0.19392034874E+04  0.12699999809E+01 0.  1.
</event>
<event>
 5   0  0.3915701E-04  0.1688487E+04  0.7818609E-02  0.8767958E-01
       -1   -1    0    0    0  501  0.00000000000E+00  0.00000000000E+00  0.53709940068E+03  0.53709940070E+03  0.50400001928E-02 0.  1.
        1   -1    0    0  501    0  0.00000000000E+00  0.00000000000E+00 -0.13270297150E+04  0.13270297150E+04  0.50400001928E-02 0. -1.
    10030    2    1    2    0    0  0.00000000000E+00  0.00000000000E+00 -0.78993031433E+03  0.18641291157E+04  0.16884867363E+04 0.  0.
        2    1    3    3  502    0 -0.48752390127E+03  0.22738455245E+03  0.32338316468E+03  0.62766229790E+03  0.25500000920E-02 0.  1.
       -2    1    3    3    0  502  0.48752390127E+03 -0.22738455245E+03 -0.11133134790E+04  0.12364668178E+04  0.25500000920E-02 0. -1.
</event>
<event>
 5   0  0.7233728E-04  0.1727683E+04  0.7818609E-02  0.8745731E-01
       -2   -1    0    0    0  501  0.00000000000E+00  0.00000000000E+00  0.59768981622E+03  0.59768981623E+03  0.25500000920E-02 0.  1.
        2   -1    0    0  501    0  0.00000000000E+00  0.00000000000E+00 -0.12485106215E+04  0.12485106215E+04  0.25500000920E-02 0. -1.
    10030    2    1    2    0    0  0.00000000000E+00  0.00000000000E+00 -0.65082080523E+03  0.18462004377E+04  0.17276829384E+04 0.  0.
        1    1    3    3  502    0  0.41166098127E+03  0.27608580295E+03  0.43060662136E+03  0.65658982361E+03  0.50400001928E-02 0.  1.
       -1    1    3    3    0  502 -0.41166098127E+03 -0.27608580295E+03 -0.10814274266E+04  0.11896106141E+04  0.50400001928E-02 0. -1.
</event>
<event>
 5   0  0.3635143E-04  0.1692805E+04  0.7818609E-02  0.8765478E-01
       -1   -1    0    0    0  501  0.00000000000E+00  0.00000000000E+00  0.54118914892E+03  0.54118914894E+03  0.50400001928E-02 0. -1.
        1   -1    0    0  501    0  0.00000000000E+00  0.00000000000E+00 -0.13237470140E+04  0.13237470140E+04  0.50400001928E-02 0.  1.
    10030    2    1    2    0    0  0.00000000000E+00  0.00000000000E+00 -0.78255786511E+03  0.18649361630E+04  0.16928053874E+04 0.  0.
        3    1    3    3  502    0  0.82619860381E+03  0.12711365194E+03 -0.53758110693E+03  0.99385887840E+03  0.10100000352E+00 0. -1.
       -3    1    3    3    0  502 -0.82619860381E+03 -0.12711365194E+03 -0.24497675818E+03  0.87107728457E+03  0.10100000352E+00 0.  1.
</event>
<event>
 5   0  0.3723500E-04  0.1685260E+04  0.7818609E-02  0.8769816E-01
        1   -1    0    0  501    0  0.00000000000E+00  0.00000000000E+00  0.83926277530E+03  0.83926277531E+03  0.50400001928E-02 0. -1.
       -1   -1    0    0    0  501  0.00000000000E+00  0.00000000000E+00 -0.84601110450E+03  0.84601110452E+03  0.50400001928E-02 0.  1.
    10030    2    1    2    0    0  0.00000000000E+00  0.00000000000E+00 -0.67483292050E+01  0.16852738798E+04  0.16852603686E+04 0.  0.
        1    1    3    3  502    0 -0.67676543525E+03 -0.40604300121E+03  0.29182856509E+03  0.84145486190E+03  0.50400001928E-02 0. -1.
       -1    1    3    3    0  502  0.67676543525E+03  0.40604300121E+03 -0.29857689430E+03  0.84381901793E+03  0.50400001928E-02 0.  1.
</event>
<event>
 5   0  0.3635143E-04  0.1689534E+04  0.7818609E-02  0.8767356E-01
        1   -1    0    0  501    0  0.00000000000E+00  0.00000000000E+00  0.14188657111E+04  0.14188657111E+04  0.50400001928E-02 0.  1.
       -1   -1    0    0    0  501  0.00000000000E+00  0.00000000000E+00 -0.50295910258E+03  0.50295910261E+03  0.50400001928E-02 0. -1.
    10030    2    1    2    0    0  0.00000000000E+00  0.00000000000E+00  0.91590660850E+03  0.19218248137E+04  0.16895341663E+04 0.  0.
        3    1    3    3  502    0  0.73272047188E+03  0.27382551326E+02 -0.19252826839E+02  0.73348467985E+03  0.10100000352E+00 0. -1.
       -3    1    3    3    0  502 -0.73272047188E+03 -0.27382551326E+02  0.93515943534E+03  0.11883401339E+04  0.10100000352E+00 0.  1.
</event>
<event>
 5   0  0.7242144E-04  0.1699913E+04  0.7818609E-02  0.8761414E-01
        2   -1    0    0  501    0  0.00000000000E+00  0.00000000000E+00  0.13687006593E+04  0.13687006593E+04  0.25500000920E-02 0.  1.
       -2   -1    0    0    0  501  0.00000000000E+00  0.00000000000E+00 -0.52781872046E+03  0.52781872047E+03  0.25500000920E-02 0. -1.
    10030    2    1    2    0    0  0.00000000000E+00  0.00000000000E+00  0.84088193879E+03  0.18965193797E+04  0.16999127397E+04 0.  0.
        3    1    3    3  502    0 -0.37237336498E+03 -0.24741466870E+03  0.12269226971E+04  0.13058389090E+04  0.10100000352E+00 0.  1.
       -3    1    3    3    0  502  0.37237336498E+03  0.24741466870E+03 -0.38604075834E+03  0.59068047076E+03  0.10100000352E+00 0. -1.
</event>
<event>
 5   0  0.7025426E-04  0.1677779E+04  0.7818609E-02  0.8774140E-01
       -2   -1    0    0    0  501  0.00000000000E+00  0.00000000000E+00  0.96703719761E+03  0.96703719761E+03  0.25500000920E-02 0. -1.
        2   -1    0    0  501    0  0.00000000000E+00  0.00000000000E+00 -0.72772381974E+03  0.72772381975E+03  0.25500000920E-02 0.  1.
    10030    2    1    2    0    0  0.00000000000E+00  0.00000000000E+00  0.23931337787E+03  0.16947610174E+04  0.16777794888E+04 0.  0.
        2    1    3    3  502    0  0.21975459453E+03 -0.23459745389E+03 -0.66304596132E+03  0.73685683414E+03  0.25500000920E-02 0.  1.
       -2    1    3    3    0  502 -0.21975459453E+03  0.23459745389E+03  0.90235933919E+03  0.95790418321E+03  0.25500000920E-02 0. -1.
</event>
<event>
 5   0  0.3803253E-04  0.1691988E+04  0.7818609E-02  0.8765947E-01
       -1   -1    0    0    0  501  0.00000000000E+00  0.00000000000E+00  0.76031184252E+03  0.76031184254E+03  0.50400001928E-02 0.  1.
        1   -1    0    0  501    0  0.00000000000E+00  0.00000000000E+00 -0.94133157985E+03  0.94133157987E+03  0.50400001928E-02 0. -1.
    10030    2    1    2    0    0  0.00000000000E+00  0.00000000000E+00 -0.18101973733E+03  0.17016434224E+04  0.16919876453E+04 0.  0.
        4    1    3    3  502    0  0.44000759767E+03 -0.10936265949E+03  0.62780492085E+03  0.77440784400E+03  0.12699999809E+01 0.  1.
       -4    1    3    3    0  502 -0.44000759767E+03  0.10936265949E+03 -0.80882465817E+03  0.92723557841E+03  0.12699999809E+01 0. -1.
</event>
<event>
 5   0  0.7049044E-04  0.1684016E+04  0.7818609E-02  0.8770534E-01
       -2   -1    0    0    0  501  0.00000000000E+00  0.00000000000E+00  0.81373442116E+03  0.81373442116E+03  0.25500000920E-02 0. -1.
        2   -1    0    0  501    0  0.00000000000E+00  0.00000000000E+00 -0.87126375019E+03  0.87126375020E+03  0.25500000920E-02 0.  1.
    10030    2    1    2    0    0  0.00000000000E+00  0.00000000000E+00 -0.57529329033E+02  0.16849981714E+04  0.16840157997E+04 0.  0.
        4    1    3    3  502    0 -0.19733505357E+03  0.76963337547E+03  0.25014340733E+03  0.83297658618E+03  0.12699999809E+01 0. -1.
       -4    1    3    3    0  502  0.19733505357E+03 -0.76963337547E+03 -0.30767273636E+03  0.85202158517E+03  0.12699999809E+01 0.  1.
</event>
<event>
 5   0  0.6746664E-04  0.1509313E+04  0.7818609E-02  0.8878284E-01
        2   -1    0    0  501    0  0.00000000000E+00  0.00000000000E+00  0.75405513607E+03  0.75405513607E+03  0.25500000920E-02 0.  1.
       -2   -1    0    0    0  501  0.00000000000E+00  0.00000000000E+00 -0.75525785055E+03  0.75525785055E+03  0.25500000920E-02 0. -1.
    10030    2    1    2    0    0  0.00000000000E+00  0.00000000000E+00 -0.12027144806E+01  0.15093129866E+04  0.15093125074E+04 0.  0.
        5    1    3    3  502    0  0.44860966255E+03 -0.20474307004E+03  0.57063749335E+03  0.75420129466E+03  0.46999998093E+01 0.  1.
       -5    1    3    3    0  502 -0.44860966255E+03  0.20474307004E+03 -0.57184020783E+03  0.75511169197E+03  0.46999998093E+01 0. -1.
</event>
<event>
 5   0  0.3803253E-04  0.1517533E+04  0.7818609E-02  0.8872877E-01
        1   -1    0    0  501    0  0.00000000000E+00  0.00000000000E+00  0.10892064341E+04  0.10892064341E+04  0.50400001928E-02 0. -1.
       -1   -1    0    0    0  501  0.00000000000E+00  0.00000000000E+00 -0.52857442928E+03  0.52857442930E+03  0.50400001928E-02 0.  1.
    10030    2    1    2    0    0  0.00000000000E+00  0.00000000000E+00  0.56063200480E+03  0.16177808634E+04  0.15175330893E+04 0.  0.
        4    1    3    3  502    0  0.52456330778E+03  0.25407170928E+03 -0.23758053671E+03  0.62941657243E+03  0.12699999809E+01 0.  1.
       -4    1    3    3    0  502 -0.52456330778E+03 -0.25407170928E+03  0.79821254151E+03  0.98836429096E+03  0.12699999809E+01 0. -1.
</event>
<event>
 5   0  0.7233728E-04  0.1690750E+04  0.7818609E-02  0.8766658E-01
       -2   -1    0    0    0  501  0.00000000000E+00  0.00000000000E+00  0.89477336283E+03  0.89477336283E+03  0.25500000920E-02 0.  1.
        2   -1    0    0  501    0  0.00000000000E+00  0.00000000000E+00 -0.79870348825E+03  0.79870348825E+03  0.25500000920E-02 0. -1.
    10030    2    1    2    0    0  0.00000000000E+00  0.00000000000E+00  0.96069874577E+02  0.16934768511E+04  0.16907496634E+04 0.  0.
        1    1    3    3  502    0 -0.46806295915E+03 -0.44491765255E+03  0.59446413398E+03  0.87773700952E+03  0.50400001928E-02 0.  1.
       -1    1    3    3    0  502  0.46806295915E+03  0.44491765255E+03 -0.49839425940E+03  0.81573984156E+03  0.50400001928E-02 0. -1.
</event>
<event>
 5   0  0.3723500E-04  0.1700538E+04  0.7818609E-02  0.8761058E-01
       -1   -1    0    0    0  501  0.00000000000E+00  0.00000000000E+00  0.92610321398E+03  0.92610321400E+03  0.50400001928E-02 0.  1.
        1   -1    0    0  501    0  0.00000000000E+00  0.00000000000E+00 -0.78064453522E+03  0.78064453524E+03  0.50400001928E-02 0. -1.
    10030    2    1    2    0    0  0.00000000000E+00  0.00000000000E+00  0.14545867876E+03  0.17067477492E+04  0.17005380479E+04 0.  0.
        1    1    3    3  502    0 -0.42171780930E+03 -0.21223829964E+03 -0.63700664625E+03  0.79288616705E+03  0.50400001928E-02 0. -1.
       -1    1    3    3    0  502  0.42171780930E+03  0.21223829964E+03  0.78246532501E+03  0.91386158218E+03  0.50400001928E-02 0.  1.
</event>
<event>
 5   0  0.7233728E-04  0.1085848E+04  0.7818609E-02  0.9219097E-01
        2   -1    0    0  501    0  0.00000000000E+00  0.00000000000E+00  0.11752189707E+04  0.11752189707E+04  0.25500000920E-02 0. -1.
       -2   -1    0    0    0  501  0.00000000000E+00  0.00000000000E+00 -0.25081815290E+03  0.25081815291E+03  0.25500000920E-02 0.  1.
    10030    2    1    2    0    0  0.00000000000E+00  0.00000000000E+00  0.92440081780E+03  0.14260371236E+04  0.10858475979E+04 0.  0.
        1    1    3    3  502    0 -0.24482867224E+03  0.94222750361E+02 -0.16205955470E+03  0.30835418714E+03  0.50400001928E-02 0.  1.
       -1    1    3    3    0  502  0.24482867224E+03 -0.94222750361E+02  0.10864603725E+04  0.11176829365E+04  0.50400001928E-02 0. -1.
</event>
<event>
 5   0  0.3803253E-04  0.1704115E+04  0.7818609E-02  0.8759021E-01
        1   -1    0    0  501    0  0.00000000000E+00  0.00000000000E+00  0.12527422278E+04  0.12527422279E+04  0.50400001928E-02 0. -1.
       -1   -1    0    0    0  501  0.00000000000E+00  0.00000000000E+00 -0.57953040710E+03  0.57953040712E+03  0.50400001928E-02 0.  1.
    10030    2    1    2    0    0  0.00000000000E+00  0.00000000000E+00  0.67321182075E+03  0.18322726350E+04  0.17041152700E+04 0.  0.
        4    1    3    3  502    0 -0.56184163865E+03  0.20222620927E+03  0.99013146761E+03  0.11562540390E+04  0.12699999809E+01 0. -1.
       -4    1    3    3    0  502  0.56184163865E+03 -0.20222620927E+03 -0.31691964686E+03  0.67601859598E+03  0.12699999809E+01 0.  1.
</event>
<event>
 5   0  0.7025426E-04  0.1649111E+04  0.7818609E-02  0.8790933E-01
       -2   -1    0    0    0  501  0.00000000000E+00  0.00000000000E+00  0.37595876383E+03  0.37595876384E+03  0.25500000920E-02 0.  1.
        2   -1    0    0  501    0  0.00000000000E+00  0.00000000000E+00 -0.18084200982E+04  0.18084200982E+04  0.25500000920E-02 0. -1.
    10030    2    1    2    0    0  0.00000000000E+00  0.00000000000E+00 -0.14324613344E+04  0.21843788621E+04  0.16491105295E+04 0.  0.
        2    1    3    3  502    0 -0.32824075593E+03 -0.74082894984E+03 -0.91851384737E+03  0.12248417100E+04  0.25500000920E-02 0.  1.
       -2    1    3    3    0  502  0.32824075593E+03  0.74082894984E+03 -0.51394748704E+03  0.95953715208E+03  0.25500000920E-02 0. -1.
</event>
<event>
 5   0  0.7025426E-04  0.1722869E+04  0.7818609E-02  0.8748428E-01
        2   -1    0    0  501    0  0.00000000000E+00  0.00000000000E+00  0.20041075529E+04  0.20041075529E+04  0.25500000920E-02 0. -1.
       -2   -1    0    0    0  501  0.00000000000E+00  0.00000000000E+00 -0.37027420809E+03  0.37027420810E+03  0.25500000920E-02 0.  1.
    10030    2    1    2    0    0  0.00000000000E+00  0.00000000000E+00  0.16338333448E+04  0.23743817610E+04  0.17228689295E+04 0.  0.
        2    1    3    3  502    0 -0.75969695383E+03  0.93523023770E+02  0.27226902376E+03  0.81241395787E+03  0.25500000920E-02 0.  1.
       -2    1    3    3    0  502  0.75969695383E+03 -0.93523023770E+02  0.13615643210E+04  0.15619678031E+04  0.25500000920E-02 0. -1.
</event>
<event>
 5   0  0.3803253E-04  0.1579427E+04  0.7818609E-02  0.8833287E-01
       -1   -1    0    0    0  501  0.00000000000E+00  0.00000000000E+00  0.27778321902E+03  0.27778321907E+03  0.50400001928E-02 0.  1.
        1   -1    0    0  501    0  0.00000000000E+00  0.00000000000E+00 -0.22450874515E+04  0.22450874515E+04  0.50400001928E-02 0. -1.
    10030    2    1    2    0    0  0.00000000000E+00  0.00000000000E+00 -0.19673042325E+04  0.25228706706E+04  0.15794272624E+04 0.  0.
        4    1    3    3  502    0  0.58449136515E+03  0.23572009638E+03 -0.22353006876E+03  0.66870129678E+03  0.12699999809E+01 0.  1.
       -4    1    3    3    0  502 -0.58449136515E+03 -0.23572009638E+03 -0.17437741637E+04  0.18541693738E+04  0.12699999809E+01 0. -1.
</event>
<event>
 5   0  0.3713516E-04  0.1182756E+04  0.7818609E-02  0.9128085E-01
       -1   -1    0    0    0  501  0.00000000000E+00  0.00000000000E+00  0.22321823538E+03  0.22321823543E+03  0.50400001928E-02 0.  1.
        1   -1    0    0  501    0  0.00000000000E+00  0.00000000000E+00 -0.15667535642E+04  0.15667535642E+04  0.50400001928E-02 0. -1.
    10030    2    1    2    0    0  0.00000000000E+00  0.00000000000E+00 -0.13435353288E+04  0.17899717997E+04  0.11827560457E+04 0.  0.
        5    1    3    3  502    0 -0.33122833105E+03  0.37423840147E+03 -0.19333685760E+03  0.53588041476E+03  0.46999998093E+01 0.  1.
       -5    1    3    3    0  502  0.33122833105E+03 -0.37423840147E+03 -0.11501984712E+04  0.12540913849E+04  0.46999998093E+01 0. -1.
</event>
<event>
 5   0  0.2639750E-04  0.1707209E+04  0.7818609E-02  0.8757264E-01
        4   -1    0    0  501    0  0.00000000000E+00  0.00000000000E+00  0.11335159421E+04  0.11335166536E+04  0.12699999809E+01 0.  1.
       -4   -1    0    0    0  501  0.00000000000E+00  0.00000000000E+00 -0.64281297843E+03  0.64281423299E+03  0.12699999809E+01 0. -1.
    10030    2    1    2    0    0  0.00000000000E+00  0.00000000000E+00  0.49070296371E+03  0.17763308866E+04  0.17072088390E+04 0.  0.
        5    1    3    3  502    0 -0.80085118926E+03  0.27215486394E+03  0.36483795565E+03  0.92117301371E+03  0.46999998093E+01 0.  1.
       -5    1    3    3    0  502  0.80085118926E+03 -0.27215486394E+03  0.12586500807E+03  0.85515787288E+03  0.46999998093E+01 0. -1.
</event>
<event>
 5   0  0.7242144E-04  0.1553033E+04  0.7818609E-02  0.8849933E-01
        2   -1    0    0  501    0  0.00000000000E+00  0.00000000000E+00  0.89474309543E+03  0.89474309544E+03  0.25500000920E-02 0.  1.
       -2   -1    0    0    0  501  0.00000000000E+00  0.00000000000E+00 -0.67391163064E+03  0.67391163064E+03  0.25500000920E-02 0. -1.
    10030    2    1    2    0    0  0.00000000000E+00  0.00000000000E+00  0.22083146480E+03  0.15686547261E+04  0.15530328760E+04 0.  0.
        3    1    3    3  502    0 -0.37303448217E+01  0.23136007433E+03 -0.63828009813E+03  0.67892775266E+03  0.10100000352E+00 0. -1.
       -3    1    3    3    0  502  0.37303448217E+01 -0.23136007433E+03  0.85911156293E+03  0.88972697341E+03  0.10100000352E+00 0.  1.
</event>
<event>
 5   0  0.3915701E-04  0.1377175E+04  0.7818609E-02  0.8970508E-01
       -1   -1    0    0    0  501  0.00000000000E+00  0.00000000000E+00  0.56740565270E+03  0.56740565272E+03  0.50400001928E-02 0.  1.
        1   -1    0    0  501    0  0.00000000000E+00  0.00000000000E+00 -0.83565039345E+03  0.83565039346E+03  0.50400001928E-02 0. -1.
    10030    2    1    2    0    0  0.00000000000E+00  0.00000000000E+00 -0.26824474075E+03  0.14030560462E+04  0.13771750171E+04 0.  0.
        2    1    3    3  502    0  0.31779192329E+03  0.13820967296E+02  0.48806737986E+03  0.58257402357E+03  0.25500000920E-02 0.  1.
       -2    1    3    3    0  502 -0.31779192329E+03 -0.13820967296E+02 -0.75631212061E+03  0.82048202262E+03  0.25500000920E-02 0. -1.
</event>
<event>
 5   0  0.3723500E-04  0.1712892E+04  0.7818609E-02  0.8754046E-01
        1   -1    0    0  501    0  0.00000000000E+00  0.00000000000E+00  0.72725950644E+03  0.72725950646E+03  0.50400001928E-02 0.  1.
       -1   -1    0    0    0  501  0.00000000000E+00  0.00000000000E+00 -0.10085801112E+04  0.10085801112E+04  0.50400001928E-02 0. -1.
    10030    2    1    2    0    0  0.00000000000E+00  0.00000000000E+00 -0.28132060471E+03  0.17358396176E+04  0.17128916765E+04 0.  0.
        1    1    3    3  502    0 -0.59386859985E+03 -0.59924560759E+03 -0.29002646047E+03  0.89212698642E+03  0.50400001928E-02 0. -1.
       -1    1    3    3    0  502  0.59386859985E+03  0.59924560759E+03  0.87058557571E+01  0.84371263121E+03  0.50400001928E-02 0.  1.
</event>
<event>
 5   0  0.7233728E-04  0.1659232E+04  0.7818609E-02  0.8784964E-01
        2   -1    0    0  501    0  0.00000000000E+00  0.00000000000E+00  0.54140587551E+03  0.54140587552E+03  0.25500000920E-02 0. -1.
       -2   -1    0    0    0  501  0.00000000000E+00  0.00000000000E+00 -0.12712506757E+04  0.12712506757E+04  0.25500000920E-02 0.  1.
    10030    2    1    2    0    0  0.00000000000E+00  0.00000000000E+00 -0.72984480017E+03  0.18126565512E+04  0.16592318525E+04 0.  0.
        1    1    3    3  502    0  0.43769877506E+03  0.70463344244E+03 -0.35050848910E+03  0.90052468420E+03  0.50400001928E-02 0. -1.
       -1    1    3    3    0  502 -0.43769877506E+03 -0.70463344244E+03 -0.37933631108E+03  0.91213186701E+03  0.50400001928E-02 0.  1.
</event>
<event>
 5   0  0.3713516E-04  0.1621699E+04  0.7818609E-02  0.8807327E-01
        1   -1    0    0  501    0  0.00000000000E+00  0.00000000000E+00  0.60796738025E+03  0.60796738027E+03  0.50400001928E-02 0.  1.
       -1   -1    0    0    0  501  0.00000000000E+00  0.00000000000E+00 -0.10814351128E+04  0.10814351128E+04  0.50400001928E-02 0. -1.
    10030    2    1    2    0    0  0.00000000000E+00  0.00000000000E+00 -0.47346773255E+03  0.16894024931E+04  0.16216994450E+04 0.  0.
        5    1    3    3  502    0  0.89314375956E+02  0.79379399371E+03 -0.38171745039E+03  0.88533398451E+03  0.46999998093E+01 0. -1.
       -5    1    3    3    0  502 -0.89314375956E+02 -0.79379399371E+03 -0.91750282161E+02  0.80406850857E+03  0.46999998093E+01 0.  1.
</event>
<event>
 5   0  0.3713516E-04  0.1717204E+04  0.7818609E-02  0.8751613E-01
       -1   -1    0    0    0  501  0.00000000000E+00  0.00000000000E+00  0.12960225836E+04  0.12960225836E+04  0.50400001928E-02 0. -1.
        1   -1    0    0  501    0  0.00000000000E+00  0.00000000000E+00 -0.56881495198E+03  0.56881495200E+03  0.50400001928E-02 0.  1.
    10030    2    1    2    0    0  0.00000000000E+00  0.00000000000E+00  0.72720763161E+03  0.18648375356E+04  0.17172035682E+04 0.  0.
        5    1    3    3  502    0  0.37959857514E+03 -0.25058512146E+03  0.11544184376E+04  0.12408029660E+04  0.46999998093E+01 0. -1.
       -5    1    3    3    0  502 -0.37959857514E+03  0.25058512146E+03 -0.42721080598E+03  0.62403456963E+03  0.46999998093E+01 0.  1.
</event>
<event>
 5   0  0.7025426E-04  0.1535895E+04  0.7818609E-02  0.8860928E-01
        2   -1    0    0  501    0  0.00000000000E+00  0.00000000000E+00  0.43431054056E+03  0.43431054057E+03  0.25500000920E-02 0.  1.
       -2   -1    0    0    0  501  0.00000000000E+00  0.00000000000E+00 -0.13578842167E+04  0.13578842167E+04  0.25500000920E-02 0. -1.
    10030    2    1    2    0    0  0.00000000000E+00  0.00000000000E+00 -0.92357367615E+03  0.17921947573E+04  0.15358950852E+04 0.  0.
        2    1    3    3  502    0  0.55679623768E+03  0.16362194398E+03 -0.10486547158E+04  0.11985286412E+04  0.25500000920E-02 0. -1.
       -2    1    3    3    0  502 -0.55679623768E+03 -0.16362194398E+03  0.12508103967E+03  0.59366611604E+03  0.25500000920E-02 0.  1.
</event>
<event>
 5   0  0.7025426E-04  0.1685337E+04  0.7818609E-02  0.8769772E-01
        2   -1    0    0  501    0  0.00000000000E+00  0.00000000000E+00  0.13290845866E+04  0.13290845866E+04  0.25500000920E-02 0. -1.
       -2   -1    0    0    0  501  0.00000000000E+00  0.00000000000E+00 -0.53427021015E+03  0.53427021016E+03  0.25500000920E-02 0.  1.
    10030    2    1    2    0    0  0.00000000000E+00  0.00000000000E+00  0.79481437649E+03  0.18633547968E+04  0.16853371193E+04 0.  0.
        2    1    3    3  502    0  0.86742022434E+02  0.14484987852E+03  0.13101925475E+04  0.13210261834E+04  0.25500000920E-02 0. -1.
       -2    1    3    3    0  502 -0.86742022434E+02 -0.14484987852E+03 -0.51537817099E+03  0.54232861339E+03  0.25500000920E-02 0.  1.
</event>
<event>
 5   0  0.3635143E-04  0.1669072E+04  0.7818609E-02  0.8779203E-01
        1   -1    0    0  501    0  0.00000000000E+00  0.00000000000E+00  0.65674836377E+03  0.65674836379E+03  0.50400001928E-02 0. -1.
       -1   -1    0    0    0  501  0.00000000000E+00  0.00000000000E+00 -0.10604520657E+04  0.10604520657E+04  0.50400001928E-02 0.  1.
    10030    2    1    2    0    0  0.00000000000E+00  0.00000000000E+00 -0.40370370194E+03  0.17172004295E+04  0.16690717888E+04 0.  0.
        3    1    3    3  502    0  0.13185774556E+03 -0.79591725403E+03 -0.42150139919E+03  0.91023852921E+03  0.10100000352E+00 0.  1.
       -3    1    3    3    0  502 -0.13185774556E+03  0.79591725403E+03  0.17797697251E+02  0.80696190031E+03  0.10100000352E+00 0. -1.
</event>
<event>
 5   0  0.6746664E-04  0.1675987E+04  0.7818609E-02  0.8775180E-01
       -2   -1    0    0    0  501  0.00000000000E+00  0.00000000000E+00  0.12554439556E+04  0.12554439556E+04  0.25500000920E-02 0. -1.
        2   -1    0    0  501    0  0.00000000000E+00  0.00000000000E+00 -0.55935025107E+03  0.55935025108E+03  0.25500000920E-02 0.  1.
    10030    2    1    2    0    0  0.00000000000E+00  0.00000000000E+00  0.69609370455E+03  0.18147942067E+04  0.16759867443E+04 0.  0.
        5    1    3    3  502    0 -0.57938358615E+03 -0.90769294333E+02 -0.30009783378E+03  0.65879071375E+03  0.46999998093E+01 0.  1.
       -5    1    3    3    0  502  0.57938358615E+03  0.90769294333E+02  0.99619153833E+03  0.11560034930E+04  0.46999998093E+01 0. -1.
</event>
<event>
 5   0  0.3803253E-04  0.1752768E+04  0.7818609E-02  0.8731828E-01
       -1   -1    0    0    0  501  0.00000000000E+00  0.00000000000E+00  0.55559655481E+03  0.55559655483E+03  0.50400001928E-02 0. -1.
        1   -1    0    0  501    0  0.00000000000E+00  0.00000000000E+00 -0.13823855236E+04  0.13823855236E+04  0.50400001928E-02 0.  1.
    10030    2    1    2    0    0  0.00000000000E+00  0.00000000000E+00 -0.82678896876E+03  0.19379820784E+04  0.17527676792E+04 0.  0.
        4    1    3    3  502    0 -0.74657308673E+03 -0.47470828173E+02  0.91379954771E+02  0.75364233054E+03  0.12699999809E+01 0. -1.
       -4    1    3    3    0  502  0.74657308673E+03  0.47470828173E+02 -0.91816892353E+03  0.11843397479E+04  0.12699999809E+01 0.  1.
</event>
<event>
 5   0  0.7025426E-04  0.1689594E+04  0.7818609E-02  0.8767322E-01
       -2   -1    0    0    0  501  0.00000000000E+00  0.00000000000E+00  0.69559725790E+03  0.69559725791E+03  0.25500000920E-02 0.  1.
        2   -1    0    0  501    0  0.00000000000E+00  0.00000000000E+00 -0.10259986125E+04  0.10259986125E+04  0.25500000920E-02 0. -1.
    10030    2    1    2    0    0  0.00000000000E+00  0.00000000000E+00 -0.33040135456E+03  0.17215958704E+04  0.16895938227E+04 0.  0.
        2    1    3    3  502    0 -0.83609343954E+02  0.68477284543E+03 -0.66206090158E+03  0.95615323544E+03  0.25500000920E-02 0. -1.
       -2    1    3    3    0  502  0.83609343954E+02 -0.68477284543E+03  0.33165954702E+03  0.76544263493E+03  0.25500000920E-02 0.  1.
</event>
<event>
 5   0  0.3635143E-04  0.1714759E+04  0.7818609E-02  0.8752991E-01
        1   -1    0    0  501    0  0.00000000000E+00  0.00000000000E+00  0.16869826909E+04  0.16869826909E+04  0.50400001928E-02 0. -1.
       -1   -1    0    0    0  501  0.00000000000E+00  0.00000000000E+00 -0.43574817388E+03  0.43574817391E+03  0.50400001928E-02 0.  1.
    10030    2    1    2    0    0  0.00000000000E+00  0.00000000000E+00  0.12512345170E+04  0.21227308648E+04  0.17147590233E+04 0.  0.
        3    1    3    3  502    0  0.21897229114E+03 -0.62683756333E+03  0.12970954851E+04  0.14571653657E+04  0.10100000352E+00 0. -1.
       -3    1    3    3    0  502 -0.21897229114E+03  0.62683756333E+03 -0.45860968112E+02  0.66556549917E+03  0.10100000352E+00 0.  1.
</event>
<event>
 5   0  0.3713516E-04  0.1601332E+04  0.7818609E-02  0.8819730E-01
        1   -1    0    0  501    0  0.00000000000E+00  0.00000000000E+00  0.96330762848E+03  0.96330762849E+03  0.50400001928E-02 0.  1.
       -1   -1    0    0    0  501  0.00000000000E+00  0.00000000000E+00 -0.66548456034E+03  0.66548456035E+03  0.50400001928E-02 0. -1.
    10030    2    1    2    0    0  0.00000000000E+00  0.00000000000E+00  0.29782306814E+03  0.16287921888E+04  0.16013323873E+04 0.  0.
        5    1    3    3  502    0  0.23950051595E+03 -0.21005800521E+03  0.89605468978E+03  0.95101049404E+03  0.46999998093E+01 0.  1.
       -5    1    3    3    0  502 -0.23950051595E+03  0.21005800521E+03 -0.59823162164E+03  0.67778169481E+03  0.46999998093E+01 0. -1.
</event>
<event>
 5   0  0.3915701E-04  0.1727462E+04  0.7818609E-02  0.8745855E-01
       -1   -1    0    0    0  501  0.00000000000E+00  0.00000000000E+00  0.79747332988E+03  0.79747332990E+03  0.50400001928E-02 0. -1.
        1   -1    0    0  501    0  0.00000000000E+00  0.00000000000E+00 -0.93549360049E+03  0.93549360050E+03  0.50400001928E-02 0.  1.
    10030    2    1    2    0    0  0.00000000000E+00  0.00000000000E+00 -0.13802027061E+03  0.17329669304E+04  0.17274619494E+04 0.  0.
        2    1    3    3  502    0 -0.24233305156E+03  0.78854834788E+03 -0.32575028409E+03  0.88693125574E+03  0.25500000920E-02 0. -1.
       -2    1    3    3    0  502  0.24233305156E+03 -0.78854834788E+03  0.18773001348E+03  0.84603567466E+03  0.25500000920E-02 0.  1.
</event>
<event>
 5   0  0.3713516E-04  0.1706542E+04  0.7818609E-02  0.8757642E-01
        1   -1    0    0  501    0  0.00000000000E+00  0.00000000000E+00  0.10369694362E+04  0.10369694362E+04  0.50400001928E-02 0. -1.
       -1   -1    0    0    0  501  0.00000000000E+00  0.00000000000E+00 -0.70211434482E+03  0.70211434484E+03  0.50400001928E-02 0.  1.
    10030    2    1    2    0    0  0.00000000000E+00  0.00000000000E+00  0.33485509135E+03  0.17390837810E+04  0.17065416682E+04 0.  0.
        5    1    3    3  502    0 -0.84472272794E+03 -0.11552001697E+03  0.13290433679E+03  0.86289455564E+03  0.46999998093E+01 0.  1.
       -5    1    3    3    0  502  0.84472272794E+03  0.11552001697E+03  0.20195075456E+03  0.87618922539E+03  0.46999998093E+01 0. -1.
</event>
<event>
 5   0  0.7025426E-04  0.1673651E+04  0.7818609E-02  0.8776536E-01
       -2   -1    0    0    0  501  0.00000000000E+00  0.00000000000E+00  0.55548641481E+03  0.55548641481E+03  0.25500000920E-02 0. -1.
        2   -1    0    0  501    0  0.00000000000E+00  0.00000000000E+00 -0.12606557555E+04  0.12606557555E+04  0.25500000920E-02 0.  1.
    10030    2    1    2    0    0  0.00000000000E+00  0.00000000000E+00 -0.70516934067E+03  0.18161421703E+04  0.16736512730E+04 0.  0.
        2    1    3    3  502    0 -0.39774617774E+03  0.53871995168E+03 -0.89716376749E+03  0.11195195550E+04  0.25500000920E-02 0.  1.
       -2    1    3    3    0  502  0.39774617774E+03 -0.53871995168E+03  0.19199442682E+03  0.69662261533E+03  0.25500000920E-02 0. -1.
</event>
<event>
 5   0  0.7025426E-04  0.1623938E+04  0.7818609E-02  0.8805976E-01
        2   -1    0    0  501    0  0.00000000000E+00  0.00000000000E+00  0.73750955811E+03  0.73750955811E+03  0.25500000920E-02 0. -1.
       -2   -1    0    0    0  501  0.00000000000E+00  0.00000000000E+00 -0.89394548704E+03  0.89394548704E+03  0.25500000920E-02 0.  1.
    10030    2    1    2    0    0  0.00000000000E+00  0.00000000000E+00 -0.15643592893E+03  0.16314550452E+04  0.16239376110E+04 0.  0.
        2    1    3    3  502    0  0.78941914300E+03 -0.82772808541E+02 -0.25006364765E+03  0.83220535270E+03  0.25500000920E-02 0. -1.
       -2    1    3    3    0  502 -0.78941914300E+03  0.82772808541E+02  0.93627718718E+02  0.79924969246E+03  0.25500000920E-02 0.  1.
</event>
<event>
 5   0  0.3803253E-04  0.1708564E+04  0.7818609E-02  0.8756495E-01
       -1   -1    0    0    0  501  0.00000000000E+00  0.00000000000E+00  0.37498364832E+03  0.37498364835E+03  0.50400001928E-02 0. -1.
        1   -1    0    0  501    0  0.00000000000E+00  0.00000000000E+00 -0.19462122327E+04  0.19462122327E+04  0.50400001928E-02 0.  1.
    10030    2    1    2    0    0  0.00000000000E+00  0.00000000000E+00 -0.15712285844E+04  0.23211958811E+04  0.17085640327E+04 0.  0.
        4    1    3    3  502    0  0.45627194503E+03 -0.64407680612E+03 -0.34167901809E+03  0.86009603202E+03  0.12699999809E+01 0. -1.
       -4    1    3    3    0  502 -0.45627194503E+03  0.64407680612E+03 -0.12295495663E+04  0.14610998490E+04  0.12699999809E+01 0.  1.
</event>
<event>
 5   0  0.7049044E-04  0.1713450E+04  0.7818609E-02  0.8753730E-01
       -2   -1    0    0    0  501  0.00000000000E+00  0.00000000000E+00  0.70373513560E+03  0.70373513560E+03  0.25500000920E-02 0. -1.
        2   -1    0    0  501    0  0.00000000000E+00  0.00000000000E+00 -0.10429742385E+04  0.10429742385E+04  0.25500000920E-02 0.  1.
    10030    2    1    2    0    0  0.00000000000E+00  0.00000000000E+00 -0.33923910287E+03  0.17467093741E+04  0.17134498734E+04 0.  0.
        4    1    3    3  502    0  0.75288226082E+03 -0.39433083554E+03 -0.59601090714E+02  0.85198732938E+03  0.12699999809E+01 0.  1.
       -4    1    3    3    0  502 -0.75288226082E+03  0.39433083554E+03 -0.27963801216E+03  0.89472204469E+03  0.12699999809E+01 0. -1.
</event>
<event>
 5   0  0.2639750E-04  0.1700153E+04  0.7818609E-02  0.8761277E-01
       -3   -1    0    0    0  501  0.00000000000E+00  0.00000000000E+00  0.28141447721E+03  0.28141449534E+03  0.10100000352E+00 0.  1.
        3   -1    0    0  501    0  0.00000000000E+00  0.00000000000E+00 -0.25678488320E+04  0.25678488340E+04  0.10100000352E+00 0. -1.
    10030    2    1    2    0    0  0.00000000000E+00  0.00000000000E+00 -0.22864343548E+04  0.28492633294E+04  0.17001527758E+04 0.  0.
        2    1    3    3  502    0  0.27881084955E+03 -0.78999383892E+03 -0.13849408644E+04  0.16186064850E+04  0.25500000920E-02 0. -1.
       -2    1    3    3    0  502 -0.27881084955E+03  0.78999383892E+03 -0.90149349047E+03  0.12306568444E+04  0.25500000920E-02 0.  1.
</event>
<event>
 5   0  0.3713516E-04  0.1641216E+04  0.7818609E-02  0.8795620E-01
       -1   -1    0    0    0  501  0.00000000000E+00  0.00000000000E+00  0.80146273474E+03  0.80146273476E+03  0.50400001928E-02 0.  1.
        1   -1    0    0  501    0  0.00000000000E+00  0.00000000000E+00 -0.84021094058E+03  0.84021094060E+03  0.50400001928E-02 0. -1.
    10030    2    1    2    0    0  0.00000000000E+00  0.00000000000E+00 -0.38748205839E+02  0.16416736754E+04  0.16412163273E+04 0.  0.
        5    1    3    3  502    0 -0.70882789884E+03  0.38870963916E+03  0.12153209053E+03  0.81751104750E+03  0.46999998093E+01 0.  1.
       -5    1    3    3    0  502  0.70882789884E+03 -0.38870963916E+03 -0.16028029637E+03  0.82416262786E+03  0.46999998093E+01 0. -1.
</event>
<event>
 5   0  0.3635143E-04  0.1715756E+04  0.7818609E-02  0.8752429E-01
        1   -1    0    0  501    0  0.00000000000E+00  0.00000000000E+00  0.14965643165E+04  0.14965643165E+04  0.50400001928E-02 0. -1.
       -1   -1    0    0    0  501  0.00000000000E+00  0.00000000000E+00 -0.49176252752E+03  0.49176252754E+03  0.50400001928E-02 0.  1.
    10030    2    1    2    0    0  0.00000000000E+00  0.00000000000E+00  0.10048017890E+04  0.19883268440E+04  0.17157555198E+04 0.  0.
        3    1    3    3  502    0  0.23224155513E+03 -0.40049811662E+03  0.13393696037E+04  0.14171259037E+04  0.10100000352E+00 0. -1.
       -3    1    3    3    0  502 -0.23224155513E+03  0.40049811662E+03 -0.33456781477E+03  0.57120094032E+03  0.10100000352E+00 0.  1.
</event>
<event>
 5   0  0.7025426E-04  0.1309714E+04  0.7818609E-02  0.9021897E-01
        2   -1    0    0  501    0  0.00000000000E+00  0.00000000000E+00  0.21337957212E+04  0.21337957212E+04  0.25500000920E-02 0. -1.
       -2   -1    0    0    0  501  0.00000000000E+00  0.00000000000E+00 -0.20097401663E+03  0.20097401665E+03  0.25500000920E-02 0.  1.
    10030    2    1    2    0    0  0.00000000000E+00  0.00000000000E+00  0.19328217046E+04  0.23347697379E+04  0.13097137043E+04 0.  0.
        2    1    3    3  502    0  0.37193315098E+03 -0.44696395492E+03  0.42945986525E+03  0.72287400124E+03  0.25500000920E-02 0.  1.
       -2    1    3    3    0  502 -0.37193315098E+03  0.44696395492E+03  0.15033618393E+04  0.16118957366E+04  0.25500000920E-02 0. -1.
</event>
<event>
 5   0  0.3723500E-04  0.1733885E+04  0.7818609E-02  0.8742271E-01
        1   -1    0    0  501    0  0.00000000000E+00  0.00000000000E+00  0.12898432114E+04  0.12898432114E+04  0.50400001928E-02 0. -1.
       -1   -1    0    0    0  501  0.00000000000E+00  0.00000000000E+00 -0.58269811262E+03  0.58269811264E+03  0.50400001928E-02 0.  1.
    10030    2    1    2    0    0  0.00000000000E+00  0.00000000000E+00  0.70714509879E+03  0.18725413241E+04  0.17338848923E+04 0.  0.
        1    1    3    3  502    0 -0.14377036149E+03 -0.40862990519E+03  0.11645857821E+04  0.12425410899E+04  0.50400001928E-02 0. -1.
       -1    1    3    3    0  502  0.14377036149E+03  0.40862990519E+03 -0.45744068330E+03  0.63000023415E+03  0.50400001928E-02 0.  1.
</event>
<event>
 5   0  0.7025426E-04  0.1480822E+04  0.7818609E-02  0.8897307E-01
        2   -1    0    0  501    0  0.00000000000E+00  0.00000000000E+00  0.15487385670E+04  0.15487385670E+04  0.25500000920E-02 0.  1.
       -2   -1    0    0    0  501  0.00000000000E+00  0.00000000000E+00 -0.35397100359E+03  0.35397100360E+03  0.25500000920E-02 0. -1.
    10030    2    1    2    0    0  0.00000000000E+00  0.00000000000E+00  0.11947675635E+04  0.19027095706E+04  0.14808221296E+04 0.  0.
        2    1    3    3  502    0  0.10677502449E+03  0.96592564992E+02 -0.33580945513E+03  0.36537517654E+03  0.25500000920E-02 0. -1.
       -2    1    3    3    0  502 -0.10677502449E+03 -0.96592564992E+02  0.15305770186E+04  0.15373343941E+04  0.25500000920E-02 0.  1.
</event>
<event>
 5   0  0.7025426E-04  0.1714992E+04  0.7818609E-02  0.8752860E-01
        2   -1    0    0  501    0  0.00000000000E+00  0.00000000000E+00  0.67580887323E+03  0.67580887323E+03  0.25500000920E-02 0. -1.
       -2   -1    0    0    0  501  0.00000000000E+00  0.00000000000E+00 -0.10880287402E+04  0.10880287402E+04  0.25500000920E-02 0.  1.
    10030    2    1    2    0    0  0.00000000000E+00  0.00000000000E+00 -0.41221986693E+03  0.17638376134E+04  0.17149921014E+04 0.  0.
        2    1    3    3  502    0 -0.69693489373E+03 -0.19993806093E+03 -0.67697701868E+03  0.99196338548E+03  0.25500000920E-02 0.  1.
       -2    1    3    3    0  502  0.69693489373E+03  0.19993806093E+03  0.26475715175E+03  0.77187422791E+03  0.25500000920E-02 0. -1.
</event>
<event>
 5   0  0.3635143E-04  0.1694033E+04  0.7818609E-02  0.8764775E-01
        1   -1    0    0  501    0  0.00000000000E+00  0.00000000000E+00  0.79661483788E+03  0.79661483790E+03  0.50400001928E-02 0. -1.
       -1   -1    0    0    0  501  0.00000000000E+00  0.00000000000E+00 -0.90060687451E+03  0.90060687453E+03  0.50400001928E-02 0.  1.
    10030    2    1    2    0    0  0.00000000000E+00  0.00000000000E+00 -0.10399203663E+03  0.16972217124E+04  0.16940328207E+04 0.  0.
        3    1    3    3  502    0  0.69660506735E+03  0.48119858657E+03 -0.26927134420E+02  0.84707483751E+03  0.10100000352E+00 0. -1.
       -3    1    3    3    0  502 -0.69660506735E+03 -0.48119858657E+03 -0.77064902211E+02  0.85014687492E+03  0.10100000352E+00 0.  1.
</event>
<event>
 5   0  0.3723500E-04  0.1746510E+04  0.7818609E-02  0.8735274E-01
       -1   -1    0    0    0  501  0.00000000000E+00  0.00000000000E+00  0.65367463313E+03  0.65367463315E+03  0.50400001928E-02 0. -1.
        1   -1    0    0  501    0  0.00000000000E+00  0.00000000000E+00 -0.11665963834E+04  0.11665963834E+04  0.50400001928E-02 0.  1.
    10030    2    1    2    0    0  0.00000000000E+00  0.00000000000E+00 -0.51292175022E+03  0.18202710165E+04  0.17465101923E+04 0.  0.
        1    1    3    3  502    0 -0.74665097508E+03 -0.19948274002E+03 -0.68019429027E+03  0.10295364562E+04  0.50400001928E-02 0.  1.
       -1    1    3    3    0  502  0.74665097508E+03  0.19948274002E+03  0.16727254004E+03  0.79073456029E+03  0.50400001928E-02 0. -1.
</event>
<event>
 5   0  0.3635143E-04  0.1655831E+04  0.7818609E-02  0.8786964E-01
       -1   -1    0    0    0  501  0.00000000000E+00  0.00000000000E+00  0.11054373354E+04  0.11054373354E+04  0.50400001928E-02 0.  1.
        1   -1    0    0  501    0  0.00000000000E+00  0.00000000000E+00 -0.62006608303E+03  0.62006608305E+03  0.50400001928E-02 0. -1.
    10030    2    1    2    0    0  0.00000000000E+00  0.00000000000E+00  0.48537125233E+03  0.17255034184E+04  0.16558311491E+04 0.  0.
        3    1    3    3  502    0  0.41390124179E+03 -0.48936172452E+03 -0.30344127874E+03  0.70913028086E+03  0.10100000352E+00 0. -1.
       -3    1    3    3    0  502 -0.41390124179E+03  0.48936172452E+03  0.78881253106E+03  0.10163731376E+04  0.10100000352E+00 0.  1.
</event>
<event>
 5   0  0.2639750E-04  0.1702368E+04  0.7818609E-02  0.8760015E-01
       -3   -1    0    0    0  501  0.00000000000E+00  0.00000000000E+00  0.85128661097E+03  0.85128661696E+03  0.10100000352E+00 0.  1.
        3   -1    0    0  501    0  0.00000000000E+00  0.00000000000E+00 -0.85108095789E+03  0.85108096388E+03  0.10100000352E+00 0. -1.
    10030    2    1    2    0    0  0.00000000000E+00  0.00000000000E+00  0.20565307798E+00  0.17023675808E+04  0.17023675684E+04 0.  0.
        2    1    3    3  502    0 -0.38533991959E+03  0.48276504795E+03  0.58573487344E+03  0.85125453721E+03  0.25500000920E-02 0.  1.
       -2    1    3    3    0  502  0.38533991959E+03 -0.48276504795E+03 -0.58552922036E+03  0.85111304364E+03  0.25500000920E-02 0. -1.
</event>
<event>
 5   0  0.3803253E-04  0.1594685E+04  0.7818609E-02  0.8823820E-01
        1   -1    0    0  501    0  0.00000000000E+00  0.00000000000E+00  0.12556253323E+04  0.12556253323E+04  0.50400001928E-02 0.  1.
       -1   -1    0    0    0  501  0.00000000000E+00  0.00000000000E+00 -0.50632527650E+03  0.50632527652E+03  0.50400001928E-02 0. -1.
    10030    2    1    2    0    0  0.00000000000E+00  0.00000000000E+00  0.74930005582E+03  0.17619506089E+04  0.15946847257E+04 0.  0.
        4    1    3    3  502    0 -0.33890844216E+03  0.62459554209E+03 -0.24908840035E+02  0.71105596585E+03  0.12699999809E+01 0. -1.
       -4    1    3    3    0  502  0.33890844216E+03 -0.62459554209E+03  0.77420889586E+03  0.10508946430E+04  0.12699999809E+01 0.  1.
</event>
<event>
 5   0  0.3803253E-04  0.1662651E+04  0.7818609E-02  0.8782957E-01
       -1   -1    0    0    0  501  0.00000000000E+00  0.00000000000E+00  0.39334187213E+03  0.39334187216E+03  0.50400001928E-02 0.  1.
        1   -1    0    0  501    0  0.00000000000E+00  0.00000000000E+00 -0.17570014848E+04  0.17570014848E+04  0.50400001928E-02 0. -1.
    10030    2    1    2    0    0  0.00000000000E+00  0.00000000000E+00 -0.13636596126E+04  0.21503433569E+04  0.16626512002E+04 0.  0.
        4    1    3    3  502    0 -0.28872927437E+03 -0.64143972812E+03 -0.12548329306E+04  0.14385467720E+04  0.12699999809E+01 0.  1.
       -4    1    3    3    0  502  0.28872927437E+03  0.64143972812E+03 -0.10882668206E+03  0.71179658493E+03  0.12699999809E+01 0. -1.
</event>
<event>
 5   0  0.7233728E-04  0.1628221E+04  0.7818609E-02  0.8803396E-01
       -2   -1    0    0    0  501  0.00000000000E+00  0.00000000000E+00  0.38497524761E+03  0.38497524762E+03  0.25500000920E-02 0. -1.
        2   -1    0    0  501    0  0.00000000000E+00  0.00000000000E+00 -0.17216055785E+04  0.17216055785E+04  0.25500000920E-02 0.  1.
    10030    2    1    2    0    0  0.00000000000E+00  0.00000000000E+00 -0.13366303308E+04  0.21065808261E+04  0.16282205426E+04 0.  0.
        1    1    3    3  502    0  0.31730751980E+03  0.34137715621E+03 -0.15319191479E+04  0.16012491063E+04  0.50400001928E-02 0.  1.
       -1    1    3    3    0  502 -0.31730751980E+03 -0.34137715621E+03  0.19528881702E+03  0.50533171975E+03  0.50400001928E-02 0. -1.
</event>
<event>
 5   0  0.7242144E-04  0.1714590E+04  0.7818609E-02  0.8753087E-01
       -2   -1    0    0    0  501  0.00000000000E+00  0.00000000000E+00  0.83076383311E+03  0.83076383312E+03  0.25500000920E-02 0.  1.
        2   -1    0    0  501    0  0.00000000000E+00  0.00000000000E+00 -0.88467348376E+03  0.88467348376E+03  0.25500000920E-02 0. -1.
    10030    2    1    2    0    0  0.00000000000E+00  0.00000000000E+00 -0.53909650647E+02  0.17154373169E+04  0.17145900203E+04 0.  0.
        3    1    3    3  502    0 -0.15644982247E+03  0.76764934092E+02 -0.86676543620E+03  0.88411070215E+03  0.10100000352E+00 0. -1.
       -3    1    3    3    0  502  0.15644982247E+03 -0.76764934092E+02  0.81285578555E+03  0.83132661474E+03  0.10100000352E+00 0.  1.
</event>
<event>
 5   0  0.3713516E-04  0.1603581E+04  0.7818609E-02  0.8818351E-01
        1   -1    0    0  501    0  0.00000000000E+00  0.00000000000E+00  0.59240377918E+03  0.59240377920E+03  0.50400001928E-02 0.  1.
       -1   -1    0    0    0  501  0.00000000000E+00  0.00000000000E+00 -0.10851856261E+04  0.10851856261E+04  0.50400001928E-02 0. -1.
    10030    2    1    2    0    0  0.00000000000E+00  0.00000000000E+00 -0.49278184693E+03  0.16775894053E+04  0.16035810750E+04 0.  0.
        5    1    3    3  502    0  0.72993928777E+03 -0.24982949948E+03 -0.47468186980E+03  0.90585380175E+03  0.46999998093E+01 0. -1.
       -5    1    3    3    0  502 -0.72993928777E+03  0.24982949948E+03 -0.18099977128E+02  0.77173560357E+03  0.46999998093E+01 0.  1.
</event>
<event>
 5   0  0.7025426E-04  0.1693684E+04  0.7818609E-02  0.8764975E-01
       -2   -1    0    0    0  501  0.00000000000E+00  0.00000000000E+00  0.55211035260E+03  0.55211035261E+03  0.25500000920E-02 0. -1.
        2   -1    0    0  501    0  0.00000000000E+00  0.00000000000E+00 -0.12989093483E+04  0.12989093483E+04  0.25500000920E-02 0.  1.
    10030    2    1    2    0    0  0.00000000000E+00  0.00000000000E+00 -0.74679899568E+03  0.18510197009E+04  0.16936839118E+04 0.  0.
        2    1    3    3  502    0 -0.64071252433E+02 -0.59727553510E+03  0.27895766760E+03  0.66231455558E+03  0.25500000920E-02 0. -1.
       -2    1    3    3    0  502  0.64071252433E+02  0.59727553510E+03 -0.10257566633E+04  0.11887051453E+04  0.25500000920E-02 0.  1.
</event>
<event>
 5   0  0.7049044E-04  0.1608700E+04  0.7818609E-02  0.8815221E-01
        2   -1    0    0  501    0  0.00000000000E+00  0.00000000000E+00  0.88050524403E+03  0.88050524403E+03  0.25500000920E-02 0.  1.
       -2   -1    0    0    0  501  0.00000000000E+00  0.00000000000E+00 -0.73478135465E+03  0.73478135465E+03  0.25500000920E-02 0. -1.
    10030    2    1    2    0    0  0.00000000000E+00  0.00000000000E+00  0.14572388938E+03  0.16152865987E+04  0.16086998924E+04 0.  0.
        4    1    3    3  502    0  0.29171641853E+03  0.10769220444E+03 -0.67198471184E+03  0.74044658523E+03  0.12699999809E+01 0. -1.
       -4    1    3    3    0  502 -0.29171641853E+03 -0.10769220444E+03  0.81770860122E+03  0.87484001345E+03  0.12699999809E+01 0.  1.
</event>
<event>
 5   0  0.3803253E-04  0.1723213E+04  0.7818609E-02  0.8748235E-01
       -1   -1    0    0    0  501  0.00000000000E+00  0.00000000000E+00  0.33647421480E+03  0.33647421483E+03  0.50400001928E-02 0. -1.
        1   -1    0    0  501    0  0.00000000000E+00  0.00000000000E+00 -0.22063079343E+04  0.22063079343E+04  0.50400001928E-02 0.  1.
    10030    2    1    2    0    0  0.00000000000E+00  0.00000000000E+00 -0.18698337195E+04  0.25427821491E+04  0.17232129640E+04 0.  0.
        4    1    3    3  502    0  0.79130797190E+03  0.30424501782E+02 -0.14359063890E+04  0.16397935015E+04  0.12699999809E+01 0.  1.
       -4    1    3    3    0  502 -0.79130797190E+03 -0.30424501782E+02 -0.43392733052E+03  0.90298864764E+03  0.12699999809E+01 0. -1.
</event>
<event>
 5   0  0.6746664E-04  0.1703058E+04  0.7818609E-02  0.8759622E-01
       -2   -1    0    0    0  501  0.00000000000E+00  0.00000000000E+00  0.91744344160E+03  0.91744344161E+03  0.25500000920E-02 0.  1.
        2   -1    0    0  501    0  0.00000000000E+00  0.00000000000E+00 -0.79035069371E+03  0.79035069372E+03  0.25500000920E-02 0. -1.
    10030    2    1    2    0    0  0.00000000000E+00  0.00000000000E+00  0.12709274789E+03  0.17077941353E+04  0.17030584964E+04 0.  0.
        5    1    3    3  502    0  0.53669805356E+03 -0.65917791824E+03  0.11388198739E+03  0.85764300595E+03  0.46999998093E+01 0.  1.
       -5    1    3    3    0  502 -0.53669805356E+03  0.65917791824E+03  0.13210760496E+02  0.85015112938E+03  0.46999998093E+01 0. -1.
</event>
<event>
 5   0  0.7233728E-04  0.1749917E+04  0.7818609E-02  0.8733396E-01
        2   -1    0    0  501    0  0.00000000000E+00  0.00000000000E+00  0.16763980965E+04  0.16763980965E+04  0.25500000920E-02 0. -1.
       -2   -1    0    0    0  501  0.00000000000E+00  0.00000000000E+00 -0.45666499708E+03  0.45666499708E+03  0.25500000920E-02 0.  1.
    10030    2    1    2    0    0  0.00000000000E+00  0.00000000000E+00  0.12197330994E+04  0.21330630936E+04  0.17499169487E+04 0.  0.
        1    1    3    3  502    0  0.10673864850E+02  0.86064582147E+03  0.41818801746E+03  0.95692548267E+03  0.50400001928E-02 0.  1.
       -1    1    3    3    0  502 -0.10673864850E+02 -0.86064582147E+03  0.80154508198E+03  0.11761376109E+04  0.50400001928E-02 0. -1.
</event>
<event>
 5   0  0.3803253E-04  0.1668574E+04  0.7818609E-02  0.8779494E-01
       -1   -1    0    0    0  501  0.00000000000E+00  0.00000000000E+00  0.62565034289E+03  0.62565034292E+03  0.50400001928E-02 0.  1.
        1   -1    0    0  501    0  0.00000000000E+00  0.00000000000E+00 -0.11124979772E+04  0.11124979773E+04  0.50400001928E-02 0. -1.
    10030    2    1    2    0    0  0.00000000000E+00  0.00000000000E+00 -0.48684763435E+03  0.17381483202E+04  0.16685739312E+04 0.  0.
        4    1    3    3  502    0 -0.26883915747E+03 -0.27035236505E+02 -0.10656571292E+04  0.10993780635E+04  0.12699999809E+01 0. -1.
       -4    1    3    3    0  502  0.26883915747E+03  0.27035236505E+02  0.57880949484E+03  0.63877025668E+03  0.12699999809E+01 0.  1.
</event>
<event>
 5   0  0.3635143E-04  0.1555183E+04  0.7818609E-02  0.8848564E-01
        1   -1    0    0  501    0  0.00000000000E+00  0.00000000000E+00  0.10637952438E+04  0.10637952438E+04  0.50400001928E-02 0. -1.
       -1   -1    0    0    0  501  0.00000000000E+00  0.00000000000E+00 -0.56838823510E+03  0.56838823512E+03  0.50400001928E-02 0.  1.
    10030    2    1    2    0    0  0.00000000000E+00  0.00000000000E+00  0.49540700874E+03  0.16321834790E+04  0.15551832062E+04 0.  0.
        3    1    3    3  502    0  0.66191017944E+03 -0.91875116858E+02  0.66498527375E+03  0.94274680972E+03  0.10100000352E+00 0. -1.
       -3    1    3    3    0  502 -0.66191017944E+03  0.91875116858E+02 -0.16957826500E+03  0.68943666925E+03  0.10100000352E+00 0.  1.
</event>
<event>
 5   0  0.7049044E-04  0.1692986E+04  0.7818609E-02  0.8765375E-01
        2   -1    0    0  501    0  0.00000000000E+00  0.00000000000E+00  0.18861980943E+04  0.18861980943E+04  0.25500000920E-02 0.  1.
       -2   -1    0    0    0  501  0.00000000000E+00  0.00000000000E+00 -0.37989137515E+03  0.37989137516E+03  0.25500000920E-02 0. -1.
    10030    2    1    2    0    0  0.00000000000E+00  0.00000000000E+00  0.15063067191E+04  0.22660894694E+04  0.16929859868E+04 0.  0.
        4    1    3    3  502    0 -0.80144607698E+03  0.18754408351E+03  0.10176930219E+04  0.13088885733E+04  0.12699999809E+01 0.  1.
       -4    1    3    3    0  502  0.80144607698E+03 -0.18754408351E+03  0.48861369723E+03  0.95720089615E+03  0.12699999809E+01 0. -1.
</event>
<event>
 5   0  0.7242144E-04  0.1699159E+04  0.7818609E-02  0.8761844E-01
        2   -1    0    0  501    0  0.00000000000E+00  0.00000000000E+00  0.14784311394E+04  0.14784311394E+04  0.25500000920E-02 0.  1.
       -2   -1    0    0    0  501  0.00000000000E+00  0.00000000000E+00 -0.48821012078E+03  0.48821012079E+03  0.25500000920E-02 0. -1.
    10030    2    1    2    0    0  0.00000000000E+00  0.00000000000E+00  0.99022101861E+03  0.19666412602E+04  0.16991586684E+04 0.  0.
        3    1    3    3  502    0  0.27075130852E+03 -0.61167674705E+03  0.11013275174E+04  0.12885561783E+04  0.10100000352E+00 0.  1.
       -3    1    3    3    0  502 -0.27075130852E+03  0.61167674705E+03 -0.11110649879E+03  0.67808508184E+03  0.10100000352E+00 0. -1.
</event>
<event>
 5   0  0.7025426E-04  0.1662473E+04  0.7818609E-02  0.8783062E-01
        2   -1    0    0  501    0  0.00000000000E+00  0.00000000000E+00  0.80156022356E+03  0.80156022357E+03  0.25500000920E-02 0. -1.
       -2   -1    0    0    0  501  0.00000000000E+00  0.00000000000E+00 -0.86201159618E+03  0.86201159618E+03  0.25500000920E-02 0.  1.
    10030    2    1    2    0    0  0.00000000000E+00  0.00000000000E+00 -0.60451372614E+02  0.16635718197E+04  0.16624731069E+04 0.  0.
        2    1    3    3  502    0 -0.21396810146E+03 -0.11045209219E+03 -0.82634698478E+03  0.86071560482E+03  0.25500000920E-02 0.  1.
       -2    1    3    3    0  502  0.21396810146E+03  0.11045209219E+03  0.76589561217E+03  0.80285621493E+03  0.25500000920E-02 0. -1.
</event>
<event>
 5   0  0.7025426E-04  0.1650567E+04  0.7818609E-02  0.8790071E-01
        2   -1    0    0  501    0  0.00000000000E+00  0.00000000000E+00  0.16979301680E+04  0.16979301680E+04  0.25500000920E-02 0. -1.
       -2   -1    0    0    0  501  0.00000000000E+00  0.00000000000E+00 -0.40113143153E+03  0.40113143154E+03  0.25500000920E-02 0.  1.
    10030    2    1    2    0    0  0.00000000000E+00  0.00000000000E+00  0.12967987364E+04  0.20990615995E+04  0.16505673678E+04 0.  0.
        2    1    3    3  502    0  0.16262834018E+03 -0.14739082331E+03  0.16601342542E+04  0.16745798798E+04  0.25500000920E-02 0. -1.
       -2    1    3    3    0  502 -0.16262834018E+03  0.14739082331E+03 -0.36333551781E+03  0.42448171967E+03  0.25500000920E-02 0.  1.
</event>
<event>
 5   0  0.7049044E-04  0.1739865E+04  0.7818609E-02  0.8738949E-01
        2   -1    0    0  501    0  0.00000000000E+00  0.00000000000E+00  0.25227274386E+04  0.25227274386E+04  0.25500000920E-02 0.  1.
       -2   -1    0    0    0  501  0.00000000000E+00  0.00000000000E+00 -0.29998584939E+03  0.29998584940E+03  0.25500000920E-02 0. -1.
    10030    2    1    2    0    0  0.00000000000E+00  0.00000000000E+00  0.22227415892E+04  0.28227132880E+04  0.17398649758E+04 0.  0.
        4    1    3    3  502    0  0.83911313092E+03  0.22761523265E+03  0.10637552669E+04  0.13738618640E+04  0.12699999809E+01 0.  1.
       -4    1    3    3    0  502 -0.83911313092E+03 -0.22761523265E+03  0.11589863223E+04  0.14488514240E+04  0.12699999809E+01 0. -1.
</event>
<event>
 5   0  0.6746664E-04  0.1355140E+04  0.7818609E-02  0.8986947E-01
       -2   -1    0    0    0  501  0.00000000000E+00  0.00000000000E+00  0.45077727411E+03  0.45077727412E+03  0.25500000920E-02 0. -1.
        2   -1    0    0  501    0  0.00000000000E+00  0.00000000000E+00 -0.10184648613E+04  0.10184648613E+04  0.25500000920E-02 0.  1.
    10030    2    1    2    0    0  0.00000000000E+00  0.00000000000E+00 -0.56768758717E+03  0.14692421354E+04  0.13551395706E+04 0.  0.
        5    1    3    3  502    0  0.19631602429E+03 -0.54353113025E+03 -0.66733902172E+03  0.88279642662E+03  0.46999998093E+01 0.  1.
       -5    1    3    3    0  502 -0.19631602429E+03  0.54353113025E+03  0.99651434542E+02  0.58644570878E+03  0.46999998093E+01 0. -1.
</event>
<event>
 5   0  0.6746664E-04  0.1649689E+04  0.7818609E-02  0.8790591E-01
        2   -1    0    0  501    0  0.00000000000E+00  0.00000000000E+00  0.10137863137E+04  0.10137863137E+04  0.25500000920E-02 0. -1.
       -2   -1    0    0    0  501  0.00000000000E+00  0.00000000000E+00 -0.67111603274E+03  0.67111603275E+03  0.25500000920E-02 0.  1.
    10030    2    1    2    0    0  0.00000000000E+00  0.00000000000E+00  0.34267028095E+03  0.16849023464E+04  0.16496887572E+04 0.  0.
        5    1    3    3  502    0  0.49185535120E+03 -0.63564121210E+03  0.36072445772E+03  0.88096859276E+03  0.46999998093E+01 0. -1.
       -5    1    3    3    0  502 -0.49185535120E+03  0.63564121210E+03 -0.18054176764E+02  0.80393375369E+03  0.46999998093E+01 0.  1.
</event>
<event>
 5   0  0.7242144E-04  0.1579954E+04  0.7818609E-02  0.8832959E-01
        2   -1    0    0  501    0  0.00000000000E+00  0.00000000000E+00  0.14281503704E+04  0.14281503704E+04  0.25500000920E-02 0.  1.
       -2   -1    0    0    0  501  0.00000000000E+00  0.00000000000E+00 -0.43697318618E+03  0.43697318618E+03  0.25500000920E-02 0. -1.
    10030    2    1    2    0    0  0.00000000000E+00  0.00000000000E+00  0.99117718424E+03  0.18651235566E+04  0.15799536926E+04 0.  0.
        3    1    3    3  502    0  0.72674901832E+03 -0.24637511418E+03  0.71706414260E+03  0.10502598856E+04  0.10100000352E+00 0.  1.
       -3    1    3    3    0  502 -0.72674901832E+03  0.24637511418E+03  0.27411304164E+03  0.81486367100E+03  0.10100000352E+00 0. -1.
</event>
<event>
 5   0  0.3723500E-04  0.1624837E+04  0.7818609E-02  0.8805434E-01
        1   -1    0    0  501    0  0.00000000000E+00  0.00000000000E+00  0.24083393943E+04  0.24083393943E+04  0.50400001928E-02 0.  1.
       -1   -1    0    0    0  501  0.00000000000E+00  0.00000000000E+00 -0.27405748406E+03  0.27405748410E+03  0.50400001928E-02 0. -1.
    10030    2    1    2    0    0  0.00000000000E+00  0.00000000000E+00  0.21342819102E+04  0.26823968784E+04  0.16248365274E+04 0.  0.
        1    1    3    3  502    0 -0.50310389459E+03 -0.25186702239E+02  0.14879414609E+02  0.50395366426E+03  0.50400001928E-02 0. -1.
       -1    1    3    3    0  502  0.50310389459E+03  0.25186702239E+02  0.21194024956E+04  0.21784432141E+04  0.50400001928E-02 0.  1.
</event>
<event>
 5   0  0.3723500E-04  0.1707043E+04  0.7818609E-02  0.8757357E-01
        1   -1    0    0  501    0  0.00000000000E+00  0.00000000000E+00  0.82651313076E+03  0.82651313077E+03  0.50400001928E-02 0.  1.
       -1   -1    0    0    0  501  0.00000000000E+00  0.00000000000E+00 -0.88141287933E+03  0.88141287934E+03  0.50400001928E-02 0. -1.
    10030    2    1    2    0    0  0.00000000000E+00  0.00000000000E+00 -0.54899748567E+02  0.17079260101E+04  0.17070434305E+04 0.  0.
        1    1    3    3  502    0  0.41657760515E+03  0.59160086979E+03  0.42552124171E+03  0.83940265512E+03  0.50400001928E-02 0.  1.
       -1    1    3    3    0  502 -0.41657760515E+03 -0.59160086979E+03 -0.48042099027E+03  0.86852335500E+03  0.50400001928E-02 0. -1.
</event>
<event>
 5   0  0.7025426E-04  0.1704145E+04  0.7818609E-02  0.8759004E-01
        2   -1    0    0  501    0  0.00000000000E+00  0.00000000000E+00  0.11099828932E+04  0.11099828932E+04  0.25500000920E-02 0. -1.
       -2   -1    0    0    0  501  0.00000000000E+00  0.00000000000E+00 -0.65408862730E+03  0.65408862731E+03  0.25500000920E-02 0.  1.
    10030    2    1    2    0    0  0.00000000000E+00  0.00000000000E+00  0.45589426589E+03  0.17640715205E+04  0.17041445795E+04 0.  0.
        2    1    3    3  502    0  0.67698143537E+03  0.37276553382E+02 -0.30627623261E+03  0.74397482211E+03  0.25500000920E-02 0.  1.
       -2    1    3    3    0  502 -0.67698143537E+03 -0.37276553382E+02  0.76217049850E+03  0.10200966984E+04  0.25500000920E-02 0. -1.
</event>
<event>
 5   0  0.7049044E-04  0.1894006E+04  0.7818609E-02  0.8657846E-01
       -2   -1    0    0    0  501  0.00000000000E+00  0.00000000000E+00  0.74136768990E+03  0.74136768991E+03  0.25500000920E-02 0.  1.
        2   -1    0    0  501    0  0.00000000000E+00  0.00000000000E+00 -0.12096763289E+04  0.12096763289E+04  0.25500000920E-02 0. -1.
    10030    2    1    2    0    0  0.00000000000E+00  0.00000000000E+00 -0.46830863900E+03  0.19510440188E+04  0.18940062782E+04 0.  0.
        4    1    3    3  502    0 -0.69529976800E+03  0.61145067726E+03 -0.29423986855E+02  0.92638063560E+03  0.12699999809E+01 0.  1.
       -4    1    3    3    0  502  0.69529976800E+03 -0.61145067726E+03 -0.43888465214E+03  0.10246633832E+04  0.12699999809E+01 0. -1.
</event>
<event>
 5   0  0.3713516E-04  0.1749699E+04  0.7818609E-02  0.8733516E-01
        1   -1    0    0  501    0  0.00000000000E+00  0.00000000000E+00  0.18589475279E+04  0.18589475279E+04  0.50400001928E-02 0. -1.
       -1   -1    0    0    0  501  0.00000000000E+00  0.00000000000E+00 -0.41171768911E+03  0.41171768914E+03  0.50400001928E-02 0.  1.
    10030    2    1    2    0    0  0.00000000000E+00  0.00000000000E+00  0.14472298388E+04  0.22706652171E+04  0.17496989231E+04 0.  0.
        5    1    3    3  502    0 -0.57672219505E+03 -0.58838440303E+03  0.11053702991E+04  0.13786479914E+04  0.46999998093E+01 0. -1.
       -5    1    3    3    0  502  0.57672219505E+03  0.58838440303E+03  0.34185953965E+03  0.89201722564E+03  0.46999998093E+01 0.  1.
</event>
<event>
 5   0  0.2639750E-04  0.1668445E+04  0.7818609E-02  0.8779569E-01
       -3   -1    0    0    0  501  0.00000000000E+00  0.00000000000E+00  0.17145240046E+04  0.17145240076E+04  0.10100000352E+00 0. -1.
        3   -1    0    0  501    0  0.00000000000E+00  0.00000000000E+00 -0.40590088193E+03  0.40590089450E+03  0.10100000352E+00 0.  1.
    10030    2    1    2    0    0  0.00000000000E+00  0.00000000000E+00  0.13086231227E+04  0.21204249021E+04  0.16684445715E+04 0.  0.
        3    1    3    3  502    0  0.40539044383E+03 -0.48163789077E+03  0.13499595165E+04  0.14895325361E+04  0.10100000352E+00 0. -1.
       -3    1    3    3    0  502 -0.40539044383E+03  0.48163789077E+03 -0.41336393818E+02  0.63089236596E+03  0.10100000352E+00 0.  1.
</event>
<event>
 5   0  0.7049044E-04  0.1643235E+04  0.7818609E-02  0.8794419E-01
        2   -1    0    0  501    0  0.00000000000E+00  0.00000000000E+00  0.17040285686E+04  0.17040285686E+04  0.25500000920E-02 0. -1.
       -2   -1    0    0    0  501  0.00000000000E+00  0.00000000000E+00 -0.39615234435E+03  0.39615234436E+03  0.25500000920E-02 0.  1.
    10030    2    1    2    0    0  0.00000000000E+00  0.00000000000E+00  0.13078762242E+04  0.21001809129E+04  0.16432345083E+04 0.  0.
        4    1    3    3  502    0 -0.61880056673E+03  0.53250586778E+02 -0.33500669739E+02  0.62199169942E+03  0.12699999809E+01 0.  1.
       -4    1    3    3    0  502  0.61880056673E+03 -0.53250586778E+02  0.13413768940E+04  0.14781892135E+04  0.12699999809E+01 0. -1.
</event>
<event>
 5   0  0.3713516E-04  0.1719839E+04  0.7818609E-02  0.8750130E-01
       -1   -1    0    0    0  501  0.00000000000E+00  0.00000000000E+00  0.73178618070E+03  0.73178618072E+03  0.50400001928E-02 0. -1.
        1   -1    0    0  501    0  0.00000000000E+00  0.00000000000E+00 -0.10104882579E+04  0.10104882579E+04  0.50400001928E-02 0.  1.
    10030    2    1    2    0    0  0.00000000000E+00  0.00000000000E+00 -0.27870207722E+03  0.17422744387E+04  0.17198387633E+04 0.  0.
        5    1    3    3  502    0  0.56877282695E+03 -0.13451696502E+03  0.49962430120E+03  0.76892384207E+03  0.46999998093E+01 0. -1.
       -5    1    3    3    0  502 -0.56877282695E+03  0.13451696502E+03 -0.77832637841E+03  0.97335059659E+03  0.46999998093E+01 0.  1.
</event>
<event>
 5   0  0.3803253E-04  0.1710231E+04  0.7818609E-02  0.8755551E-01
        1   -1    0    0  501    0  0.00000000000E+00  0.00000000000E+00  0.14932873339E+04  0.14932873339E+04  0.50400001928E-02 0.  1.
       -1   -1    0    0    0  501  0.00000000000E+00  0.00000000000E+00 -0.48967296721E+03  0.48967296724E+03  0.50400001928E-02 0. -1.
    10030    2    1    2    0    0  0.00000000000E+00  0.00000000000E+00  0.10036143667E+04  0.19829603012E+04  0.17102309081E+04 0.  0.
        4    1    3    3  502    0  0.16183111033E+03  0.21268357136E+03 -0.44000544300E+03  0.51481065700E+03  0.12699999809E+01 0. -1.
       -4    1    3    3    0  502 -0.16183111033E+03 -0.21268357136E+03  0.14436198097E+04  0.14681496442E+04  0.12699999809E+01 0.  1.
</event>
<event>
 5   0  0.3723500E-04  0.1691460E+04  0.7818609E-02  0.8766250E-01
       -1   -1    0    0    0  501  0.00000000000E+00  0.00000000000E+00  0.16462297878E+04  0.16462297878E+04  0.50400001928E-02 0. -1.
        1   -1    0    0  501    0  0.00000000000E+00  0.00000000000E+00 -0.43448346977E+03  0.43448346979E+03  0.50400001928E-02 0.  1.
    10030    2    1    2    0    0  0.00000000000E+00  0.00000000000E+00  0.12117463180E+04  0.20807132576E+04  0.16914604699E+04 0.  0.
        1    1    3    3  502    0 -0.94066882106E+02  0.80680844746E+03  0.31614941553E+03  0.87163002597E+03  0.50400001928E-02 0.  1.
       -1    1    3    3    0  502  0.94066882106E+02 -0.80680844746E+03  0.89559690250E+03  0.12090832316E+04  0.50400001928E-02 0. -1.
</event>
<event>
 5   0  0.3723500E-04  0.1654643E+04  0.7818609E-02  0.8787665E-01
        1   -1    0    0  501    0  0.00000000000E+00  0.00000000000E+00  0.13254736190E+04  0.13254736190E+04  0.50400001928E-02 0.  1.
       -1   -1    0    0    0  501  0.00000000000E+00  0.00000000000E+00 -0.51638942426E+03  0.51638942429E+03  0.50400001928E-02 0. -1.
    10030    2    1    2    0    0  0.00000000000E+00  0.00000000000E+00  0.80908419476E+03  0.18418630433E+04  0.16546426309E+04 0.  0.
        1    1    3    3  502    0 -0.50980424177E+03 -0.31793671842E+03  0.10376452118E+04  0.11990378257E+04  0.50400001928E-02 0.  1.
       -1    1    3    3    0  502  0.50980424177E+03  0.31793671842E+03 -0.22856101706E+03  0.64282521761E+03  0.50400001928E-02 0. -1.
</event>
<event>
 5   0  0.3723500E-04  0.1684897E+04  0.7818609E-02  0.8770025E-01
        1   -1    0    0  501    0  0.00000000000E+00  0.00000000000E+00  0.24406923428E+04  0.24406923428E+04  0.50400001928E-02 0.  1.
       -1   -1    0    0    0  501  0.00000000000E+00  0.00000000000E+00 -0.29078628423E+03  0.29078628428E+03  0.50400001928E-02 0. -1.
    10030    2    1    2    0    0  0.00000000000E+00  0.00000000000E+00  0.21499060586E+04  0.27314786271E+04  0.16848974537E+04 0.  0.
        1    1    3    3  502    0 -0.43035134125E+03  0.14160730715E+02  0.22488265997E+04  0.22896776801E+04  0.50400001928E-02 0.  1.
       -1    1    3    3    0  502  0.43035134125E+03 -0.14160730715E+02 -0.98920541187E+02  0.44180094693E+03  0.50400001928E-02 0. -1.
</event>
<event>
 5   0  0.2639750E-04  0.1676861E+04  0.7818609E-02  0.8774673E-01
       -4   -1    0    0    0  501  0.00000000000E+00  0.00000000000E+00  0.58924505761E+03  0.58924642623E+03  0.12699999809E+01 0. -1.
        4   -1    0    0  501    0  0.00000000000E+00  0.00000000000E+00 -0.11929903394E+04  0.11929910154E+04  0.12699999809E+01 0.  1.
    10030    2    1    2    0    0  0.00000000000E+00  0.00000000000E+00 -0.60374528175E+03  0.17822374416E+04  0.16768607375E+04 0.  0.
        3    1    3    3  502    0  0.40489398582E+03 -0.50152123523E+03 -0.87176074841E+03  0.10841722657E+04  0.10100000352E+00 0. -1.
       -3    1    3    3    0  502 -0.40489398582E+03  0.50152123523E+03  0.26801546666E+03  0.69806517583E+03  0.10100000352E+00 0.  1.
</event>
<event>
 5   0  0.3713516E-04  0.1668394E+04  0.7818609E-02  0.8779598E-01
        1   -1    0    0  501    0  0.00000000000E+00  0.00000000000E+00  0.99482585095E+03  0.99482585096E+03  0.50400001928E-02 0.  1.
       -1   -1    0    0    0  501  0.00000000000E+00  0.00000000000E+00 -0.69950428275E+03  0.69950428277E+03  0.50400001928E-02 0. -1.
    10030    2    1    2    0    0  0.00000000000E+00  0.00000000000E+00  0.29532156820E+03  0.16943301337E+04  0.16683943699E+04 0.  0.
        5    1    3    3  502    0  0.10243927768E+03 -0.37815209238E+03 -0.60024547213E+03  0.71680508326E+03  0.46999998093E+01 0. -1.
       -5    1    3    3    0  502 -0.10243927768E+03  0.37815209238E+03  0.89556704033E+03  0.97752505047E+03  0.46999998093E+01 0.  1.
</event>
<event>
 5   0  0.7242144E-04  0.1736103E+04  0.7818609E-02  0.8741037E-01
        2   -1    0    0  501    0  0.00000000000E+00  0.00000000000E+00  0.12552872640E+04  0.12552872640E+04  0.25500000920E-02 0. -1.
       -2   -1    0    0    0  501  0.00000000000E+00  0.00000000000E+00 -0.60027177544E+03  0.60027177544E+03  0.25500000920E-02 0.  1.
    10030    2    1    2    0    0  0.00000000000E+00  0.00000000000E+00  0.65501548858E+03  0.18555590395E+04  0.17361031244E+04 0.  0.
        3    1    3    3  502    0 -0.78029794018E+03  0.33503101958E+03  0.51990143667E+03  0.99569481951E+03  0.10100000352E+00 0. -1.
       -3    1    3    3    0  502  0.78029794018E+03 -0.33503101958E+03  0.13511405190E+03  0.85986421996E+03  0.10100000352E+00 0.  1.
</event>
<event>
 5   0  0.3635143E-04  0.1707265E+04  0.7818609E-02  0.8757232E-01
       -1   -1    0    0    0  501  0.00000000000E+00  0.00000000000E+00  0.13069183640E+04  0.13069183640E+04  0.50400001928E-02 0.  1.
        1   -1    0    0  501    0  0.00000000000E+00  0.00000000000E+00 -0.55756201387E+03  0.55756201390E+03  0.50400001928E-02 0. -1.
    10030    2    1    2    0    0  0.00000000000E+00  0.00000000000E+00  0.74935635010E+03  0.18644803779E+04  0.17072645196E+04 0.  0.
        3    1    3    3  502    0 -0.16852857880E+03 -0.20334162642E+03 -0.51182314436E+03  0.57594499755E+03  0.10100000352E+00 0. -1.
       -3    1    3    3    0  502  0.16852857880E+03  0.20334162642E+03  0.12611794945E+04  0.12885353803E+04  0.10100000352E+00 0.  1.
</event>
<event>
 5   0  0.3915701E-04  0.1616223E+04  0.7818609E-02  0.8810643E-01
       -1   -1    0    0    0  501  0.00000000000E+00  0.00000000000E+00  0.32825806974E+03  0.32825806978E+03  0.50400001928E-02 0.  1.
        1   -1    0    0  501    0  0.00000000000E+00  0.00000000000E+00 -0.19894223455E+04  0.19894223455E+04  0.50400001928E-02 0. -1.
    10030    2    1    2    0    0  0.00000000000E+00  0.00000000000E+00 -0.16611642757E+04  0.23176804152E+04  0.16162226815E+04 0.  0.
        2    1    3    3  502    0 -0.31828630257E+03  0.32834500973E+03  0.12486858165E+03  0.47403457523E+03  0.25500000920E-02 0.  1.
       -2    1    3    3    0  502  0.31828630257E+03 -0.32834500973E+03 -0.17860328574E+04  0.18436458400E+04  0.25500000920E-02 0. -1.
</event>
<event>
 5   0  0.6746664E-04  0.1697807E+04  0.7818609E-02  0.8762616E-01
       -2   -1    0    0    0  501  0.00000000000E+00  0.00000000000E+00  0.40572353821E+03  0.40572353822E+03  0.25500000920E-02 0. -1.
        2   -1    0    0  501    0  0.00000000000E+00  0.00000000000E+00 -0.17761768383E+04  0.17761768383E+04  0.25500000920E-02 0.  1.
    10030    2    1    2    0    0  0.00000000000E+00  0.00000000000E+00 -0.13704533001E+04  0.21819003765E+04  0.16978065276E+04 0.  0.
        5    1    3    3  502    0 -0.18005354300E+03  0.76267053139E+03 -0.11046771651E+04  0.13544073785E+04  0.46999998093E+01 0.  1.
       -5    1    3    3    0  502  0.18005354300E+03 -0.76267053139E+03 -0.26577613492E+03  0.82749299797E+03  0.46999998093E+01 0. -1.
</event>
<event>
 5   0  0.7242144E-04  0.1203290E+04  0.7818609E-02  0.9109982E-01
       -2   -1    0    0    0  501  0.00000000000E+00  0.00000000000E+00  0.19828437159E+03  0.19828437161E+03  0.25500000920E-02 0.  1.
        2   -1    0    0  501    0  0.00000000000E+00  0.00000000000E+00 -0.18255424946E+04  0.18255424946E+04  0.25500000920E-02 0. -1.
    10030    2    1    2    0    0  0.00000000000E+00  0.00000000000E+00 -0.16272581230E+04  0.20238268662E+04  0.12032897346E+04 0.  0.
        3    1    3    3  502    0  0.50848057068E+03  0.15582551868E+03 -0.34046919672E+03  0.63146921315E+03  0.10100000352E+00 0.  1.
       -3    1    3    3    0  502 -0.50848057068E+03 -0.15582551868E+03 -0.12867889263E+04  0.13923576530E+04  0.10100000352E+00 0. -1.
</event>
<event>
 5   0  0.3723500E-04  0.1733840E+04  0.7818609E-02  0.8742296E-01
       -1   -1    0    0    0  501  0.00000000000E+00  0.00000000000E+00  0.67990943115E+03  0.67990943117E+03  0.50400001928E-02 0. -1.
        1   -1    0    0  501    0  0.00000000000E+00  0.00000000000E+00 -0.11053680331E+04  0.11053680331E+04  0.50400001928E-02 0.  1.
    10030    2    1    2    0    0  0.00000000000E+00  0.00000000000E+00 -0.42545860195E+03  0.17852774643E+04  0.17338398434E+04 0.  0.
        1    1    3    3  502    0  0.59642299649E+03  0.59491302166E+03 -0.42351762021E+03  0.94287277442E+03  0.50400001928E-02 0. -1.
       -1    1    3    3    0  502 -0.59642299649E+03 -0.59491302166E+03 -0.19409817439E+01  0.84240468987E+03  0.50400001928E-02 0.  1.
</event>
<event>
 5   0  0.7049044E-04  0.1709712E+04  0.7818609E-02  0.8755845E-01
       -2   -1    0    0    0  501  0.00000000000E+00  0.00000000000E+00  0.67652496251E+03  0.67652496252E+03  0.25500000920E-02 0.  1.
        2   -1    0    0  501    0  0.00000000000E+00  0.00000000000E+00 -0.10801948608E+04  0.10801948608E+04  0.25500000920E-02 0. -1.
    10030    2    1    2    0    0  0.00000000000E+00  0.00000000000E+00 -0.40366989828E+03  0.17567198233E+04  0.17097120082E+04 0.  0.
        4    1    3    3  502    0 -0.82199128747E+03  0.20246908540E+03 -0.32390272202E+03  0.90640939616E+03  0.12699999809E+01 0. -1.
       -4    1    3    3    0  502  0.82199128747E+03 -0.20246908540E+03 -0.79767176254E+02  0.85031042715E+03  0.12699999809E+01 0.  1.
</event>
<event>
 5   0  0.7233728E-04  0.1402346E+04  0.7818609E-02  0.8952122E-01
        2   -1    0    0  501    0  0.00000000000E+00  0.00000000000E+00  0.11899936855E+04  0.11899936855E+04  0.25500000920E-02 0.  1.
       -2   -1    0    0    0  501  0.00000000000E+00  0.00000000000E+00 -0.41314791884E+03  0.41314791885E+03  0.25500000920E-02 0. -1.
    10030    2    1    2    0    0  0.00000000000E+00  0.00000000000E+00  0.77684576669E+03  0.16031416044E+04  0.14023457699E+04 0.  0.
        1    1    3    3  502    0 -0.24829148104E+03  0.50281897595E+03 -0.92758938456E+02  0.56840109326E+03  0.50400001928E-02 0. -1.
       -1    1    3    3    0  502  0.24829148104E+03 -0.50281897595E+03  0.86960470514E+03  0.10347405111E+04  0.50400001928E-02 0.  1.
</event>
<event>
 5   0  0.7242144E-04  0.1563069E+04  0.7818609E-02  0.8843563E-01
        2   -1    0    0  501    0  0.00000000000E+00  0.00000000000E+00  0.91671241194E+03  0.91671241195E+03  0.25500000920E-02 0.  1.
       -2   -1    0    0    0  501  0.00000000000E+00  0.00000000000E+00 -0.66628982132E+03  0.66628982133E+03  0.25500000920E-02 0. -1.
    10030    2    1    2    0    0  0.00000000000E+00  0.00000000000E+00  0.25042259062E+03  0.15830022333E+04  0.15630689673E+04 0.  0.
        3    1    3    3  502    0  0.67659807157E+03  0.51123623721E+02  0.51796816244E+03  0.85363317816E+03  0.10100000352E+00 0.  1.
       -3    1    3    3    0  502 -0.67659807157E+03 -0.51123623721E+02 -0.26754557182E+03  0.72936905511E+03  0.10100000352E+00 0. -1.
</event>
<event>
 5   0  0.3713516E-04  0.1715476E+04  0.7818609E-02  0.8752587E-01
        1   -1    0    0  501    0  0.00000000000E+00  0.00000000000E+00  0.98184839460E+03  0.98184839461E+03  0.50400001928E-02 0.  1.
       -1   -1    0    0    0  501  0.00000000000E+00  0.00000000000E+00 -0.74931579833E+03  0.74931579835E+03  0.50400001928E-02 0. -1.
    10030    2    1    2    0    0  0.00000000000E+00  0.00000000000E+00  0.23253259626E+03  0.17311641930E+04  0.17154760432E+04 0.  0.
        5    1    3    3  502    0  0.73526841742E+03 -0.36983335731E+03  0.35992011930E+03  0.89831004676E+03  0.46999998093E+01 0.  1.
       -5    1    3    3    0  502 -0.73526841742E+03  0.36983335731E+03 -0.12738752303E+03  0.83285414621E+03  0.46999998093E+01 0. -1.
</event>
<event>
 5   0  0.3915701E-04  0.1645489E+04  0.7818609E-02  0.8793080E-01
       -1   -1    0    0    0  501  0.00000000000E+00  0.00000000000E+00  0.37087268012E+03  0.37087268015E+03  0.50400001928E-02 0. -1.
        1   -1    0    0  501    0  0.00000000000E+00  0.00000000000E+00 -0.18251768920E+04  0.18251768920E+04  0.50400001928E-02 0.  1.
    10030    2    1    2    0    0  0.00000000000E+00  0.00000000000E+00 -0.14543042119E+04  0.21960495722E+04  0.16454886760E+04 0.  0.
        2    1    3    3  502    0 -0.37106704239E+03 -0.34858669565E+03  0.13539332770E+03  0.52681570547E+03  0.25500000920E-02 0. -1.
       -2    1    3    3    0  502  0.37106704239E+03  0.34858669565E+03 -0.15896975396E+04  0.16692338667E+04  0.25500000920E-02 0.  1.
</event>
<event>
 5   0  0.3723500E-04  0.1799003E+04  0.7818609E-02  0.8706830E-01
        1   -1    0    0  501    0  0.00000000000E+00  0.00000000000E+00  0.19236824174E+04  0.19236824174E+04  0.50400001928E-02 0. -1.
       -1   -1    0    0    0  501  0.00000000000E+00  0.00000000000E+00 -0.42060103065E+03  0.42060103068E+03  0.50400001928E-02 0.  1.
    10030    2    1    2    0    0  0.00000000000E+00  0.00000000000E+00  0.15030813867E+04  0.23442834481E+04  0.17990028432E+04 0.  0.
        1    1    3    3  502    0  0.21596587618E+03 -0.65558294448E+03 -0.59279073698E-01  0.69023927757E+03  0.50400001928E-02 0.  1.
       -1    1    3    3    0  502 -0.21596587618E+03  0.65558294448E+03  0.15031406658E+04  0.16540441705E+04  0.50400001928E-02 0. -1.
</event>
<event>
 5   0  0.7025426E-04  0.1716848E+04  0.7818609E-02  0.8751813E-01
        2   -1    0    0  501    0  0.00000000000E+00  0.00000000000E+00  0.80174966219E+03  0.80174966219E+03  0.25500000920E-02 0.  1.
       -2   -1    0    0    0  501  0.00000000000E+00  0.00000000000E+00 -0.91910477359E+03  0.91910477359E+03  0.25500000920E-02 0. -1.
    10030    2    1    2    0    0  0.00000000000E+00  0.00000000000E+00 -0.11735511140E+03  0.17208544358E+04  0.17168482073E+04 0.  0.
        2    1    3    3  502    0  0.43420702024E+03 -0.33784829255E+03  0.60180981165E+03  0.81538472797E+03  0.25500000920E-02 0.  1.
       -2    1    3    3    0  502 -0.43420702024E+03  0.33784829255E+03 -0.71916492305E+03  0.90546970781E+03  0.25500000920E-02 0. -1.
</event>
<event>
 5   0  0.7049044E-04  0.1626386E+04  0.7818609E-02  0.8804500E-01
        2   -1    0    0  501    0  0.00000000000E+00  0.00000000000E+00  0.96785890906E+03  0.96785890907E+03  0.25500000920E-02 0. -1.
       -2   -1    0    0    0  501  0.00000000000E+00  0.00000000000E+00 -0.68324296132E+03  0.68324296132E+03  0.25500000920E-02 0.  1.
    10030    2    1    2    0    0  0.00000000000E+00  0.00000000000E+00  0.28461594774E+03  0.16511018704E+04  0.16263859163E+04 0.  0.
        4    1    3    3  502    0  0.77498304486E+03  0.95157646911E+02  0.37297776061E+03  0.86531365435E+03  0.12699999809E+01 0.  1.
       -4    1    3    3    0  502 -0.77498304486E+03 -0.95157646911E+02 -0.88361812868E+02  0.78578821604E+03  0.12699999809E+01 0. -1.
</event>
<event>
 5   0  0.3915701E-04  0.1674809E+04  0.7818609E-02  0.8775863E-01
       -1   -1    0    0    0  501  0.00000000000E+00  0.00000000000E+00  0.45379529189E+03  0.45379529192E+03  0.50400001928E-02 0. -1.
        1   -1    0    0  501    0  0.00000000000E+00  0.00000000000E+00 -0.15452927751E+04  0.15452927751E+04  0.50400001928E-02 0.  1.
    10030    2    1    2    0    0  0.00000000000E+00  0.00000000000E+00 -0.10914974832E+04  0.19990880670E+04  0.16748093455E+04 0.  0.
        2    1    3    3  502    0  0.75660861880E+02 -0.24655193467E+02  0.44927198184E+03  0.45626500880E+03  0.25500000920E-02 0. -1.
       -2    1    3    3    0  502 -0.75660861880E+02  0.24655193467E+02 -0.15407694650E+04  0.15428230582E+04  0.25500000920E-02 0.  1.
</event>
<event>
 5   0  0.3713516E-04  0.1428843E+04  0.7818609E-02  0.8933201E-01
       -1   -1    0    0    0  501  0.00000000000E+00  0.00000000000E+00  0.94936028898E+03  0.94936028900E+03  0.50400001928E-02 0.  1.
        1   -1    0    0  501    0  0.00000000000E+00  0.00000000000E+00 -0.53762347412E+03  0.53762347414E+03  0.50400001928E-02 0. -1.
    10030    2    1    2    0    0  0.00000000000E+00  0.00000000000E+00  0.41173681486E+03  0.14869837631E+04  0.14288434159E+04 0.  0.
        5    1    3    3  502    0  0.26395685031E+03  0.78148106507E+02  0.89193207639E+03  0.93345876410E+03  0.46999998093E+01 0.  1.
       -5    1    3    3    0  502 -0.26395685031E+03 -0.78148106507E+02 -0.48019526153E+03  0.55352499904E+03  0.46999998093E+01 0. -1.
</event>
<event>
 5   0  0.3915701E-04  0.1725531E+04  0.7818609E-02  0.8746936E-01
       -1   -1    0    0    0  501  0.00000000000E+00  0.00000000000E+00  0.41170904198E+03  0.41170904201E+03  0.50400001928E-02 0.  1.
        1   -1    0    0  501    0  0.00000000000E+00  0.00000000000E+00 -0.18079858346E+04  0.18079858346E+04  0.50400001928E-02 0. -1.
    10030    2    1    2    0    0  0.00000000000E+00  0.00000000000E+00 -0.13962767926E+04  0.22196948766E+04  0.17255307774E+04 0.  0.
        2    1    3    3  502    0 -0.38102543969E+03  0.53579193423E+03 -0.14168007936E+04  0.15619148092E+04  0.25500000920E-02 0. -1.
       -2    1    3    3    0  502  0.38102543969E+03 -0.53579193423E+03  0.20524000970E+02  0.65778006742E+03  0.25500000920E-02 0.  1.
</event>
<event>
 5   0  0.2639750E-04  0.1151800E+04  0.7818609E-02  0.9156125E-01
       -3   -1    0    0    0  501  0.00000000000E+00  0.00000000000E+00  0.74395264325E+03  0.74395265011E+03  0.10100000352E+00 0.  1.
        3   -1    0    0  501    0  0.00000000000E+00  0.00000000000E+00 -0.44580890566E+03  0.44580891711E+03  0.10100000352E+00 0. -1.
    10030    2    1    2    0    0  0.00000000000E+00  0.00000000000E+00  0.29814373759E+03  0.11897615672E+04  0.11517998518E+04 0.  0.
        3    1    3    3  502    0 -0.37991038799E+03  0.34727349333E+03  0.41590715491E+03  0.66174734890E+03  0.10100000352E+00 0.  1.
       -3    1    3    3    0  502  0.37991038799E+03 -0.34727349333E+03 -0.11776341732E+03  0.52801421831E+03  0.10100000352E+00 0. -1.
</event>
<event>
 5   0  0.7025426E-04  0.1565123E+04  0.7818609E-02  0.8842265E-01
       -2   -1    0    0    0  501  0.00000000000E+00  0.00000000000E+00  0.51247171590E+03  0.51247171590E+03  0.25500000920E-02 0. -1.
        2   -1    0    0  501    0  0.00000000000E+00  0.00000000000E+00 -0.11949977480E+04  0.11949977480E+04  0.25500000920E-02 0.  1.
    10030    2    1    2    0    0  0.00000000000E+00  0.00000000000E+00 -0.68252603209E+03  0.17074694639E+04  0.15651230577E+04 0.  0.
        2    1    3    3  502    0 -0.50990563062E+02 -0.70936371753E+03  0.14937477261E+02  0.71135086244E+03  0.25500000920E-02 0. -1.
       -2    1    3    3    0  502  0.50990563062E+02  0.70936371753E+03 -0.69746350935E+03  0.99611860145E+03  0.25500000920E-02 0.  1.
</event>
<event>
 5   0  0.7242144E-04  0.1668544E+04  0.7818609E-02  0.8779511E-01
        2   -1    0    0  501    0  0.00000000000E+00  0.00000000000E+00  0.24017014324E+04  0.24017014324E+04  0.25500000920E-02 0. -1.
       -2   -1    0    0    0  501  0.00000000000E+00  0.00000000000E+00 -0.28979860144E+03  0.28979860145E+03  0.25500000920E-02 0.  1.
    10030    2    1    2    0    0  0.00000000000E+00  0.00000000000E+00  0.21119028310E+04  0.26915000339E+04  0.16685439355E+04 0.  0.
        3    1    3    3  502    0  0.53623151902E+02 -0.78763096142E+03  0.62080230602E+03  0.10043074664E+04  0.10100000352E+00 0.  1.
       -3    1    3    3    0  502 -0.53623151902E+02  0.78763096142E+03  0.14911005250E+04  0.16871925674E+04  0.10100000352E+00 0. -1.
</event>
<event>
 5   0  0.7025426E-04  0.1699790E+04  0.7818609E-02  0.8761484E-01
        2   -1    0    0  501    0  0.00000000000E+00  0.00000000000E+00  0.76458511974E+03  0.76458511974E+03  0.25500000920E-02 0. -1.
       -2   -1    0    0    0  501  0.00000000000E+00  0.00000000000E+00 -0.94472400853E+03  0.94472400854E+03  0.25500000920E-02 0.  1.
    10030    2    1    2    0    0  0.00000000000E+00  0.00000000000E+00 -0.18013888879E+03  0.17093091283E+04  0.16997904803E+04 0.  0.
        2    1    3    3  502    0  0.59591615754E+03  0.36203659621E+03  0.39858935952E+03  0.80315629944E+03  0.25500000920E-02 0. -1.
       -2    1    3    3    0  502 -0.59591615754E+03 -0.36203659621E+03 -0.57872824831E+03  0.90615282884E+03  0.25500000920E-02 0.  1.
</event>
<event>
 5   0  0.3635143E-04  0.1515186E+04  0.7818609E-02  0.8874417E-01
       -1   -1    0    0    0  501  0.00000000000E+00  0.00000000000E+00  0.21892664421E+03  0.21892664427E+03  0.50400001928E-02 0.  1.
        1   -1    0    0  501    0  0.00000000000E+00  0.00000000000E+00 -0.26216402058E+04  0.26216402058E+04  0.50400001928E-02 0. -1.
    10030    2    1    2    0    0  0.00000000000E+00  0.00000000000E+00 -0.24027135616E+04  0.28405668501E+04  0.15151856555E+04 0.  0.
        3    1    3    3  502    0  0.52904739359E+03  0.53271269645E+03 -0.13913710147E+04  0.15810083088E+04  0.10100000352E+00 0. -1.
       -3    1    3    3    0  502 -0.52904739359E+03 -0.53271269645E+03 -0.10113425468E+04  0.12595585413E+04  0.10100000352E+00 0.  1.
</event>
<event>
 5   0  0.3713516E-04  0.1721752E+04  0.7818609E-02  0.8749055E-01
        1   -1    0    0  501    0  0.00000000000E+00  0.00000000000E+00  0.11221493058E+04  0.11221493058E+04  0.50400001928E-02 0.  1.
       -1   -1    0    0    0  501  0.00000000000E+00  0.00000000000E+00 -0.66043592074E+03  0.66043592076E+03  0.50400001928E-02 0. -1.
    10030    2    1    2    0    0  0.00000000000E+00  0.00000000000E+00  0.46171338508E+03  0.17825852266E+04  0.17217522586E+04 0.  0.
        5    1    3    3  502    0 -0.37497191537E+03 -0.55911422390E+03  0.78635160246E+03  0.10351732152E+04  0.46999998093E+01 0.  1.
       -5    1    3    3    0  502  0.37497191537E+03  0.55911422390E+03 -0.32463821737E+03  0.74741201145E+03  0.46999998093E+01 0. -1.
</event>
<event>
 5   0  0.6746664E-04  0.1714281E+04  0.7818609E-02  0.8753261E-01
       -2   -1    0    0    0  501  0.00000000000E+00  0.00000000000E+00  0.94552563182E+03  0.94552563182E+03  0.25500000920E-02 0.  1.
        2   -1    0    0  501    0  0.00000000000E+00  0.00000000000E+00 -0.77701715771E+03  0.77701715771E+03  0.25500000920E-02 0. -1.
    10030    2    1    2    0    0  0.00000000000E+00  0.00000000000E+00  0.16850847411E+03  0.17225427895E+04  0.17142807693E+04 0.  0.
        5    1    3    3  502    0 -0.42866845940E+03 -0.27634657367E+03 -0.60793695306E+03  0.79355749997E+03  0.46999998093E+01 0. -1.
       -5    1    3    3    0  502  0.42866845940E+03  0.27634657367E+03  0.77644542717E+03  0.92898528957E+03  0.46999998093E+01 0.  1.
</event>
<event>
 5   0  0.3713516E-04  0.1710786E+04  0.7818609E-02  0.8755236E-01
        1   -1    0    0  501    0  0.00000000000E+00  0.00000000000E+00  0.81164551476E+03  0.81164551478E+03  0.50400001928E-02 0.  1.
       -1   -1    0    0    0  501  0.00000000000E+00  0.00000000000E+00 -0.90149855565E+03  0.90149855566E+03  0.50400001928E-02 0. -1.
    10030    2    1    2    0    0  0.00000000000E+00  0.00000000000E+00 -0.89853040886E+02  0.17131440704E+04  0.17107860875E+04 0.  0.
        5    1    3    3  502    0  0.58024154017E+03 -0.61681386237E+03  0.75803260654E+02  0.85023985444E+03  0.46999998093E+01 0. -1.
       -5    1    3    3    0  502 -0.58024154017E+03  0.61681386237E+03 -0.16565630154E+03  0.86290421600E+03  0.46999998093E+01 0.  1.
</event>
<event>
 5   0  0.3915701E-04  0.1659477E+04  0.7818609E-02  0.8784820E-01
        1   -1    0    0  501    0  0.00000000000E+00  0.00000000000E+00  0.13912465240E+04  0.13912465240E+04  0.50400001928E-02 0. -1.
       -1   -1    0    0    0  501  0.00000000000E+00  0.00000000000E+00 -0.49485531205E+03  0.49485531208E+03  0.50400001928E-02 0.  1.
    10030    2    1    2    0    0  0.00000000000E+00  0.00000000000E+00  0.89639121194E+03  0.18861018361E+04  0.16594767040E+04 0.  0.
        2    1    3    3  502    0 -0.49543495729E+03 -0.39221632839E+03  0.10593843068E+04  0.12335252550E+04  0.25500000920E-02 0. -1.
       -2    1    3    3    0  502  0.49543495729E+03  0.39221632839E+03 -0.16299309490E+03  0.65257658106E+03  0.25500000920E-02 0.  1.
</event>
<event>
 5   0  0.6746664E-04  0.1702233E+04  0.7818609E-02  0.8760092E-01
        2   -1    0    0  501    0  0.00000000000E+00  0.00000000000E+00  0.16318820244E+04  0.16318820244E+04  0.25500000920E-02 0.  1.
       -2   -1    0    0    0  501  0.00000000000E+00  0.00000000000E+00 -0.44390439371E+03  0.44390439372E+03  0.25500000920E-02 0. -1.
    10030    2    1    2    0    0  0.00000000000E+00  0.00000000000E+00  0.11879776307E+04  0.20757864181E+04  0.17022333573E+04 0.  0.
        5    1    3    3  502    0 -0.30719252328E+03  0.60950203288E+03 -0.26035288605E+02  0.68305190191E+03  0.46999998093E+01 0. -1.
       -5    1    3    3    0  502  0.30719252328E+03 -0.60950203288E+03  0.12140129193E+04  0.13927345162E+04  0.46999998093E+01 0.  1.
</event>
<event>
 5   0  0.3723500E-04  0.1731636E+04  0.7818609E-02  0.8743524E-01
        1   -1    0    0  501    0  0.00000000000E+00  0.00000000000E+00  0.12702672007E+04  0.12702672007E+04  0.50400001928E-02 0.  1.
       -1   -1    0    0    0  501  0.00000000000E+00  0.00000000000E+00 -0.59014447249E+03  0.59014447251E+03  0.50400001928E-02 0. -1.
    10030    2    1    2    0    0  0.00000000000E+00  0.00000000000E+00  0.68012272819E+03  0.18604116732E+04  0.17316364134E+04 0.  0.
        1    1    3    3  502    0 -0.70146867955E+03  0.69654115548E+02  0.88017077425E+03  0.11276571270E+04  0.50400001928E-02 0.  1.
       -1    1    3    3    0  502  0.70146867955E+03 -0.69654115548E+02 -0.20004804606E+03  0.73275454619E+03  0.50400001928E-02 0. -1.
</event>
<event>
 5   0  0.7242144E-04  0.1726144E+04  0.7818609E-02  0.8746592E-01
       -2   -1    0    0    0  501  0.00000000000E+00  0.00000000000E+00  0.34923920568E+03  0.34923920569E+03  0.25500000920E-02 0. -1.
        2   -1    0    0  501    0  0.00000000000E+00  0.00000000000E+00 -0.21329039960E+04  0.21329039960E+04  0.25500000920E-02 0.  1.
    10030    2    1    2    0    0  0.00000000000E+00  0.00000000000E+00 -0.17836647903E+04  0.24821432017E+04  0.17261444868E+04 0.  0.
        3    1    3    3  502    0  0.36844540886E+03  0.35252107230E+03  0.10946387071E+03  0.52154144122E+03  0.10100000352E+00 0. -1.
       -3    1    3    3    0  502 -0.36844540886E+03 -0.35252107230E+03 -0.18931286610E+04  0.19606017604E+04  0.10100000352E+00 0.  1.
</event>
<event>
 5   0  0.7233728E-04  0.1708076E+04  0.7818609E-02  0.8756772E-01
        2   -1    0    0  501    0  0.00000000000E+00  0.00000000000E+00  0.12311601426E+04  0.12311601426E+04  0.25500000920E-02 0. -1.
       -2   -1    0    0    0  501  0.00000000000E+00  0.00000000000E+00 -0.59243387501E+03  0.59243387502E+03  0.25500000920E-02 0.  1.
    10030    2    1    2    0    0  0.00000000000E+00  0.00000000000E+00  0.63872626762E+03  0.18235940177E+04  0.17080760804E+04 0.  0.
        1    1    3    3  502    0  0.28795227465E+02 -0.13040686859E+03 -0.58121706784E+03  0.59636263839E+03  0.50400001928E-02 0.  1.
       -1    1    3    3    0  502 -0.28795227465E+02  0.13040686859E+03  0.12199433355E+04  0.12272313793E+04  0.50400001928E-02 0. -1.
</event>
<event>
 5   0  0.7242144E-04  0.1559761E+04  0.7818609E-02  0.8845657E-01
       -2   -1    0    0    0  501  0.00000000000E+00  0.00000000000E+00  0.34631609858E+03  0.34631609859E+03  0.25500000920E-02 0.  1.
        2   -1    0    0  501    0  0.00000000000E+00  0.00000000000E+00 -0.17562391750E+04  0.17562391750E+04  0.25500000920E-02 0. -1.
    10030    2    1    2    0    0  0.00000000000E+00  0.00000000000E+00 -0.14099230764E+04  0.21025552736E+04  0.15597613911E+04 0.  0.
        3    1    3    3  502    0 -0.14497699777E+03  0.70694817628E+03 -0.30640104513E+03  0.78401254103E+03  0.10100000352E+00 0.  1.
       -3    1    3    3    0  502  0.14497699777E+03 -0.70694817628E+03 -0.11035220313E+04  0.13185427325E+04  0.10100000352E+00 0. -1.
</event>
<event>
 5   0  0.2639750E-04  0.1711074E+04  0.7818609E-02  0.8755074E-01
       -4   -1    0    0    0  501  0.00000000000E+00  0.00000000000E+00  0.12901990878E+04  0.12901997128E+04  0.12699999809E+01 0. -1.
        4   -1    0    0  501    0  0.00000000000E+00  0.00000000000E+00 -0.56730895255E+03  0.56731037408E+03  0.12699999809E+01 0.  1.
    10030    2    1    2    0    0  0.00000000000E+00  0.00000000000E+00  0.72289013522E+03  0.18575100869E+04  0.17110738077E+04 0.  0.
        3    1    3    3  502    0  0.12691186353E+03 -0.49498147130E+03 -0.38344905860E+03  0.63886341950E+03  0.10100000352E+00 0.  1.
       -3    1    3    3    0  502 -0.12691186353E+03  0.49498147130E+03  0.11063391938E+04  0.12186466674E+04  0.10100000352E+00 0. -1.
</event>
<event>
 5   0  0.7049044E-04  0.1687731E+04  0.7818609E-02  0.8768393E-01
        2   -1    0    0  501    0  0.00000000000E+00  0.00000000000E+00  0.32780820178E+04  0.32780820178E+04  0.25500000920E-02 0.  1.
       -2   -1    0    0    0  501  0.00000000000E+00  0.00000000000E+00 -0.21723337922E+03  0.21723337923E+03  0.25500000920E-02 0. -1.
    10030    2    1    2    0    0  0.00000000000E+00  0.00000000000E+00  0.30608486386E+04  0.34953153970E+04  0.16877308246E+04 0.  0.
        4    1    3    3  502    0  0.67234049076E+03  0.18383538296E+03  0.54528713434E+03  0.88497279920E+03  0.12699999809E+01 0. -1.
       -4    1    3    3    0  502 -0.67234049076E+03 -0.18383538296E+03  0.25155615042E+04  0.26103425978E+04  0.12699999809E+01 0.  1.
</event>
<event>
 5   0  0.3713516E-04  0.1848944E+04  0.7818609E-02  0.8680696E-01
       -1   -1    0    0    0  501  0.00000000000E+00  0.00000000000E+00  0.86824070674E+03  0.86824070675E+03  0.50400001928E-02 0.  1.
        1   -1    0    0  501    0  0.00000000000E+00  0.00000000000E+00 -0.98434532305E+03  0.98434532306E+03  0.50400001928E-02 0. -1.
    10030    2    1    2    0    0  0.00000000000E+00  0.00000000000E+00 -0.11610461631E+03  0.18525860298E+04  0.18489442166E+04 0.  0.
        5    1    3    3  502    0  0.69810124644E+03  0.94504747945E+02  0.54175028079E+03  0.88870239923E+03  0.46999998093E+01 0.  1.
       -5    1    3    3    0  502 -0.69810124644E+03 -0.94504747945E+02 -0.65785489710E+03  0.96388363058E+03  0.46999998093E+01 0. -1.
</event>
<event>
 5   0  0.2639750E-04  0.1688870E+04  0.7818609E-02  0.8767738E-01
       -4   -1    0    0    0  501  0.00000000000E+00  0.00000000000E+00  0.89557802710E+03  0.89557892758E+03  0.12699999809E+01 0.  1.
        4   -1    0    0  501    0  0.00000000000E+00  0.00000000000E+00 -0.79621117306E+03  0.79621218592E+03  0.12699999809E+01 0. -1.
    10030    2    1    2    0    0  0.00000000000E+00  0.00000000000E+00  0.99366854037E+02  0.16917911135E+04  0.16888704509E+04 0.  0.
        2    1    3    3  502    0 -0.22016226184E+02 -0.25562505971E+03 -0.75622136090E+03  0.79856097579E+03  0.25500000920E-02 0. -1.
       -2    1    3    3    0  502  0.22016226184E+02  0.25562505971E+03  0.85558821494E+03  0.89323013771E+03  0.25500000920E-02 0.  1.
</event>
<event>
 5   0  0.2639750E-04  0.1708682E+04  0.7818609E-02  0.8756428E-01
       -3   -1    0    0    0  501  0.00000000000E+00  0.00000000000E+00  0.17749724185E+04  0.17749724214E+04  0.10100000352E+00 0.  1.
        3   -1    0    0  501    0  0.00000000000E+00  0.00000000000E+00 -0.41121682924E+03  0.41121684165E+03  0.10100000352E+00 0. -1.
    10030    2    1    2    0    0  0.00000000000E+00  0.00000000000E+00  0.13637555893E+04  0.21861892630E+04  0.17086820028E+04 0.  0.
        1    1    3    3  502    0  0.71252865458E+03  0.16809541463E+03  0.12453418901E+04  0.14445862991E+04  0.50400001928E-02 0.  1.
       -1    1    3    3    0  502 -0.71252865458E+03 -0.16809541463E+03  0.11841369912E+03  0.74160296398E+03  0.50400001928E-02 0. -1.
</event>
<event>
 5   0  0.3915701E-04  0.1761216E+04  0.7818609E-02  0.8727201E-01
        1   -1    0    0  501    0  0.00000000000E+00  0.00000000000E+00  0.53021184150E+03  0.53021184152E+03  0.50400001928E-02 0.  1.
       -1   -1    0    0    0  501  0.00000000000E+00  0.00000000000E+00 -0.14625667940E+04  0.14625667940E+04  0.50400001928E-02 0. -1.
    10030    2    1    2    0    0  0.00000000000E+00  0.00000000000E+00 -0.93235495252E+03  0.19927786356E+04  0.17612157542E+04 0.  0.
        2    1    3    3  502    0 -0.39358582309E+03  0.40300597864E+03  0.29968137787E+03  0.63806939059E+03  0.25500000920E-02 0.  1.
       -2    1    3    3    0  502  0.39358582309E+03 -0.40300597864E+03 -0.12320363304E+04  0.13547092450E+04  0.25500000920E-02 0. -1.
</event>
<event>
 5   0  0.3635143E-04  0.1490754E+04  0.7818609E-02  0.8890625E-01
       -1   -1    0    0    0  501  0.00000000000E+00  0.00000000000E+00  0.83834404963E+03  0.83834404965E+03  0.50400001928E-02 0. -1.
        1   -1    0    0  501    0  0.00000000000E+00  0.00000000000E+00 -0.66271902271E+03  0.66271902273E+03  0.50400001928E-02 0.  1.
    10030    2    1    2    0    0  0.00000000000E+00  0.00000000000E+00  0.17562502692E+03  0.15010630724E+04  0.14907535669E+04 0.  0.
        3    1    3    3  502    0  0.54346612633E+03  0.30522980654E+03 -0.32375108632E+03  0.70237841750E+03  0.10100000352E+00 0.  1.
       -3    1    3    3    0  502 -0.54346612633E+03 -0.30522980654E+03  0.49937611324E+03  0.79868465488E+03  0.10100000352E+00 0. -1.
</event>
<event>
 5   0  0.3713516E-04  0.1688739E+04  0.7818609E-02  0.8767813E-01
        1   -1    0    0  501    0  0.00000000000E+00  0.00000000000E+00  0.64378283857E+03  0.64378283859E+03  0.50400001928E-02 0.  1.
       -1   -1    0    0    0  501  0.00000000000E+00  0.00000000000E+00 -0.11074544592E+04  0.11074544592E+04  0.50400001928E-02 0. -1.
    10030    2    1    2    0    0  0.00000000000E+00  0.00000000000E+00 -0.46367162063E+03  0.17512372978E+04  0.16887393823E+04 0.  0.
        5    1    3    3  502    0 -0.82850073445E+03 -0.84262980734E+02 -0.87306536531E+02  0.83735192018E+03  0.46999998093E+01 0. -1.
       -5    1    3    3    0  502  0.82850073445E+03  0.84262980734E+02 -0.37636508410E+03  0.91388537763E+03  0.46999998093E+01 0.  1.
</event>
<event>
 5   0  0.6746664E-04  0.1687377E+04  0.7818609E-02  0.8768597E-01
       -2   -1    0    0    0  501  0.00000000000E+00  0.00000000000E+00  0.72282714883E+03  0.72282714883E+03  0.25500000920E-02 0. -1.
        2   -1    0    0  501    0  0.00000000000E+00  0.00000000000E+00 -0.98475814064E+03  0.98475814064E+03  0.25500000920E-02 0.  1.
    10030    2    1    2    0    0  0.00000000000E+00  0.00000000000E+00 -0.26193099181E+03  0.17075852895E+04  0.16873765663E+04 0.  0.
        5    1    3    3  502    0 -0.42693760411E+03 -0.40647934103E+03  0.47982465199E+03  0.76010193997E+03  0.46999998093E+01 0. -1.
       -5    1    3    3    0  502  0.42693760411E+03  0.40647934103E+03 -0.74175564381E+03  0.94748334951E+03  0.46999998093E+01 0.  1.
</event>
<event>
 5   0  0.3723500E-04  0.1496390E+04  0.7818609E-02  0.8886857E-01
        1   -1    0    0  501    0  0.00000000000E+00  0.00000000000E+00  0.52199893282E+03  0.52199893284E+03  0.50400001928E-02 0. -1.
       -1   -1    0    0    0  501  0.00000000000E+00  0.00000000000E+00 -0.10724083366E+04  0.10724083366E+04  0.50400001928E-02 0.  1.
    10030    2    1    2    0    0  0.00000000000E+00  0.00000000000E+00 -0.55040940377E+03  0.15944072694E+04  0.14963903331E+04 0.  0.
        1    1    3    3  502    0 -0.91802086697E+02  0.21907300880E+03 -0.10311673995E+04  0.10581714474E+04  0.50400001928E-02 0.  1.
       -1    1    3    3    0  502  0.91802086697E+02 -0.21907300880E+03  0.48075799575E+03  0.53623582201E+03  0.50400001928E-02 0. -1.
</event>
<event>
 5   0  0.3713516E-04  0.1677790E+04  0.7818609E-02  0.8774134E-01
        1   -1    0    0  501    0  0.00000000000E+00  0.00000000000E+00  0.46216143876E+03  0.46216143878E+03  0.50400001928E-02 0. -1.
       -1   -1    0    0    0  501  0.00000000000E+00  0.00000000000E+00 -0.15227244199E+04  0.15227244199E+04  0.50400001928E-02 0.  1.
    10030    2    1    2    0    0  0.00000000000E+00  0.00000000000E+00 -0.10605629811E+04  0.19848858587E+04  0.16777896278E+04 0.  0.
        5    1    3    3  502    0 -0.80764476789E+03 -0.22651731779E+03 -0.54336206175E+03  0.99943213202E+03  0.46999998093E+01 0.  1.
       -5    1    3    3    0  502  0.80764476789E+03  0.22651731779E+03 -0.51720091935E+03  0.98545372664E+03  0.46999998093E+01 0. -1.
</event>
<event>
 5   0  0.3803253E-04  0.1364169E+04  0.7818609E-02  0.8980171E-01
        1   -1    0    0  501    0  0.00000000000E+00  0.00000000000E+00  0.21640097311E+04  0.21640097311E+04  0.50400001928E-02 0.  1.
       -1   -1    0    0    0  501  0.00000000000E+00  0.00000000000E+00 -0.21498959271E+03  0.21498959277E+03  0.50400001928E-02 0. -1.
    10030    2    1    2    0    0  0.00000000000E+00  0.00000000000E+00  0.19490201383E+04  0.23789993238E+04  0.13641694481E+04 0.  0.
        4    1    3    3  502    0 -0.74630920792E+00  0.16952310399E+03  0.21266833100E+04  0.21334296693E+04  0.12699999809E+01 0.  1.
       -4    1    3    3    0  502  0.74630920792E+00 -0.16952310399E+03 -0.17766317168E+03  0.24556965455E+03  0.12699999809E+01 0. -1.
</event>
<event>
 5   0  0.3915701E-04  0.1704735E+04  0.7818609E-02  0.8758669E-01
        1   -1    0    0  501    0  0.00000000000E+00  0.00000000000E+00  0.14405754371E+04  0.14405754371E+04  0.50400001928E-02 0.  1.
       -1   -1    0    0    0  501  0.00000000000E+00  0.00000000000E+00 -0.50433324073E+03  0.50433324075E+03  0.50400001928E-02 0. -1.
    10030    2    1    2    0    0  0.00000000000E+00  0.00000000000E+00  0.93624219637E+03  0.19449086779E+04  0.17047346758E+04 0.  0.
        2    1    3    3  502    0 -0.24057136535E+02  0.25387199852E+03  0.13960345169E+04  0.14191342818E+04  0.25500000920E-02 0.  1.
       -2    1    3    3    0  502  0.24057136535E+02 -0.25387199852E+03 -0.45979232056E+03  0.52577439601E+03  0.25500000920E-02 0. -1.
</event>
<event>
 5   0  0.7025426E-04  0.1679679E+04  0.7818609E-02  0.8773040E-01
        2   -1    0    0  501    0  0.00000000000E+00  0.00000000000E+00  0.86731770886E+03  0.86731770886E+03  0.25500000920E-02 0. -1.
       -2   -1    0    0    0  501  0.00000000000E+00  0.00000000000E+00 -0.81323173888E+03  0.81323173888E+03  0.25500000920E-02 0.  1.
    10030    2    1    2    0    0  0.00000000000E+00  0.00000000000E+00  0.54085969981E+02  0.16805494477E+04  0.16796788842E+04 0.  0.
        2    1    3    3  502    0  0.42947855310E+03 -0.46204380386E+03 -0.52767559799E+03  0.82242193610E+03  0.25500000920E-02 0.  1.
       -2    1    3    3    0  502 -0.42947855310E+03  0.46204380386E+03  0.58176156797E+03  0.85812751164E+03  0.25500000920E-02 0. -1.
</event>
<event>
 5   0  0.7242144E-04  0.1635641E+04  0.7818609E-02  0.8798947E-01
       -2   -1    0    0    0  501  0.00000000000E+00  0.00000000000E+00  0.11877581928E+04  0.11877581928E+04  0.25500000920E-02 0. -1.
        2   -1    0    0  501    0  0.00000000000E+00  0.00000000000E+00 -0.56310316997E+03  0.56310316998E+03  0.25500000920E-02 0.  1.
    10030    2    1    2    0    0  0.00000000000E+00  0.00000000000E+00  0.62465502287E+03  0.17508613628E+04  0.16356410408E+04 0.  0.
        3    1    3    3  502    0 -0.46810928650E+03 -0.59795147480E+03  0.63728800850E+03  0.99136687775E+03  0.10100000352E+00 0. -1.
       -3    1    3    3    0  502  0.46810928650E+03  0.59795147480E+03 -0.12632985635E+02  0.75949448507E+03  0.10100000352E+00 0.  1.
</event>
<event>
 5   0  0.7049044E-04  0.1692413E+04  0.7818609E-02  0.8765703E-01
        2   -1    0    0  501    0  0.00000000000E+00  0.00000000000E+00  0.10225212697E+04  0.10225212697E+04  0.25500000920E-02 0.  1.
       -2   -1    0    0    0  501  0.00000000000E+00  0.00000000000E+00 -0.70029383430E+03  0.70029383430E+03  0.25500000920E-02 0. -1.
    10030    2    1    2    0    0  0.00000000000E+00  0.00000000000E+00  0.32222743537E+03  0.17228151040E+04  0.16924128818E+04 0.  0.
        4    1    3    3  502    0 -0.63375827226E+03  0.55887088970E+03  0.11471523558E+03  0.85272939270E+03  0.12699999809E+01 0. -1.
       -4    1    3    3    0  502  0.63375827226E+03 -0.55887088970E+03  0.20751219979E+03  0.87008571128E+03  0.12699999809E+01 0.  1.
</event>
<event>
 5   0  0.3713516E-04  0.1557951E+04  0.7818609E-02  0.8846805E-01
       -1   -1    0    0    0  501  0.00000000000E+00  0.00000000000E+00  0.53805572631E+03  0.53805572633E+03  0.50400001928E-02 0.  1.
        1   -1    0    0  501    0  0.00000000000E+00  0.00000000000E+00 -0.11277693020E+04  0.11277693020E+04  0.50400001928E-02 0. -1.
    10030    2    1    2    0    0  0.00000000000E+00  0.00000000000E+00 -0.58971357567E+03  0.16658250283E+04  0.15579508733E+04 0.  0.
        5    1    3    3  502    0 -0.52169280694E+02  0.40340234556E+03  0.41546504200E+03  0.58145367603E+03  0.46999998093E+01 0.  1.
       -5    1    3    3    0  502  0.52169280694E+02 -0.40340234556E+03 -0.10051786177E+04  0.10843713523E+04  0.46999998093E+01 0. -1.
</event>
<event>
 5   0  0.7233728E-04  0.1631439E+04  0.7818609E-02  0.8801463E-01
       -2   -1    0    0    0  501  0.00000000000E+00  0.00000000000E+00  0.22492413925E+03  0.22492413926E+03  0.25500000920E-02 0. -1.
        2   -1    0    0  501    0  0.00000000000E+00  0.00000000000E+00 -0.29583221885E+04  0.29583221885E+04  0.25500000920E-02 0.  1.
    10030    2    1    2    0    0  0.00000000000E+00  0.00000000000E+00 -0.27333980493E+04  0.31832463278E+04  0.16314387171E+04 0.  0.
        1    1    3    3  502    0  0.63372931740E+03 -0.49099039107E+03 -0.16607638249E+04  0.18441314741E+04  0.50400001928E-02 0.  1.
       -1    1    3    3    0  502 -0.63372931740E+03  0.49099039107E+03 -0.10726342244E+04  0.13391148536E+04  0.50400001928E-02 0. -1.
</event>
<event>
 5   0  0.6746664E-04  0.1673638E+04  0.7818609E-02  0.8776544E-01
        2   -1    0    0  501    0  0.00000000000E+00  0.00000000000E+00  0.69443786553E+03  0.69443786554E+03  0.25500000920E-02 0. -1.
       -2   -1    0    0    0  501  0.00000000000E+00  0.00000000000E+00 -0.10083922616E+04  0.10083922616E+04  0.25500000920E-02 0.  1.
    10030    2    1    2    0    0  0.00000000000E+00  0.00000000000E+00 -0.31395439609E+03  0.17028301272E+04  0.16736376786E+04 0.  0.
        5    1    3    3  502    0  0.53383913272E+03  0.56954302510E+03  0.14974451727E+03  0.79486413148E+03  0.46999998093E+01 0. -1.
       -5    1    3    3    0  502 -0.53383913272E+03 -0.56954302510E+03 -0.46369891335E+03  0.90796599568E+03  0.46999998093E+01 0.  1.
</event>
<event>
 5   0  0.3803253E-04  0.1687752E+04  0.7818609E-02  0.8768381E-01
        1   -1    0    0  501    0  0.00000000000E+00  0.00000000000E+00  0.48255408498E+03  0.48255408500E+03  0.50400001928E-02 0. -1.
       -1   -1    0    0    0  501  0.00000000000E+00  0.00000000000E+00 -0.14757443597E+04  0.14757443597E+04  0.50400001928E-02 0.  1.
    10030    2    1    2    0    0  0.00000000000E+00  0.00000000000E+00 -0.99319027470E+03  0.19582984447E+04  0.16877517225E+04 0.  0.
        4    1    3    3  502    0 -0.60818773763E+03  0.57682987770E+03 -0.60968615312E+03  0.10365055958E+04  0.12699999809E+01 0.  1.
       -4    1    3    3    0  502  0.60818773763E+03 -0.57682987770E+03 -0.38350412158E+03  0.92179284885E+03  0.12699999809E+01 0. -1.
</event>
<event>
 5   0  0.3915701E-04  0.1704515E+04  0.7818609E-02  0.8758794E-01
       -1   -1    0    0    0  501  0.00000000000E+00  0.00000000000E+00  0.53497094013E+03  0.53497094015E+03  0.50400001928E-02 0.  1.
        1   -1    0    0  501    0  0.00000000000E+00  0.00000000000E+00 -0.13577232368E+04  0.13577232368E+04  0.50400001928E-02 0. -1.
    10030    2    1    2    0    0  0.00000000000E+00  0.00000000000E+00 -0.82275229670E+03  0.18926941770E+04  0.17045145661E+04 0.  0.
        2    1    3    3  502    0 -0.17710161176E+03 -0.41753788854E+03  0.38983748561E+03  0.59806031004E+03  0.25500000920E-02 0.  1.
       -2    1    3    3    0  502  0.17710161176E+03  0.41753788854E+03 -0.12125897823E+04  0.12946338669E+04  0.25500000920E-02 0. -1.
</event>
<event>
 5   0  0.3915701E-04  0.1707707E+04  0.7818609E-02  0.8756981E-01
        1   -1    0    0  501    0  0.00000000000E+00  0.00000000000E+00  0.88080383342E+03  0.88080383343E+03  0.50400001928E-02 0. -1.
       -1   -1    0    0    0  501  0.00000000000E+00  0.00000000000E+00 -0.82772761977E+03  0.82772761979E+03  0.50400001928E-02 0.  1.
    10030    2    1    2    0    0  0.00000000000E+00  0.00000000000E+00  0.53076213643E+02  0.17085314532E+04  0.17077068373E+04 0.  0.
        2    1    3    3  502    0 -0.42695506812E+03  0.18880409886E+03 -0.68873931339E+03  0.83204534717E+03  0.25500000920E-02 0.  1.
       -2    1    3    3    0  502  0.42695506812E+03 -0.18880409886E+03  0.74181552703E+03  0.87648610605E+03  0.25500000920E-02 0. -1.
</event>
<event>
 5   0  0.3635143E-04  0.1697339E+04  0.7818609E-02  0.8762883E-01
       -1   -1    0    0    0  501  0.00000000000E+00  0.00000000000E+00  0.52965142861E+03  0.52965142863E+03  0.50400001928E-02 0.  1.
        1   -1    0    0  501    0  0.00000000000E+00  0.00000000000E+00 -0.13598381965E+04  0.13598381965E+04  0.50400001928E-02 0. -1.
    10030    2    1    2    0    0  0.00000000000E+00  0.00000000000E+00 -0.83018676791E+03  0.18894896252E+04  0.16973393809E+04 0.  0.
        3    1    3    3  502    0 -0.40858612385E+03  0.23893520509E+03 -0.11992585049E+04  0.12892841520E+04  0.10100000352E+00 0. -1.
       -3    1    3    3    0  502  0.40858612385E+03 -0.23893520509E+03  0.36907173695E+03  0.60020547319E+03  0.10100000352E+00 0.  1.
</event>
<event>
 5   0  0.3915701E-04  0.1651134E+04  0.7818609E-02  0.8789736E-01
       -1   -1    0    0    0  501  0.00000000000E+00  0.00000000000E+00  0.40639522985E+03  0.40639522988E+03  0.50400001928E-02 0.  1.
        1   -1    0    0  501    0  0.00000000000E+00  0.00000000000E+00 -0.16770894062E+04  0.16770894062E+04  0.50400001928E-02 0. -1.
    10030    2    1    2    0    0  0.00000000000E+00  0.00000000000E+00 -0.12706941764E+04  0.20834846361E+04  0.16511343189E+04 0.  0.
        2    1    3    3  502    0 -0.65527186040E+03  0.50211764907E+03 -0.62575451635E+03  0.10358919149E+04  0.25500000920E-02 0. -1.
       -2    1    3    3    0  502  0.65527186040E+03 -0.50211764907E+03 -0.64493966002E+03  0.10475927212E+04  0.25500000920E-02 0.  1.
</event>
<event>
 5   0  0.7025426E-04  0.1732986E+04  0.7818609E-02  0.8742772E-01
        2   -1    0    0  501    0  0.00000000000E+00  0.00000000000E+00  0.76953519749E+03  0.76953519749E+03  0.25500000920E-02 0.  1.
       -2   -1    0    0    0  501  0.00000000000E+00  0.00000000000E+00 -0.97566709459E+03  0.97566709459E+03  0.25500000920E-02 0. -1.
    10030    2    1    2    0    0  0.00000000000E+00  0.00000000000E+00 -0.20613189710E+03  0.17452022921E+04  0.17329860592E+04 0.  0.
        2    1    3    3  502    0  0.26597137290E+03  0.31527514440E+03 -0.87045529828E+03  0.96324016433E+03  0.25500000920E-02 0. -1.
       -2    1    3    3    0  502 -0.26597137290E+03 -0.31527514440E+03  0.66432340118E+03  0.78196212775E+03  0.25500000920E-02 0.  1.
</event>
<event>
 5   0  0.7025426E-04  0.1708963E+04  0.7818609E-02  0.8756269E-01
       -2   -1    0    0    0  501  0.00000000000E+00  0.00000000000E+00  0.76152200145E+03  0.76152200146E+03  0.25500000920E-02 0. -1.
        2   -1    0    0  501    0  0.00000000000E+00  0.00000000000E+00 -0.95878912734E+03  0.95878912734E+03  0.25500000920E-02 0.  1.
    10030    2    1    2    0    0  0.00000000000E+00  0.00000000000E+00 -0.19726712588E+03  0.17203111288E+04  0.17089634463E+04 0.  0.
        2    1    3    3  502    0 -0.31004472844E+03  0.66183806215E+03 -0.54427128174E+03  0.91125659520E+03  0.25500000920E-02 0.  1.
       -2    1    3    3    0  502  0.31004472844E+03 -0.66183806215E+03  0.34700415586E+03  0.80905453360E+03  0.25500000920E-02 0. -1.
</event>
<event>
 5   0  0.7242144E-04  0.1681643E+04  0.7818609E-02  0.8771904E-01
        2   -1    0    0  501    0  0.00000000000E+00  0.00000000000E+00  0.17958180631E+04  0.17958180631E+04  0.25500000920E-02 0.  1.
       -2   -1    0    0    0  501  0.00000000000E+00  0.00000000000E+00 -0.39368171550E+03  0.39368171550E+03  0.25500000920E-02 0. -1.
    10030    2    1    2    0    0  0.00000000000E+00  0.00000000000E+00  0.14021363476E+04  0.21894997786E+04  0.16816429298E+04 0.  0.
        3    1    3    3  502    0  0.60273289351E+03  0.46521671328E+03  0.11655506727E+04  0.13922003851E+04  0.10100000352E+00 0.  1.
       -3    1    3    3    0  502 -0.60273289351E+03 -0.46521671328E+03  0.23658567490E+03  0.79729939358E+03  0.10100000352E+00 0. -1.
</event>
<event>
 5   0  0.3723500E-04  0.1632262E+04  0.7818609E-02  0.8800970E-01
       -1   -1    0    0    0  501  0.00000000000E+00  0.00000000000E+00  0.14504880718E+04  0.14504880718E+04  0.50400001928E-02 0. -1.
        1   -1    0    0  501    0  0.00000000000E+00  0.00000000000E+00 -0.45920384235E+03  0.45920384238E+03  0.50400001928E-02 0.  1.
    10030    2    1    2    0    0  0.00000000000E+00  0.00000000000E+00  0.99128422940E+03  0.19096919141E+04  0.16322618612E+04 0.  0.
        1    1    3    3  502    0  0.49237705041E+03  0.55340577410E+03  0.94808429576E+02  0.74678092431E+03  0.50400001928E-02 0.  1.
       -1    1    3    3    0  502 -0.49237705041E+03 -0.55340577410E+03  0.89647579982E+03  0.11629109898E+04  0.50400001928E-02 0. -1.
</event>
<event>
 5   0  0.3915701E-04  0.1765386E+04  0.7818609E-02  0.8724927E-01
       -1   -1    0    0    0  501  0.00000000000E+00  0.00000000000E+00  0.99850159705E+03  0.99850159707E+03  0.50400001928E-02 0.  1.
        1   -1    0    0  501    0  0.00000000000E+00  0.00000000000E+00 -0.78031602148E+03  0.78031602150E+03  0.50400001928E-02 0. -1.
    10030    2    1    2    0    0  0.00000000000E+00  0.00000000000E+00  0.21818557557E+03  0.17788176186E+04  0.17653858430E+04 0.  0.
        2    1    3    3  502    0 -0.74995986428E+03 -0.31747987741E+03  0.45214390321E+03  0.93148665037E+03  0.25500000920E-02 0.  1.
       -2    1    3    3    0  502  0.74995986428E+03  0.31747987741E+03 -0.23395832765E+03  0.84733096820E+03  0.25500000920E-02 0. -1.
</event>
<event>
 5   0  0.3915701E-04  0.1714228E+04  0.7818609E-02  0.8753291E-01
        1   -1    0    0  501    0  0.00000000000E+00  0.00000000000E+00  0.91467212631E+03  0.91467212633E+03  0.50400001928E-02 0.  1.
       -1   -1    0    0    0  501  0.00000000000E+00  0.00000000000E+00 -0.80317774702E+03  0.80317774704E+03  0.50400001928E-02 0. -1.
    10030    2    1    2    0    0  0.00000000000E+00  0.00000000000E+00  0.11149437929E+03  0.17178498734E+04  0.17142278701E+04 0.  0.
        2    1    3    3  502    0 -0.49342991434E+03  0.67232325441E+03  0.25403557940E+03  0.87179453680E+03  0.25500000920E-02 0.  1.
       -2    1    3    3    0  502  0.49342991434E+03 -0.67232325441E+03 -0.14254120011E+03  0.84605533656E+03  0.25500000920E-02 0. -1.
</event>
<event>
 5   0  0.7242144E-04  0.1498735E+04  0.7818609E-02  0.8885295E-01
       -2   -1    0    0    0  501  0.00000000000E+00  0.00000000000E+00  0.87945913178E+03  0.87945913178E+03  0.25500000920E-02 0. -1.
        2   -1    0    0  501    0  0.00000000000E+00  0.00000000000E+00 -0.63851913426E+03  0.63851913427E+03  0.25500000920E-02 0.  1.
    10030    2    1    2    0    0  0.00000000000E+00  0.00000000000E+00  0.24093999752E+03  0.15179782661E+04  0.14987347777E+04 0.  0.
        3    1    3    3  502    0 -0.70734776071E+03 -0.20790328992E+03  0.25630703982E+03  0.78054976869E+03  0.10100000352E+00 0.  1.
       -3    1    3    3    0  502  0.70734776071E+03  0.20790328992E+03 -0.15367042302E+02  0.73742849736E+03  0.10100000352E+00 0. -1.
</event>
<event>
 5   0  0.7025426E-04  0.1845424E+04  0.7818609E-02  0.8682510E-01
        2   -1    0    0  501    0  0.00000000000E+00  0.00000000000E+00  0.14913527046E+04  0.14913527046E+04  0.25500000920E-02 0.  1.
       -2   -1    0    0    0  501  0.00000000000E+00  0.00000000000E+00 -0.57088943736E+03  0.57088943737E+03  0.25500000920E-02 0. -1.
    10030    2    1    2    0    0  0.00000000000E+00  0.00000000000E+00  0.92046326723E+03  0.20622421420E+04  0.18454240775E+04 0.  0.
        2    1    3    3  502    0  0.18185049206E+03  0.64399394137E+03  0.11701671391E+04  0.13479944107E+04  0.25500000920E-02 0.  1.
       -2    1    3    3    0  502 -0.18185049206E+03 -0.64399394137E+03 -0.24970387182E+03  0.71424773125E+03  0.25500000920E-02 0. -1.
</event>
<event>
 5   0  0.7025426E-04  0.1536908E+04  0.7818609E-02  0.8860274E-01
       -2   -1    0    0    0  501  0.00000000000E+00  0.00000000000E+00  0.31713742238E+03  0.31713742239E+03  0.25500000920E-02 0.  1.
        2   -1    0    0  501    0  0.00000000000E+00  0.00000000000E+00 -0.18620362883E+04  0.18620362883E+04  0.25500000920E-02 0. -1.
    10030    2    1    2    0    0  0.00000000000E+00  0.00000000000E+00 -0.15448988659E+04  0.21791737107E+04  0.15369077901E+04 0.  0.
        2    1    3    3  502    0  0.42319046915E+03 -0.41949170829E+03 -0.84430019216E+02  0.60182380699E+03  0.25500000920E-02 0.  1.
       -2    1    3    3    0  502 -0.42319046915E+03  0.41949170829E+03 -0.14604688467E+04  0.15773499037E+04  0.25500000920E-02 0. -1.
</event>
<event>
 5   0  0.3803253E-04  0.1696667E+04  0.7818609E-02  0.8763267E-01
        1   -1    0    0  501    0  0.00000000000E+00  0.00000000000E+00  0.54415748517E+03  0.54415748519E+03  0.50400001928E-02 0.  1.
       -1   -1    0    0    0  501  0.00000000000E+00  0.00000000000E+00 -0.13225400473E+04  0.13225400473E+04  0.50400001928E-02 0. -1.
    10030    2    1    2    0    0  0.00000000000E+00  0.00000000000E+00 -0.77838256214E+03  0.18666975325E+04  0.16966673996E+04 0.  0.
        4    1    3    3  502    0  0.33918539560E+03 -0.50705828075E+03  0.25938812369E+03  0.66290168523E+03  0.12699999809E+01 0.  1.
       -4    1    3    3    0  502 -0.33918539560E+03  0.50705828075E+03 -0.10377706858E+04  0.12037958473E+04  0.12699999809E+01 0. -1.
</event>
<event>
 5   0  0.2639750E-04  0.1704067E+04  0.7818609E-02  0.8759048E-01
        3   -1    0    0  501    0  0.00000000000E+00  0.00000000000E+00  0.23261679486E+04  0.23261679508E+04  0.10100000352E+00 0. -1.
       -3   -1    0    0    0  501  0.00000000000E+00  0.00000000000E+00 -0.31208454541E+03  0.31208456175E+03  0.10100000352E+00 0.  1.
    10030    2    1    2    0    0  0.00000000000E+00  0.00000000000E+00  0.20140834032E+04  0.26382525125E+04  0.17040670072E+04 0.  0.
        2    1    3    3  502    0 -0.58728419796E+03 -0.11642290992E+03  0.68484453763E+02  0.60261691275E+03  0.25500000920E-02 0.  1.
       -2    1    3    3    0  502  0.58728419796E+03  0.11642290992E+03  0.19455989494E+04  0.20356355998E+04  0.25500000920E-02 0. -1.
</event>
<event>
 5   0  0.7233728E-04  0.1662404E+04  0.7818609E-02  0.8783102E-01
        2   -1    0    0  501    0  0.00000000000E+00  0.00000000000E+00  0.67650271027E+03  0.67650271027E+03  0.25500000920E-02 0.  1.
       -2   -1    0    0    0  501  0.00000000000E+00  0.00000000000E+00 -0.10212776061E+04  0.10212776061E+04  0.25500000920E-02 0. -1.
    10030    2    1    2    0    0  0.00000000000E+00  0.00000000000E+00 -0.34477489583E+03  0.16977803164E+04  0.16624043653E+04 0.  0.
        1    1    3    3  502    0 -0.44260396695E+03  0.54776595902E+03 -0.62331610564E+03  0.94046200614E+03  0.50400001928E-02 0.  1.
       -1    1    3    3    0  502  0.44260396695E+03 -0.54776595902E+03  0.27854120981E+03  0.75731831023E+03  0.50400001928E-02 0. -1.
</event>
<event>
 5   0  0.7242144E-04  0.1683736E+04  0.7818609E-02  0.8770695E-01
        2   -1    0    0  501    0  0.00000000000E+00  0.00000000000E+00  0.17925892863E+04  0.17925892863E+04  0.25500000920E-02 0. -1.
       -2   -1    0    0    0  501  0.00000000000E+00  0.00000000000E+00 -0.39537337871E+03  0.39537337872E+03  0.25500000920E-02 0.  1.
    10030    2    1    2    0    0  0.00000000000E+00  0.00000000000E+00  0.13972159076E+04  0.21879626651E+04  0.16837364197E+04 0.  0.
        3    1    3    3  502    0  0.82577608262E+02 -0.78698753882E+00  0.17873132850E+04  0.17892200730E+04  0.10100000352E+00 0. -1.
       -3    1    3    3    0  502 -0.82577608262E+02  0.78698753882E+00 -0.39009737734E+03  0.39874259208E+03  0.10100000352E+00 0.  1.
</event>
<event>
 5   0  0.2639750E-04  0.1723575E+04  0.7818609E-02  0.8748032E-01
       -4   -1    0    0    0  501  0.00000000000E+00  0.00000000000E+00  0.47990222182E+03  0.47990390226E+03  0.12699999809E+01 0.  1.
        4   -1    0    0  501    0  0.00000000000E+00  0.00000000000E+00 -0.15475552447E+04  0.15475557658E+04  0.12699999809E+01 0. -1.
    10030    2    1    2    0    0  0.00000000000E+00  0.00000000000E+00 -0.10676530229E+04  0.20274596681E+04  0.17235746948E+04 0.  0.
        1    1    3    3  502    0  0.55484499498E+03 -0.56198020573E+03 -0.12803725576E+03  0.80004266072E+03  0.50400001928E-02 0.  1.
       -1    1    3    3    0  502 -0.55484499498E+03  0.56198020573E+03 -0.93961576714E+03  0.12274170074E+04  0.50400001928E-02 0. -1.
</event>
<event>
 5   0  0.7242144E-04  0.1696292E+04  0.7818609E-02  0.8763482E-01
       -2   -1    0    0    0  501  0.00000000000E+00  0.00000000000E+00  0.60957368812E+03  0.60957368812E+03  0.25500000920E-02 0. -1.
        2   -1    0    0  501    0  0.00000000000E+00  0.00000000000E+00 -0.11800897541E+04  0.11800897541E+04  0.25500000920E-02 0.  1.
    10030    2    1    2    0    0  0.00000000000E+00  0.00000000000E+00 -0.57051606597E+03  0.17896634422E+04  0.16962920311E+04 0.  0.
        3    1    3    3  502    0  0.30259509728E+03  0.69010826799E+03 -0.69596507527E+03  0.10257585538E+04  0.10100000352E+00 0.  1.
       -3    1    3    3    0  502 -0.30259509728E+03 -0.69010826799E+03  0.12544900930E+03  0.76390488844E+03  0.10100000352E+00 0. -1.
</event>
<event>
 5   0  0.7025426E-04  0.1700066E+04  0.7818609E-02  0.8761327E-01
       -2   -1    0    0    0  501  0.00000000000E+00  0.00000000000E+00  0.19110035673E+04  0.19110035673E+04  0.25500000920E-02 0.  1.
        2   -1    0    0  501    0  0.00000000000E+00  0.00000000000E+00 -0.37810292059E+03  0.37810292060E+03  0.25500000920E-02 0. -1.
    10030    2    1    2    0    0  0.00000000000E+00  0.00000000000E+00  0.15329006467E+04  0.22891064879E+04  0.17000659164E+04 0.  0.
        2    1    3    3  502    0  0.77788264292E+03  0.33726073482E+02  0.12256717678E+04  0.14520709820E+04  0.25500000920E-02 0.  1.
       -2    1    3    3    0  502 -0.77788264292E+03 -0.33726073482E+02  0.30722887888E+03  0.83703550594E+03  0.25500000920E-02 0. -1.
</event>
<event>
 5   0  0.7242144E-04  0.1666229E+04  0.7818609E-02  0.8780863E-01
       -2   -1    0    0    0  501  0.00000000000E+00  0.00000000000E+00  0.50802744101E+03  0.50802744102E+03  0.25500000920E-02 0.  1.
        2   -1    0    0  501    0  0.00000000000E+00  0.00000000000E+00 -0.13662255767E+04  0.13662255767E+04  0.25500000920E-02 0. -1.
    10030    2    1    2    0    0  0.00000000000E+00  0.00000000000E+00 -0.85819813565E+03  0.18742530177E+04  0.16662293762E+04 0.  0.
        3    1    3    3  502    0 -0.58063157364E+03 -0.57737352031E+03 -0.60185324678E+03  0.10162285900E+04  0.10100000352E+00 0. -1.
       -3    1    3    3    0  502  0.58063157364E+03  0.57737352031E+03 -0.25634488887E+03  0.85802442769E+03  0.10100000352E+00 0.  1.
</event>
<event>
 5   0  0.3635143E-04  0.1564433E+04  0.7818609E-02  0.8842701E-01
       -1   -1    0    0    0  501  0.00000000000E+00  0.00000000000E+00  0.44401873671E+03  0.44401873674E+03  0.50400001928E-02 0.  1.
        1   -1    0    0  501    0  0.00000000000E+00  0.00000000000E+00 -0.13780104978E+04  0.13780104978E+04  0.50400001928E-02 0. -1.
    10030    2    1    2    0    0  0.00000000000E+00  0.00000000000E+00 -0.93399176111E+03  0.18220292346E+04  0.15644327796E+04 0.  0.
        3    1    3    3  502    0  0.49912841117E+03 -0.11166607196E+03 -0.11562766749E+04  0.12643473579E+04  0.10100000352E+00 0. -1.
       -3    1    3    3    0  502 -0.49912841117E+03  0.11166607196E+03  0.22228491375E+03  0.55768187665E+03  0.10100000352E+00 0.  1.
</event>
<event>
 5   0  0.3713516E-04  0.1888108E+04  0.7818609E-02  0.8660799E-01
       -1   -1    0    0    0  501  0.00000000000E+00  0.00000000000E+00  0.57464650745E+03  0.57464650747E+03  0.50400001928E-02 0. -1.
        1   -1    0    0  501    0  0.00000000000E+00  0.00000000000E+00 -0.15509319305E+04  0.15509319306E+04  0.50400001928E-02 0.  1.
    10030    2    1    2    0    0  0.00000000000E+00  0.00000000000E+00 -0.97628542310E+03  0.21255784380E+04  0.18881076423E+04 0.  0.
        5    1    3    3  502    0  0.88285144996E+03  0.30734655446E+03 -0.33995529683E+03  0.99472623424E+03  0.46999998093E+01 0.  1.
       -5    1    3    3    0  502 -0.88285144996E+03 -0.30734655446E+03 -0.63633012627E+03  0.11308522038E+04  0.46999998093E+01 0. -1.
</event>
<event>
 5   0  0.7233728E-04  0.1398091E+04  0.7818609E-02  0.8955202E-01
       -2   -1    0    0    0  501  0.00000000000E+00  0.00000000000E+00  0.57925884387E+03  0.57925884388E+03  0.25500000920E-02 0. -1.
        2   -1    0    0  501    0  0.00000000000E+00  0.00000000000E+00 -0.84360313259E+03  0.84360313260E+03  0.25500000920E-02 0.  1.
    10030    2    1    2    0    0  0.00000000000E+00  0.00000000000E+00 -0.26434428872E+03  0.14228619765E+04  0.13980909488E+04 0.  0.
        1    1    3    3  502    0  0.15350658025E+03 -0.60692316566E+03  0.18437664914E+03  0.65262144308E+03  0.50400001928E-02 0. -1.
       -1    1    3    3    0  502 -0.15350658025E+03  0.60692316566E+03 -0.44872093786E+03  0.77024053340E+03  0.50400001928E-02 0.  1.
</event>
<event>
 5   0  0.3915701E-04  0.1653231E+04  0.7818609E-02  0.8788497E-01
       -1   -1    0    0    0  501  0.00000000000E+00  0.00000000000E+00  0.87005050525E+03  0.87005050527E+03  0.50400001928E-02 0.  1.
        1   -1    0    0  501    0  0.00000000000E+00  0.00000000000E+00 -0.78534886924E+03  0.78534886926E+03  0.50400001928E-02 0. -1.
    10030    2    1    2    0    0  0.00000000000E+00  0.00000000000E+00  0.84701636014E+02  0.16553993745E+04  0.16532309948E+04 0.  0.
        2    1    3    3  502    0 -0.24464747901E+03  0.67521405259E+03 -0.36748636860E+03  0.80672959343E+03  0.25500000920E-02 0. -1.
       -2    1    3    3    0  502  0.24464747901E+03 -0.67521405259E+03  0.45218800461E+03  0.84866978109E+03  0.25500000920E-02 0.  1.
</event>
<event>
 5   0  0.7025426E-04  0.1149546E+04  0.7818609E-02  0.9158202E-01
       -2   -1    0    0    0  501  0.00000000000E+00  0.00000000000E+00  0.24169656005E+03  0.24169656007E+03  0.25500000920E-02 0.  1.
        2   -1    0    0  501    0  0.00000000000E+00  0.00000000000E+00 -0.13668547749E+04  0.13668547749E+04  0.25500000920E-02 0. -1.
    10030    2    1    2    0    0  0.00000000000E+00  0.00000000000E+00 -0.11251582149E+04  0.16085513350E+04  0.11495461665E+04 0.  0.
        2    1    3    3  502    0  0.43855885454E+03 -0.73399320673E+02 -0.52954610085E+02  0.44780075916E+03  0.25500000920E-02 0.  1.
       -2    1    3    3    0  502 -0.43855885454E+03  0.73399320673E+02 -0.10722036048E+04  0.11607505758E+04  0.25500000920E-02 0. -1.
</event>
<event>
 5   0  0.3723500E-04  0.1848486E+04  0.7818609E-02  0.8680932E-01
       -1   -1    0    0    0  501  0.00000000000E+00  0.00000000000E+00  0.74658404437E+03  0.74658404439E+03  0.50400001928E-02 0. -1.
        1   -1    0    0  501    0  0.00000000000E+00  0.00000000000E+00 -0.11441776928E+04  0.11441776928E+04  0.50400001928E-02 0.  1.
    10030    2    1    2    0    0  0.00000000000E+00  0.00000000000E+00 -0.39759364843E+03  0.18907617372E+04  0.18484856606E+04 0.  0.
        1    1    3    3  502    0  0.63757816548E+03 -0.33446109903E+03 -0.79158074089E+03  0.10700328094E+04  0.50400001928E-02 0.  1.
       -1    1    3    3    0  502 -0.63757816548E+03  0.33446109903E+03  0.39398709246E+03  0.82072892779E+03  0.50400001928E-02 0. -1.
</event>
<event>
 5   0  0.7049044E-04  0.1680248E+04  0.7818609E-02  0.8772711E-01
        2   -1    0    0  501    0  0.00000000000E+00  0.00000000000E+00  0.10749091267E+04  0.10749091267E+04  0.25500000920E-02 0. -1.
       -2   -1    0    0    0  501  0.00000000000E+00  0.00000000000E+00 -0.65662104900E+03  0.65662104900E+03  0.25500000920E-02 0.  1.
    10030    2    1    2    0    0  0.00000000000E+00  0.00000000000E+00  0.41828807775E+03  0.17315301757E+04  0.16802475513E+04 0.  0.
        4    1    3    3  502    0  0.80932501643E+03  0.21961206297E+03  0.15690257563E+03  0.85314504721E+03  0.12699999809E+01 0. -1.
       -4    1    3    3    0  502 -0.80932501643E+03 -0.21961206297E+03  0.26138550211E+03  0.87838512854E+03  0.12699999809E+01 0.  1.
</event>
<event>
 5   0  0.3803253E-04  0.1721142E+04  0.7818609E-02  0.8749397E-01
        1   -1    0    0  501    0  0.00000000000E+00  0.00000000000E+00  0.79197819971E+03  0.79197819972E+03  0.50400001928E-02 0.  1.
       -1   -1    0    0    0  501  0.00000000000E+00  0.00000000000E+00 -0.93510485312E+03  0.93510485314E+03  0.50400001928E-02 0. -1.
    10030    2    1    2    0    0  0.00000000000E+00  0.00000000000E+00 -0.14312665342E+03  0.17270830529E+04  0.17211422465E+04 0.  0.
        4    1    3    3  502    0 -0.63912157567E+03 -0.39119933951E+03 -0.49618790274E+03  0.89873097168E+03  0.12699999809E+01 0. -1.
       -4    1    3    3    0  502  0.63912157567E+03  0.39119933951E+03  0.35306124932E+03  0.82835208118E+03  0.12699999809E+01 0.  1.
</event>
<event>
 5   0  0.6746664E-04  0.1669642E+04  0.7818609E-02  0.8778871E-01
        2   -1    0    0  501    0  0.00000000000E+00  0.00000000000E+00  0.18843536019E+04  0.18843536019E+04  0.25500000920E-02 0. -1.
       -2   -1    0    0    0  501  0.00000000000E+00  0.00000000000E+00 -0.36984875547E+03  0.36984875548E+03  0.25500000920E-02 0.  1.
    10030    2    1    2    0    0  0.00000000000E+00  0.00000000000E+00  0.15145048464E+04  0.22542023573E+04  0.16696416796E+04 0.  0.
        5    1    3    3  502    0 -0.10046030602E+03  0.57438669327E+03  0.15638142473E+04  0.16689965358E+04  0.46999998093E+01 0. -1.
       -5    1    3    3    0  502  0.10046030602E+03 -0.57438669327E+03 -0.49309400949E+02  0.58520582149E+03  0.46999998093E+01 0.  1.
</event>
<event>
 5   0  0.3915701E-04  0.1668843E+04  0.7818609E-02  0.8779337E-01
       -1   -1    0    0    0  501  0.00000000000E+00  0.00000000000E+00  0.49425220937E+03  0.49425220939E+03  0.50400001928E-02 0.  1.
        1   -1    0    0  501    0  0.00000000000E+00  0.00000000000E+00 -0.14087125499E+04  0.14087125499E+04  0.50400001928E-02 0. -1.
    10030    2    1    2    0    0  0.00000000000E+00  0.00000000000E+00 -0.91446034054E+03  0.19029647593E+04  0.16688430606E+04 0.  0.
        2    1    3    3  502    0 -0.72194417452E+03  0.14997706974E+03 -0.90261922692E+03  0.11655118967E+04  0.25500000920E-02 0. -1.
       -2    1    3    3    0  502  0.72194417452E+03 -0.14997706974E+03 -0.11841113626E+02  0.73745286260E+03  0.25500000920E-02 0.  1.
</event>
<event>
 5   0  0.3713516E-04  0.1683385E+04  0.7818609E-02  0.8770898E-01
       -1   -1    0    0    0  501  0.00000000000E+00  0.00000000000E+00  0.73362858839E+03  0.73362858841E+03  0.50400001928E-02 0. -1.
        1   -1    0    0  501    0  0.00000000000E+00  0.00000000000E+00 -0.96567388270E+03  0.96567388272E+03  0.50400001928E-02 0.  1.
    10030    2    1    2    0    0  0.00000000000E+00  0.00000000000E+00 -0.23204529431E+03  0.16993024711E+04  0.16833846470E+04 0.  0.
        5    1    3    3  502    0 -0.59583137630E+03 -0.13433941278E+03 -0.70060285048E+03  0.92947756880E+03  0.46999998093E+01 0.  1.
       -5    1    3    3    0  502  0.59583137630E+03  0.13433941278E+03  0.46855755616E+03  0.76982490233E+03  0.46999998093E+01 0. -1.
</event>
<event>
 5   0  0.7233728E-04  0.1688174E+04  0.7818609E-02  0.8768138E-01
       -2   -1    0    0    0  501  0.00000000000E+00  0.00000000000E+00  0.63724593047E+03  0.63724593047E+03  0.25500000920E-02 0.  1.
        2   -1    0    0  501    0  0.00000000000E+00  0.00000000000E+00 -0.11180653559E+04  0.11180653559E+04  0.25500000920E-02 0. -1.
    10030    2    1    2    0    0  0.00000000000E+00  0.00000000000E+00 -0.48081942541E+03  0.17553112864E+04  0.16881736854E+04 0.  0.
        1    1    3    3  502    0  0.66026352074E+03  0.30640818941E+03  0.20396088415E+03  0.75593249543E+03  0.50400001928E-02 0.  1.
       -1    1    3    3    0  502 -0.66026352074E+03 -0.30640818941E+03 -0.68478030956E+03  0.99937879092E+03  0.50400001928E-02 0. -1.
</event>
<event>
 5   0  0.3635143E-04  0.1631467E+04  0.7818609E-02  0.8801447E-01
       -1   -1    0    0    0  501  0.00000000000E+00  0.00000000000E+00  0.88167862559E+03  0.88167862561E+03  0.50400001928E-02 0. -1.
        1   -1    0    0  501    0  0.00000000000E+00  0.00000000000E+00 -0.75472049676E+03  0.75472049678E+03  0.50400001928E-02 0.  1.
    10030    2    1    2    0    0  0.00000000000E+00  0.00000000000E+00  0.12695812883E+03  0.16363991224E+04  0.16314667392E+04 0.  0.
        3    1    3    3  502    0 -0.50924143717E+03 -0.33921646285E+03 -0.47762040779E+03  0.77621898594E+03  0.10100000352E+00 0.  1.
       -3    1    3    3    0  502  0.50924143717E+03  0.33921646285E+03  0.60457853662E+03  0.86018013645E+03  0.10100000352E+00 0. -1.
</event>
<event>
 5   0  0.7233728E-04  0.1714762E+04  0.7818609E-02  0.8752990E-01
        2   -1    0    0  501    0  0.00000000000E+00  0.00000000000E+00  0.11568552596E+04  0.11568552596E+04  0.25500000920E-02 0. -1.
       -2   -1    0    0    0  501  0.00000000000E+00  0.00000000000E+00 -0.63543123038E+03  0.63543123038E+03  0.25500000920E-02 0.  1.
    10030    2    1    2    0    0  0.00000000000E+00  0.00000000000E+00  0.52142402926E+03  0.17922864900E+04  0.17147617456E+04 0.  0.
        1    1    3    3  502    0  0.23476693257E+03 -0.30698539310E+03  0.10606539513E+04  0.11288677286E+04  0.50400001928E-02 0. -1.
       -1    1    3    3    0  502 -0.23476693257E+03  0.30698539310E+03 -0.53922992203E+03  0.66341876145E+03  0.50400001928E-02 0.  1.
</event>
<event>
 5   0  0.3635143E-04  0.1710026E+04  0.7818609E-02  0.8755667E-01
       -1   -1    0    0    0  501  0.00000000000E+00  0.00000000000E+00  0.51416736589E+03  0.51416736592E+03  0.50400001928E-02 0. -1.
        1   -1    0    0  501    0  0.00000000000E+00  0.00000000000E+00 -0.14218075428E+04  0.14218075428E+04  0.50400001928E-02 0.  1.
    10030    2    1    2    0    0  0.00000000000E+00  0.00000000000E+00 -0.90764017690E+03  0.19359749087E+04  0.17100257766E+04 0.  0.
        3    1    3    3  502    0  0.23886664962E+03  0.27809870942E+03 -0.13283148314E+04  0.13779754969E+04  0.10100000352E+00 0.  1.
       -3    1    3    3    0  502 -0.23886664962E+03 -0.27809870942E+03  0.42067465450E+03  0.55799941184E+03  0.10100000352E+00 0. -1.
</event>
<event>
 5   0  0.3713516E-04  0.1092066E+04  0.7818609E-02  0.9212959E-01
        1   -1    0    0  501    0  0.00000000000E+00  0.00000000000E+00  0.96750810050E+03  0.96750810051E+03  0.50400001928E-02 0. -1.
       -1   -1    0    0    0  501  0.00000000000E+00  0.00000000000E+00 -0.30816495636E+03  0.30816495640E+03  0.50400001928E-02 0.  1.
    10030    2    1    2    0    0  0.00000000000E+00  0.00000000000E+00  0.65934314414E+03  0.12756730569E+04  0.10920660998E+04 0.  0.
        5    1    3    3  502    0 -0.24300556631E+03  0.47089135370E+03  0.48349070615E+03  0.71733933754E+03  0.46999998093E+01 0. -1.
       -5    1    3    3    0  502  0.24300556631E+03 -0.47089135370E+03  0.17585243799E+03  0.55833371938E+03  0.46999998093E+01 0.  1.
</event>
<event>
 5   0  0.7049044E-04  0.1673662E+04  0.7818609E-02  0.8776530E-01
       -2   -1    0    0    0  501  0.00000000000E+00  0.00000000000E+00  0.40613755845E+03  0.40613755846E+03  0.25500000920E-02 0.  1.
        2   -1    0    0  501    0  0.00000000000E+00  0.00000000000E+00 -0.17242587506E+04  0.17242587506E+04  0.25500000920E-02 0. -1.
    10030    2    1    2    0    0  0.00000000000E+00  0.00000000000E+00 -0.13181211921E+04  0.21303963090E+04  0.16736621393E+04 0.  0.
        4    1    3    3  502    0  0.77119808577E+03  0.13566417346E+02 -0.24590055549E+03  0.80956731114E+03  0.12699999809E+01 0.  1.
       -4    1    3    3    0  502 -0.77119808577E+03 -0.13566417346E+02 -0.10722206366E+04  0.13208289979E+04  0.12699999809E+01 0. -1.
</event>
<event>
 5   0  0.7025426E-04  0.1707227E+04  0.7818609E-02  0.8757253E-01
       -2   -1    0    0    0  501  0.00000000000E+00  0.00000000000E+00  0.84298251875E+03  0.84298251876E+03  0.25500000920E-02 0. -1.
        2   -1    0    0  501    0  0.00000000000E+00  0.00000000000E+00 -0.86437868578E+03  0.86437868578E+03  0.25500000920E-02 0.  1.
    10030    2    1    2    0    0  0.00000000000E+00  0.00000000000E+00 -0.21396167025E+02  0.17073612045E+04  0.17072271339E+04 0.  0.
        2    1    3    3  502    0 -0.48850578847E+03 -0.35657363516E+03 -0.61313517986E+03  0.86123017333E+03  0.25500000920E-02 0.  1.
       -2    1    3    3    0  502  0.48850578847E+03  0.35657363516E+03  0.59173901284E+03  0.84613103121E+03  0.25500000920E-02 0. -1.
</event>
<event>
 5   0  0.3803253E-04  0.1711571E+04  0.7818609E-02  0.8754792E-01
       -1   -1    0    0    0  501  0.00000000000E+00  0.00000000000E+00  0.53667288996E+03  0.53667288998E+03  0.50400001928E-02 0.  1.
        1   -1    0    0  501    0  0.00000000000E+00  0.00000000000E+00 -0.13646466955E+04  0.13646466955E+04  0.50400001928E-02 0. -1.
    10030    2    1    2    0    0  0.00000000000E+00  0.00000000000E+00 -0.82797380555E+03  0.19013195855E+04  0.17115710746E+04 0.  0.
        4    1    3    3  502    0 -0.79275930860E+03 -0.25857684234E+03 -0.62777511763E+03  0.10437588400E+04  0.12699999809E+01 0. -1.
       -4    1    3    3    0  502  0.79275930860E+03  0.25857684234E+03 -0.20019868793E+03  0.85756074555E+03  0.12699999809E+01 0.  1.
</event>
<event>
 5   0  0.6746664E-04  0.1725778E+04  0.7818609E-02  0.8746797E-01
       -2   -1    0    0    0  501  0.00000000000E+00  0.00000000000E+00  0.30662986898E+03  0.30662986899E+03  0.25500000920E-02 0. -1.
        2   -1    0    0  501    0  0.00000000000E+00  0.00000000000E+00 -0.24282611320E+04  0.24282611320E+04  0.25500000920E-02 0.  1.
    10030    2    1    2    0    0  0.00000000000E+00  0.00000000000E+00 -0.21216312630E+04  0.27348910010E+04  0.17257779611E+04 0.  0.
        5    1    3    3  502    0  0.27621191430E+03  0.10098552536E+03 -0.23463664160E+04  0.23647301212E+04  0.46999998093E+01 0.  1.
       -5    1    3    3    0  502 -0.27621191430E+03 -0.10098552536E+03  0.22473515300E+03  0.37016087979E+03  0.46999998093E+01 0. -1.
</event>
<event>
 5   0  0.3723500E-04  0.1724421E+04  0.7818609E-02  0.8747558E-01
        1   -1    0    0  501    0  0.00000000000E+00  0.00000000000E+00  0.12630764792E+04  0.12630764792E+04  0.50400001928E-02 0. -1.
       -1   -1    0    0    0  501  0.00000000000E+00  0.00000000000E+00 -0.58856817165E+03  0.58856817167E+03  0.50400001928E-02 0.  1.
    10030    2    1    2    0    0  0.00000000000E+00  0.00000000000E+00  0.67450830754E+03  0.18516446509E+04  0.17244206146E+04 0.  0.
        1    1    3    3  502    0 -0.37218042920E+03  0.70295119678E+03  0.69459470313E+03  0.10559926413E+04  0.50400001928E-02 0. -1.
       -1    1    3    3    0  502  0.37218042920E+03 -0.70295119678E+03 -0.20086395586E+02  0.79565200952E+03  0.50400001928E-02 0.  1.
</event>
<event>
 5   0  0.7049044E-04  0.1690052E+04  0.7818609E-02  0.8767058E-01
        2   -1    0    0  501    0  0.00000000000E+00  0.00000000000E+00  0.12160394160E+04  0.12160394160E+04  0.25500000920E-02 0.  1.
       -2   -1    0    0    0  501  0.00000000000E+00  0.00000000000E+00 -0.58720874276E+03  0.58720874276E+03  0.25500000920E-02 0. -1.
    10030    2    1    2    0    0  0.00000000000E+00  0.00000000000E+00  0.62883067327E+03  0.18032481588E+04  0.16900520426E+04 0.  0.
        4    1    3    3  502    0  0.67798435440E+02  0.10436693193E+03  0.12062060762E+04  0.12126103230E+04  0.12699999809E+01 0.  1.
       -4    1    3    3    0  502 -0.67798435440E+02 -0.10436693193E+03 -0.57737540289E+03  0.59063783581E+03  0.12699999809E+01 0. -1.
</event>
<event>
 5   0  0.3915701E-04  0.1704833E+04  0.7818609E-02  0.8758613E-01
       -1   -1    0    0    0  501  0.00000000000E+00  0.00000000000E+00  0.87730884839E+03  0.87730884840E+03  0.50400001928E-02 0.  1.
        1   -1    0    0  501    0  0.00000000000E+00  0.00000000000E+00 -0.82823054600E+03  0.82823054602E+03  0.50400001928E-02 0. -1.
    10030    2    1    2    0    0  0.00000000000E+00  0.00000000000E+00  0.49078302386E+02  0.17055393944E+04  0.17048331139E+04 0.  0.
        2    1    3    3  502    0  0.80818675904E+03  0.31768749234E+02 -0.24471709890E+03  0.84502162660E+03  0.25500000920E-02 0.  1.
       -2    1    3    3    0  502 -0.80818675904E+03 -0.31768749234E+02  0.29379540129E+03  0.86051776782E+03  0.25500000920E-02 0. -1.
</event>
<event>
 5   0  0.3915701E-04  0.1722182E+04  0.7818609E-02  0.8748813E-01
       -1   -1    0    0    0  501  0.00000000000E+00  0.00000000000E+00  0.16070110030E+04  0.16070110030E+04  0.50400001928E-02 0.  1.
        1   -1    0    0  501    0  0.00000000000E+00  0.00000000000E+00 -0.46140198062E+03  0.46140198065E+03  0.50400001928E-02 0. -1.
    10030    2    1    2    0    0  0.00000000000E+00  0.00000000000E+00  0.11456090224E+04  0.20684129836E+04  0.17221824058E+04 0.  0.
        2    1    3    3  502    0 -0.65357759317E+03 -0.21249731140E+03 -0.50302714944E+02  0.68909298413E+03  0.25500000920E-02 0. -1.
       -2    1    3    3    0  502  0.65357759317E+03  0.21249731140E+03  0.11959117373E+04  0.13793199995E+04  0.25500000920E-02 0.  1.
</event>
<event>
 5   0  0.7025426E-04  0.1694448E+04  0.7818609E-02  0.8764537E-01
        2   -1    0    0  501    0  0.00000000000E+00  0.00000000000E+00  0.12869443533E+04  0.12869443533E+04  0.25500000920E-02 0. -1.
       -2   -1    0    0    0  501  0.00000000000E+00  0.00000000000E+00 -0.55774661559E+03  0.55774661560E+03  0.25500000920E-02 0.  1.
    10030    2    1    2    0    0  0.00000000000E+00  0.00000000000E+00  0.72919773771E+03  0.18446909689E+04  0.16944484147E+04 0.  0.
        2    1    3    3  502    0  0.37933725899E+02 -0.57700888574E+03  0.10387035573E+04  0.11888159243E+04  0.25500000920E-02 0. -1.
       -2    1    3    3    0  502 -0.37933725899E+02  0.57700888574E+03 -0.30950581962E+03  0.65587504463E+03  0.25500000920E-02 0.  1.
</event>
<event>
 5   0  0.3713516E-04  0.1708639E+04  0.7818609E-02  0.8756452E-01
       -1   -1    0    0    0  501  0.00000000000E+00  0.00000000000E+00  0.87433940266E+03  0.87433940268E+03  0.50400001928E-02 0. -1.
        1   -1    0    0  501    0  0.00000000000E+00  0.00000000000E+00 -0.83475803181E+03  0.83475803182E+03  0.50400001928E-02 0.  1.
    10030    2    1    2    0    0  0.00000000000E+00  0.00000000000E+00  0.39581370851E+02  0.17090974345E+04  0.17086390361E+04 0.  0.
        5    1    3    3  502    0  0.35566826797E+03  0.61826541060E+03  0.49011648537E+03  0.86544109795E+03  0.46999998093E+01 0. -1.
       -5    1    3    3    0  502 -0.35566826797E+03 -0.61826541060E+03 -0.45053511452E+03  0.84365633655E+03  0.46999998093E+01 0.  1.
</event>
<event>
 5   0  0.3803253E-04  0.1712321E+04  0.7818609E-02  0.8754368E-01
       -1   -1    0    0    0  501  0.00000000000E+00  0.00000000000E+00  0.56056067917E+03  0.56056067920E+03  0.50400001928E-02 0. -1.
        1   -1    0    0  501    0  0.00000000000E+00  0.00000000000E+00 -0.13076393936E+04  0.13076393936E+04  0.50400001928E-02 0.  1.
    10030    2    1    2    0    0  0.00000000000E+00  0.00000000000E+00 -0.74707871442E+03  0.18682000728E+04  0.17123214962E+04 0.  0.
        4    1    3    3  502    0  0.33501677192E+03  0.22741321115E+03 -0.11965696326E+04  0.12632234579E+04  0.12699999809E+01 0.  1.
       -4    1    3    3    0  502 -0.33501677192E+03 -0.22741321115E+03  0.44949091820E+03  0.60497661486E+03  0.12699999809E+01 0. -1.
</event>
<event>
 5   0  0.3713516E-04  0.1705013E+04  0.7818609E-02  0.8758511E-01
       -1   -1    0    0    0  501  0.00000000000E+00  0.00000000000E+00  0.13028943590E+04  0.13028943590E+04  0.50400001928E-02 0.  1.
        1   -1    0    0  501    0  0.00000000000E+00  0.00000000000E+00 -0.55780972677E+03  0.55780972680E+03  0.50400001928E-02 0. -1.
    10030    2    1    2    0    0  0.00000000000E+00  0.00000000000E+00  0.74508463220E+03  0.18607040858E+04  0.17050127817E+04 0.  0.
        5    1    3    3  502    0  0.16672182468E+03 -0.35245596823E+02  0.12841040788E+04  0.12953701378E+04  0.46999998093E+01 0.  1.
       -5    1    3    3    0  502 -0.16672182468E+03  0.35245596823E+02 -0.53901944656E+03  0.56533394794E+03  0.46999998093E+01 0. -1.
</event>
<event>
 5   0  0.7025426E-04  0.1734225E+04  0.7818609E-02  0.8742082E-01
       -2   -1    0    0    0  501  0.00000000000E+00  0.00000000000E+00  0.64239867493E+03  0.64239867494E+03  0.25500000920E-02 0.  1.
        2   -1    0    0  501    0  0.00000000000E+00  0.00000000000E+00 -0.11704317753E+04  0.11704317753E+04  0.25500000920E-02 0. -1.
    10030    2    1    2    0    0  0.00000000000E+00  0.00000000000E+00 -0.52803310038E+03  0.18128304503E+04  0.17342246931E+04 0.  0.
        2    1    3    3  502    0  0.21317799187E+02 -0.47129960161E+03 -0.10245271197E+04  0.11279333234E+04  0.25500000920E-02 0. -1.
       -2    1    3    3    0  502 -0.21317799187E+02  0.47129960161E+03  0.49649401936E+03  0.68489712681E+03  0.25500000920E-02 0.  1.
</event>
<event>
 5   0  0.7025426E-04  0.1738249E+04  0.7818609E-02  0.8739845E-01
       -2   -1    0    0    0  501  0.00000000000E+00  0.00000000000E+00  0.85710916344E+03  0.85710916344E+03  0.25500000920E-02 0. -1.
        2   -1    0    0  501    0  0.00000000000E+00  0.00000000000E+00 -0.88130853406E+03  0.88130853406E+03  0.25500000920E-02 0.  1.
    10030    2    1    2    0    0  0.00000000000E+00  0.00000000000E+00 -0.24199370618E+02  0.17384176975E+04  0.17382492576E+04 0.  0.
        2    1    3    3  502    0 -0.86214714518E+02 -0.47681527307E+03  0.70949073623E+03  0.85916406258E+03  0.25500000920E-02 0. -1.
       -2    1    3    3    0  502  0.86214714518E+02  0.47681527307E+03 -0.73369010684E+03  0.87925363492E+03  0.25500000920E-02 0.  1.
</event>
<event>
 5   0  0.3723500E-04  0.1721086E+04  0.7818609E-02  0.8749429E-01
       -1   -1    0    0    0  501  0.00000000000E+00  0.00000000000E+00  0.76487931888E+03  0.76487931889E+03  0.50400001928E-02 0. -1.
        1   -1    0    0  501    0  0.00000000000E+00  0.00000000000E+00 -0.96817097131E+03  0.96817097132E+03  0.50400001928E-02 0.  1.
    10030    2    1    2    0    0  0.00000000000E+00  0.00000000000E+00 -0.20329165243E+03  0.17330502902E+04  0.17210856494E+04 0.  0.
        1    1    3    3  502    0  0.81963886805E+03  0.90011945977E+02  0.14628511004E+03  0.83744215196E+03  0.50400001928E-02 0.  1.
       -1    1    3    3    0  502 -0.81963886805E+03 -0.90011945977E+02 -0.34957676247E+03  0.89560813826E+03  0.50400001928E-02 0. -1.
</event>
<event>
 5   0  0.7242144E-04  0.1687221E+04  0.7818609E-02  0.8768686E-01
       -2   -1    0    0    0  501  0.00000000000E+00  0.00000000000E+00  0.61893112946E+03  0.61893112947E+03  0.25500000920E-02 0.  1.
        2   -1    0    0  501    0  0.00000000000E+00  0.00000000000E+00 -0.11498516074E+04  0.11498516074E+04  0.25500000920E-02 0. -1.
    10030    2    1    2    0    0  0.00000000000E+00  0.00000000000E+00 -0.53092047791E+03  0.17687827368E+04  0.16872213300E+04 0.  0.
        3    1    3    3  502    0  0.59981699662E+03 -0.11486884997E+02 -0.88723016665E+03  0.10710227620E+04  0.10100000352E+00 0. -1.
       -3    1    3    3    0  502 -0.59981699662E+03  0.11486884997E+02  0.35630968874E+03  0.69775997482E+03  0.10100000352E+00 0.  1.
</event>
<event>
 5   0  0.7242144E-04  0.1776740E+04  0.7818609E-02  0.8718768E-01
       -2   -1    0    0    0  501  0.00000000000E+00  0.00000000000E+00  0.54608581317E+03  0.54608581318E+03  0.25500000920E-02 0. -1.
        2   -1    0    0  501    0  0.00000000000E+00  0.00000000000E+00 -0.14451962383E+04  0.14451962383E+04  0.25500000920E-02 0.  1.
    10030    2    1    2    0    0  0.00000000000E+00  0.00000000000E+00 -0.89911042508E+03  0.19912820514E+04  0.17767398943E+04 0.  0.
        3    1    3    3  502    0 -0.62385460918E+03 -0.42489760930E+03 -0.97459851496E+03  0.12327103583E+04  0.10100000352E+00 0.  1.
       -3    1    3    3    0  502  0.62385460918E+03  0.42489760930E+03  0.75488089880E+02  0.75857169318E+03  0.10100000352E+00 0. -1.
</event>
<event>
 5   0  0.7049044E-04  0.1675038E+04  0.7818609E-02  0.8775730E-01
       -2   -1    0    0    0  501  0.00000000000E+00  0.00000000000E+00  0.42817443911E+03  0.42817443911E+03  0.25500000920E-02 0. -1.
        2   -1    0    0  501    0  0.00000000000E+00  0.00000000000E+00 -0.16382067084E+04  0.16382067084E+04  0.25500000920E-02 0.  1.
    10030    2    1    2    0    0  0.00000000000E+00  0.00000000000E+00 -0.12100322693E+04  0.20663811475E+04  0.16750381948E+04 0.  0.
        4    1    3    3  502    0 -0.59497475547E+02  0.57927382571E+03  0.13756337965E+03  0.59835057539E+03  0.12699999809E+01 0. -1.
       -4    1    3    3    0  502  0.59497475547E+02 -0.57927382571E+03 -0.13475956489E+04  0.14680305721E+04  0.12699999809E+01 0.  1.
</event>
<event>
 5   0  0.3803253E-04  0.1660328E+04  0.7818609E-02  0.8784320E-01
        1   -1    0    0  501    0  0.00000000000E+00  0.00000000000E+00  0.10837253804E+04  0.10837253804E+04  0.50400001928E-02 0.  1.
       -1   -1    0    0    0  501  0.00000000000E+00  0.00000000000E+00 -0.63592865968E+03  0.63592865970E+03  0.50400001928E-02 0. -1.
    10030    2    1    2    0    0  0.00000000000E+00  0.00000000000E+00  0.44779672074E+03  0.17196540401E+04  0.16603277130E+04 0.  0.
        4    1    3    3  502    0  0.13846144175E+03  0.38895833946E+03  0.96984830246E+03  0.10540718682E+04  0.12699999809E+01 0.  1.
       -4    1    3    3    0  502 -0.13846144175E+03 -0.38895833946E+03 -0.52205158172E+03  0.66558217191E+03  0.12699999809E+01 0. -1.
</event>
<event>
 5   0  0.3803253E-04  0.1685126E+04  0.7818609E-02  0.8769893E-01
       -1   -1    0    0    0  501  0.00000000000E+00  0.00000000000E+00  0.36735671881E+03  0.36735671885E+03  0.50400001928E-02 0. -1.
        1   -1    0    0  501    0  0.00000000000E+00  0.00000000000E+00 -0.19324887876E+04  0.19324887876E+04  0.50400001928E-02 0.  1.
    10030    2    1    2    0    0  0.00000000000E+00  0.00000000000E+00 -0.15651320688E+04  0.22998455065E+04  0.16851263931E+04 0.  0.
        4    1    3    3  502    0 -0.75171971890E+03  0.36972788537E+03 -0.65950847101E+03  0.10661774155E+04  0.12699999809E+01 0. -1.
       -4    1    3    3    0  502  0.75171971890E+03 -0.36972788537E+03 -0.90562359780E+03  0.12336680910E+04  0.12699999809E+01 0.  1.
</event>
<event>
 5   0  0.6746664E-04  0.1725086E+04  0.7818609E-02  0.8747185E-01
        2   -1    0    0  501    0  0.00000000000E+00  0.00000000000E+00  0.11031556467E+04  0.11031556467E+04  0.25500000920E-02 0. -1.
       -2   -1    0    0    0  501  0.00000000000E+00  0.00000000000E+00 -0.67441099473E+03  0.67441099473E+03  0.25500000920E-02 0.  1.
    10030    2    1    2    0    0  0.00000000000E+00  0.00000000000E+00  0.42874465196E+03  0.17775666414E+04  0.17250858495E+04 0.  0.
        5    1    3    3  502    0 -0.70742878892E+02  0.21392081599E+03  0.10722824731E+04  0.10957091140E+04  0.46999998093E+01 0. -1.
       -5    1    3    3    0  502  0.70742878892E+02 -0.21392081599E+03 -0.64353782115E+03  0.68185752740E+03  0.46999998093E+01 0.  1.
</event>
<event>
 5   0  0.3803253E-04  0.1705095E+04  0.7818609E-02  0.8758464E-01
        1   -1    0    0  501    0  0.00000000000E+00  0.00000000000E+00  0.76769250079E+03  0.76769250080E+03  0.50400001928E-02 0.  1.
       -1   -1    0    0    0  501  0.00000000000E+00  0.00000000000E+00 -0.94678143797E+03  0.94678143799E+03  0.50400001928E-02 0. -1.
    10030    2    1    2    0    0  0.00000000000E+00  0.00000000000E+00 -0.17908893719E+03  0.17144739388E+04  0.17050947303E+04 0.  0.
        4    1    3    3  502    0  0.54711351972E+01 -0.56312728531E+02  0.76580178957E+03  0.76788999897E+03  0.12699999809E+01 0.  1.
       -4    1    3    3    0  502 -0.54711351972E+01  0.56312728531E+02 -0.94489072675E+03  0.94658393982E+03  0.12699999809E+01 0. -1.
</event>
<event>
 5   0  0.7242144E-04  0.1697619E+04  0.7818609E-02  0.8762723E-01
        2   -1    0    0  501    0  0.00000000000E+00  0.00000000000E+00  0.16582803871E+04  0.16582803871E+04  0.25500000920E-02 0. -1.
       -2   -1    0    0    0  501  0.00000000000E+00  0.00000000000E+00 -0.43447271982E+03  0.43447271983E+03  0.25500000920E-02 0.  1.
    10030    2    1    2    0    0  0.00000000000E+00  0.00000000000E+00  0.12238076672E+04  0.20927531069E+04  0.16976190268E+04 0.  0.
        3    1    3    3  502    0  0.40253141747E+03 -0.35420601194E+03  0.14230773348E+04  0.15207375026E+04  0.10100000352E+00 0. -1.
       -3    1    3    3    0  502 -0.40253141747E+03  0.35420601194E+03 -0.19926966751E+03  0.57201560428E+03  0.10100000352E+00 0.  1.
</event>
<event>
 5   0  0.7242144E-04  0.1472250E+04  0.7818609E-02  0.8903119E-01
        2   -1    0    0  501    0  0.00000000000E+00  0.00000000000E+00  0.10597103819E+04  0.10597103819E+04  0.25500000920E-02 0.  1.
       -2   -1    0    0    0  501  0.00000000000E+00  0.00000000000E+00 -0.51134708079E+03  0.51134708080E+03  0.25500000920E-02 0. -1.
    10030    2    1    2    0    0  0.00000000000E+00  0.00000000000E+00  0.54836330110E+03  0.15710574627E+04  0.14722497210E+04 0.  0.
        3    1    3    3  502    0  0.43681534800E+03  0.72774408320E+02 -0.35331012180E+03  0.56650844223E+03  0.10100000352E+00 0. -1.
       -3    1    3    3    0  502 -0.43681534800E+03 -0.72774408320E+02  0.90167342290E+03  0.10045490205E+04  0.10100000352E+00 0.  1.
</event>
<event>
 5   0  0.3803253E-04  0.1686329E+04  0.7818609E-02  0.8769200E-01
       -1   -1    0    0    0  501  0.00000000000E+00  0.00000000000E+00  0.61650896437E+03  0.61650896439E+03  0.50400001928E-02 0.  1.
        1   -1    0    0  501    0  0.00000000000E+00  0.00000000000E+00 -0.11531486580E+04  0.11531486580E+04  0.50400001928E-02 0. -1.
    10030    2    1    2    0    0  0.00000000000E+00  0.00000000000E+00 -0.53663969366E+03  0.17696576224E+04  0.16863291315E+04 0.  0.
        4    1    3    3  502    0  0.35213354288E+02 -0.50618662871E+03  0.43834973035E+03  0.67053484801E+03  0.12699999809E+01 0.  1.
       -4    1    3    3    0  502 -0.35213354288E+02  0.50618662871E+03 -0.97498942401E+03  0.10991227744E+04  0.12699999809E+01 0. -1.
</event>
<event>
 5   0  0.3635143E-04  0.1691445E+04  0.7818609E-02  0.8766258E-01
       -1   -1    0    0    0  501  0.00000000000E+00  0.00000000000E+00  0.74129172265E+03  0.74129172267E+03  0.50400001928E-02 0.  1.
        1   -1    0    0  501    0  0.00000000000E+00  0.00000000000E+00 -0.96486561096E+03  0.96486561098E+03  0.50400001928E-02 0. -1.
    10030    2    1    2    0    0  0.00000000000E+00  0.00000000000E+00 -0.22357388831E+03  0.17061573336E+04  0.16914454066E+04 0.  0.
        3    1    3    3  502    0  0.28648363840E+03 -0.52888301291E+03  0.48790641684E+03  0.77449518928E+03  0.10100000352E+00 0.  1.
       -3    1    3    3    0  502 -0.28648363840E+03  0.52888301291E+03 -0.71148030515E+03  0.93166214436E+03  0.10100000352E+00 0. -1.
</event>
<event>
 5   0  0.3803253E-04  0.1705588E+04  0.7818609E-02  0.8758183E-01
        1   -1    0    0  501    0  0.00000000000E+00  0.00000000000E+00  0.21481819979E+04  0.21481819979E+04  0.50400001928E-02 0. -1.
       -1   -1    0    0    0  501  0.00000000000E+00  0.00000000000E+00 -0.33854578873E+03  0.33854578877E+03  0.50400001928E-02 0.  1.
    10030    2    1    2    0    0  0.00000000000E+00  0.00000000000E+00  0.18096362092E+04  0.24867277867E+04  0.17055884250E+04 0.  0.
        4    1    3    3  502    0  0.57177027341E+03 -0.56391112686E+03  0.13231854005E+04  0.15478172443E+04  0.12699999809E+01 0.  1.
       -4    1    3    3    0  502 -0.57177027341E+03  0.56391112686E+03  0.48645080867E+03  0.93891054244E+03  0.12699999809E+01 0. -1.
</event>
<event>
 5   0  0.6746664E-04  0.1692334E+04  0.7818609E-02  0.8765749E-01
        2   -1    0    0  501    0  0.00000000000E+00  0.00000000000E+00  0.15608829524E+04  0.15608829524E+04  0.25500000920E-02 0.  1.
       -2   -1    0    0    0  501  0.00000000000E+00  0.00000000000E+00 -0.45871361571E+03  0.45871361571E+03  0.25500000920E-02 0. -1.
    10030    2    1    2    0    0  0.00000000000E+00  0.00000000000E+00  0.11021693367E+04  0.20195965682E+04  0.16923336111E+04 0.  0.
        5    1    3    3  502    0 -0.13132335842E+03 -0.74821836081E+03  0.99584822352E+03  0.12525223807E+04  0.46999998093E+01 0. -1.
       -5    1    3    3    0  502  0.13132335842E+03  0.74821836081E+03  0.10632111321E+03  0.76707418743E+03  0.46999998093E+01 0.  1.
</event>
<event>
 5   0  0.3803253E-04  0.1714892E+04  0.7818609E-02  0.8752916E-01
       -1   -1    0    0    0  501  0.00000000000E+00  0.00000000000E+00  0.11649222308E+04  0.11649222308E+04  0.50400001928E-02 0.  1.
        1   -1    0    0  501    0  0.00000000000E+00  0.00000000000E+00 -0.63112709522E+03  0.63112709524E+03  0.50400001928E-02 0. -1.
    10030    2    1    2    0    0  0.00000000000E+00  0.00000000000E+00  0.53379513554E+03  0.17960493260E+04  0.17148923974E+04 0.  0.
        4    1    3    3  502    0 -0.15784549895E+02  0.12671209022E+03 -0.62111235973E+03  0.63410352635E+03  0.12699999809E+01 0. -1.
       -4    1    3    3    0  502  0.15784549895E+02 -0.12671209022E+03  0.11549074953E+04  0.11619457997E+04  0.12699999809E+01 0.  1.
</event>
<event>
 5   0  0.2639750E-04  0.1678222E+04  0.7818609E-02  0.8773883E-01
       -3   -1    0    0    0  501  0.00000000000E+00  0.00000000000E+00  0.33127538446E+03  0.33127539985E+03  0.10100000352E+00 0.  1.
        3   -1    0    0  501    0  0.00000000000E+00  0.00000000000E+00 -0.21254442810E+04  0.21254442834E+04  0.10100000352E+00 0. -1.
    10030    2    1    2    0    0  0.00000000000E+00  0.00000000000E+00 -0.17941688965E+04  0.24567196832E+04  0.16782221464E+04 0.  0.
        3    1    3    3  502    0  0.39325275276E+03  0.71771919169E+03 -0.62581628673E+03  0.10302497758E+04  0.10100000352E+00 0.  1.
       -3    1    3    3    0  502 -0.39325275276E+03 -0.71771919169E+03 -0.11683526098E+04  0.14264699074E+04  0.10100000352E+00 0. -1.
</event>
<event>
 5   0  0.3915701E-04  0.1685251E+04  0.7818609E-02  0.8769821E-01
       -1   -1    0    0    0  501  0.00000000000E+00  0.00000000000E+00  0.51312985956E+03  0.51312985959E+03  0.50400001928E-02 0. -1.
        1   -1    0    0  501    0  0.00000000000E+00  0.00000000000E+00 -0.13837007108E+04  0.13837007108E+04  0.50400001928E-02 0.  1.
    10030    2    1    2    0    0  0.00000000000E+00  0.00000000000E+00 -0.87057085119E+03  0.18968305704E+04  0.16852514963E+04 0.  0.
        2    1    3    3  502    0  0.79112288545E+03 -0.27197459093E+03 -0.54880710528E+03  0.10005172846E+04  0.25500000920E-02 0.  1.
       -2    1    3    3    0  502 -0.79112288545E+03  0.27197459093E+03 -0.32176374591E+03  0.89631328574E+03  0.25500000920E-02 0. -1.
</event>
<event>
 5   0  0.3713516E-04  0.1679232E+04  0.7818609E-02  0.8773298E-01
        1   -1    0    0  501    0  0.00000000000E+00  0.00000000000E+00  0.12416116242E+04  0.12416116242E+04  0.50400001928E-02 0. -1.
       -1   -1    0    0    0  501  0.00000000000E+00  0.00000000000E+00 -0.56777434344E+03  0.56777434346E+03  0.50400001928E-02 0.  1.
    10030    2    1    2    0    0  0.00000000000E+00  0.00000000000E+00  0.67383728077E+03  0.18093859677E+04  0.16792322350E+04 0.  0.
        5    1    3    3  502    0  0.75653981005E+03 -0.22958405352E+03  0.64143962583E+03  0.10181002924E+04  0.46999998093E+01 0. -1.
       -5    1    3    3    0  502 -0.75653981005E+03  0.22958405352E+03  0.32397654935E+02  0.79128567526E+03  0.46999998093E+01 0.  1.
</event>
<event>
 5   0  0.7025426E-04  0.1713027E+04  0.7818609E-02  0.8753969E-01
        2   -1    0    0  501    0  0.00000000000E+00  0.00000000000E+00  0.78713373651E+03  0.78713373651E+03  0.25500000920E-02 0.  1.
       -2   -1    0    0    0  501  0.00000000000E+00  0.00000000000E+00 -0.93200814948E+03  0.93200814948E+03  0.25500000920E-02 0. -1.
    10030    2    1    2    0    0  0.00000000000E+00  0.00000000000E+00 -0.14487441297E+03  0.17191418860E+04  0.17130266281E+04 0.  0.
        2    1    3    3  502    0  0.63536984456E+03  0.17896104063E+03  0.47530710545E+03  0.81341178866E+03  0.25500000920E-02 0.  1.
       -2    1    3    3    0  502 -0.63536984456E+03 -0.17896104063E+03 -0.62018151842E+03  0.90573009734E+03  0.25500000920E-02 0. -1.
</event>
<event>
 5   0  0.7049044E-04  0.1562262E+04  0.7818609E-02  0.8844073E-01
        2   -1    0    0  501    0  0.00000000000E+00  0.00000000000E+00  0.83871506634E+03  0.83871506634E+03  0.25500000920E-02 0.  1.
       -2   -1    0    0    0  501  0.00000000000E+00  0.00000000000E+00 -0.72750020139E+03  0.72750020139E+03  0.25500000920E-02 0. -1.
    10030    2    1    2    0    0  0.00000000000E+00  0.00000000000E+00  0.11121486495E+03  0.15662152677E+04  0.15622616678E+04 0.  0.
        4    1    3    3  502    0  0.57740672434E+03 -0.10997066228E+03  0.57137190776E+03  0.81973138390E+03  0.12699999809E+01 0. -1.
       -4    1    3    3    0  502 -0.57740672434E+03  0.10997066228E+03 -0.46015704281E+03  0.74648388383E+03  0.12699999809E+01 0.  1.
</event>
<event>
 5   0  0.7242144E-04  0.1729243E+04  0.7818609E-02  0.8744859E-01
       -2   -1    0    0    0  501  0.00000000000E+00  0.00000000000E+00  0.30646782382E+03  0.30646782383E+03  0.25500000920E-02 0. -1.
        2   -1    0    0  501    0  0.00000000000E+00  0.00000000000E+00 -0.24393119342E+04  0.24393119342E+04  0.25500000920E-02 0.  1.
    10030    2    1    2    0    0  0.00000000000E+00  0.00000000000E+00 -0.21328441104E+04  0.27457797580E+04  0.17292433260E+04 0.  0.
        3    1    3    3  502    0 -0.57832189016E+03  0.17362440663E+03 -0.83788970761E+02  0.60960827179E+03  0.10100000352E+00 0. -1.
       -3    1    3    3    0  502  0.57832189016E+03 -0.17362440663E+03 -0.20490551396E+04  0.21361714862E+04  0.10100000352E+00 0.  1.
</event>
<event>
 5   0  0.3803253E-04  0.1720509E+04  0.7818609E-02  0.8749753E-01
        1   -1    0    0  501    0  0.00000000000E+00  0.00000000000E+00  0.10830260865E+04  0.10830260865E+04  0.50400001928E-02 0. -1.
       -1   -1    0    0    0  501  0.00000000000E+00  0.00000000000E+00 -0.68330545338E+03  0.68330545340E+03  0.50400001928E-02 0.  1.
    10030    2    1    2    0    0  0.00000000000E+00  0.00000000000E+00  0.39972063310E+03  0.17663315399E+04  0.17205087981E+04 0.  0.
        4    1    3    3  502    0  0.15873317942E+03 -0.64282301226E+03  0.76368517682E+03  0.10107592738E+04  0.12699999809E+01 0. -1.
       -4    1    3    3    0  502 -0.15873317942E+03  0.64282301226E+03 -0.36396454372E+03  0.75557226611E+03  0.12699999809E+01 0.  1.
</event>
<event>
 5   0  0.3635143E-04  0.1704144E+04  0.7818609E-02  0.8759004E-01
        1   -1    0    0  501    0  0.00000000000E+00  0.00000000000E+00  0.74669647265E+03  0.74669647266E+03  0.50400001928E-02 0.  1.
       -1   -1    0    0    0  501  0.00000000000E+00  0.00000000000E+00 -0.97231866080E+03  0.97231866081E+03  0.50400001928E-02 0. -1.
    10030    2    1    2    0    0  0.00000000000E+00  0.00000000000E+00 -0.22562218816E+03  0.17190151335E+04  0.17041442595E+04 0.  0.
        3    1    3    3  502    0  0.85284233902E+02  0.18265983195E+03  0.72229542524E+03  0.74989913074E+03  0.10100000352E+00 0.  1.
       -3    1    3    3    0  502 -0.85284233902E+02 -0.18265983195E+03 -0.94791761340E+03  0.96911600273E+03  0.10100000352E+00 0. -1.
</event>
<event>
 5   0  0.3713516E-04  0.1650249E+04  0.7818609E-02  0.8790259E-01
       -1   -1    0    0    0  501  0.00000000000E+00  0.00000000000E+00  0.39535764025E+03  0.39535764028E+03  0.50400001928E-02 0.  1.
        1   -1    0    0  501    0  0.00000000000E+00  0.00000000000E+00 -0.17220630763E+04  0.17220630763E+04  0.50400001928E-02 0. -1.
    10030    2    1    2    0    0  0.00000000000E+00  0.00000000000E+00 -0.13267054360E+04  0.21174207165E+04  0.16502494287E+04 0.  0.
        5    1    3    3  502    0  0.81732132096E+03  0.11185608608E+03 -0.64177622817E+03  0.10451912470E+04  0.46999998093E+01 0.  1.
       -5    1    3    3    0  502 -0.81732132096E+03 -0.11185608608E+03 -0.68492920783E+03  0.10722294696E+04  0.46999998093E+01 0. -1.
</event>
<event>
 5   0  0.3713516E-04  0.1940144E+04  0.7818609E-02  0.8635128E-01
       -1   -1    0    0    0  501  0.00000000000E+00  0.00000000000E+00  0.10115604465E+04  0.10115604465E+04  0.50400001928E-02 0. -1.
        1   -1    0    0  501    0  0.00000000000E+00  0.00000000000E+00 -0.93028552205E+03  0.93028552207E+03  0.50400001928E-02 0.  1.
    10030    2    1    2    0    0  0.00000000000E+00  0.00000000000E+00  0.81274924399E+02  0.19418459685E+04  0.19401443637E+04 0.  0.
        5    1    3    3  502    0 -0.15568283054E+03 -0.95743552101E+03  0.30727898540E+02  0.97050822478E+03  0.46999998093E+01 0. -1.
       -5    1    3    3    0  502  0.15568283054E+03  0.95743552101E+03  0.50547025859E+02  0.97133774375E+03  0.46999998093E+01 0.  1.
</event>
<event>
 5   0  0.7025426E-04  0.1667167E+04  0.7818609E-02  0.8780315E-01
       -2   -1    0    0    0  501  0.00000000000E+00  0.00000000000E+00  0.58314728135E+03  0.58314728135E+03  0.25500000920E-02 0. -1.
        2   -1    0    0  501    0  0.00000000000E+00  0.00000000000E+00 -0.11915712601E+04  0.11915712601E+04  0.25500000920E-02 0.  1.
    10030    2    1    2    0    0  0.00000000000E+00  0.00000000000E+00 -0.60842397875E+03  0.17747185415E+04  0.16671671072E+04 0.  0.
        2    1    3    3  502    0 -0.54539155603E+03  0.51619216093E+03 -0.68943462764E+03  0.10194245446E+04  0.25500000920E-02 0.  1.
       -2    1    3    3    0  502  0.54539155603E+03 -0.51619216093E+03  0.81010648888E+02  0.75529399682E+03  0.25500000920E-02 0. -1.
</event>
<event>
 5   0  0.7025426E-04  0.1710873E+04  0.7818609E-02  0.8755187E-01
        2   -1    0    0  501    0  0.00000000000E+00  0.00000000000E+00  0.57775941444E+03  0.57775941445E+03  0.25500000920E-02 0. -1.
       -2   -1    0    0    0  501  0.00000000000E+00  0.00000000000E+00 -0.12665683559E+04  0.12665683559E+04  0.25500000920E-02 0.  1.
    10030    2    1    2    0    0  0.00000000000E+00  0.00000000000E+00 -0.68880894143E+03  0.18443277703E+04  0.17108732176E+04 0.  0.
        2    1    3    3  502    0 -0.78585439530E+03  0.33718223729E+03 -0.31999298339E+03  0.91304682310E+03  0.25500000920E-02 0.  1.
       -2    1    3    3    0  502  0.78585439530E+03 -0.33718223729E+03 -0.36881595805E+03  0.93128094723E+03  0.25500000920E-02 0. -1.
</event>
<event>
 5   0  0.3635143E-04  0.1704760E+04  0.7818609E-02  0.8758654E-01
        1   -1    0    0  501    0  0.00000000000E+00  0.00000000000E+00  0.19562765329E+04  0.19562765329E+04  0.50400001928E-02 0.  1.
       -1   -1    0    0    0  501  0.00000000000E+00  0.00000000000E+00 -0.37139509787E+03  0.37139509790E+03  0.50400001928E-02 0. -1.
    10030    2    1    2    0    0  0.00000000000E+00  0.00000000000E+00  0.15848814350E+04  0.23276716308E+04  0.17047598241E+04 0.  0.
        3    1    3    3  502    0  0.76741755587E+03  0.28561316943E+03  0.46919381327E+03  0.94374118922E+03  0.10100000352E+00 0. -1.
       -3    1    3    3    0  502 -0.76741755587E+03 -0.28561316943E+03  0.11156876217E+04  0.13839304416E+04  0.10100000352E+00 0.  1.
</event>
<event>
 5   0  0.3723500E-04  0.1544618E+04  0.7818609E-02  0.8855313E-01
        1   -1    0    0  501    0  0.00000000000E+00  0.00000000000E+00  0.13058926342E+04  0.13058926342E+04  0.50400001928E-02 0.  1.
       -1   -1    0    0    0  501  0.00000000000E+00  0.00000000000E+00 -0.45674618446E+03  0.45674618448E+03  0.50400001928E-02 0. -1.
    10030    2    1    2    0    0  0.00000000000E+00  0.00000000000E+00  0.84914644978E+03  0.17626388187E+04  0.15446183710E+04 0.  0.
        1    1    3    3  502    0  0.37807924943E+03  0.57131233032E+03  0.83143669747E+03  0.10773247790E+04  0.50400001928E-02 0. -1.
       -1    1    3    3    0  502 -0.37807924943E+03 -0.57131233032E+03  0.17709752310E+02  0.68531403968E+03  0.50400001928E-02 0.  1.
</event>
<event>
 5   0  0.7233728E-04  0.1730425E+04  0.7818609E-02  0.8744199E-01
        2   -1    0    0  501    0  0.00000000000E+00  0.00000000000E+00  0.72290937294E+03  0.72290937294E+03  0.25500000920E-02 0.  1.
       -2   -1    0    0    0  501  0.00000000000E+00  0.00000000000E+00 -0.10355282824E+04  0.10355282824E+04  0.25500000920E-02 0. -1.
    10030    2    1    2    0    0  0.00000000000E+00  0.00000000000E+00 -0.31261890944E+03  0.17584376553E+04  0.17304254983E+04 0.  0.
        1    1    3    3  502    0 -0.74097330752E+03 -0.80454800646E+02 -0.60282978174E+03  0.95860219235E+03  0.50400001928E-02 0. -1.
       -1    1    3    3    0  502  0.74097330752E+03  0.80454800646E+02  0.29021087230E+03  0.79983546297E+03  0.50400001928E-02 0.  1.
</event>
<event>
 5   0  0.6746664E-04  0.1693099E+04  0.7818609E-02  0.8765310E-01
        2   -1    0    0  501    0  0.00000000000E+00  0.00000000000E+00  0.64731917997E+03  0.64731917997E+03  0.25500000920E-02 0.  1.
       -2   -1    0    0    0  501  0.00000000000E+00  0.00000000000E+00 -0.11070985157E+04  0.11070985157E+04  0.25500000920E-02 0. -1.
    10030    2    1    2    0    0  0.00000000000E+00  0.00000000000E+00 -0.45977933570E+03  0.17544176956E+04  0.16930990559E+04 0.  0.
        5    1    3    3  502    0 -0.65467996298E+03 -0.38298918920E+03 -0.61945405001E+03  0.97930178343E+03  0.46999998093E+01 0.  1.
       -5    1    3    3    0  502  0.65467996298E+03  0.38298918920E+03  0.15967471431E+03  0.77511591221E+03  0.46999998093E+01 0. -1.
</event>
<event>
 5   0  0.3915701E-04  0.1675964E+04  0.7818609E-02  0.8775193E-01
        1   -1    0    0  501    0  0.00000000000E+00  0.00000000000E+00  0.13214499284E+04  0.13214499284E+04  0.50400001928E-02 0. -1.
       -1   -1    0    0    0  501  0.00000000000E+00  0.00000000000E+00 -0.53139616649E+03  0.53139616652E+03  0.50400001928E-02 0.  1.
    10030    2    1    2    0    0  0.00000000000E+00  0.00000000000E+00  0.79005376188E+03  0.18528460949E+04  0.16759635153E+04 0.  0.
        2    1    3    3  502    0 -0.59906008446E+03 -0.51816598519E+03  0.69747758254E+03  0.10553880571E+04  0.25500000920E-02 0. -1.
       -2    1    3    3    0  502  0.59906008446E+03  0.51816598519E+03  0.92576179341E+02  0.79745803776E+03  0.25500000920E-02 0.  1.
</event>
<event>
 5   0  0.3915701E-04  0.1731489E+04  0.7818609E-02  0.8743606E-01
       -1   -1    0    0    0  501  0.00000000000E+00  0.00000000000E+00  0.59958404601E+03  0.59958404603E+03  0.50400001928E-02 0. -1.
        1   -1    0    0  501    0  0.00000000000E+00  0.00000000000E+00 -0.12500564518E+04  0.12500564518E+04  0.50400001928E-02 0.  1.
    10030    2    1    2    0    0  0.00000000000E+00  0.00000000000E+00 -0.65047240581E+03  0.18496404979E+04  0.17314894226E+04 0.  0.
        2    1    3    3  502    0 -0.58499936893E+03 -0.45294534811E+03  0.15503111889E+03  0.75592221680E+03  0.25500000920E-02 0. -1.
       -2    1    3    3    0  502  0.58499936893E+03  0.45294534811E+03 -0.80550352470E+03  0.10937182811E+04  0.25500000920E-02 0.  1.
</event>
<event>
 5   0  0.3635143E-04  0.1762433E+04  0.7818609E-02  0.8726536E-01
        1   -1    0    0  501    0  0.00000000000E+00  0.00000000000E+00  0.12179025456E+04  0.12179025456E+04  0.50400001928E-02 0. -1.
       -1   -1    0    0    0  501  0.00000000000E+00  0.00000000000E+00 -0.63760629616E+03  0.63760629618E+03  0.50400001928E-02 0.  1.
    10030    2    1    2    0    0  0.00000000000E+00  0.00000000000E+00  0.58029624940E+03  0.18555088418E+04  0.17624327859E+04 0.  0.
        3    1    3    3  502    0  0.11283887315E+03 -0.75638631900E+03 -0.17079736116E+03  0.78359723305E+03  0.10100000352E+00 0.  1.
       -3    1    3    3    0  502 -0.11283887315E+03  0.75638631900E+03  0.75109361056E+03  0.10719116087E+04  0.10100000352E+00 0. -1.
</event>
<event>
 5   0  0.7242144E-04  0.1714061E+04  0.7818609E-02  0.8753385E-01
       -2   -1    0    0    0  501  0.00000000000E+00  0.00000000000E+00  0.43450948758E+03  0.43450948759E+03  0.25500000920E-02 0. -1.
        2   -1    0    0  501    0  0.00000000000E+00  0.00000000000E+00 -0.16904151695E+04  0.16904151695E+04  0.25500000920E-02 0.  1.
    10030    2    1    2    0    0  0.00000000000E+00  0.00000000000E+00 -0.12559056820E+04  0.21249246571E+04  0.17140611764E+04 0.  0.
        3    1    3    3  502    0 -0.34487304516E+03 -0.45005949155E+03  0.16875252260E+03  0.59158126010E+03  0.10100000352E+00 0. -1.
       -3    1    3    3    0  502  0.34487304516E+03  0.45005949155E+03 -0.14246582046E+04  0.15333433970E+04  0.10100000352E+00 0.  1.
</event>
<event>
 5   0  0.3713516E-04  0.1623064E+04  0.7818609E-02  0.8806503E-01
        1   -1    0    0  501    0  0.00000000000E+00  0.00000000000E+00  0.63423230407E+03  0.63423230409E+03  0.50400001928E-02 0.  1.
       -1   -1    0    0    0  501  0.00000000000E+00  0.00000000000E+00 -0.10383960192E+04  0.10383960192E+04  0.50400001928E-02 0. -1.
    10030    2    1    2    0    0  0.00000000000E+00  0.00000000000E+00 -0.40416371515E+03  0.16726283233E+04  0.16230641390E+04 0.  0.
        5    1    3    3  502    0  0.84966566695E+01 -0.17130791537E+03  0.61532572291E+03  0.63880077514E+03  0.46999998093E+01 0.  1.
       -5    1    3    3    0  502 -0.84966566695E+01  0.17130791537E+03 -0.10194894381E+04  0.10338275482E+04  0.46999998093E+01 0. -1.
</event>
<event>
 5   0  0.3915701E-04  0.1680837E+04  0.7818609E-02  0.8772370E-01
       -1   -1    0    0    0  501  0.00000000000E+00  0.00000000000E+00  0.58806211306E+03  0.58806211308E+03  0.50400001928E-02 0. -1.
        1   -1    0    0  501    0  0.00000000000E+00  0.00000000000E+00 -0.12010689003E+04  0.12010689003E+04  0.50400001928E-02 0.  1.
    10030    2    1    2    0    0  0.00000000000E+00  0.00000000000E+00 -0.61300678724E+03  0.17891310134E+04  0.16808368338E+04 0.  0.
        2    1    3    3  502    0 -0.11067373678E+03 -0.48864219464E+03 -0.10247232726E+04  0.11406479105E+04  0.25500000920E-02 0.  1.
       -2    1    3    3    0  502  0.11067373678E+03  0.48864219464E+03  0.41171648535E+03  0.64848310287E+03  0.25500000920E-02 0. -1.
</event>
<event>
 5   0  0.7242144E-04  0.1677859E+04  0.7818609E-02  0.8774094E-01
       -2   -1    0    0    0  501  0.00000000000E+00  0.00000000000E+00  0.69909078739E+03  0.69909078739E+03  0.25500000920E-02 0. -1.
        2   -1    0    0  501    0  0.00000000000E+00  0.00000000000E+00 -0.10067395751E+04  0.10067395751E+04  0.25500000920E-02 0.  1.
    10030    2    1    2    0    0  0.00000000000E+00  0.00000000000E+00 -0.30764878768E+03  0.17058303625E+04  0.16778585903E+04 0.  0.
        3    1    3    3  502    0 -0.79463070730E+03  0.86920770669E+02  0.10499613280E+03  0.80623655304E+03  0.10100000352E+00 0. -1.
       -3    1    3    3    0  502  0.79463070730E+03 -0.86920770669E+02 -0.41264492048E+03  0.89959380942E+03  0.10100000352E+00 0.  1.
</event>
<event>
 5   0  0.6746664E-04  0.1696109E+04  0.7818609E-02  0.8763587E-01
        2   -1    0    0  501    0  0.00000000000E+00  0.00000000000E+00  0.17836523061E+04  0.17836523061E+04  0.25500000920E-02 0. -1.
       -2   -1    0    0    0  501  0.00000000000E+00  0.00000000000E+00 -0.40321561604E+03  0.40321561604E+03  0.25500000920E-02 0.  1.
    10030    2    1    2    0    0  0.00000000000E+00  0.00000000000E+00  0.13804366900E+04  0.21868679221E+04  0.16961090335E+04 0.  0.
        5    1    3    3  502    0  0.16819161140E+03  0.50945472952E+01  0.17618951014E+04  0.17699183063E+04  0.46999998093E+01 0. -1.
       -5    1    3    3    0  502 -0.16819161140E+03 -0.50945472952E+01 -0.38145841136E+03  0.41694961584E+03  0.46999998093E+01 0.  1.
</event>
<event>
 5   0  0.6746664E-04  0.1634223E+04  0.7818609E-02  0.8799795E-01
       -2   -1    0    0    0  501  0.00000000000E+00  0.00000000000E+00  0.90505781843E+03  0.90505781844E+03  0.25500000920E-02 0. -1.
        2   -1    0    0  501    0  0.00000000000E+00  0.00000000000E+00 -0.73771150647E+03  0.73771150647E+03  0.25500000920E-02 0.  1.
    10030    2    1    2    0    0  0.00000000000E+00  0.00000000000E+00  0.16734631197E+03  0.16427693249E+04  0.16342234446E+04 0.  0.
        5    1    3    3  502    0  0.27261927116E+03 -0.31592898310E+02 -0.68998133127E+03  0.74257370390E+03  0.46999998093E+01 0.  1.
       -5    1    3    3    0  502 -0.27261927116E+03  0.31592898310E+02  0.85732764324E+03  0.90019562101E+03  0.46999998093E+01 0. -1.
</event>
<event>
 5   0  0.6746664E-04  0.1538416E+04  0.7818609E-02  0.8859301E-01
       -2   -1    0    0    0  501  0.00000000000E+00  0.00000000000E+00  0.80053074403E+03  0.80053074404E+03  0.25500000920E-02 0.  1.
        2   -1    0    0  501    0  0.00000000000E+00  0.00000000000E+00 -0.73911048174E+03  0.73911048175E+03  0.25500000920E-02 0. -1.
    10030    2    1    2    0    0  0.00000000000E+00  0.00000000000E+00  0.61420262290E+02  0.15396412258E+04  0.15384156316E+04 0.  0.
        5    1    3    3  502    0 -0.20253106127E+02 -0.17869204965E+02  0.80004165347E+03  0.80051123295E+03  0.46999998093E+01 0.  1.
       -5    1    3    3    0  502  0.20253106127E+02  0.17869204965E+02 -0.73862139118E+03  0.73912999283E+03  0.46999998093E+01 0. -1.
</event>
<event>
 5   0  0.7025426E-04  0.1705192E+04  0.7818609E-02  0.8758409E-01
        2   -1    0    0  501    0  0.00000000000E+00  0.00000000000E+00  0.12243029172E+04  0.12243029172E+04  0.25500000920E-02 0. -1.
       -2   -1    0    0    0  501  0.00000000000E+00  0.00000000000E+00 -0.59374169661E+03  0.59374169662E+03  0.25500000920E-02 0.  1.
    10030    2    1    2    0    0  0.00000000000E+00  0.00000000000E+00  0.63056122056E+03  0.18180446138E+04  0.17051917091E+04 0.  0.
        2    1    3    3  502    0 -0.68136053724E+03 -0.25016437186E+03  0.79219333659E+03  0.10744322581E+04  0.25500000920E-02 0. -1.
       -2    1    3    3    0  502  0.68136053724E+03  0.25016437186E+03 -0.16163211602E+03  0.74361235573E+03  0.25500000920E-02 0.  1.
</event>
<event>
 5   0  0.7049044E-04  0.1698258E+04  0.7818609E-02  0.8762358E-01
        2   -1    0    0  501    0  0.00000000000E+00  0.00000000000E+00  0.21172848485E+04  0.21172848485E+04  0.25500000920E-02 0.  1.
       -2   -1    0    0    0  501  0.00000000000E+00  0.00000000000E+00 -0.34053996065E+03  0.34053996066E+03  0.25500000920E-02 0. -1.
    10030    2    1    2    0    0  0.00000000000E+00  0.00000000000E+00  0.17767448878E+04  0.24578248091E+04  0.16982580475E+04 0.  0.
        4    1    3    3  502    0  0.29809165302E+03 -0.66276914177E+03  0.15240104928E+04  0.16884108398E+04  0.12699999809E+01 0.  1.
       -4    1    3    3    0  502 -0.29809165302E+03  0.66276914177E+03  0.25273439501E+03  0.76941396933E+03  0.12699999809E+01 0. -1.
</event>
<event>
 5   0  0.7242144E-04  0.1685241E+04  0.7818609E-02  0.8769827E-01
        2   -1    0    0  501    0  0.00000000000E+00  0.00000000000E+00  0.72943624202E+03  0.72943624202E+03  0.25500000920E-02 0. -1.
       -2   -1    0    0    0  501  0.00000000000E+00  0.00000000000E+00 -0.97336754542E+03  0.97336754542E+03  0.25500000920E-02 0.  1.
    10030    2    1    2    0    0  0.00000000000E+00  0.00000000000E+00 -0.24393130340E+03  0.17028037874E+04  0.16852413055E+04 0.  0.
        3    1    3    3  502    0 -0.83003467688E+03  0.13091159615E+03 -0.18518075887E+03  0.86045763085E+03  0.10100000352E+00 0.  1.
       -3    1    3    3    0  502  0.83003467688E+03 -0.13091159615E+03 -0.58750544527E+02  0.84234615659E+03  0.10100000352E+00 0. -1.
</event>
<event>
 5   0  0.6746664E-04  0.1813533E+04  0.7818609E-02  0.8699136E-01
       -2   -1    0    0    0  501  0.00000000000E+00  0.00000000000E+00  0.68779757514E+03  0.68779757515E+03  0.25500000920E-02 0. -1.
        2   -1    0    0  501    0  0.00000000000E+00  0.00000000000E+00 -0.11954467503E+04  0.11954467503E+04  0.25500000920E-02 0.  1.
    10030    2    1    2    0    0  0.00000000000E+00  0.00000000000E+00 -0.50764917516E+03  0.18832443255E+04  0.18135328793E+04 0.  0.
        5    1    3    3  502    0 -0.59565049347E+02  0.37327738935E+03  0.60206590977E+03  0.71090748639E+03  0.46999998093E+01 0. -1.
       -5    1    3    3    0  502  0.59565049347E+02 -0.37327738935E+03 -0.11097150849E+04  0.11723368391E+04  0.46999998093E+01 0.  1.
</event>
<event>
 5   0  0.7049044E-04  0.1731320E+04  0.7818609E-02  0.8743700E-01
       -2   -1    0    0    0  501  0.00000000000E+00  0.00000000000E+00  0.10312263055E+04  0.10312263055E+04  0.25500000920E-02 0. -1.
        2   -1    0    0  501    0  0.00000000000E+00  0.00000000000E+00 -0.72667605515E+03  0.72667605516E+03  0.25500000920E-02 0.  1.
    10030    2    1    2    0    0  0.00000000000E+00  0.00000000000E+00  0.30455025034E+03  0.17579023607E+04  0.17313202634E+04 0.  0.
        4    1    3    3  502    0 -0.37297094756E+03  0.27953022155E+03 -0.58839135569E+03  0.75063338111E+03  0.12699999809E+01 0.  1.
       -4    1    3    3    0  502  0.37297094756E+03 -0.27953022155E+03  0.89294160603E+03  0.10072689795E+04  0.12699999809E+01 0. -1.
</event>
<event>
 5   0  0.2639750E-04  0.1703007E+04  0.7818609E-02  0.8759651E-01
       -3   -1    0    0    0  501  0.00000000000E+00  0.00000000000E+00  0.78380077238E+03  0.78380077889E+03  0.10100000352E+00 0. -1.
        3   -1    0    0  501    0  0.00000000000E+00  0.00000000000E+00 -0.92505388862E+03  0.92505389414E+03  0.10100000352E+00 0.  1.
    10030    2    1    2    0    0  0.00000000000E+00  0.00000000000E+00 -0.14125311624E+03  0.17088546730E+04  0.17030067089E+04 0.  0.
        4    1    3    3  502    0  0.33575163979E+03  0.17752339566E+03  0.69410109946E+03  0.79121531128E+03  0.12699999809E+01 0. -1.
       -4    1    3    3    0  502 -0.33575163979E+03 -0.17752339566E+03 -0.83535421571E+03  0.91763936175E+03  0.12699999809E+01 0.  1.
</event>
<event>
 5   0  0.7233728E-04  0.1677316E+04  0.7818609E-02  0.8774409E-01
        2   -1    0    0  501    0  0.00000000000E+00  0.00000000000E+00  0.13340056189E+04  0.13340056189E+04  0.25500000920E-02 0.  1.
       -2   -1    0    0    0  501  0.00000000000E+00  0.00000000000E+00 -0.52724471811E+03  0.52724471812E+03  0.25500000920E-02 0. -1.
    10030    2    1    2    0    0  0.00000000000E+00  0.00000000000E+00  0.80676090078E+03  0.18612503370E+04  0.16773162093E+04 0.  0.
        1    1    3    3  502    0 -0.66696643588E+03 -0.35284076704E+03 -0.28317023419E+01  0.75455208703E+03  0.50400001928E-02 0.  1.
       -1    1    3    3    0  502  0.66696643588E+03  0.35284076704E+03  0.80959260312E+03  0.11066982500E+04  0.50400001928E-02 0. -1.
</event>
<event>
 5   0  0.3915701E-04  0.1728966E+04  0.7818609E-02  0.8745015E-01
       -1   -1    0    0    0  501  0.00000000000E+00  0.00000000000E+00  0.83419125728E+03  0.83419125730E+03  0.50400001928E-02 0. -1.
        1   -1    0    0  501    0  0.00000000000E+00  0.00000000000E+00 -0.89587423236E+03  0.89587423238E+03  0.50400001928E-02 0.  1.
    10030    2    1    2    0    0  0.00000000000E+00  0.00000000000E+00 -0.61682975079E+02  0.17300654897E+04  0.17289655315E+04 0.  0.
        2    1    3    3  502    0 -0.16565482128E+03  0.27445647257E+03 -0.83419880044E+03  0.89367528433E+03  0.25500000920E-02 0.  1.
       -2    1    3    3    0  502  0.16565482128E+03 -0.27445647257E+03  0.77251582537E+03  0.83639020535E+03  0.25500000920E-02 0. -1.
</event>
<event>
 5   0  0.7242144E-04  0.1485695E+04  0.7818609E-02  0.8894022E-01
       -2   -1    0    0    0  501  0.00000000000E+00  0.00000000000E+00  0.69469836006E+03  0.69469836006E+03  0.25500000920E-02 0. -1.
        2   -1    0    0  501    0  0.00000000000E+00  0.00000000000E+00 -0.79433346984E+03  0.79433346985E+03  0.25500000920E-02 0.  1.
    10030    2    1    2    0    0  0.00000000000E+00  0.00000000000E+00 -0.99635109785E+02  0.14890318299E+04  0.14856946643E+04 0.  0.
        3    1    3    3  502    0  0.31058649272E+03 -0.72218307804E+02 -0.72225133332E+03  0.78951026094E+03  0.10100000352E+00 0.  1.
       -3    1    3    3    0  502 -0.31058649272E+03  0.72218307804E+02  0.62261622354E+03  0.69952156897E+03  0.10100000352E+00 0. -1.
</event>
<event>
 5   0  0.3803253E-04  0.1239871E+04  0.7818609E-02  0.9078656E-01
       -1   -1    0    0    0  501  0.00000000000E+00  0.00000000000E+00  0.68659072552E+03  0.68659072554E+03  0.50400001928E-02 0. -1.
        1   -1    0    0  501    0  0.00000000000E+00  0.00000000000E+00 -0.55975117496E+03  0.55975117498E+03  0.50400001928E-02 0.  1.
    10030    2    1    2    0    0  0.00000000000E+00  0.00000000000E+00  0.12683955057E+03  0.12463419005E+04  0.12398709051E+04 0.  0.
        4    1    3    3  502    0  0.47532367049E+03 -0.15167497475E+03  0.43328093230E+03  0.66081152297E+03  0.12699999809E+01 0. -1.
       -4    1    3    3    0  502 -0.47532367049E+03  0.15167497475E+03 -0.30644138173E+03  0.58553037755E+03  0.12699999809E+01 0.  1.
</event>
<event>
 5   0  0.3723500E-04  0.1401255E+04  0.7818609E-02  0.8952911E-01
       -1   -1    0    0    0  501  0.00000000000E+00  0.00000000000E+00  0.76588030074E+03  0.76588030076E+03  0.50400001928E-02 0.  1.
        1   -1    0    0  501    0  0.00000000000E+00  0.00000000000E+00 -0.64093404712E+03  0.64093404714E+03  0.50400001928E-02 0. -1.
    10030    2    1    2    0    0  0.00000000000E+00  0.00000000000E+00  0.12494625362E+03  0.14068143479E+04  0.14012548102E+04 0.  0.
        1    1    3    3  502    0 -0.35446973528E+03 -0.14611237552E+03 -0.52626729166E+03  0.65111817806E+03  0.50400001928E-02 0. -1.
       -1    1    3    3    0  502  0.35446973528E+03  0.14611237552E+03  0.65121354528E+03  0.75569616983E+03  0.50400001928E-02 0.  1.
</event>
<event>
 5   0  0.3713516E-04  0.1505262E+04  0.7818609E-02  0.8880961E-01
        1   -1    0    0  501    0  0.00000000000E+00  0.00000000000E+00  0.59475130806E+03  0.59475130808E+03  0.50400001928E-02 0.  1.
       -1   -1    0    0    0  501  0.00000000000E+00  0.00000000000E+00 -0.95242048289E+03  0.95242048290E+03  0.50400001928E-02 0. -1.
    10030    2    1    2    0    0  0.00000000000E+00  0.00000000000E+00 -0.35766917482E+03  0.15471717910E+04  0.15052618750E+04 0.  0.
        5    1    3    3  502    0 -0.52077639846E+03  0.43035666292E+03  0.16208742266E+03  0.69477286727E+03  0.46999998093E+01 0.  1.
       -5    1    3    3    0  502  0.52077639846E+03 -0.43035666292E+03 -0.51975659749E+03  0.85239892371E+03  0.46999998093E+01 0. -1.
</event>
<event>
 5   0  0.7049044E-04  0.1555268E+04  0.7818609E-02  0.8848510E-01
        2   -1    0    0  501    0  0.00000000000E+00  0.00000000000E+00  0.17754618986E+04  0.17754618986E+04  0.25500000920E-02 0.  1.
       -2   -1    0    0    0  501  0.00000000000E+00  0.00000000000E+00 -0.34059554536E+03  0.34059554537E+03  0.25500000920E-02 0. -1.
    10030    2    1    2    0    0  0.00000000000E+00  0.00000000000E+00  0.14348663532E+04  0.21160574439E+04  0.15552677115E+04 0.  0.
        4    1    3    3  502    0 -0.29021819134E+03 -0.14946644126E+03  0.16777192146E+04  0.17091840719E+04  0.12699999809E+01 0.  1.
       -4    1    3    3    0  502  0.29021819134E+03  0.14946644126E+03 -0.24285286143E+03  0.40687337201E+03  0.12699999809E+01 0. -1.
</event>
<event>
 5   0  0.3915701E-04  0.1711844E+04  0.7818609E-02  0.8754638E-01
       -1   -1    0    0    0  501  0.00000000000E+00  0.00000000000E+00  0.78847677449E+03  0.78847677450E+03  0.50400001928E-02 0. -1.
        1   -1    0    0  501    0  0.00000000000E+00  0.00000000000E+00 -0.92913627435E+03  0.92913627437E+03  0.50400001928E-02 0.  1.
    10030    2    1    2    0    0  0.00000000000E+00  0.00000000000E+00 -0.14065949986E+03  0.17176130489E+04  0.17118438862E+04 0.  0.
        2    1    3    3  502    0 -0.43984591641E+03  0.21173410235E+03  0.63510911837E+03  0.80103642397E+03  0.25500000920E-02 0. -1.
       -2    1    3    3    0  502  0.43984591641E+03 -0.21173410235E+03 -0.77576861823E+03  0.91657662490E+03  0.25500000920E-02 0.  1.
</event>
<event>
 5   0  0.7025426E-04  0.1692212E+04  0.7818609E-02  0.8765819E-01
        2   -1    0    0  501    0  0.00000000000E+00  0.00000000000E+00  0.53742154137E+03  0.53742154138E+03  0.25500000920E-02 0. -1.
       -2   -1    0    0    0  501  0.00000000000E+00  0.00000000000E+00 -0.13320922395E+04  0.13320922395E+04  0.25500000920E-02 0.  1.
    10030    2    1    2    0    0  0.00000000000E+00  0.00000000000E+00 -0.79467069816E+03  0.18695137809E+04  0.16922116471E+04 0.  0.
        2    1    3    3  502    0 -0.16993721789E+03 -0.72868408091E+03 -0.83373689416E+03  0.11202572725E+04  0.25500000920E-02 0.  1.
       -2    1    3    3    0  502  0.16993721789E+03  0.72868408091E+03  0.39066195992E+02  0.74925650846E+03  0.25500000920E-02 0. -1.
</event>
<event>
 5   0  0.7233728E-04  0.1632657E+04  0.7818609E-02  0.8800733E-01
       -2   -1    0    0    0  501  0.00000000000E+00  0.00000000000E+00  0.45541984240E+03  0.45541984241E+03  0.25500000920E-02 0.  1.
        2   -1    0    0  501    0  0.00000000000E+00  0.00000000000E+00 -0.14632478356E+04  0.14632478356E+04  0.25500000920E-02 0. -1.
    10030    2    1    2    0    0  0.00000000000E+00  0.00000000000E+00 -0.10078279932E+04  0.19186676780E+04  0.16326568515E+04 0.  0.
        1    1    3    3  502    0 -0.41934487488E+01  0.33133046598E+03 -0.13806611259E+04  0.14198671090E+04  0.50400001928E-02 0. -1.
       -1    1    3    3    0  502  0.41934487488E+01 -0.33133046598E+03  0.37283313273E+03  0.49880056895E+03  0.50400001928E-02 0.  1.
</event>
<event>
 5   0  0.6746664E-04  0.1709233E+04  0.7818609E-02  0.8756116E-01
        2   -1    0    0  501    0  0.00000000000E+00  0.00000000000E+00  0.12122459147E+04  0.12122459147E+04  0.25500000920E-02 0. -1.
       -2   -1    0    0    0  501  0.00000000000E+00  0.00000000000E+00 -0.60249300831E+03  0.60249300831E+03  0.25500000920E-02 0.  1.
    10030    2    1    2    0    0  0.00000000000E+00  0.00000000000E+00  0.60975290638E+03  0.18147389230E+04  0.17092333813E+04 0.  0.
        5    1    3    3  502    0  0.30301818215E+03 -0.32622206436E+02  0.11525729837E+04  0.11921957892E+04  0.46999998093E+01 0. -1.
       -5    1    3    3    0  502 -0.30301818215E+03  0.32622206436E+02 -0.54282007733E+03  0.62254313378E+03  0.46999998093E+01 0.  1.
</event>
<event>
 5   0  0.3915701E-04  0.1660475E+04  0.7818609E-02  0.8784234E-01
        1   -1    0    0  501    0  0.00000000000E+00  0.00000000000E+00  0.81722531910E+03  0.81722531911E+03  0.50400001928E-02 0.  1.
       -1   -1    0    0    0  501  0.00000000000E+00  0.00000000000E+00 -0.84345698674E+03  0.84345698675E+03  0.50400001928E-02 0. -1.
    10030    2    1    2    0    0  0.00000000000E+00  0.00000000000E+00 -0.26231667640E+02  0.16606823059E+04  0.16604751189E+04 0.  0.
        2    1    3    3  502    0  0.23614575164E+03  0.49961673393E+03  0.60656837626E+03  0.82055279656E+03  0.25500000920E-02 0.  1.
       -2    1    3    3    0  502 -0.23614575164E+03 -0.49961673393E+03 -0.63280004390E+03  0.84012950931E+03  0.25500000920E-02 0. -1.
</event>
<event>
 5   0  0.3803253E-04  0.1689039E+04  0.7818609E-02  0.8767641E-01
       -1   -1    0    0    0  501  0.00000000000E+00  0.00000000000E+00  0.11889889979E+04  0.11889889979E+04  0.50400001928E-02 0. -1.
        1   -1    0    0  501    0  0.00000000000E+00  0.00000000000E+00 -0.59984851708E+03  0.59984851710E+03  0.50400001928E-02 0.  1.
    10030    2    1    2    0    0  0.00000000000E+00  0.00000000000E+00  0.58914048086E+03  0.17888375150E+04  0.16890391200E+04 0.  0.
        4    1    3    3  502    0 -0.24630826447E+03  0.21353243655E+03  0.11196707603E+04  0.11661595461E+04  0.12699999809E+01 0. -1.
       -4    1    3    3    0  502  0.24630826447E+03 -0.21353243655E+03 -0.53053027948E+03  0.62267796890E+03  0.12699999809E+01 0.  1.
</event>
<event>
 5   0  0.7049044E-04  0.1679274E+04  0.7818609E-02  0.8773274E-01
        2   -1    0    0  501    0  0.00000000000E+00  0.00000000000E+00  0.22036811242E+04  0.22036811242E+04  0.25500000920E-02 0.  1.
       -2   -1    0    0    0  501  0.00000000000E+00  0.00000000000E+00 -0.31991473091E+03  0.31991473092E+03  0.25500000920E-02 0. -1.
    10030    2    1    2    0    0  0.00000000000E+00  0.00000000000E+00  0.18837663933E+04  0.25235958551E+04  0.16792737167E+04 0.  0.
        4    1    3    3  502    0 -0.48973020506E+03  0.49580153411E+03  0.16456858571E+04  0.17871593069E+04  0.12699999809E+01 0.  1.
       -4    1    3    3    0  502  0.48973020506E+03 -0.49580153411E+03  0.23808053618E+03  0.73643654824E+03  0.12699999809E+01 0. -1.
</event>
<event>
 5   0  0.7242144E-04  0.1661853E+04  0.7818609E-02  0.8783425E-01
        2   -1    0    0  501    0  0.00000000000E+00  0.00000000000E+00  0.15330448049E+04  0.15330448049E+04  0.25500000920E-02 0.  1.
       -2   -1    0    0    0  501  0.00000000000E+00  0.00000000000E+00 -0.45037094761E+03  0.45037094761E+03  0.25500000920E-02 0. -1.
    10030    2    1    2    0    0  0.00000000000E+00  0.00000000000E+00  0.10826738573E+04  0.19834157525E+04  0.16618529917E+04 0.  0.
        3    1    3    3  502    0  0.29277586561E+02 -0.33738375998E+03 -0.36426967616E+03  0.49737047132E+03  0.10100000352E+00 0. -1.
       -3    1    3    3    0  502 -0.29277586561E+02  0.33738375998E+03  0.14469435334E+04  0.14860452812E+04  0.10100000352E+00 0.  1.
</event>
<event>
 5   0  0.3723500E-04  0.1203190E+04  0.7818609E-02  0.9110069E-01
       -1   -1    0    0    0  501  0.00000000000E+00  0.00000000000E+00  0.25981446639E+03  0.25981446644E+03  0.50400001928E-02 0. -1.
        1   -1    0    0  501    0  0.00000000000E+00  0.00000000000E+00 -0.13929810333E+04  0.13929810333E+04  0.50400001928E-02 0.  1.
    10030    2    1    2    0    0  0.00000000000E+00  0.00000000000E+00 -0.11331665669E+04  0.16527954998E+04  0.12031901328E+04 0.  0.
        1    1    3    3  502    0  0.36998993714E+03 -0.32773101459E+03 -0.10376895682E+04  0.11493910611E+04  0.50400001928E-02 0.  1.
       -1    1    3    3    0  502 -0.36998993714E+03  0.32773101459E+03 -0.95476998754E+02  0.50340443863E+03  0.50400001928E-02 0. -1.
</event>
<event>
 5   0  0.3635143E-04  0.1743886E+04  0.7818609E-02  0.8736723E-01
        1   -1    0    0  501    0  0.00000000000E+00  0.00000000000E+00  0.12383054194E+04  0.12383054194E+04  0.50400001928E-02 0.  1.
       -1   -1    0    0    0  501  0.00000000000E+00  0.00000000000E+00 -0.61397196065E+03  0.61397196067E+03  0.50400001928E-02 0. -1.
    10030    2    1    2    0    0  0.00000000000E+00  0.00000000000E+00  0.62433345879E+03  0.18522773801E+04  0.17438862420E+04 0.  0.
        3    1    3    3  502    0  0.55828346603E+01  0.76276747662E+03 -0.13650969947E+03  0.77490663933E+03  0.10100000352E+00 0. -1.
       -3    1    3    3    0  502 -0.55828346603E+01 -0.76276747662E+03  0.76084315826E+03  0.10773707408E+04  0.10100000352E+00 0.  1.
</event>
<event>
 5   0  0.3915701E-04  0.1709389E+04  0.7818609E-02  0.8756028E-01
        1   -1    0    0  501    0  0.00000000000E+00  0.00000000000E+00  0.16678453072E+04  0.16678453072E+04  0.50400001928E-02 0.  1.
       -1   -1    0    0    0  501  0.00000000000E+00  0.00000000000E+00 -0.43799171583E+03  0.43799171586E+03  0.50400001928E-02 0. -1.
    10030    2    1    2    0    0  0.00000000000E+00  0.00000000000E+00  0.12298535914E+04  0.21058370231E+04  0.17093886953E+04 0.  0.
        2    1    3    3  502    0 -0.23726000143E+03  0.58624519931E+03  0.13231777916E+04  0.14665521505E+04  0.25500000920E-02 0.  1.
       -2    1    3    3    0  502  0.23726000143E+03 -0.58624519931E+03 -0.93324200173E+02  0.63928487260E+03  0.25500000920E-02 0. -1.
</event>
<event>
 5   0  0.3915701E-04  0.1705847E+04  0.7818609E-02  0.8758037E-01
       -1   -1    0    0    0  501  0.00000000000E+00  0.00000000000E+00  0.37090770997E+03  0.37090771001E+03  0.50400001928E-02 0.  1.
        1   -1    0    0  501    0  0.00000000000E+00  0.00000000000E+00 -0.19613459091E+04  0.19613459091E+04  0.50400001928E-02 0. -1.
    10030    2    1    2    0    0  0.00000000000E+00  0.00000000000E+00 -0.15904381991E+04  0.23322536191E+04  0.17058467922E+04 0.  0.
        2    1    3    3  502    0  0.24401176032E+03 -0.44535395865E+03 -0.17321296871E+04  0.18050360497E+04  0.25500000920E-02 0. -1.
       -2    1    3    3    0  502 -0.24401176032E+03  0.44535395865E+03  0.14169148806E+03  0.52721756937E+03  0.25500000920E-02 0.  1.
</event>
<event>
 5   0  0.6746664E-04  0.1708808E+04  0.7818609E-02  0.8756357E-01
       -2   -1    0    0    0  501  0.00000000000E+00  0.00000000000E+00  0.53512306036E+03  0.53512306037E+03  0.25500000920E-02 0.  1.
        2   -1    0    0  501    0  0.00000000000E+00  0.00000000000E+00 -0.13641830474E+04  0.13641830474E+04  0.25500000920E-02 0. -1.
    10030    2    1    2    0    0  0.00000000000E+00  0.00000000000E+00 -0.82905998699E+03  0.18993061077E+04  0.17088075459E+04 0.  0.
        5    1    3    3  502    0  0.19043770706E+03  0.44391608868E+03  0.36877252903E+03  0.60773619460E+03  0.46999998093E+01 0.  1.
       -5    1    3    3    0  502 -0.19043770706E+03 -0.44391608868E+03 -0.11978325160E+04  0.12915699131E+04  0.46999998093E+01 0. -1.
</event>
<event>
 5   0  0.3713516E-04  0.1577414E+04  0.7818609E-02  0.8834545E-01
        1   -1    0    0  501    0  0.00000000000E+00  0.00000000000E+00  0.15535384247E+04  0.15535384247E+04  0.50400001928E-02 0.  1.
       -1   -1    0    0    0  501  0.00000000000E+00  0.00000000000E+00 -0.40041401080E+03  0.40041401083E+03  0.50400001928E-02 0. -1.
    10030    2    1    2    0    0  0.00000000000E+00  0.00000000000E+00  0.11531244139E+04  0.19539524355E+04  0.15774137714E+04 0.  0.
        5    1    3    3  502    0  0.50619337761E+03  0.37995603393E+02 -0.17114977135E+03  0.53571422946E+03  0.46999998093E+01 0. -1.
       -5    1    3    3    0  502 -0.50619337761E+03 -0.37995603393E+02  0.13242741852E+04  0.14182382060E+04  0.46999998093E+01 0.  1.
</event>
<event>
 5   0  0.3635143E-04  0.1708850E+04  0.7818609E-02  0.8756333E-01
       -1   -1    0    0    0  501  0.00000000000E+00  0.00000000000E+00  0.59150355085E+03  0.59150355087E+03  0.50400001928E-02 0.  1.
        1   -1    0    0  501    0  0.00000000000E+00  0.00000000000E+00 -0.12342135315E+04  0.12342135316E+04  0.50400001928E-02 0. -1.
    10030    2    1    2    0    0  0.00000000000E+00  0.00000000000E+00 -0.64270998070E+03  0.18257170824E+04  0.17088495387E+04 0.  0.
        3    1    3    3  502    0 -0.49765467966E+03  0.67844828630E+03 -0.16256548392E+03  0.85695962807E+03  0.10100000352E+00 0. -1.
       -3    1    3    3    0  502  0.49765467966E+03 -0.67844828630E+03 -0.48014449679E+03  0.96875745436E+03  0.10100000352E+00 0.  1.
</event>
<event>
 5   0  0.3713516E-04  0.1763725E+04  0.7818609E-02  0.8725832E-01
       -1   -1    0    0    0  501  0.00000000000E+00  0.00000000000E+00  0.33224099503E+03  0.33224099507E+03  0.50400001928E-02 0.  1.
        1   -1    0    0  501    0  0.00000000000E+00  0.00000000000E+00 -0.23407138240E+04  0.23407138240E+04  0.50400001928E-02 0. -1.
    10030    2    1    2    0    0  0.00000000000E+00  0.00000000000E+00 -0.20084728290E+04  0.26729548191E+04  0.17637245704E+04 0.  0.
        5    1    3    3  502    0 -0.62313368839E+01 -0.70784479723E+03 -0.18012542326E+04  0.19353609449E+04  0.46999998093E+01 0. -1.
       -5    1    3    3    0  502  0.62313368839E+01  0.70784479723E+03 -0.20721859634E+03  0.73759387416E+03  0.46999998093E+01 0.  1.
</event>
<event>
 5   0  0.3803253E-04  0.1731539E+04  0.7818609E-02  0.8743578E-01
        1   -1    0    0  501    0  0.00000000000E+00  0.00000000000E+00  0.11200302768E+04  0.11200302769E+04  0.50400001928E-02 0.  1.
       -1   -1    0    0    0  501  0.00000000000E+00  0.00000000000E+00 -0.66922883576E+03  0.66922883578E+03  0.50400001928E-02 0. -1.
    10030    2    1    2    0    0  0.00000000000E+00  0.00000000000E+00  0.45080144108E+03  0.17892591126E+04  0.17315386894E+04 0.  0.
        4    1    3    3  502    0  0.13424476624E+03  0.63582746214E+03  0.81653388971E+03  0.10435647679E+04  0.12699999809E+01 0.  1.
       -4    1    3    3    0  502 -0.13424476624E+03 -0.63582746214E+03 -0.36573244863E+03  0.74569434472E+03  0.12699999809E+01 0. -1.
</event>
<event>
 5   0  0.7025426E-04  0.1637574E+04  0.7818609E-02  0.8797791E-01
        2   -1    0    0  501    0  0.00000000000E+00  0.00000000000E+00  0.87291831836E+03  0.87291831836E+03  0.25500000920E-02 0.  1.
       -2   -1    0    0    0  501  0.00000000000E+00  0.00000000000E+00 -0.76801280585E+03  0.76801280585E+03  0.25500000920E-02 0. -1.
    10030    2    1    2    0    0  0.00000000000E+00  0.00000000000E+00  0.10490551251E+03  0.16409311242E+04  0.16375743610E+04 0.  0.
        2    1    3    3  502    0 -0.28491887874E+03 -0.11161079016E+03  0.81346769232E+03  0.86911761137E+03  0.25500000920E-02 0.  1.
       -2    1    3    3    0  502  0.28491887874E+03  0.11161079016E+03 -0.70856217981E+03  0.77181351284E+03  0.25500000920E-02 0. -1.
</event>
<event>
 5   0  0.7233728E-04  0.1689322E+04  0.7818609E-02  0.8767478E-01
       -2   -1    0    0    0  501  0.00000000000E+00  0.00000000000E+00  0.10335064261E+04  0.10335064261E+04  0.25500000920E-02 0.  1.
        2   -1    0    0  501    0  0.00000000000E+00  0.00000000000E+00 -0.69032187032E+03  0.69032187033E+03  0.25500000920E-02 0. -1.
    10030    2    1    2    0    0  0.00000000000E+00  0.00000000000E+00  0.34318455580E+03  0.17238282965E+04  0.16893218629E+04 0.  0.
        1    1    3    3  502    0  0.28024846609E+02  0.57713650494E+03 -0.45709308645E+03  0.73675370856E+03  0.50400001928E-02 0. -1.
       -1    1    3    3    0  502 -0.28024846609E+02 -0.57713650494E+03  0.80027764225E+03  0.98707458790E+03  0.50400001928E-02 0.  1.
</event>
<event>
 5   0  0.3713516E-04  0.1537956E+04  0.7818609E-02  0.8859598E-01
        1   -1    0    0  501    0  0.00000000000E+00  0.00000000000E+00  0.62723346814E+03  0.62723346816E+03  0.50400001928E-02 0. -1.
       -1   -1    0    0    0  501  0.00000000000E+00  0.00000000000E+00 -0.94275477859E+03  0.94275477860E+03  0.50400001928E-02 0.  1.
    10030    2    1    2    0    0  0.00000000000E+00  0.00000000000E+00 -0.31552131045E+03  0.15699882468E+04  0.15379562405E+04 0.  0.
        5    1    3    3  502    0 -0.25558615277E+02  0.76691741784E+03 -0.20869668962E+03  0.79523076328E+03  0.46999998093E+01 0.  1.
       -5    1    3    3    0  502  0.25558615277E+02 -0.76691741784E+03 -0.10682462083E+03  0.77475748349E+03  0.46999998093E+01 0. -1.
</event>
<event>
 5   0  0.3915701E-04  0.1625731E+04  0.7818609E-02  0.8804895E-01
       -1   -1    0    0    0  501  0.00000000000E+00  0.00000000000E+00  0.12634394039E+04  0.12634394039E+04  0.50400001928E-02 0.  1.
        1   -1    0    0  501    0  0.00000000000E+00  0.00000000000E+00 -0.52297719290E+03  0.52297719292E+03  0.50400001928E-02 0. -1.
    10030    2    1    2    0    0  0.00000000000E+00  0.00000000000E+00  0.74046221101E+03  0.17864165968E+04  0.16257305962E+04 0.  0.
        2    1    3    3  502    0 -0.69205756967E+03  0.38611258729E+03  0.17145541813E+03  0.81081660701E+03  0.25500000920E-02 0. -1.
       -2    1    3    3    0  502  0.69205756967E+03 -0.38611258729E+03  0.56900679288E+03  0.97559998982E+03  0.25500000920E-02 0.  1.
</event>
<event>
 5   0  0.3635143E-04  0.1289169E+04  0.7818609E-02  0.9038199E-01
        1   -1    0    0  501    0  0.00000000000E+00  0.00000000000E+00  0.14191111285E+04  0.14191111285E+04  0.50400001928E-02 0.  1.
       -1   -1    0    0    0  501  0.00000000000E+00  0.00000000000E+00 -0.29278128921E+03  0.29278128925E+03  0.50400001928E-02 0. -1.
    10030    2    1    2    0    0  0.00000000000E+00  0.00000000000E+00  0.11263298393E+04  0.17118924178E+04  0.12891690126E+04 0.  0.
        3    1    3    3  502    0  0.46227666332E+03  0.32362550832E+03  0.14947228585E+03  0.58375950316E+03  0.10100000352E+00 0. -1.
       -3    1    3    3    0  502 -0.46227666332E+03 -0.32362550832E+03  0.97685755345E+03  0.11281329146E+04  0.10100000352E+00 0.  1.
</event>
<event>
 5   0  0.7025426E-04  0.1675328E+04  0.7818609E-02  0.8775562E-01
        2   -1    0    0  501    0  0.00000000000E+00  0.00000000000E+00  0.83860681071E+03  0.83860681071E+03  0.25500000920E-02 0.  1.
       -2   -1    0    0    0  501  0.00000000000E+00  0.00000000000E+00 -0.83672228504E+03  0.83672228505E+03  0.25500000920E-02 0. -1.
    10030    2    1    2    0    0  0.00000000000E+00  0.00000000000E+00  0.18845256623E+01  0.16753290958E+04  0.16753280358E+04 0.  0.
        2    1    3    3  502    0 -0.69857465123E+02 -0.70645751504E+03 -0.44371375152E+03  0.83716436814E+03  0.25500000920E-02 0. -1.
       -2    1    3    3    0  502  0.69857465123E+02  0.70645751504E+03  0.44559827718E+03  0.83816472762E+03  0.25500000920E-02 0.  1.
</event>
<event>
 5   0  0.7233728E-04  0.1598484E+04  0.7818609E-02  0.8821480E-01
        2   -1    0    0  501    0  0.00000000000E+00  0.00000000000E+00  0.68908156123E+03  0.68908156124E+03  0.25500000920E-02 0.  1.
       -2   -1    0    0    0  501  0.00000000000E+00  0.00000000000E+00 -0.92701278243E+03  0.92701278244E+03  0.25500000920E-02 0. -1.
    10030    2    1    2    0    0  0.00000000000E+00  0.00000000000E+00 -0.23793122120E+03  0.16160943437E+04  0.15984835506E+04 0.  0.
        1    1    3    3  502    0 -0.74019688293E+03  0.30101961739E+03 -0.13597895521E+03  0.81055197973E+03  0.50400001928E-02 0. -1.
       -1    1    3    3    0  502  0.74019688293E+03 -0.30101961739E+03 -0.10195226599E+03  0.80554236395E+03  0.50400001928E-02 0.  1.
</event>
<event>
 5   0  0.3723500E-04  0.1709413E+04  0.7818609E-02  0.8756014E-01
       -1   -1    0    0    0  501  0.00000000000E+00  0.00000000000E+00  0.12324595390E+04  0.12324595390E+04  0.50400001928E-02 0.  1.
        1   -1    0    0  501    0  0.00000000000E+00  0.00000000000E+00 -0.59273606900E+03  0.59273606902E+03  0.50400001928E-02 0. -1.
    10030    2    1    2    0    0  0.00000000000E+00  0.00000000000E+00  0.63972346999E+03  0.18251956080E+04  0.17094130248E+04 0.  0.
        1    1    3    3  502    0 -0.62441163509E+03 -0.57589242734E+03  0.21867334996E+03  0.87713169588E+03  0.50400001928E-02 0. -1.
       -1    1    3    3    0  502  0.62441163509E+03  0.57589242734E+03  0.42105012003E+03  0.94806391214E+03  0.50400001928E-02 0.  1.
</event>
<event>
 5   0  0.7025426E-04  0.1701392E+04  0.7818609E-02  0.8760571E-01
        2   -1    0    0  501    0  0.00000000000E+00  0.00000000000E+00  0.11544335754E+04  0.11544335754E+04  0.25500000920E-02 0. -1.
       -2   -1    0    0    0  501  0.00000000000E+00  0.00000000000E+00 -0.62687335895E+03  0.62687335895E+03  0.25500000920E-02 0.  1.
    10030    2    1    2    0    0  0.00000000000E+00  0.00000000000E+00  0.52756021646E+03  0.17813069344E+04  0.17013919632E+04 0.  0.
        2    1    3    3  502    0 -0.72367665119E+02 -0.79999307710E+02  0.11472436173E+04  0.11523041637E+04  0.25500000920E-02 0. -1.
       -2    1    3    3    0  502  0.72367665119E+02  0.79999307710E+02 -0.61968340086E+03  0.62900277066E+03  0.25500000920E-02 0.  1.
</event>
<event>
 5   0  0.3803253E-04  0.1598290E+04  0.7818609E-02  0.8821599E-01
        1   -1    0    0  501    0  0.00000000000E+00  0.00000000000E+00  0.12751761713E+04  0.12751761713E+04  0.50400001928E-02 0. -1.
       -1   -1    0    0    0  501  0.00000000000E+00  0.00000000000E+00 -0.50081920081E+03  0.50081920084E+03  0.50400001928E-02 0.  1.
    10030    2    1    2    0    0  0.00000000000E+00  0.00000000000E+00  0.77435697050E+03  0.17759953722E+04  0.15982899750E+04 0.  0.
        4    1    3    3  502    0 -0.51432092765E+03  0.38378894298E+03  0.91637677785E+03  0.11187349915E+04  0.12699999809E+01 0. -1.
       -4    1    3    3    0  502  0.51432092765E+03 -0.38378894298E+03 -0.14201980735E+03  0.65726038063E+03  0.12699999809E+01 0.  1.
</event>
<event>
 5   0  0.2639750E-04  0.1419326E+04  0.7818609E-02  0.8939947E-01
        3   -1    0    0  501    0  0.00000000000E+00  0.00000000000E+00  0.31767189723E+03  0.31767191328E+03  0.10100000352E+00 0. -1.
       -3   -1    0    0    0  501  0.00000000000E+00  0.00000000000E+00 -0.15853503773E+04  0.15853503806E+04  0.10100000352E+00 0.  1.
    10030    2    1    2    0    0  0.00000000000E+00  0.00000000000E+00 -0.12676784801E+04  0.19030222938E+04  0.14193255870E+04 0.  0.
        5    1    3    3  502    0  0.36964007196E+03 -0.79794070539E+02 -0.14389834792E+04  0.14878495958E+04  0.46999998093E+01 0.  1.
       -5    1    3    3    0  502 -0.36964007196E+03  0.79794070539E+02  0.17130499904E+03  0.41517269802E+03  0.46999998093E+01 0. -1.
</event>
<event>
 5   0  0.3635143E-04  0.1689215E+04  0.7818609E-02  0.8767539E-01
        1   -1    0    0  501    0  0.00000000000E+00  0.00000000000E+00  0.99422320731E+03  0.99422320732E+03  0.50400001928E-02 0. -1.
       -1   -1    0    0    0  501  0.00000000000E+00  0.00000000000E+00 -0.71750707560E+03  0.71750707562E+03  0.50400001928E-02 0.  1.
    10030    2    1    2    0    0  0.00000000000E+00  0.00000000000E+00  0.27671613171E+03  0.17117302829E+04  0.16892154226E+04 0.  0.
        3    1    3    3  502    0  0.85577802215E+02 -0.40445087189E+03 -0.60797622919E+03  0.73521369238E+03  0.10100000352E+00 0.  1.
       -3    1    3    3    0  502 -0.85577802215E+02  0.40445087189E+03  0.88469236090E+03  0.97651659056E+03  0.10100000352E+00 0. -1.
</event>
<event>
 5   0  0.6746664E-04  0.1161158E+04  0.7818609E-02  0.9147551E-01
        2   -1    0    0  501    0  0.00000000000E+00  0.00000000000E+00  0.74858650921E+03  0.74858650921E+03  0.25500000920E-02 0. -1.
       -2   -1    0    0    0  501  0.00000000000E+00  0.00000000000E+00 -0.45027806425E+03  0.45027806426E+03  0.25500000920E-02 0.  1.
    10030    2    1    2    0    0  0.00000000000E+00  0.00000000000E+00  0.29830844495E+03  0.11988645735E+04  0.11611581878E+04 0.  0.
        5    1    3    3  502    0  0.48796485544E+03 -0.18641109875E+03  0.41074141278E+03  0.66452193046E+03  0.46999998093E+01 0. -1.
       -5    1    3    3    0  502 -0.48796485544E+03  0.18641109875E+03 -0.11243296783E+03  0.53434264301E+03  0.46999998093E+01 0.  1.
</event>
<event>
 5   0  0.7025426E-04  0.1703890E+04  0.7818609E-02  0.8759149E-01
        2   -1    0    0  501    0  0.00000000000E+00  0.00000000000E+00  0.74708761846E+03  0.74708761847E+03  0.25500000920E-02 0. -1.
       -2   -1    0    0    0  501  0.00000000000E+00  0.00000000000E+00 -0.97151960561E+03  0.97151960561E+03  0.25500000920E-02 0.  1.
    10030    2    1    2    0    0  0.00000000000E+00  0.00000000000E+00 -0.22443198715E+03  0.17186072241E+04  0.17038899829E+04 0.  0.
        2    1    3    3  502    0  0.22088901143E+03  0.11113930299E+03  0.71009658865E+03  0.75191825703E+03  0.25500000920E-02 0. -1.
       -2    1    3    3    0  502 -0.22088901143E+03 -0.11113930299E+03 -0.93452857579E+03  0.96668896705E+03  0.25500000920E-02 0.  1.
</event>
<event>
 5   0  0.2639750E-04  0.1718564E+04  0.7818609E-02  0.8750847E-01
       -3   -1    0    0    0  501  0.00000000000E+00  0.00000000000E+00  0.29009613133E+03  0.29009614892E+03  0.10100000352E+00 0. -1.
        3   -1    0    0  501    0  0.00000000000E+00  0.00000000000E+00 -0.25452437073E+04  0.25452437093E+04  0.10100000352E+00 0.  1.
    10030    2    1    2    0    0  0.00000000000E+00  0.00000000000E+00 -0.22551475759E+04  0.28353398582E+04  0.17185637964E+04 0.  0.
        2    1    3    3  502    0 -0.48423425482E+02  0.30958294396E+03  0.19247554038E+03  0.36774075240E+03  0.25500000920E-02 0. -1.
       -2    1    3    3    0  502  0.48423425482E+02 -0.30958294396E+03 -0.24476231163E+04  0.24675991058E+04  0.25500000920E-02 0.  1.
</event>
<event>
 5   0  0.3713516E-04  0.1793473E+04  0.7818609E-02  0.8709778E-01
        1   -1    0    0  501    0  0.00000000000E+00  0.00000000000E+00  0.10108763171E+04  0.10108763171E+04  0.50400001928E-02 0.  1.
       -1   -1    0    0    0  501  0.00000000000E+00  0.00000000000E+00 -0.79548468318E+03  0.79548468319E+03  0.50400001928E-02 0. -1.
    10030    2    1    2    0    0  0.00000000000E+00  0.00000000000E+00  0.21539163391E+03  0.18063610003E+04  0.17934733083E+04 0.  0.
        5    1    3    3  502    0 -0.17294624774E+03  0.79900777042E+03 -0.26345008382E+03  0.85892482702E+03  0.46999998093E+01 0.  1.
       -5    1    3    3    0  502  0.17294624774E+03 -0.79900777042E+03  0.47884171773E+03  0.94743617328E+03  0.46999998093E+01 0. -1.
</event>
<event>
 5   0  0.3915701E-04  0.1719845E+04  0.7818609E-02  0.8750126E-01
       -1   -1    0    0    0  501  0.00000000000E+00  0.00000000000E+00  0.53596075955E+03  0.53596075958E+03  0.50400001928E-02 0.  1.
        1   -1    0    0  501    0  0.00000000000E+00  0.00000000000E+00 -0.13797033852E+04  0.13797033852E+04  0.50400001928E-02 0. -1.
    10030    2    1    2    0    0  0.00000000000E+00  0.00000000000E+00 -0.84374262567E+03  0.19156641448E+04  0.17198451957E+04 0.  0.
        2    1    3    3  502    0 -0.25459811768E+03  0.81990999324E+03 -0.47637389780E+03  0.98183740459E+03  0.25500000920E-02 0. -1.
       -2    1    3    3    0  502  0.25459811768E+03 -0.81990999324E+03 -0.36736872787E+03  0.93382674022E+03  0.25500000920E-02 0.  1.
</event>
<event>
 5   0  0.3723500E-04  0.1649191E+04  0.7818609E-02  0.8790885E-01
        1   -1    0    0  501    0  0.00000000000E+00  0.00000000000E+00  0.85612518130E+03  0.85612518131E+03  0.50400001928E-02 0.  1.
       -1   -1    0    0    0  501  0.00000000000E+00  0.00000000000E+00 -0.79422690240E+03  0.79422690241E+03  0.50400001928E-02 0. -1.
    10030    2    1    2    0    0  0.00000000000E+00  0.00000000000E+00  0.61898278904E+02  0.16503520837E+04  0.16491908935E+04 0.  0.
        1    1    3    3  502    0  0.40426049022E+03  0.63986660656E+03  0.35844372856E+03  0.83745908838E+03  0.50400001928E-02 0.  1.
       -1    1    3    3    0  502 -0.40426049022E+03 -0.63986660656E+03 -0.29654544965E+03  0.81289299534E+03  0.50400001928E-02 0. -1.
</event>
<event>
 5   0  0.7025426E-04  0.1693785E+04  0.7818609E-02  0.8764917E-01
        2   -1    0    0  501    0  0.00000000000E+00  0.00000000000E+00  0.64432602101E+03  0.64432602102E+03  0.25500000920E-02 0.  1.
       -2   -1    0    0    0  501  0.00000000000E+00  0.00000000000E+00 -0.11131430185E+04  0.11131430185E+04  0.25500000920E-02 0. -1.
    10030    2    1    2    0    0  0.00000000000E+00  0.00000000000E+00 -0.46881699750E+03  0.17574690395E+04  0.16937851244E+04 0.  0.
        2    1    3    3  502    0  0.39165101187E+03 -0.70403801974E+03  0.36496078700E+02  0.80646885377E+03  0.25500000920E-02 0.  1.
       -2    1    3    3    0  502 -0.39165101187E+03  0.70403801974E+03 -0.50531307620E+03  0.95100018577E+03  0.25500000920E-02 0. -1.
</event>
<event>
 5   0  0.3723500E-04  0.1654019E+04  0.7818609E-02  0.8788032E-01
       -1   -1    0    0    0  501  0.00000000000E+00  0.00000000000E+00  0.51486176617E+03  0.51486176619E+03  0.50400001928E-02 0. -1.
        1   -1    0    0  501    0  0.00000000000E+00  0.00000000000E+00 -0.13284049212E+04  0.13284049213E+04  0.50400001928E-02 0.  1.
    10030    2    1    2    0    0  0.00000000000E+00  0.00000000000E+00 -0.81354315507E+03  0.18432666874E+04  0.16540192308E+04 0.  0.
        1    1    3    3  502    0 -0.33293464972E+03  0.33935481523E+03  0.34736643885E+03  0.58878741025E+03  0.50400001928E-02 0. -1.
       -1    1    3    3    0  502  0.33293464972E+03 -0.33935481523E+03 -0.11609095939E+04  0.12544792772E+04  0.50400001928E-02 0.  1.
</event>
<event>
 5   0  0.6746664E-04  0.1684399E+04  0.7818609E-02  0.8770312E-01
        2   -1    0    0  501    0  0.00000000000E+00  0.00000000000E+00  0.11284560439E+04  0.11284560439E+04  0.25500000920E-02 0. -1.
       -2   -1    0    0    0  501  0.00000000000E+00  0.00000000000E+00 -0.62855810432E+03  0.62855810433E+03  0.25500000920E-02 0.  1.
    10030    2    1    2    0    0  0.00000000000E+00  0.00000000000E+00  0.49989793960E+03  0.17570141483E+04  0.16843992303E+04 0.  0.
        5    1    3    3  502    0 -0.69347284736E+03 -0.35689856753E+03  0.58144955420E+03  0.97282416274E+03  0.46999998093E+01 0. -1.
       -5    1    3    3    0  502  0.69347284736E+03  0.35689856753E+03 -0.81551614600E+02  0.78418998551E+03  0.46999998093E+01 0.  1.
</event>
<event>
 5   0  0.3635143E-04  0.1676176E+04  0.7818609E-02  0.8775070E-01
       -1   -1    0    0    0  501  0.00000000000E+00  0.00000000000E+00  0.74360865490E+03  0.74360865492E+03  0.50400001928E-02 0. -1.
        1   -1    0    0  501    0  0.00000000000E+00  0.00000000000E+00 -0.94457091017E+03  0.94457091018E+03  0.50400001928E-02 0.  1.
    10030    2    1    2    0    0  0.00000000000E+00  0.00000000000E+00 -0.20096225527E+03  0.16881795651E+04  0.16761755326E+04 0.  0.
        3    1    3    3  502    0 -0.69513756553E+03  0.15251541495E+03  0.34531036355E+03  0.79102240435E+03  0.10100000352E+00 0. -1.
       -3    1    3    3    0  502  0.69513756553E+03 -0.15251541495E+03 -0.54627261882E+03  0.89715716075E+03  0.10100000352E+00 0.  1.
</event>
<event>
 5   0  0.2639750E-04  0.1775700E+04  0.7818609E-02  0.8719330E-01
        3   -1    0    0  501    0  0.00000000000E+00  0.00000000000E+00  0.11389977470E+04  0.11389977514E+04  0.10100000352E+00 0.  1.
       -3   -1    0    0    0  501  0.00000000000E+00  0.00000000000E+00 -0.69208027386E+03  0.69208028123E+03  0.10100000352E+00 0. -1.
    10030    2    1    2    0    0  0.00000000000E+00  0.00000000000E+00  0.44691747310E+03  0.18310780327E+04  0.17757002939E+04 0.  0.
        2    1    3    3  502    0  0.78944161734E+03 -0.37474128129E+03  0.61628857522E+02  0.87604064471E+03  0.25500000920E-02 0. -1.
       -2    1    3    3    0  502 -0.78944161734E+03  0.37474128129E+03  0.38528861558E+03  0.95503738795E+03  0.25500000920E-02 0.  1.
</event>
<event>
 5   0  0.3713516E-04  0.1607598E+04  0.7818609E-02  0.8815894E-01
       -1   -1    0    0    0  501  0.00000000000E+00  0.00000000000E+00  0.63240224497E+03  0.63240224499E+03  0.50400001928E-02 0.  1.
        1   -1    0    0  501    0  0.00000000000E+00  0.00000000000E+00 -0.10216490183E+04  0.10216490183E+04  0.50400001928E-02 0. -1.
    10030    2    1    2    0    0  0.00000000000E+00  0.00000000000E+00 -0.38924677334E+03  0.16540512633E+04  0.16075983737E+04 0.  0.
        5    1    3    3  502    0  0.63583890105E+03 -0.35156633003E+03  0.15908497756E+03  0.74378767977E+03  0.46999998093E+01 0.  1.
       -5    1    3    3    0  502 -0.63583890105E+03  0.35156633003E+03 -0.54833175090E+03  0.91026358355E+03  0.46999998093E+01 0. -1.
</event>
<event>
 5   0  0.7025426E-04  0.1696858E+04  0.7818609E-02  0.8763158E-01
       -2   -1    0    0    0  501  0.00000000000E+00  0.00000000000E+00  0.90665893364E+03  0.90665893365E+03  0.25500000920E-02 0.  1.
        2   -1    0    0  501    0  0.00000000000E+00  0.00000000000E+00 -0.79393925332E+03  0.79393925332E+03  0.25500000920E-02 0. -1.
    10030    2    1    2    0    0  0.00000000000E+00  0.00000000000E+00  0.11271968033E+03  0.17005981870E+04  0.16968584111E+04 0.  0.
        2    1    3    3  502    0  0.30604142798E+03 -0.51124816189E+03  0.66167449236E+03  0.89042078397E+03  0.25500000920E-02 0.  1.
       -2    1    3    3    0  502 -0.30604142798E+03  0.51124816189E+03 -0.54895481203E+03  0.81017740300E+03  0.25500000920E-02 0. -1.
</event>
<event>
 5   0  0.2639750E-04  0.1579882E+04  0.7818609E-02  0.8833004E-01
        3   -1    0    0  501    0  0.00000000000E+00  0.00000000000E+00  0.78881748171E+03  0.78881748817E+03  0.10100000352E+00 0.  1.
       -3   -1    0    0    0  501  0.00000000000E+00  0.00000000000E+00 -0.79106597854E+03  0.79106598499E+03  0.10100000352E+00 0. -1.
    10030    2    1    2    0    0  0.00000000000E+00  0.00000000000E+00 -0.22484968312E+01  0.15798834732E+04  0.15798818731E+04 0.  0.
        2    1    3    3  502    0 -0.16405054245E+03  0.28680895382E+03  0.71639632243E+03  0.78892055827E+03  0.25500000920E-02 0.  1.
       -2    1    3    3    0  502  0.16405054245E+03 -0.28680895382E+03 -0.71864481926E+03  0.79096291489E+03  0.25500000920E-02 0. -1.
</event>
<event>
 5   0  0.3723500E-04  0.1702191E+04  0.7818609E-02  0.8760116E-01
       -1   -1    0    0    0  501  0.00000000000E+00  0.00000000000E+00  0.87664301378E+03  0.87664301379E+03  0.50400001928E-02 0.  1.
        1   -1    0    0  501    0  0.00000000000E+00  0.00000000000E+00 -0.82629249748E+03  0.82629249750E+03  0.50400001928E-02 0. -1.
    10030    2    1    2    0    0  0.00000000000E+00  0.00000000000E+00  0.50350516292E+02  0.17029355113E+04  0.17021909943E+04 0.  0.
        1    1    3    3  502    0  0.28360374402E+03 -0.20460906137E+03 -0.75109427136E+03  0.82851587559E+03  0.50400001928E-02 0. -1.
       -1    1    3    3    0  502 -0.28360374402E+03  0.20460906137E+03  0.80144478765E+03  0.87441963570E+03  0.50400001928E-02 0.  1.
</event>
<event>
 5   0  0.7025426E-04  0.1691729E+04  0.7818609E-02  0.8766096E-01
        2   -1    0    0  501    0  0.00000000000E+00  0.00000000000E+00  0.96176479857E+03  0.96176479858E+03  0.25500000920E-02 0. -1.
       -2   -1    0    0    0  501  0.00000000000E+00  0.00000000000E+00 -0.74393076830E+03  0.74393076830E+03  0.25500000920E-02 0.  1.
    10030    2    1    2    0    0  0.00000000000E+00  0.00000000000E+00  0.21783403027E+03  0.17056955669E+04  0.16917286136E+04 0.  0.
        2    1    3    3  502    0 -0.67392937824E+03  0.41385354717E+02 -0.40479202290E+03  0.78724210778E+03  0.25500000920E-02 0.  1.
       -2    1    3    3    0  502  0.67392937824E+03 -0.41385354717E+02  0.62262605317E+03  0.91845345910E+03  0.25500000920E-02 0. -1.
</event>
<event>
 5   0  0.2639750E-04  0.1651843E+04  0.7818609E-02  0.8789317E-01
       -4   -1    0    0    0  501  0.00000000000E+00  0.00000000000E+00  0.80740094886E+03  0.80740194768E+03  0.12699999809E+01 0.  1.
        4   -1    0    0  501    0  0.00000000000E+00  0.00000000000E+00 -0.84486448349E+03  0.84486543802E+03  0.12699999809E+01 0. -1.
    10030    2    1    2    0    0  0.00000000000E+00  0.00000000000E+00 -0.37463534632E+02  0.16522673857E+04  0.16518426067E+04 0.  0.
        5    1    3    3  502    0  0.52734576305E+03 -0.59933059376E+03 -0.23052472288E+03  0.83093588939E+03  0.46999998093E+01 0. -1.
       -5    1    3    3    0  502 -0.52734576305E+03  0.59933059376E+03  0.19306118825E+03  0.82133149631E+03  0.46999998093E+01 0.  1.
</event>
<event>
 5   0  0.3915701E-04  0.1726730E+04  0.7818609E-02  0.8746264E-01
        1   -1    0    0  501    0  0.00000000000E+00  0.00000000000E+00  0.14221407277E+04  0.14221407277E+04  0.50400001928E-02 0.  1.
       -1   -1    0    0    0  501  0.00000000000E+00  0.00000000000E+00 -0.52413870653E+03  0.52413870655E+03  0.50400001928E-02 0. -1.
    10030    2    1    2    0    0  0.00000000000E+00  0.00000000000E+00  0.89800202116E+03  0.19462794343E+04  0.17267298591E+04 0.  0.
        2    1    3    3  502    0 -0.92203208473E+02 -0.37775110700E+03 -0.41985483831E+03  0.57225467735E+03  0.25500000920E-02 0. -1.
       -2    1    3    3    0  502  0.92203208473E+02  0.37775110700E+03  0.13178568595E+04  0.13740247569E+04  0.25500000920E-02 0.  1.
</event>
<event>
 5   0  0.3803253E-04  0.1691803E+04  0.7818609E-02  0.8766053E-01
        1   -1    0    0  501    0  0.00000000000E+00  0.00000000000E+00  0.11242651822E+04  0.11242651822E+04  0.50400001928E-02 0. -1.
       -1   -1    0    0    0  501  0.00000000000E+00  0.00000000000E+00 -0.63645966069E+03  0.63645966071E+03  0.50400001928E-02 0.  1.
    10030    2    1    2    0    0  0.00000000000E+00  0.00000000000E+00  0.48780552154E+03  0.17607248430E+04  0.16918031049E+04 0.  0.
        4    1    3    3  502    0 -0.23131212703E+03 -0.75977334989E+03  0.54694715733E+03  0.96432030422E+03  0.12699999809E+01 0. -1.
       -4    1    3    3    0  502  0.23131212703E+03  0.75977334989E+03 -0.59141635796E+02  0.79640453873E+03  0.12699999809E+01 0.  1.
</event>
<event>
 5   0  0.3803253E-04  0.1707024E+04  0.7818609E-02  0.8757368E-01
        1   -1    0    0  501    0  0.00000000000E+00  0.00000000000E+00  0.16591990823E+04  0.16591990823E+04  0.50400001928E-02 0. -1.
       -1   -1    0    0    0  501  0.00000000000E+00  0.00000000000E+00 -0.43905691465E+03  0.43905691468E+03  0.50400001928E-02 0.  1.
    10030    2    1    2    0    0  0.00000000000E+00  0.00000000000E+00  0.12201421676E+04  0.20982559970E+04  0.17070241122E+04 0.  0.
        4    1    3    3  502    0 -0.23546768749E+03  0.75007250811E+03  0.20160380172E+03  0.81160304647E+03  0.12699999809E+01 0.  1.
       -4    1    3    3    0  502  0.23546768749E+03 -0.75007250811E+03  0.10185383659E+04  0.12866529505E+04  0.12699999809E+01 0. -1.
</event>
<event>
 5   0  0.3713516E-04  0.1720651E+04  0.7818609E-02  0.8749673E-01
        1   -1    0    0  501    0  0.00000000000E+00  0.00000000000E+00  0.19653277886E+04  0.19653277886E+04  0.50400001928E-02 0.  1.
       -1   -1    0    0    0  501  0.00000000000E+00  0.00000000000E+00 -0.37660907402E+03  0.37660907405E+03  0.50400001928E-02 0. -1.
    10030    2    1    2    0    0  0.00000000000E+00  0.00000000000E+00  0.15887187146E+04  0.23419368627E+04  0.17206513635E+04 0.  0.
        5    1    3    3  502    0  0.35889961208E+02 -0.70953404337E+03  0.14547427975E+04  0.16189581048E+04  0.46999998093E+01 0.  1.
       -5    1    3    3    0  502 -0.35889961208E+02  0.70953404337E+03  0.13397591706E+03  0.72297875790E+03  0.46999998093E+01 0. -1.
</event>
<event>
 5   0  0.3635143E-04  0.1689769E+04  0.7818609E-02  0.8767221E-01
        1   -1    0    0  501    0  0.00000000000E+00  0.00000000000E+00  0.84905375057E+03  0.84905375059E+03  0.50400001928E-02 0. -1.
       -1   -1    0    0    0  501  0.00000000000E+00  0.00000000000E+00 -0.84073534686E+03  0.84073534688E+03  0.50400001928E-02 0.  1.
    10030    2    1    2    0    0  0.00000000000E+00  0.00000000000E+00  0.83184037117E+01  0.16897890975E+04  0.16897686226E+04 0.  0.
        3    1    3    3  502    0  0.72505503997E+02  0.29501000077E+03 -0.78422940987E+03  0.84101351129E+03  0.10100000352E+00 0.  1.
       -3    1    3    3    0  502 -0.72505503997E+02 -0.29501000077E+03  0.79254781359E+03  0.84877558617E+03  0.10100000352E+00 0. -1.
</event>
<event>
 5   0  0.6746664E-04  0.1716840E+04  0.7818609E-02  0.8751818E-01
       -2   -1    0    0    0  501  0.00000000000E+00  0.00000000000E+00  0.64614212325E+03  0.64614212326E+03  0.25500000920E-02 0. -1.
        2   -1    0    0  501    0  0.00000000000E+00  0.00000000000E+00 -0.11404381513E+04  0.11404381513E+04  0.25500000920E-02 0.  1.
    10030    2    1    2    0    0  0.00000000000E+00  0.00000000000E+00 -0.49429602805E+03  0.17865802746E+04  0.17168402704E+04 0.  0.
        5    1    3    3  502    0  0.69534958142E+03 -0.40156327521E+03 -0.56295370009E+03  0.98066460261E+03  0.46999998093E+01 0. -1.
       -5    1    3    3    0  502 -0.69534958142E+03  0.40156327521E+03  0.68657672035E+02  0.80591567195E+03  0.46999998093E+01 0.  1.
</event>
<event>
 5   0  0.3713516E-04  0.1097888E+04  0.7818609E-02  0.9207253E-01
       -1   -1    0    0    0  501  0.00000000000E+00  0.00000000000E+00  0.27739353500E+03  0.27739353505E+03  0.50400001928E-02 0. -1.
        1   -1    0    0  501    0  0.00000000000E+00  0.00000000000E+00 -0.10863252368E+04  0.10863252368E+04  0.50400001928E-02 0.  1.
    10030    2    1    2    0    0  0.00000000000E+00  0.00000000000E+00 -0.80893170177E+03  0.13637187718E+04  0.10978881503E+04 0.  0.
        5    1    3    3  502    0  0.21865281871E+03 -0.21109233196E+03 -0.97225400695E+03  0.10186603810E+04  0.46999998093E+01 0.  1.
       -5    1    3    3    0  502 -0.21865281871E+03  0.21109233196E+03  0.16332230517E+03  0.34505839087E+03  0.46999998093E+01 0. -1.
</event>
<event>
 5   0  0.7233728E-04  0.1598057E+04  0.7818609E-02  0.8821743E-01
       -2   -1    0    0    0  501  0.00000000000E+00  0.00000000000E+00  0.47565379872E+03  0.47565379873E+03  0.25500000920E-02 0. -1.
        2   -1    0    0  501    0  0.00000000000E+00  0.00000000000E+00 -0.13422503650E+04  0.13422503650E+04  0.25500000920E-02 0.  1.
    10030    2    1    2    0    0  0.00000000000E+00  0.00000000000E+00 -0.86659656627E+03  0.18179041637E+04  0.15980569263E+04 0.  0.
        1    1    3    3  502    0 -0.35536735551E+03 -0.71371207202E+03 -0.49323012605E+03  0.93752164583E+03  0.50400001928E-02 0.  1.
       -1    1    3    3    0  502  0.35536735551E+03  0.71371207202E+03 -0.37336644022E+03  0.88038251790E+03  0.50400001928E-02 0. -1.
</event>
<event>
 5   0  0.3635143E-04  0.1762208E+04  0.7818609E-02  0.8726659E-01
       -1   -1    0    0    0  501  0.00000000000E+00  0.00000000000E+00  0.10995092955E+04  0.10995092955E+04  0.50400001928E-02 0. -1.
        1   -1    0    0  501    0  0.00000000000E+00  0.00000000000E+00 -0.70608285489E+03  0.70608285491E+03  0.50400001928E-02 0.  1.
    10030    2    1    2    0    0  0.00000000000E+00  0.00000000000E+00  0.39342644064E+03  0.18055921505E+04  0.17622084580E+04 0.  0.
        3    1    3    3  502    0 -0.49218559309E+03 -0.73079902046E+03  0.19102812230E+03  0.90155733043E+03  0.10100000352E+00 0. -1.
       -3    1    3    3    0  502  0.49218559309E+03  0.73079902046E+03  0.20239831834E+03  0.90403482002E+03  0.10100000352E+00 0.  1.
</event>
<event>
 5   0  0.3915701E-04  0.1692727E+04  0.7818609E-02  0.8765523E-01
        1   -1    0    0  501    0  0.00000000000E+00  0.00000000000E+00  0.90378266784E+03  0.90378266786E+03  0.50400001928E-02 0.  1.
       -1   -1    0    0    0  501  0.00000000000E+00  0.00000000000E+00 -0.79259243400E+03  0.79259243402E+03  0.50400001928E-02 0. -1.
    10030    2    1    2    0    0  0.00000000000E+00  0.00000000000E+00  0.11119023384E+03  0.16963751019E+04  0.16927271541E+04 0.  0.
        2    1    3    3  502    0 -0.28491851740E+03 -0.41931437370E+03 -0.62360301495E+03  0.80366897776E+03  0.25500000920E-02 0. -1.
       -2    1    3    3    0  502  0.28491851740E+03  0.41931437370E+03  0.73479324880E+03  0.89270612411E+03  0.25500000920E-02 0.  1.
</event>
<event>
 5   0  0.7233728E-04  0.1714854E+04  0.7818609E-02  0.8752938E-01
        2   -1    0    0  501    0  0.00000000000E+00  0.00000000000E+00  0.18987689519E+04  0.18987689519E+04  0.25500000920E-02 0.  1.
       -2   -1    0    0    0  501  0.00000000000E+00  0.00000000000E+00 -0.38718805541E+03  0.38718805542E+03  0.25500000920E-02 0. -1.
    10030    2    1    2    0    0  0.00000000000E+00  0.00000000000E+00  0.15115808965E+04  0.22859570073E+04  0.17148535310E+04 0.  0.
        1    1    3    3  502    0 -0.50238061465E+03  0.16458271908E+03  0.16556688549E+04  0.17380198821E+04  0.50400001928E-02 0.  1.
       -1    1    3    3    0  502  0.50238061465E+03 -0.16458271908E+03 -0.14408795843E+03  0.54793712522E+03  0.50400001928E-02 0. -1.
</event>
<event>
 5   0  0.7242144E-04  0.1736984E+04  0.7818609E-02  0.8740548E-01
        2   -1    0    0  501    0  0.00000000000E+00  0.00000000000E+00  0.13905409463E+04  0.13905409463E+04  0.25500000920E-02 0. -1.
       -2   -1    0    0    0  501  0.00000000000E+00  0.00000000000E+00 -0.54243516865E+03  0.54243516865E+03  0.25500000920E-02 0.  1.
    10030    2    1    2    0    0  0.00000000000E+00  0.00000000000E+00  0.84810577763E+03  0.19329761149E+04  0.17369839524E+04 0.  0.
        3    1    3    3  502    0  0.49836501483E+03 -0.52743135389E+03  0.95510572865E+03  0.11994909271E+04  0.10100000352E+00 0. -1.
       -3    1    3    3    0  502 -0.49836501483E+03  0.52743135389E+03 -0.10699995102E+03  0.73348518785E+03  0.10100000352E+00 0.  1.
</event>
<event>
 5   0  0.7233728E-04  0.1771651E+04  0.7818609E-02  0.8721522E-01
        2   -1    0    0  501    0  0.00000000000E+00  0.00000000000E+00  0.22879828453E+04  0.22879828453E+04  0.25500000920E-02 0. -1.
       -2   -1    0    0    0  501  0.00000000000E+00  0.00000000000E+00 -0.34296027032E+03  0.34296027033E+03  0.25500000920E-02 0.  1.
    10030    2    1    2    0    0  0.00000000000E+00  0.00000000000E+00  0.19450225750E+04  0.26309431156E+04  0.17716514501E+04 0.  0.
        1    1    3    3  502    0  0.18643614222E+03  0.70419267623E+03  0.22402220574E+03  0.76212315873E+03  0.50400001928E-02 0.  1.
       -1    1    3    3    0  502 -0.18643614222E+03 -0.70419267623E+03  0.17210003692E+04  0.18688199569E+04  0.50400001928E-02 0. -1.
</event>
<event>
 5   0  0.7242144E-04  0.1652132E+04  0.7818609E-02  0.8789146E-01
       -2   -1    0    0    0  501  0.00000000000E+00  0.00000000000E+00  0.12748468541E+04  0.12748468541E+04  0.25500000920E-02 0.  1.
        2   -1    0    0  501    0  0.00000000000E+00  0.00000000000E+00 -0.53526826458E+03  0.53526826459E+03  0.25500000920E-02 0. -1.
    10030    2    1    2    0    0  0.00000000000E+00  0.00000000000E+00  0.73957858950E+03  0.18101151187E+04  0.16521320325E+04 0.  0.
        3    1    3    3  502    0 -0.18493908952E+03  0.25385823255E+03 -0.46729779560E+03  0.56303970467E+03  0.10100000352E+00 0. -1.
       -3    1    3    3    0  502  0.18493908952E+03 -0.25385823255E+03  0.12068763851E+04  0.12470754140E+04  0.10100000352E+00 0.  1.
</event>
<event>
 5   0  0.7025426E-04  0.1688362E+04  0.7818609E-02  0.8768030E-01
        2   -1    0    0  501    0  0.00000000000E+00  0.00000000000E+00  0.69214080500E+03  0.69214080501E+03  0.25500000920E-02 0. -1.
       -2   -1    0    0    0  501  0.00000000000E+00  0.00000000000E+00 -0.10296197976E+04  0.10296197976E+04  0.25500000920E-02 0.  1.
    10030    2    1    2    0    0  0.00000000000E+00  0.00000000000E+00 -0.33747899256E+03  0.17217606026E+04  0.16883623729E+04 0.  0.
        2    1    3    3  502    0 -0.41360033294E+03  0.64634428649E+03  0.19009564362E+03  0.79054571393E+03  0.25500000920E-02 0. -1.
       -2    1    3    3    0  502  0.41360033294E+03 -0.64634428649E+03 -0.52757463619E+03  0.93121488865E+03  0.25500000920E-02 0.  1.
</event>
<event>
 5   0  0.7233728E-04  0.1719043E+04  0.7818609E-02  0.8750577E-01
        2   -1    0    0  501    0  0.00000000000E+00  0.00000000000E+00  0.88423444546E+03  0.88423444546E+03  0.25500000920E-02 0. -1.
       -2   -1    0    0    0  501  0.00000000000E+00  0.00000000000E+00 -0.83549906736E+03  0.83549906736E+03  0.25500000920E-02 0.  1.
    10030    2    1    2    0    0  0.00000000000E+00  0.00000000000E+00  0.48735378104E+02  0.17197335128E+04  0.17190428203E+04 0.  0.
        1    1    3    3  502    0  0.13192682986E+03 -0.72893648849E+03 -0.41172483731E+03  0.84750836832E+03  0.50400001928E-02 0.  1.
       -1    1    3    3    0  502 -0.13192682986E+03  0.72893648849E+03  0.46046021542E+03  0.87222514450E+03  0.50400001928E-02 0. -1.
</event>
<event>
 5   0  0.3713516E-04  0.1575228E+04  0.7818609E-02  0.8835912E-01
        1   -1    0    0  501    0  0.00000000000E+00  0.00000000000E+00  0.18383132081E+04  0.18383132081E+04  0.50400001928E-02 0. -1.
       -1   -1    0    0    0  501  0.00000000000E+00  0.00000000000E+00 -0.33744850757E+03  0.33744850761E+03  0.50400001928E-02 0.  1.
    10030    2    1    2    0    0  0.00000000000E+00  0.00000000000E+00  0.15008647005E+04  0.21757617157E+04  0.15752282991E+04 0.  0.
        5    1    3    3  502    0 -0.62928269913E+03 -0.42529141709E+03  0.46253677144E+03  0.88928727632E+03  0.46999998093E+01 0.  1.
       -5    1    3    3    0  502  0.62928269913E+03  0.42529141709E+03  0.10383279291E+04  0.12864744394E+04  0.46999998093E+01 0. -1.
</event>
<event>
 5   0  0.3713516E-04  0.1595920E+04  0.7818609E-02  0.8823058E-01
        1   -1    0    0  501    0  0.00000000000E+00  0.00000000000E+00  0.95738555982E+03  0.95738555983E+03  0.50400001928E-02 0. -1.
       -1   -1    0    0    0  501  0.00000000000E+00  0.00000000000E+00 -0.66508221668E+03  0.66508221670E+03  0.50400001928E-02 0.  1.
    10030    2    1    2    0    0  0.00000000000E+00  0.00000000000E+00  0.29230334314E+03  0.16224677765E+04  0.15959199358E+04 0.  0.
        5    1    3    3  502    0 -0.70666243842E+03  0.34589997153E+03  0.28140395261E+03  0.83560090158E+03  0.46999998093E+01 0. -1.
       -5    1    3    3    0  502  0.70666243842E+03 -0.34589997153E+03  0.10899390526E+02  0.78686687495E+03  0.46999998093E+01 0.  1.
</event>
<event>
 5   0  0.7025426E-04  0.1701172E+04  0.7818609E-02  0.8760696E-01
       -2   -1    0    0    0  501  0.00000000000E+00  0.00000000000E+00  0.12479564808E+04  0.12479564808E+04  0.25500000920E-02 0. -1.
        2   -1    0    0  501    0  0.00000000000E+00  0.00000000000E+00 -0.57974473108E+03  0.57974473108E+03  0.25500000920E-02 0.  1.
    10030    2    1    2    0    0  0.00000000000E+00  0.00000000000E+00  0.66821174973E+03  0.18277012119E+04  0.17011715897E+04 0.  0.
        2    1    3    3  502    0 -0.27643885444E+03 -0.71921000191E+03  0.72120221145E+03  0.10553739133E+04  0.25500000920E-02 0.  1.
       -2    1    3    3    0  502  0.27643885444E+03  0.71921000191E+03 -0.52990461716E+02  0.77232729858E+03  0.25500000920E-02 0. -1.
</event>
<event>
 5   0  0.3635143E-04  0.1645414E+04  0.7818609E-02  0.8793124E-01
        1   -1    0    0  501    0  0.00000000000E+00  0.00000000000E+00  0.73593306398E+03  0.73593306400E+03  0.50400001928E-02 0.  1.
       -1   -1    0    0    0  501  0.00000000000E+00  0.00000000000E+00 -0.91971249733E+03  0.91971249735E+03  0.50400001928E-02 0. -1.
    10030    2    1    2    0    0  0.00000000000E+00  0.00000000000E+00 -0.18377943335E+03  0.16556455613E+04  0.16454140344E+04 0.  0.
        3    1    3    3  502    0  0.25178636472E+03 -0.62361236422E+03  0.38493252708E+03  0.77489471212E+03  0.10100000352E+00 0.  1.
       -3    1    3    3    0  502 -0.25178636472E+03  0.62361236422E+03 -0.56871196043E+03  0.88075084922E+03  0.10100000352E+00 0. -1.
</event>
<event>
 5   0  0.3713516E-04  0.1709476E+04  0.7818609E-02  0.8755978E-01
        1   -1    0    0  501    0  0.00000000000E+00  0.00000000000E+00  0.63060310947E+03  0.63060310949E+03  0.50400001928E-02 0. -1.
       -1   -1    0    0    0  501  0.00000000000E+00  0.00000000000E+00 -0.11585375355E+04  0.11585375355E+04  0.50400001928E-02 0.  1.
    10030    2    1    2    0    0  0.00000000000E+00  0.00000000000E+00 -0.52793442600E+03  0.17891406450E+04  0.17094763787E+04 0.  0.
        5    1    3    3  502    0  0.52145071303E+03  0.53709603724E+03 -0.69571069566E+03  0.10219679356E+04  0.46999998093E+01 0.  1.
       -5    1    3    3    0  502 -0.52145071303E+03 -0.53709603724E+03  0.16777626966E+03  0.76717270937E+03  0.46999998093E+01 0. -1.
</event>
<event>
 5   0  0.6746664E-04  0.1720746E+04  0.7818609E-02  0.8749620E-01
        2   -1    0    0  501    0  0.00000000000E+00  0.00000000000E+00  0.73883150980E+03  0.73883150980E+03  0.25500000920E-02 0.  1.
       -2   -1    0    0    0  501  0.00000000000E+00  0.00000000000E+00 -0.10019088552E+04  0.10019088552E+04  0.25500000920E-02 0. -1.
    10030    2    1    2    0    0  0.00000000000E+00  0.00000000000E+00 -0.26307734541E+03  0.17407403650E+04  0.17207461546E+04 0.  0.
        5    1    3    3  502    0 -0.58095930135E+03  0.44145685369E+02 -0.77194830312E+03  0.96715501552E+03  0.46999998093E+01 0. -1.
       -5    1    3    3    0  502  0.58095930135E+03 -0.44145685369E+02  0.50887095770E+03  0.77358534950E+03  0.46999998093E+01 0.  1.
</event>
<event>
 5   0  0.7242144E-04  0.1703681E+04  0.7818609E-02  0.8759268E-01
       -2   -1    0    0    0  501  0.00000000000E+00  0.00000000000E+00  0.64707607733E+03  0.64707607734E+03  0.25500000920E-02 0.  1.
        2   -1    0    0  501    0  0.00000000000E+00  0.00000000000E+00 -0.11214018502E+04  0.11214018502E+04  0.25500000920E-02 0. -1.
    10030    2    1    2    0    0  0.00000000000E+00  0.00000000000E+00 -0.47432577287E+03  0.17684779275E+04  0.17036810856E+04 0.  0.
        3    1    3    3  502    0  0.72746030431E+03  0.44316266150E+03 -0.24378202854E+03  0.88601429252E+03  0.10100000352E+00 0. -1.
       -3    1    3    3    0  502 -0.72746030431E+03 -0.44316266150E+03 -0.23054374432E+03  0.88246363503E+03  0.10100000352E+00 0.  1.
</event>
<event>
 5   0  0.3713516E-04  0.1754407E+04  0.7818609E-02  0.8730928E-01
        1   -1    0    0  501    0  0.00000000000E+00  0.00000000000E+00  0.15492329462E+04  0.15492329462E+04  0.50400001928E-02 0. -1.
       -1   -1    0    0    0  501  0.00000000000E+00  0.00000000000E+00 -0.49668834730E+03  0.49668834732E+03  0.50400001928E-02 0.  1.
    10030    2    1    2    0    0  0.00000000000E+00  0.00000000000E+00  0.10525445989E+04  0.20459212936E+04  0.17544069672E+04 0.  0.
        5    1    3    3  502    0  0.30888159837E+03 -0.38747228180E+03 -0.31782320275E+03  0.58870730349E+03  0.46999998093E+01 0.  1.
       -5    1    3    3    0  502 -0.30888159837E+03  0.38747228180E+03  0.13703678017E+04  0.14572139901E+04  0.46999998093E+01 0. -1.
</event>
<event>
 5   0  0.7025426E-04  0.1653842E+04  0.7818609E-02  0.8788137E-01
        2   -1    0    0  501    0  0.00000000000E+00  0.00000000000E+00  0.59349702175E+03  0.59349702176E+03  0.25500000920E-02 0.  1.
       -2   -1    0    0    0  501  0.00000000000E+00  0.00000000000E+00 -0.11521517887E+04  0.11521517887E+04  0.25500000920E-02 0. -1.
    10030    2    1    2    0    0  0.00000000000E+00  0.00000000000E+00 -0.55865476691E+03  0.17456488104E+04  0.16538423809E+04 0.  0.
        2    1    3    3  502    0 -0.23717105343E+03  0.78590024558E+03 -0.38439898623E+03  0.90645015594E+03  0.25500000920E-02 0.  1.
       -2    1    3    3    0  502  0.23717105343E+03 -0.78590024558E+03 -0.17425578069E+03  0.83919865448E+03  0.25500000920E-02 0. -1.
</event>
<event>
 5   0  0.3723500E-04  0.1592250E+04  0.7818609E-02  0.8825323E-01
       -1   -1    0    0    0  501  0.00000000000E+00  0.00000000000E+00  0.31420954666E+03  0.31420954670E+03  0.50400001928E-02 0.  1.
        1   -1    0    0  501    0  0.00000000000E+00  0.00000000000E+00 -0.20171740562E+04  0.20171740562E+04  0.50400001928E-02 0. -1.
    10030    2    1    2    0    0  0.00000000000E+00  0.00000000000E+00 -0.17029645095E+04  0.23313836029E+04  0.15922504147E+04 0.  0.
        1    1    3    3  502    0 -0.29627067700E+03 -0.69595505627E+03 -0.48782334423E+03  0.90005631468E+03  0.50400001928E-02 0.  1.
       -1    1    3    3    0  502  0.29627067700E+03  0.69595505627E+03 -0.12151411653E+04  0.14313272882E+04  0.50400001928E-02 0. -1.
</event>
<event>
 5   0  0.2639750E-04  0.1690879E+04  0.7818609E-02  0.8766584E-01
       -3   -1    0    0    0  501  0.00000000000E+00  0.00000000000E+00  0.13684095351E+04  0.13684095388E+04  0.10100000352E+00 0.  1.
        3   -1    0    0  501    0  0.00000000000E+00  0.00000000000E+00 -0.52233454452E+03  0.52233455428E+03  0.10100000352E+00 0. -1.
    10030    2    1    2    0    0  0.00000000000E+00  0.00000000000E+00  0.84607499059E+03  0.18907440931E+04  0.16908785693E+04 0.  0.
        3    1    3    3  502    0 -0.37841042453E+03 -0.58147323249E+03 -0.11725438064E+03  0.70360085949E+03  0.10100000352E+00 0. -1.
       -3    1    3    3    0  502  0.37841042453E+03  0.58147323249E+03  0.96332937122E+03  0.11871432336E+04  0.10100000352E+00 0.  1.
</event>
<event>
 5   0  0.7233728E-04  0.1713861E+04  0.7818609E-02  0.8753498E-01
        2   -1    0    0  501    0  0.00000000000E+00  0.00000000000E+00  0.50308505020E+03  0.50308505020E+03  0.25500000920E-02 0.  1.
       -2   -1    0    0    0  501  0.00000000000E+00  0.00000000000E+00 -0.14596532403E+04  0.14596532403E+04  0.25500000920E-02 0. -1.
    10030    2    1    2    0    0  0.00000000000E+00  0.00000000000E+00 -0.95656819006E+03  0.19627382905E+04  0.17138608154E+04 0.  0.
        1    1    3    3  502    0  0.74731528409E+01 -0.70116477735E+03 -0.10424017379E+04  0.12562998353E+04  0.50400001928E-02 0. -1.
       -1    1    3    3    0  502 -0.74731528409E+01  0.70116477735E+03  0.85833547802E+02  0.70643845518E+03  0.50400001928E-02 0.  1.
</event>
<event>
 5   0  0.3915701E-04  0.1273223E+04  0.7818609E-02  0.9051074E-01
       -1   -1    0    0    0  501  0.00000000000E+00  0.00000000000E+00  0.42657839605E+03  0.42657839608E+03  0.50400001928E-02 0.  1.
        1   -1    0    0  501    0  0.00000000000E+00  0.00000000000E+00 -0.95005731285E+03  0.95005731286E+03  0.50400001928E-02 0. -1.
    10030    2    1    2    0    0  0.00000000000E+00  0.00000000000E+00 -0.52347891680E+03  0.13766357089E+04  0.12732225645E+04 0.  0.
        2    1    3    3  502    0 -0.16682038930E+03 -0.57585734136E+03 -0.49321484424E+03  0.77633858752E+03  0.25500000920E-02 0. -1.
       -2    1    3    3    0  502  0.16682038930E+03  0.57585734136E+03 -0.30264072562E+02  0.60029712142E+03  0.25500000920E-02 0.  1.
</event>
<event>
 5   0  0.3635143E-04  0.1714041E+04  0.7818609E-02  0.8753397E-01
        1   -1    0    0  501    0  0.00000000000E+00  0.00000000000E+00  0.16811389131E+04  0.16811389131E+04  0.50400001928E-02 0. -1.
       -1   -1    0    0    0  501  0.00000000000E+00  0.00000000000E+00 -0.43689656733E+03  0.43689656736E+03  0.50400001928E-02 0.  1.
    10030    2    1    2    0    0  0.00000000000E+00  0.00000000000E+00  0.12442423458E+04  0.21180354805E+04  0.17140406301E+04 0.  0.
        3    1    3    3  502    0 -0.39275781464E+03  0.26437672885E+03  0.15048711021E+04  0.15775901876E+04  0.10100000352E+00 0. -1.
       -3    1    3    3    0  502  0.39275781464E+03 -0.26437672885E+03 -0.26062875638E+03  0.54044529286E+03  0.10100000352E+00 0.  1.
</event>
<event>
 5   0  0.3713516E-04  0.1958119E+04  0.7818609E-02  0.8626456E-01
       -1   -1    0    0    0  501  0.00000000000E+00  0.00000000000E+00  0.10644678230E+04  0.10644678230E+04  0.50400001928E-02 0.  1.
        1   -1    0    0  501    0  0.00000000000E+00  0.00000000000E+00 -0.90050386579E+03  0.90050386580E+03  0.50400001928E-02 0. -1.
    10030    2    1    2    0    0  0.00000000000E+00  0.00000000000E+00  0.16396395716E+03  0.19649716888E+04  0.19581188826E+04 0.  0.
        5    1    3    3  502    0 -0.57285079941E+03 -0.35375117137E+03 -0.63130611530E+03  0.92296664666E+03  0.46999998093E+01 0. -1.
       -5    1    3    3    0  502  0.57285079941E+03  0.35375117137E+03  0.79527007247E+03  0.10420050421E+04  0.46999998093E+01 0.  1.
</event>
<event>
 5   0  0.3915701E-04  0.1709259E+04  0.7818609E-02  0.8756101E-01
       -1   -1    0    0    0  501  0.00000000000E+00  0.00000000000E+00  0.57513301847E+03  0.57513301849E+03  0.50400001928E-02 0.  1.
        1   -1    0    0  501    0  0.00000000000E+00  0.00000000000E+00 -0.12699518837E+04  0.12699518837E+04  0.50400001928E-02 0. -1.
    10030    2    1    2    0    0  0.00000000000E+00  0.00000000000E+00 -0.69481886527E+03  0.18450849022E+04  0.17092586232E+04 0.  0.
        2    1    3    3  502    0  0.59306271003E+03  0.30690682247E+01  0.31684186189E+03  0.67239985326E+03  0.25500000920E-02 0.  1.
       -2    1    3    3    0  502 -0.59306271003E+03 -0.30690682247E+01 -0.10116607272E+04  0.11726850490E+04  0.25500000920E-02 0. -1.
</event>
<event>
 5   0  0.7049044E-04  0.1679751E+04  0.7818609E-02  0.8772998E-01
        2   -1    0    0  501    0  0.00000000000E+00  0.00000000000E+00  0.60246887279E+03  0.60246887280E+03  0.25500000920E-02 0.  1.
       -2   -1    0    0    0  501  0.00000000000E+00  0.00000000000E+00 -0.11708340648E+04  0.11708340648E+04  0.25500000920E-02 0. -1.
    10030    2    1    2    0    0  0.00000000000E+00  0.00000000000E+00 -0.56836519205E+03  0.17733029376E+04  0.16797512664E+04 0.  0.
        4    1    3    3  502    0  0.77288821103E+03 -0.32544618600E+03 -0.33276813771E+03  0.90222372675E+03  0.12699999809E+01 0.  1.
       -4    1    3    3    0  502 -0.77288821103E+03  0.32544618600E+03 -0.23559705434E+03  0.87107921089E+03  0.12699999809E+01 0. -1.
</event>
<event>
 5   0  0.3803253E-04  0.1781837E+04  0.7818609E-02  0.8716019E-01
        1   -1    0    0  501    0  0.00000000000E+00  0.00000000000E+00  0.59518201435E+03  0.59518201438E+03  0.50400001928E-02 0.  1.
       -1   -1    0    0    0  501  0.00000000000E+00  0.00000000000E+00 -0.13336010993E+04  0.13336010993E+04  0.50400001928E-02 0. -1.
    10030    2    1    2    0    0  0.00000000000E+00  0.00000000000E+00 -0.73841908491E+03  0.19287831137E+04  0.17818365679E+04 0.  0.
        4    1    3    3  502    0 -0.83618413586E+03 -0.15280563411E+03 -0.80410699121E+02  0.85382724500E+03  0.12699999809E+01 0.  1.
       -4    1    3    3    0  502  0.83618413586E+03  0.15280563411E+03 -0.65800838579E+03  0.10749558687E+04  0.12699999809E+01 0. -1.
</event>
<event>
 5   0  0.3713516E-04  0.1710553E+04  0.7818609E-02  0.8755368E-01
        1   -1    0    0  501    0  0.00000000000E+00  0.00000000000E+00  0.14857010981E+04  0.14857010981E+04  0.50400001928E-02 0.  1.
       -1   -1    0    0    0  501  0.00000000000E+00  0.00000000000E+00 -0.49235875301E+03  0.49235875304E+03  0.50400001928E-02 0. -1.
    10030    2    1    2    0    0  0.00000000000E+00  0.00000000000E+00  0.99334234507E+03  0.19780598511E+04  0.17105530568E+04 0.  0.
        5    1    3    3  502    0  0.72358852589E+03 -0.69874637257E+02  0.10177036988E+04  0.12506821052E+04  0.46999998093E+01 0.  1.
       -5    1    3    3    0  502 -0.72358852589E+03  0.69874637257E+02 -0.24361353704E+02  0.72737774594E+03  0.46999998093E+01 0. -1.
</event>
<event>
 5   0  0.2639750E-04  0.1702096E+04  0.7818609E-02  0.8760170E-01
        4   -1    0    0  501    0  0.00000000000E+00  0.00000000000E+00  0.18131907038E+04  0.18131911486E+04  0.12699999809E+01 0.  1.
       -4   -1    0    0    0  501  0.00000000000E+00  0.00000000000E+00 -0.39945066432E+03  0.39945268321E+03  0.12699999809E+01 0. -1.
    10030    2    1    2    0    0  0.00000000000E+00  0.00000000000E+00  0.14137400395E+04  0.22126438318E+04  0.17020963037E+04 0.  0.
        2    1    3    3  502    0 -0.35192299901E+03 -0.77412708615E+03  0.66258734259E+03  0.10780280744E+04  0.25500000920E-02 0.  1.
       -2    1    3    3    0  502  0.35192299901E+03  0.77412708615E+03  0.75115269691E+03  0.11346157573E+04  0.25500000920E-02 0. -1.
</event>
<event>
 5   0  0.7233728E-04  0.1290173E+04  0.7818609E-02  0.9037394E-01
        2   -1    0    0  501    0  0.00000000000E+00  0.00000000000E+00  0.17365311010E+04  0.17365311010E+04  0.25500000920E-02 0.  1.
       -2   -1    0    0    0  501  0.00000000000E+00  0.00000000000E+00 -0.23963675842E+03  0.23963675844E+03  0.25500000920E-02 0. -1.
    10030    2    1    2    0    0  0.00000000000E+00  0.00000000000E+00  0.14968943426E+04  0.19761678594E+04  0.12901731418E+04 0.  0.
        1    1    3    3  502    0  0.52279673577E+03  0.19355999772E+03  0.12456149404E+04  0.13646752286E+04  0.50400001928E-02 0.  1.
       -1    1    3    3    0  502 -0.52279673577E+03 -0.19355999772E+03  0.25127940217E+03  0.61149263089E+03  0.50400001928E-02 0. -1.
</event>
<event>
 5   0  0.7242144E-04  0.1697802E+04  0.7818609E-02  0.8762619E-01
       -2   -1    0    0    0  501  0.00000000000E+00  0.00000000000E+00  0.60633945919E+03  0.60633945920E+03  0.25500000920E-02 0. -1.
        2   -1    0    0  501    0  0.00000000000E+00  0.00000000000E+00 -0.11884976935E+04  0.11884976935E+04  0.25500000920E-02 0.  1.
    10030    2    1    2    0    0  0.00000000000E+00  0.00000000000E+00 -0.58215823429E+03  0.17948371527E+04  0.16978021660E+04 0.  0.
        3    1    3    3  502    0  0.49559160720E+03 -0.22135303591E+03 -0.98108917908E+03  0.11212244178E+04  0.10100000352E+00 0.  1.
       -3    1    3    3    0  502 -0.49559160720E+03  0.22135303591E+03  0.39893094479E+03  0.67361273485E+03  0.10100000352E+00 0. -1.
</event>
<event>
 5   0  0.7242144E-04  0.1717619E+04  0.7818609E-02  0.8751379E-01
        2   -1    0    0  501    0  0.00000000000E+00  0.00000000000E+00  0.10018856696E+04  0.10018856696E+04  0.25500000920E-02 0.  1.
       -2   -1    0    0    0  501  0.00000000000E+00  0.00000000000E+00 -0.73616526050E+03  0.73616526051E+03  0.25500000920E-02 0. -1.
    10030    2    1    2    0    0  0.00000000000E+00  0.00000000000E+00  0.26572040913E+03  0.17380509301E+04  0.17176186131E+04 0.  0.
        3    1    3    3  502    0 -0.48303374053E+03 -0.19208099494E+03  0.82461266088E+03  0.97478343943E+03  0.10100000352E+00 0.  1.
       -3    1    3    3    0  502  0.48303374053E+03  0.19208099494E+03 -0.55889225175E+03  0.76326749071E+03  0.10100000352E+00 0. -1.
</event>
<event>
 5   0  0.3803253E-04  0.1721414E+04  0.7818609E-02  0.8749244E-01
        1   -1    0    0  501    0  0.00000000000E+00  0.00000000000E+00  0.11178447437E+04  0.11178447437E+04  0.50400001928E-02 0.  1.
       -1   -1    0    0    0  501  0.00000000000E+00  0.00000000000E+00 -0.66271892663E+03  0.66271892665E+03  0.50400001928E-02 0. -1.
    10030    2    1    2    0    0  0.00000000000E+00  0.00000000000E+00  0.45512581705E+03  0.17805636703E+04  0.17214143821E+04 0.  0.
        4    1    3    3  502    0  0.42597294125E+03 -0.41235877320E+03  0.87295978808E+03  0.10552502589E+04  0.12699999809E+01 0.  1.
       -4    1    3    3    0  502 -0.42597294125E+03  0.41235877320E+03 -0.41783397102E+03  0.72531341139E+03  0.12699999809E+01 0. -1.
</event>
<event>
 5   0  0.7233728E-04  0.1668605E+04  0.7818609E-02  0.8779476E-01
       -2   -1    0    0    0  501  0.00000000000E+00  0.00000000000E+00  0.11183251654E+04  0.11183251654E+04  0.25500000920E-02 0.  1.
        2   -1    0    0  501    0  0.00000000000E+00  0.00000000000E+00 -0.62241314717E+03  0.62241314717E+03  0.25500000920E-02 0. -1.
    10030    2    1    2    0    0  0.00000000000E+00  0.00000000000E+00  0.49591201818E+03  0.17407383125E+04  0.16686045496E+04 0.  0.
        1    1    3    3  502    0 -0.30111012977E+03  0.32667442752E+02 -0.56303424891E+03  0.63932936546E+03  0.50400001928E-02 0. -1.
       -1    1    3    3    0  502  0.30111012977E+03 -0.32667442752E+02  0.10589462671E+04  0.11014089471E+04  0.50400001928E-02 0.  1.
</event>
<event>
 5   0  0.3915701E-04  0.1736993E+04  0.7818609E-02  0.8740543E-01
        1   -1    0    0  501    0  0.00000000000E+00  0.00000000000E+00  0.51395379374E+03  0.51395379376E+03  0.50400001928E-02 0. -1.
       -1   -1    0    0    0  501  0.00000000000E+00  0.00000000000E+00 -0.14676143872E+04  0.14676143872E+04  0.50400001928E-02 0.  1.
    10030    2    1    2    0    0  0.00000000000E+00  0.00000000000E+00 -0.95366059349E+03  0.19815681810E+04  0.17369927831E+04 0.  0.
        2    1    3    3  502    0 -0.13763982874E+03 -0.77946284938E+03 -0.69036492792E+02  0.79452696202E+03  0.25500000920E-02 0. -1.
       -2    1    3    3    0  502  0.13763982874E+03  0.77946284938E+03 -0.88462410070E+03  0.11870412190E+04  0.25500000920E-02 0.  1.
</event>
<event>
 5   0  0.3723500E-04  0.1672072E+04  0.7818609E-02  0.8777455E-01
       -1   -1    0    0    0  501  0.00000000000E+00  0.00000000000E+00  0.13077371877E+04  0.13077371877E+04  0.50400001928E-02 0.  1.
        1   -1    0    0  501    0  0.00000000000E+00  0.00000000000E+00 -0.53447744764E+03  0.53447744766E+03  0.50400001928E-02 0. -1.
    10030    2    1    2    0    0  0.00000000000E+00  0.00000000000E+00  0.77325974003E+03  0.18422146353E+04  0.16720718098E+04 0.  0.
        1    1    3    3  502    0  0.69910751523E+03 -0.10712583584E+03  0.87778159915E+03  0.11272656290E+04  0.50400001928E-02 0. -1.
       -1    1    3    3    0  502 -0.69910751523E+03  0.10712583584E+03 -0.10452185912E+03  0.71494900631E+03  0.50400001928E-02 0.  1.
</event>
<event>
 5   0  0.3713516E-04  0.1678333E+04  0.7818609E-02  0.8773819E-01
       -1   -1    0    0    0  501  0.00000000000E+00  0.00000000000E+00  0.40633115856E+03  0.40633115859E+03  0.50400001928E-02 0. -1.
        1   -1    0    0  501    0  0.00000000000E+00  0.00000000000E+00 -0.17330701300E+04  0.17330701301E+04  0.50400001928E-02 0.  1.
    10030    2    1    2    0    0  0.00000000000E+00  0.00000000000E+00 -0.13267389715E+04  0.21394012886E+04  0.16783329751E+04 0.  0.
        5    1    3    3  502    0  0.78155616087E+03 -0.20826416608E+03 -0.37840711070E+03  0.89298265767E+03  0.46999998093E+01 0. -1.
       -5    1    3    3    0  502 -0.78155616087E+03  0.20826416608E+03 -0.94833186078E+03  0.12464186310E+04  0.46999998093E+01 0.  1.
</event>
<event>
 5   0  0.7025426E-04  0.1688559E+04  0.7818609E-02  0.8767916E-01
       -2   -1    0    0    0  501  0.00000000000E+00  0.00000000000E+00  0.83289096224E+03  0.83289096225E+03  0.25500000920E-02 0.  1.
        2   -1    0    0  501    0  0.00000000000E+00  0.00000000000E+00 -0.85582416277E+03  0.85582416278E+03  0.25500000920E-02 0. -1.
    10030    2    1    2    0    0  0.00000000000E+00  0.00000000000E+00 -0.22933200530E+02  0.16887151250E+04  0.16885593984E+04 0.  0.
        2    1    3    3  502    0 -0.41065818824E+03 -0.38786714476E+03  0.61606807358E+03  0.83583547474E+03  0.25500000920E-02 0.  1.
       -2    1    3    3    0  502  0.41065818824E+03  0.38786714476E+03 -0.63900127411E+03  0.85287965028E+03  0.25500000920E-02 0. -1.
</event>
<event>
 5   0  0.7233728E-04  0.1250089E+04  0.7818609E-02  0.9070109E-01
        2   -1    0    0  501    0  0.00000000000E+00  0.00000000000E+00  0.48436685041E+03  0.48436685041E+03  0.25500000920E-02 0. -1.
       -2   -1    0    0    0  501  0.00000000000E+00  0.00000000000E+00 -0.80657982145E+03  0.80657982146E+03  0.25500000920E-02 0.  1.
    10030    2    1    2    0    0  0.00000000000E+00  0.00000000000E+00 -0.32221297105E+03  0.12909466719E+04  0.12500888412E+04 0.  0.
        1    1    3    3  502    0 -0.35161869720E+03  0.31570646449E+03  0.26137895080E+03  0.54002336606E+03  0.50400001928E-02 0. -1.
       -1    1    3    3    0  502  0.35161869720E+03 -0.31570646449E+03 -0.58359192185E+03  0.75092330581E+03  0.50400001928E-02 0.  1.
</event>
<event>
 5   0  0.7242144E-04  0.1617626E+04  0.7818609E-02  0.8809792E-01
       -2   -1    0    0    0  501  0.00000000000E+00  0.00000000000E+00  0.14435587334E+04  0.14435587334E+04  0.25500000920E-02 0.  1.
        2   -1    0    0  501    0  0.00000000000E+00  0.00000000000E+00 -0.45317056338E+03  0.45317056339E+03  0.25500000920E-02 0. -1.
    10030    2    1    2    0    0  0.00000000000E+00  0.00000000000E+00  0.99038816999E+03  0.18967292968E+04  0.16176258214E+04 0.  0.
        3    1    3    3  502    0  0.20503655699E+03 -0.76764221516E+02  0.14081537147E+04  0.14250717982E+04  0.10100000352E+00 0.  1.
       -3    1    3    3    0  502 -0.20503655699E+03  0.76764221516E+02 -0.41776554474E+03  0.47165749860E+03  0.10100000352E+00 0. -1.
</event>
<event>
 5   0  0.2639750E-04  0.1706626E+04  0.7818609E-02  0.8757594E-01
        3   -1    0    0  501    0  0.00000000000E+00  0.00000000000E+00  0.57783272470E+03  0.57783273353E+03  0.10100000352E+00 0.  1.
       -3   -1    0    0    0  501  0.00000000000E+00  0.00000000000E+00 -0.12601277854E+04  0.12601277894E+04  0.10100000352E+00 0. -1.
    10030    2    1    2    0    0  0.00000000000E+00  0.00000000000E+00 -0.68229506069E+03  0.18379605230E+04  0.17066260089E+04 0.  0.
        4    1    3    3  502    0 -0.21771020914E+03 -0.53358558449E+03  0.33659064556E+03  0.66738758358E+03  0.12699999809E+01 0.  1.
       -4    1    3    3    0  502  0.21771020914E+03  0.53358558449E+03 -0.10188857062E+04  0.11705729394E+04  0.12699999809E+01 0. -1.
</event>
<event>
 5   0  0.2639750E-04  0.1686133E+04  0.7818609E-02  0.8769313E-01
       -4   -1    0    0    0  501  0.00000000000E+00  0.00000000000E+00  0.90125973429E+03  0.90126062909E+03  0.12699999809E+01 0.  1.
        4   -1    0    0  501    0  0.00000000000E+00  0.00000000000E+00 -0.78862887825E+03  0.78862990084E+03  0.12699999809E+01 0. -1.
    10030    2    1    2    0    0  0.00000000000E+00  0.00000000000E+00  0.11263085604E+03  0.16898905299E+04  0.16861329406E+04 0.  0.
        2    1    3    3  502    0  0.14825875911E+03 -0.73596544605E+03  0.44075241364E+03  0.87056791094E+03  0.25500000920E-02 0.  1.
       -2    1    3    3    0  502 -0.14825875911E+03  0.73596544605E+03 -0.32812155760E+03  0.81932261899E+03  0.25500000920E-02 0. -1.
</event>
<event>
 5   0  0.7049044E-04  0.1696087E+04  0.7818609E-02  0.8763599E-01
       -2   -1    0    0    0  501  0.00000000000E+00  0.00000000000E+00  0.91099425853E+03  0.91099425854E+03  0.25500000920E-02 0. -1.
        2   -1    0    0  501    0  0.00000000000E+00  0.00000000000E+00 -0.78944234483E+03  0.78944234484E+03  0.25500000920E-02 0.  1.
    10030    2    1    2    0    0  0.00000000000E+00  0.00000000000E+00  0.12155191370E+03  0.17004366034E+04  0.16960866058E+04 0.  0.
        4    1    3    3  502    0  0.35590154218E+03  0.47418473294E+03 -0.54712787473E+03  0.80676365367E+03  0.12699999809E+01 0.  1.
       -4    1    3    3    0  502 -0.35590154218E+03 -0.47418473294E+03  0.66867978843E+03  0.89367294970E+03  0.12699999809E+01 0. -1.
</event>
<event>
 5   0  0.7233728E-04  0.1668897E+04  0.7818609E-02  0.8779305E-01
        2   -1    0    0  501    0  0.00000000000E+00  0.00000000000E+00  0.93529838715E+03  0.93529838715E+03  0.25500000920E-02 0.  1.
       -2   -1    0    0    0  501  0.00000000000E+00  0.00000000000E+00 -0.74447293192E+03  0.74447293192E+03  0.25500000920E-02 0. -1.
    10030    2    1    2    0    0  0.00000000000E+00  0.00000000000E+00  0.19082545523E+03  0.16797713191E+04  0.16688970400E+04 0.  0.
        1    1    3    3  502    0 -0.21199589784E+03 -0.66622234365E+03  0.55391341031E+03  0.89197227425E+03  0.50400001928E-02 0.  1.
       -1    1    3    3    0  502  0.21199589784E+03  0.66622234365E+03 -0.36308795508E+03  0.78779904483E+03  0.50400001928E-02 0. -1.
</event>
<event>
 5   0  0.3723500E-04  0.1685898E+04  0.7818609E-02  0.8769448E-01
        1   -1    0    0  501    0  0.00000000000E+00  0.00000000000E+00  0.77899930877E+03  0.77899930878E+03  0.50400001928E-02 0. -1.
       -1   -1    0    0    0  501  0.00000000000E+00  0.00000000000E+00 -0.91214833162E+03  0.91214833164E+03  0.50400001928E-02 0.  1.
    10030    2    1    2    0    0  0.00000000000E+00  0.00000000000E+00 -0.13314902286E+03  0.16911476404E+04  0.16858978852E+04 0.  0.
        1    1    3    3  502    0 -0.19567376425E+03 -0.44079869476E+03  0.62693293170E+03  0.79097194147E+03  0.50400001928E-02 0. -1.
       -1    1    3    3    0  502  0.19567376425E+03  0.44079869476E+03 -0.76008195455E+03  0.90017569895E+03  0.50400001928E-02 0.  1.
</event>
<event>
 5   0  0.3713516E-04  0.1703175E+04  0.7818609E-02  0.8759555E-01
        1   -1    0    0  501    0  0.00000000000E+00  0.00000000000E+00  0.12283634239E+04  0.12283634239E+04  0.50400001928E-02 0. -1.
       -1   -1    0    0    0  501  0.00000000000E+00  0.00000000000E+00 -0.59038025409E+03  0.59038025411E+03  0.50400001928E-02 0.  1.
    10030    2    1    2    0    0  0.00000000000E+00  0.00000000000E+00  0.63798316978E+03  0.18187436780E+04  0.17031752820E+04 0.  0.
        5    1    3    3  502    0 -0.54808414057E+03 -0.11497239418E+02 -0.37687860304E+03  0.66527286363E+03  0.46999998093E+01 0.  1.
       -5    1    3    3    0  502  0.54808414057E+03  0.11497239418E+02  0.10148617728E+04  0.11534708144E+04  0.46999998093E+01 0. -1.
</event>
<event>
 5   0  0.6746664E-04  0.1711304E+04  0.7818609E-02  0.8754943E-01
       -2   -1    0    0    0  501  0.00000000000E+00  0.00000000000E+00  0.70863864465E+03  0.70863864466E+03  0.25500000920E-02 0. -1.
        2   -1    0    0  501    0  0.00000000000E+00  0.00000000000E+00 -0.10331648837E+04  0.10331648837E+04  0.25500000920E-02 0.  1.
    10030    2    1    2    0    0  0.00000000000E+00  0.00000000000E+00 -0.32452623900E+03  0.17418035283E+04  0.17113042545E+04 0.  0.
        5    1    3    3  502    0 -0.90729350053E+02  0.59304808536E+03  0.45867570778E+03  0.75521079271E+03  0.46999998093E+01 0. -1.
       -5    1    3    3    0  502  0.90729350053E+02 -0.59304808536E+03 -0.78320194679E+03  0.98659273561E+03  0.46999998093E+01 0.  1.
</event>
<event>
 5   0  0.6746664E-04  0.1663333E+04  0.7818609E-02  0.8782558E-01
       -2   -1    0    0    0  501  0.00000000000E+00  0.00000000000E+00  0.62260490533E+03  0.62260490533E+03  0.25500000920E-02 0. -1.
        2   -1    0    0  501    0  0.00000000000E+00  0.00000000000E+00 -0.11109274222E+04  0.11109274222E+04  0.25500000920E-02 0.  1.
    10030    2    1    2    0    0  0.00000000000E+00  0.00000000000E+00 -0.48832251687E+03  0.17335323275E+04  0.16633326336E+04 0.  0.
        5    1    3    3  502    0 -0.50061550374E+03 -0.52875318883E+03  0.17460641216E+03  0.74880258176E+03  0.46999998093E+01 0. -1.
       -5    1    3    3    0  502  0.50061550374E+03  0.52875318883E+03 -0.66292892903E+03  0.98472974578E+03  0.46999998093E+01 0.  1.
</event>
<event>
 5   0  0.6746664E-04  0.1660653E+04  0.7818609E-02  0.8784129E-01
        2   -1    0    0  501    0  0.00000000000E+00  0.00000000000E+00  0.14079276367E+04  0.14079276367E+04  0.25500000920E-02 0.  1.
       -2   -1    0    0    0  501  0.00000000000E+00  0.00000000000E+00 -0.48968591189E+03  0.48968591189E+03  0.25500000920E-02 0. -1.
    10030    2    1    2    0    0  0.00000000000E+00  0.00000000000E+00  0.91824172477E+03  0.18976135485E+04  0.16606532794E+04 0.  0.
        5    1    3    3  502    0 -0.55796161445E+03  0.44920182218E+03 -0.20696159231E+02  0.71662672379E+03  0.46999998093E+01 0. -1.
       -5    1    3    3    0  502  0.55796161445E+03 -0.44920182218E+03  0.93893788400E+03  0.11809868248E+04  0.46999998093E+01 0.  1.
</event>
<event>
 5   0  0.7049044E-04  0.1665306E+04  0.7818609E-02  0.8781403E-01
        2   -1    0    0  501    0  0.00000000000E+00  0.00000000000E+00  0.18321665317E+04  0.18321665317E+04  0.25500000920E-02 0. -1.
       -2   -1    0    0    0  501  0.00000000000E+00  0.00000000000E+00 -0.37841052184E+03  0.37841052185E+03  0.25500000920E-02 0.  1.
    10030    2    1    2    0    0  0.00000000000E+00  0.00000000000E+00  0.14537560098E+04  0.22105770535E+04  0.16653060900E+04 0.  0.
        4    1    3    3  502    0  0.64105206509E+02  0.82843403382E+03  0.65543002982E+03  0.10583017352E+04  0.12699999809E+01 0.  1.
       -4    1    3    3    0  502 -0.64105206509E+02 -0.82843403382E+03  0.79832598000E+03  0.11522753183E+04  0.12699999809E+01 0. -1.
</event>
<event>
 5   0  0.7049044E-04  0.1746429E+04  0.7818609E-02  0.8735318E-01
       -2   -1    0    0    0  501  0.00000000000E+00  0.00000000000E+00  0.56093645162E+03  0.56093645162E+03  0.25500000920E-02 0.  1.
        2   -1    0    0  501    0  0.00000000000E+00  0.00000000000E+00 -0.13593404020E+04  0.13593404020E+04  0.25500000920E-02 0. -1.
    10030    2    1    2    0    0  0.00000000000E+00  0.00000000000E+00 -0.79840395038E+03  0.19202768536E+04  0.17464290213E+04 0.  0.
        4    1    3    3  502    0 -0.33227932291E+03 -0.47538159609E+03 -0.11169485018E+04  0.12585598035E+04  0.12699999809E+01 0. -1.
       -4    1    3    3    0  502  0.33227932291E+03  0.47538159609E+03  0.31854455142E+03  0.66171705016E+03  0.12699999809E+01 0.  1.
</event>
<event>
 5   0  0.3713516E-04  0.1678529E+04  0.7818609E-02  0.8773706E-01
        1   -1    0    0  501    0  0.00000000000E+00  0.00000000000E+00  0.11714996735E+04  0.11714996736E+04  0.50400001928E-02 0. -1.
       -1   -1    0    0    0  501  0.00000000000E+00  0.00000000000E+00 -0.60125043566E+03  0.60125043568E+03  0.50400001928E-02 0.  1.
    10030    2    1    2    0    0  0.00000000000E+00  0.00000000000E+00  0.57024923789E+03  0.17727501092E+04  0.16785287476E+04 0.  0.
        5    1    3    3  502    0  0.17936973781E+03  0.61838902793E+03  0.85363844491E+03  0.10692516904E+04  0.46999998093E+01 0. -1.
       -5    1    3    3    0  502 -0.17936973781E+03 -0.61838902793E+03 -0.28338920702E+03  0.70349841888E+03  0.46999998093E+01 0.  1.
</event>
<event>
 5   0  0.7242144E-04  0.1582051E+04  0.7818609E-02  0.8831651E-01
       -2   -1    0    0    0  501  0.00000000000E+00  0.00000000000E+00  0.23616364219E+03  0.23616364221E+03  0.25500000920E-02 0. -1.
        2   -1    0    0  501    0  0.00000000000E+00  0.00000000000E+00 -0.26495236617E+04  0.26495236617E+04  0.25500000920E-02 0.  1.
    10030    2    1    2    0    0  0.00000000000E+00  0.00000000000E+00 -0.24133600195E+04  0.28856873039E+04  0.15820507679E+04 0.  0.
        3    1    3    3  502    0 -0.63839007150E+03 -0.10087603210E+03 -0.20385662781E+04  0.21385673564E+04  0.10100000352E+00 0.  1.
       -3    1    3    3    0  502  0.63839007150E+03  0.10087603210E+03 -0.37479374141E+03  0.74711994756E+03  0.10100000352E+00 0. -1.
</event>
<event>
 5   0  0.7025426E-04  0.1544226E+04  0.7818609E-02  0.8855565E-01
        2   -1    0    0  501    0  0.00000000000E+00  0.00000000000E+00  0.14528262889E+04  0.14528262889E+04  0.25500000920E-02 0.  1.
       -2   -1    0    0    0  501  0.00000000000E+00  0.00000000000E+00 -0.41034372865E+03  0.41034372866E+03  0.25500000920E-02 0. -1.
    10030    2    1    2    0    0  0.00000000000E+00  0.00000000000E+00  0.10424825602E+04  0.18631700175E+04  0.15442255748E+04 0.  0.
        2    1    3    3  502    0 -0.73322276040E+03  0.60783665299E+02  0.80380844431E+03  0.10896872421E+04  0.25500000920E-02 0. -1.
       -2    1    3    3    0  502  0.73322276040E+03 -0.60783665299E+02  0.23867411590E+03  0.77348277547E+03  0.25500000920E-02 0.  1.
</event>
<event>
 5   0  0.3635143E-04  0.1724193E+04  0.7818609E-02  0.8747685E-01
       -1   -1    0    0    0  501  0.00000000000E+00  0.00000000000E+00  0.43508890768E+03  0.43508890771E+03  0.50400001928E-02 0.  1.
        1   -1    0    0  501    0  0.00000000000E+00  0.00000000000E+00 -0.17081798255E+04  0.17081798255E+04  0.50400001928E-02 0. -1.
    10030    2    1    2    0    0  0.00000000000E+00  0.00000000000E+00 -0.12730909178E+04  0.21432687332E+04  0.17241926742E+04 0.  0.
        3    1    3    3  502    0 -0.39951929406E+03 -0.28725186897E+03 -0.15164685323E+04  0.15943042753E+04  0.10100000352E+00 0. -1.
       -3    1    3    3    0  502  0.39951929406E+03  0.28725186897E+03  0.24337761453E+03  0.54896445788E+03  0.10100000352E+00 0.  1.
</event>
<event>
 5   0  0.6746664E-04  0.1701368E+04  0.7818609E-02  0.8760584E-01
        2   -1    0    0  501    0  0.00000000000E+00  0.00000000000E+00  0.21196597051E+04  0.21196597051E+04  0.25500000920E-02 0. -1.
       -2   -1    0    0    0  501  0.00000000000E+00  0.00000000000E+00 -0.34140556418E+03  0.34140556419E+03  0.25500000920E-02 0.  1.
    10030    2    1    2    0    0  0.00000000000E+00  0.00000000000E+00  0.17782541409E+04  0.24610652693E+04  0.17013684110E+04 0.  0.
        5    1    3    3  502    0 -0.72873699786E+03 -0.90097809807E+02  0.26785291861E+03  0.78162811067E+03  0.46999998093E+01 0.  1.
       -5    1    3    3    0  502  0.72873699786E+03  0.90097809807E+02  0.15104012223E+04  0.16794371586E+04  0.46999998093E+01 0. -1.
</event>
<event>
 5   0  0.7025426E-04  0.1704199E+04  0.7818609E-02  0.8758973E-01
        2   -1    0    0  501    0  0.00000000000E+00  0.00000000000E+00  0.23818918456E+04  0.23818918456E+04  0.25500000920E-02 0. -1.
       -2   -1    0    0    0  501  0.00000000000E+00  0.00000000000E+00 -0.30483057134E+03  0.30483057135E+03  0.25500000920E-02 0.  1.
    10030    2    1    2    0    0  0.00000000000E+00  0.00000000000E+00  0.20770612742E+04  0.26867224169E+04  0.17041988759E+04 0.  0.
        2    1    3    3  502    0  0.49354424957E+03 -0.15533016463E+01  0.21336071979E+04  0.21899470346E+04  0.25500000920E-02 0. -1.
       -2    1    3    3    0  502 -0.49354424957E+03  0.15533016463E+01 -0.56545923708E+02  0.49677538236E+03  0.25500000920E-02 0.  1.
</event>
<event>
 5   0  0.3723500E-04  0.1460155E+04  0.7818609E-02  0.8911390E-01
        1   -1    0    0  501    0  0.00000000000E+00  0.00000000000E+00  0.16990965492E+04  0.16990965492E+04  0.50400001928E-02 0. -1.
       -1   -1    0    0    0  501  0.00000000000E+00  0.00000000000E+00 -0.31370387031E+03  0.31370387035E+03  0.50400001928E-02 0.  1.
    10030    2    1    2    0    0  0.00000000000E+00  0.00000000000E+00  0.13853926789E+04  0.20128004196E+04  0.14601550103E+04 0.  0.
        1    1    3    3  502    0  0.53960410023E+03  0.42698050757E+03  0.10290244881E+04  0.12378918919E+04  0.50400001928E-02 0. -1.
       -1    1    3    3    0  502 -0.53960410023E+03 -0.42698050757E+03  0.35636819078E+03  0.77490852767E+03  0.50400001928E-02 0.  1.
</event>
<event>
 5   0  0.6746664E-04  0.1763087E+04  0.7818609E-02  0.8726179E-01
       -2   -1    0    0    0  501  0.00000000000E+00  0.00000000000E+00  0.48013056438E+03  0.48013056439E+03  0.25500000920E-02 0.  1.
        2   -1    0    0  501    0  0.00000000000E+00  0.00000000000E+00 -0.16185581860E+04  0.16185581860E+04  0.25500000920E-02 0. -1.
    10030    2    1    2    0    0  0.00000000000E+00  0.00000000000E+00 -0.11384276216E+04  0.20986887504E+04  0.17630873550E+04 0.  0.
        5    1    3    3  502    0  0.81779044901E+03 -0.31637432353E+03 -0.46127054970E+03  0.99079086649E+03  0.46999998093E+01 0.  1.
       -5    1    3    3    0  502 -0.81779044901E+03  0.31637432353E+03 -0.67715707189E+03  0.11078978839E+04  0.46999998093E+01 0. -1.
</event>
<event>
 5   0  0.6746664E-04  0.1774240E+04  0.7818609E-02  0.8720119E-01
        2   -1    0    0  501    0  0.00000000000E+00  0.00000000000E+00  0.11408787902E+04  0.11408787902E+04  0.25500000920E-02 0.  1.
       -2   -1    0    0    0  501  0.00000000000E+00  0.00000000000E+00 -0.68980351687E+03  0.68980351687E+03  0.25500000920E-02 0. -1.
    10030    2    1    2    0    0  0.00000000000E+00  0.00000000000E+00  0.45107527332E+03  0.18306823071E+04  0.17742403465E+04 0.  0.
        5    1    3    3  502    0 -0.56705614675E+03  0.68192404856E+03  0.24583655897E+03  0.92034275424E+03  0.46999998093E+01 0.  1.
       -5    1    3    3    0  502  0.56705614675E+03 -0.68192404856E+03  0.20523871435E+03  0.91033955282E+03  0.46999998093E+01 0. -1.
</event>
<event>
 5   0  0.7242144E-04  0.1698495E+04  0.7818609E-02  0.8762223E-01
       -2   -1    0    0    0  501  0.00000000000E+00  0.00000000000E+00  0.16766565971E+04  0.16766565971E+04  0.25500000920E-02 0. -1.
        2   -1    0    0  501    0  0.00000000000E+00  0.00000000000E+00 -0.43015462968E+03  0.43015462969E+03  0.25500000920E-02 0.  1.
    10030    2    1    2    0    0  0.00000000000E+00  0.00000000000E+00  0.12465019674E+04  0.21068112268E+04  0.16984953313E+04 0.  0.
        3    1    3    3  502    0 -0.81178296180E+03  0.96934815568E+02  0.33813827131E+03  0.88471771558E+03  0.10100000352E+00 0.  1.
       -3    1    3    3    0  502  0.81178296180E+03 -0.96934815568E+02  0.90836369610E+03  0.12220935112E+04  0.10100000352E+00 0. -1.
</event>
<event>
 5   0  0.2639750E-04  0.1511108E+04  0.7818609E-02  0.8877100E-01
       -4   -1    0    0    0  501  0.00000000000E+00  0.00000000000E+00  0.88050089658E+03  0.88050181248E+03  0.12699999809E+01 0.  1.
        4   -1    0    0  501    0  0.00000000000E+00  0.00000000000E+00 -0.64833560982E+03  0.64833685370E+03  0.12699999809E+01 0. -1.
    10030    2    1    2    0    0  0.00000000000E+00  0.00000000000E+00  0.23216528676E+03  0.15288386662E+04  0.15111078541E+04 0.  0.
        5    1    3    3  502    0  0.51352499877E+03 -0.22264693919E+03 -0.39737598499E+03  0.68644690059E+03  0.46999998093E+01 0. -1.
       -5    1    3    3    0  502 -0.51352499877E+03  0.22264693919E+03  0.62954127175E+03  0.84239176558E+03  0.46999998093E+01 0.  1.
</event>
<event>
 5   0  0.3713516E-04  0.1405807E+04  0.7818609E-02  0.8949626E-01
       -1   -1    0    0    0  501  0.00000000000E+00  0.00000000000E+00  0.27240108886E+03  0.27240108891E+03  0.50400001928E-02 0.  1.
        1   -1    0    0  501    0  0.00000000000E+00  0.00000000000E+00 -0.18137711767E+04  0.18137711767E+04  0.50400001928E-02 0. -1.
    10030    2    1    2    0    0  0.00000000000E+00  0.00000000000E+00 -0.15413700879E+04  0.20861722656E+04  0.14058068765E+04 0.  0.
        5    1    3    3  502    0 -0.14845522407E+03 -0.25736276688E+03  0.17461136233E+03  0.34465310848E+03  0.46999998093E+01 0.  1.
       -5    1    3    3    0  502  0.14845522407E+03  0.25736276688E+03 -0.17159814502E+04  0.17415191571E+04  0.46999998093E+01 0. -1.
</event>
<event>
 5   0  0.7025426E-04  0.1698376E+04  0.7818609E-02  0.8762291E-01
       -2   -1    0    0    0  501  0.00000000000E+00  0.00000000000E+00  0.12375821787E+04  0.12375821787E+04  0.25500000920E-02 0.  1.
        2   -1    0    0  501    0  0.00000000000E+00  0.00000000000E+00 -0.58268465611E+03  0.58268465612E+03  0.25500000920E-02 0. -1.
    10030    2    1    2    0    0  0.00000000000E+00  0.00000000000E+00  0.65489752259E+03  0.18202668348E+04  0.16983758668E+04 0.  0.
        2    1    3    3  502    0  0.15329410605E+03  0.80647092333E+03  0.94537488668E+02  0.82633635398E+03  0.25500000920E-02 0. -1.
       -2    1    3    3    0  502 -0.15329410605E+03 -0.80647092333E+03  0.56036003392E+03  0.99393048084E+03  0.25500000920E-02 0.  1.
</event>
<event>
 5   0  0.7233728E-04  0.1680701E+04  0.7818609E-02  0.8772448E-01
       -2   -1    0    0    0  501  0.00000000000E+00  0.00000000000E+00  0.54152945089E+03  0.54152945090E+03  0.25500000920E-02 0.  1.
        2   -1    0    0  501    0  0.00000000000E+00  0.00000000000E+00 -0.13040643241E+04  0.13040643242E+04  0.25500000920E-02 0. -1.
    10030    2    1    2    0    0  0.00000000000E+00  0.00000000000E+00 -0.76253487326E+03  0.18455937750E+04  0.16807013267E+04 0.  0.
        1    1    3    3  502    0  0.26450264696E+03 -0.59393145542E+03  0.20338994059E+03  0.68123688387E+03  0.50400001928E-02 0.  1.
       -1    1    3    3    0  502 -0.26450264696E+03  0.59393145542E+03 -0.96592481384E+03  0.11643568912E+04  0.50400001928E-02 0. -1.
</event>
<event>
 5   0  0.3915701E-04  0.1318346E+04  0.7818609E-02  0.9015142E-01
       -1   -1    0    0    0  501  0.00000000000E+00  0.00000000000E+00  0.84993990123E+03  0.84993990124E+03  0.50400001928E-02 0. -1.
        1   -1    0    0  501    0  0.00000000000E+00  0.00000000000E+00 -0.51122323940E+03  0.51122323942E+03  0.50400001928E-02 0.  1.
    10030    2    1    2    0    0  0.00000000000E+00  0.00000000000E+00  0.33871666183E+03  0.13611631407E+04  0.13183459783E+04 0.  0.
        2    1    3    3  502    0 -0.20680887996E+03  0.14274028107E+03  0.79854697309E+03  0.83715110279E+03  0.25500000920E-02 0. -1.
       -2    1    3    3    0  502  0.20680887996E+03 -0.14274028107E+03 -0.45983031126E+03  0.52401203787E+03  0.25500000920E-02 0.  1.
</event>
<event>
 5   0  0.3635143E-04  0.1734721E+04  0.7818609E-02  0.8741806E-01
       -1   -1    0    0    0  501  0.00000000000E+00  0.00000000000E+00  0.45787343554E+03  0.45787343557E+03  0.50400001928E-02 0.  1.
        1   -1    0    0  501    0  0.00000000000E+00  0.00000000000E+00 -0.16430619146E+04  0.16430619147E+04  0.50400001928E-02 0. -1.
    10030    2    1    2    0    0  0.00000000000E+00  0.00000000000E+00 -0.11851884791E+04  0.21009353502E+04  0.17347211922E+04 0.  0.
        3    1    3    3  502    0 -0.51768546998E+03  0.37356272785E+03 -0.13037191173E+04  0.14516304297E+04  0.10100000352E+00 0. -1.
       -3    1    3    3    0  502  0.51768546998E+03 -0.37356272785E+03  0.11853063815E+03  0.64930492055E+03  0.10100000352E+00 0.  1.
</event>
<event>
 5   0  0.7025426E-04  0.1711541E+04  0.7818609E-02  0.8754810E-01
       -2   -1    0    0    0  501  0.00000000000E+00  0.00000000000E+00  0.43501304916E+03  0.43501304917E+03  0.25500000920E-02 0. -1.
        2   -1    0    0  501    0  0.00000000000E+00  0.00000000000E+00 -0.16834962926E+04  0.16834962926E+04  0.25500000920E-02 0.  1.
    10030    2    1    2    0    0  0.00000000000E+00  0.00000000000E+00 -0.12484832435E+04  0.21185093418E+04  0.17115406574E+04 0.  0.
        2    1    3    3  502    0  0.56450922701E+03  0.17451996220E+03  0.14199763211E+03  0.60769335368E+03  0.25500000920E-02 0. -1.
       -2    1    3    3    0  502 -0.56450922701E+03 -0.17451996220E+03 -0.13904808756E+04  0.15108159881E+04  0.25500000920E-02 0.  1.
</event>
<event>
 5   0  0.3723500E-04  0.1682342E+04  0.7818609E-02  0.8771500E-01
       -1   -1    0    0    0  501  0.00000000000E+00  0.00000000000E+00  0.43957171932E+03  0.43957171935E+03  0.50400001928E-02 0. -1.
        1   -1    0    0  501    0  0.00000000000E+00  0.00000000000E+00 -0.16096768873E+04  0.16096768873E+04  0.50400001928E-02 0.  1.
    10030    2    1    2    0    0  0.00000000000E+00  0.00000000000E+00 -0.11701051679E+04  0.20492486066E+04  0.16823417452E+04 0.  0.
        1    1    3    3  502    0 -0.47256717990E+03 -0.42988203033E+03 -0.12516178591E+04  0.14052279405E+04  0.50400001928E-02 0.  1.
       -1    1    3    3    0  502  0.47256717990E+03  0.42988203033E+03  0.81512691167E+02  0.64402066610E+03  0.50400001928E-02 0. -1.
</event>
<event>
 5   0  0.3723500E-04  0.1761924E+04  0.7818609E-02  0.8726814E-01
       -1   -1    0    0    0  501  0.00000000000E+00  0.00000000000E+00  0.13011497231E+04  0.13011497231E+04  0.50400001928E-02 0.  1.
        1   -1    0    0  501    0  0.00000000000E+00  0.00000000000E+00 -0.59646764515E+03  0.59646764517E+03  0.50400001928E-02 0. -1.
    10030    2    1    2    0    0  0.00000000000E+00  0.00000000000E+00  0.70468207792E+03  0.18976173682E+04  0.17619236207E+04 0.  0.
        1    1    3    3  502    0 -0.23007806977E+03  0.14631356485E+03 -0.54987973128E+03  0.61376811285E+03  0.50400001928E-02 0. -1.
       -1    1    3    3    0  502  0.23007806977E+03 -0.14631356485E+03  0.12545618092E+04  0.12838492554E+04  0.50400001928E-02 0.  1.
</event>
<event>
 5   0  0.3915701E-04  0.1476616E+04  0.7818609E-02  0.8900154E-01
        1   -1    0    0  501    0  0.00000000000E+00  0.00000000000E+00  0.96892781984E+03  0.96892781985E+03  0.50400001928E-02 0. -1.
       -1   -1    0    0    0  501  0.00000000000E+00  0.00000000000E+00 -0.56257909034E+03  0.56257909036E+03  0.50400001928E-02 0.  1.
    10030    2    1    2    0    0  0.00000000000E+00  0.00000000000E+00  0.40634872951E+03  0.15315069102E+04  0.14766157679E+04 0.  0.
        2    1    3    3  502    0  0.52909618461E+03  0.24901595053E+03 -0.26429856632E+03  0.64172069342E+03  0.25500000920E-02 0.  1.
       -2    1    3    3    0  502 -0.52909618461E+03 -0.24901595053E+03  0.67064729583E+03  0.88978621680E+03  0.25500000920E-02 0. -1.
</event>
<event>
 5   0  0.7049044E-04  0.1663615E+04  0.7818609E-02  0.8782392E-01
       -2   -1    0    0    0  501  0.00000000000E+00  0.00000000000E+00  0.82185989735E+03  0.82185989736E+03  0.25500000920E-02 0. -1.
        2   -1    0    0  501    0  0.00000000000E+00  0.00000000000E+00 -0.84187568006E+03  0.84187568006E+03  0.25500000920E-02 0.  1.
    10030    2    1    2    0    0  0.00000000000E+00  0.00000000000E+00 -0.20015782709E+02  0.16637355774E+04  0.16636151719E+04 0.  0.
        4    1    3    3  502    0 -0.70561443000E+03 -0.12856911572E+03  0.41130695208E+03  0.82679910684E+03  0.12699999809E+01 0. -1.
       -4    1    3    3    0  502  0.70561443000E+03  0.12856911572E+03 -0.43132273479E+03  0.83693647058E+03  0.12699999809E+01 0.  1.
</event>
<event>
 5   0  0.6746664E-04  0.1622698E+04  0.7818609E-02  0.8806724E-01
       -2   -1    0    0    0  501  0.00000000000E+00  0.00000000000E+00  0.33090267929E+03  0.33090267930E+03  0.25500000920E-02 0.  1.
        2   -1    0    0  501    0  0.00000000000E+00  0.00000000000E+00 -0.19893684951E+04  0.19893684951E+04  0.25500000920E-02 0. -1.
    10030    2    1    2    0    0  0.00000000000E+00  0.00000000000E+00 -0.16584658158E+04  0.23202711744E+04  0.16226982038E+04 0.  0.
        5    1    3    3  502    0  0.49269898920E+02  0.10835254076E+03  0.31833075734E+03  0.33988874223E+03  0.46999998093E+01 0.  1.
       -5    1    3    3    0  502 -0.49269898920E+02 -0.10835254076E+03 -0.19767965732E+04  0.19803824322E+04  0.46999998093E+01 0. -1.
</event>
<event>
 5   0  0.7049044E-04  0.1701800E+04  0.7818609E-02  0.8760338E-01
        2   -1    0    0  501    0  0.00000000000E+00  0.00000000000E+00  0.11116718808E+04  0.11116718808E+04  0.25500000920E-02 0. -1.
       -2   -1    0    0    0  501  0.00000000000E+00  0.00000000000E+00 -0.65129933093E+03  0.65129933093E+03  0.25500000920E-02 0.  1.
    10030    2    1    2    0    0  0.00000000000E+00  0.00000000000E+00  0.46037254991E+03  0.17629712118E+04  0.17018004022E+04 0.  0.
        4    1    3    3  502    0  0.20604747043E+02 -0.47658248663E+03 -0.49974992913E+03  0.69087410338E+03  0.12699999809E+01 0.  1.
       -4    1    3    3    0  502 -0.20604747043E+02  0.47658248663E+03  0.96012247903E+03  0.10720971084E+04  0.12699999809E+01 0. -1.
</event>
<event>
 5   0  0.7233728E-04  0.1833623E+04  0.7818609E-02  0.8688621E-01
       -2   -1    0    0    0  501  0.00000000000E+00  0.00000000000E+00  0.10181543205E+04  0.10181543205E+04  0.25500000920E-02 0.  1.
        2   -1    0    0  501    0  0.00000000000E+00  0.00000000000E+00 -0.82555621600E+03  0.82555621601E+03  0.25500000920E-02 0. -1.
    10030    2    1    2    0    0  0.00000000000E+00  0.00000000000E+00  0.19259810446E+03  0.18437105365E+04  0.18336233289E+04 0.  0.
        1    1    3    3  502    0 -0.86641569244E+02  0.48288167281E+03  0.87506749385E+03  0.10032071522E+04  0.50400001928E-02 0.  1.
       -1    1    3    3    0  502  0.86641569244E+02 -0.48288167281E+03 -0.68246938939E+03  0.84050338425E+03  0.50400001928E-02 0. -1.
</event>
<event>
 5   0  0.6746664E-04  0.1709253E+04  0.7818609E-02  0.8756105E-01
        2   -1    0    0  501    0  0.00000000000E+00  0.00000000000E+00  0.10919020709E+04  0.10919020709E+04  0.25500000920E-02 0.  1.
       -2   -1    0    0    0  501  0.00000000000E+00  0.00000000000E+00 -0.66891184232E+03  0.66891184232E+03  0.25500000920E-02 0. -1.
    10030    2    1    2    0    0  0.00000000000E+00  0.00000000000E+00  0.42299022859E+03  0.17608139132E+04  0.17092527325E+04 0.  0.
        5    1    3    3  502    0 -0.54808441010E+01 -0.39837971699E+03 -0.56737279436E+03  0.69330398552E+03  0.46999998093E+01 0. -1.
       -5    1    3    3    0  502  0.54808441010E+01  0.39837971699E+03  0.99036302294E+03  0.10675099277E+04  0.46999998093E+01 0.  1.
</event>
<event>
 5   0  0.7242144E-04  0.1694393E+04  0.7818609E-02  0.8764569E-01
       -2   -1    0    0    0  501  0.00000000000E+00  0.00000000000E+00  0.34947758112E+03  0.34947758112E+03  0.25500000920E-02 0. -1.
        2   -1    0    0  501    0  0.00000000000E+00  0.00000000000E+00 -0.20537562026E+04  0.20537562026E+04  0.25500000920E-02 0.  1.
    10030    2    1    2    0    0  0.00000000000E+00  0.00000000000E+00 -0.17042786215E+04  0.24032337837E+04  0.16943928115E+04 0.  0.
        3    1    3    3  502    0  0.29758323716E+03 -0.20757943367E+03  0.23370252775E+03  0.43158068307E+03  0.10100000352E+00 0. -1.
       -3    1    3    3    0  502 -0.29758323716E+03  0.20757943367E+03 -0.19379811492E+04  0.19716531006E+04  0.10100000352E+00 0.  1.
</event>
<event>
 5   0  0.7049044E-04  0.1682616E+04  0.7818609E-02  0.8771342E-01
       -2   -1    0    0    0  501  0.00000000000E+00  0.00000000000E+00  0.16180863411E+04  0.16180863411E+04  0.25500000920E-02 0. -1.
        2   -1    0    0  501    0  0.00000000000E+00  0.00000000000E+00 -0.43742957931E+03  0.43742957932E+03  0.25500000920E-02 0.  1.
    10030    2    1    2    0    0  0.00000000000E+00  0.00000000000E+00  0.11806567618E+04  0.20555159204E+04  0.16826156156E+04 0.  0.
        4    1    3    3  502    0 -0.58966087247E+03 -0.54941302527E+02 -0.13966330936E+03  0.60846194961E+03  0.12699999809E+01 0.  1.
       -4    1    3    3    0  502  0.58966087247E+03  0.54941302527E+02  0.13203200711E+04  0.14470539708E+04  0.12699999809E+01 0. -1.
</event>
<event>
 5   0  0.3635143E-04  0.1712730E+04  0.7818609E-02  0.8754137E-01
       -1   -1    0    0    0  501  0.00000000000E+00  0.00000000000E+00  0.77932230501E+03  0.77932230502E+03  0.50400001928E-02 0.  1.
        1   -1    0    0  501    0  0.00000000000E+00  0.00000000000E+00 -0.94102457464E+03  0.94102457465E+03  0.50400001928E-02 0. -1.
    10030    2    1    2    0    0  0.00000000000E+00  0.00000000000E+00 -0.16170226963E+03  0.17203468797E+04  0.17127304991E+04 0.  0.
        3    1    3    3  502    0 -0.46563676566E+03 -0.15574197583E+03  0.62390154587E+03  0.79393092250E+03  0.10100000352E+00 0.  1.
       -3    1    3    3    0  502  0.46563676566E+03  0.15574197583E+03 -0.78560381550E+03  0.92641595717E+03  0.10100000352E+00 0. -1.
</event>
<event>
 5   0  0.3915701E-04  0.1715799E+04  0.7818609E-02  0.8752405E-01
       -1   -1    0    0    0  501  0.00000000000E+00  0.00000000000E+00  0.74543707386E+03  0.74543707388E+03  0.50400001928E-02 0. -1.
        1   -1    0    0  501    0  0.00000000000E+00  0.00000000000E+00 -0.98732870182E+03  0.98732870183E+03  0.50400001928E-02 0.  1.
    10030    2    1    2    0    0  0.00000000000E+00  0.00000000000E+00 -0.24189162796E+03  0.17327657757E+04  0.17157988442E+04 0.  0.
        2    1    3    3  502    0  0.55928015956E+03  0.58916341430E+03 -0.39950596990E+03  0.90526948784E+03  0.25500000920E-02 0.  1.
       -2    1    3    3    0  502 -0.55928015956E+03 -0.58916341430E+03  0.15761434194E+03  0.82749628786E+03  0.25500000920E-02 0. -1.
</event>
<event>
 5   0  0.3713516E-04  0.1699972E+04  0.7818609E-02  0.8761381E-01
       -1   -1    0    0    0  501  0.00000000000E+00  0.00000000000E+00  0.73138707316E+03  0.73138707318E+03  0.50400001928E-02 0. -1.
        1   -1    0    0  501    0  0.00000000000E+00  0.00000000000E+00 -0.98781591966E+03  0.98781591967E+03  0.50400001928E-02 0.  1.
    10030    2    1    2    0    0  0.00000000000E+00  0.00000000000E+00 -0.25642884650E+03  0.17192029928E+04  0.16999715225E+04 0.  0.
        5    1    3    3  502    0 -0.50284495040E+03 -0.67382622937E+03 -0.25436074084E+03  0.87841693290E+03  0.46999998093E+01 0.  1.
       -5    1    3    3    0  502  0.50284495040E+03  0.67382622937E+03 -0.20681056605E+01  0.84078605994E+03  0.46999998093E+01 0. -1.
</event>
<event>
 5   0  0.7049044E-04  0.1698266E+04  0.7818609E-02  0.8762354E-01
        2   -1    0    0  501    0  0.00000000000E+00  0.00000000000E+00  0.14338599773E+04  0.14338599774E+04  0.25500000920E-02 0.  1.
       -2   -1    0    0    0  501  0.00000000000E+00  0.00000000000E+00 -0.50285699128E+03  0.50285699128E+03  0.25500000920E-02 0. -1.
    10030    2    1    2    0    0  0.00000000000E+00  0.00000000000E+00  0.93100298607E+03  0.19367169686E+04  0.16982656025E+04 0.  0.
        4    1    3    3  502    0 -0.70019238580E+03  0.47069818134E+02  0.10106836260E+04  0.12304340493E+04  0.12699999809E+01 0.  1.
       -4    1    3    3    0  502  0.70019238580E+03 -0.47069818134E+02 -0.79680639885E+02  0.70628291937E+03  0.12699999809E+01 0. -1.
</event>
<event>
 5   0  0.3723500E-04  0.1735526E+04  0.7818609E-02  0.8741358E-01
       -1   -1    0    0    0  501  0.00000000000E+00  0.00000000000E+00  0.80333260950E+03  0.80333260952E+03  0.50400001928E-02 0.  1.
        1   -1    0    0  501    0  0.00000000000E+00  0.00000000000E+00 -0.93736111171E+03  0.93736111173E+03  0.50400001928E-02 0. -1.
    10030    2    1    2    0    0  0.00000000000E+00  0.00000000000E+00 -0.13402850221E+03  0.17406937212E+04  0.17355261426E+04 0.  0.
        1    1    3    3  502    0  0.61046056904E+03  0.39240493097E+03  0.41018493059E+03  0.83360387086E+03  0.50400001928E-02 0.  1.
       -1    1    3    3    0  502 -0.61046056904E+03 -0.39240493097E+03 -0.54421343280E+03  0.90708985038E+03  0.50400001928E-02 0. -1.
</event>
<event>
 5   0  0.3713516E-04  0.1718284E+04  0.7818609E-02  0.8751004E-01
        1   -1    0    0  501    0  0.00000000000E+00  0.00000000000E+00  0.20455833788E+04  0.20455833788E+04  0.50400001928E-02 0. -1.
       -1   -1    0    0    0  501  0.00000000000E+00  0.00000000000E+00 -0.36083850812E+03  0.36083850815E+03  0.50400001928E-02 0.  1.
    10030    2    1    2    0    0  0.00000000000E+00  0.00000000000E+00  0.16847448706E+04  0.24064218869E+04  0.17182843242E+04 0.  0.
        5    1    3    3  502    0 -0.53711756904E+03 -0.37064869765E+03  0.16249227390E+04  0.17510773077E+04  0.46999998093E+01 0. -1.
       -5    1    3    3    0  502  0.53711756904E+03  0.37064869765E+03  0.59822131682E+02  0.65534457919E+03  0.46999998093E+01 0.  1.
</event>
<event>
 5   0  0.3723500E-04  0.1702710E+04  0.7818609E-02  0.8759820E-01
       -1   -1    0    0    0  501  0.00000000000E+00  0.00000000000E+00  0.27495934947E+03  0.27495934952E+03  0.50400001928E-02 0. -1.
        1   -1    0    0  501    0  0.00000000000E+00  0.00000000000E+00 -0.26360469618E+04  0.26360469618E+04  0.50400001928E-02 0.  1.
    10030    2    1    2    0    0  0.00000000000E+00  0.00000000000E+00 -0.23610876123E+04  0.29110063113E+04  0.17027104955E+04 0.  0.
        1    1    3    3  502    0  0.43090179545E+03 -0.57615974273E+03 -0.40239064303E+03  0.82435103936E+03  0.50400001928E-02 0. -1.
       -1    1    3    3    0  502 -0.43090179545E+03  0.57615974273E+03 -0.19586969693E+04  0.20866552719E+04  0.50400001928E-02 0.  1.
</event>
<event>
 5   0  0.3915701E-04  0.1690103E+04  0.7818609E-02  0.8767029E-01
        1   -1    0    0  501    0  0.00000000000E+00  0.00000000000E+00  0.17082591633E+04  0.17082591633E+04  0.50400001928E-02 0.  1.
       -1   -1    0    0    0  501  0.00000000000E+00  0.00000000000E+00 -0.41803472859E+03  0.41803472862E+03  0.50400001928E-02 0. -1.
    10030    2    1    2    0    0  0.00000000000E+00  0.00000000000E+00  0.12902244347E+04  0.21262938919E+04  0.16901025480E+04 0.  0.
        2    1    3    3  502    0 -0.59845037538E+03 -0.20369798143E+03  0.13506234692E+04  0.14912476236E+04  0.25500000920E-02 0.  1.
       -2    1    3    3    0  502  0.59845037538E+03  0.20369798143E+03 -0.60399034542E+02  0.63504626825E+03  0.25500000920E-02 0. -1.
</event>
<event>
 5   0  0.6746664E-04  0.1709750E+04  0.7818609E-02  0.8755823E-01
       -2   -1    0    0    0  501  0.00000000000E+00  0.00000000000E+00  0.50990116350E+03  0.50990116351E+03  0.25500000920E-02 0.  1.
        2   -1    0    0  501    0  0.00000000000E+00  0.00000000000E+00 -0.14332418135E+04  0.14332418135E+04  0.25500000920E-02 0. -1.
    10030    2    1    2    0    0  0.00000000000E+00  0.00000000000E+00 -0.92334065001E+03  0.19431429770E+04  0.17097504710E+04 0.  0.
        5    1    3    3  502    0  0.54150049442E+03 -0.52843406845E+03 -0.91388610712E+03  0.11864549115E+04  0.46999998093E+01 0. -1.
       -5    1    3    3    0  502 -0.54150049442E+03  0.52843406845E+03 -0.94545428913E+01  0.75668806555E+03  0.46999998093E+01 0.  1.
</event>
<event>
 5   0  0.7049044E-04  0.1706702E+04  0.7818609E-02  0.8757551E-01
       -2   -1    0    0    0  501  0.00000000000E+00  0.00000000000E+00  0.84453019375E+03  0.84453019375E+03  0.25500000920E-02 0.  1.
        2   -1    0    0  501    0  0.00000000000E+00  0.00000000000E+00 -0.86226430298E+03  0.86226430298E+03  0.25500000920E-02 0. -1.
    10030    2    1    2    0    0  0.00000000000E+00  0.00000000000E+00 -0.17734109231E+02  0.17067944967E+04  0.17067023629E+04 0.  0.
        4    1    3    3  502    0 -0.32009964434E+03 -0.69814188751E+03 -0.38082899516E+03  0.85726204503E+03  0.12699999809E+01 0.  1.
       -4    1    3    3    0  502  0.32009964434E+03  0.69814188751E+03  0.36309488593E+03  0.84953245170E+03  0.12699999809E+01 0. -1.
</event>
<event>
 5   0  0.3635143E-04  0.1726230E+04  0.7818609E-02  0.8746545E-01
        1   -1    0    0  501    0  0.00000000000E+00  0.00000000000E+00  0.10621155297E+04  0.10621155297E+04  0.50400001928E-02 0.  1.
       -1   -1    0    0    0  501  0.00000000000E+00  0.00000000000E+00 -0.70139930369E+03  0.70139930371E+03  0.50400001928E-02 0. -1.
    10030    2    1    2    0    0  0.00000000000E+00  0.00000000000E+00  0.36071622604E+03  0.17635148334E+04  0.17262295247E+04 0.  0.
        3    1    3    3  502    0 -0.59283010640E+03  0.19702621189E+03  0.78878907346E+03  0.10062082666E+04  0.10100000352E+00 0.  1.
       -3    1    3    3    0  502  0.59283010640E+03 -0.19702621189E+03 -0.42807284743E+03  0.75730656681E+03  0.10100000352E+00 0. -1.
</event>
<event>
 5   0  0.3915701E-04  0.1625155E+04  0.7818609E-02  0.8805242E-01
        1   -1    0    0  501    0  0.00000000000E+00  0.00000000000E+00  0.83311764154E+03  0.83311764156E+03  0.50400001928E-02 0.  1.
       -1   -1    0    0    0  501  0.00000000000E+00  0.00000000000E+00 -0.79254348952E+03  0.79254348954E+03  0.50400001928E-02 0. -1.
    10030    2    1    2    0    0  0.00000000000E+00  0.00000000000E+00  0.40574152021E+02  0.16256611311E+04  0.16251547161E+04 0.  0.
        2    1    3    3  502    0  0.24973225014E+02 -0.67472733197E+03 -0.43196145670E+03  0.80154309588E+03  0.25500000920E-02 0. -1.
       -2    1    3    3    0  502 -0.24973225014E+02  0.67472733197E+03  0.47253560872E+03  0.82411803522E+03  0.25500000920E-02 0.  1.
</event>
<event>
 5   0  0.7049044E-04  0.1629862E+04  0.7818609E-02  0.8802410E-01
        2   -1    0    0  501    0  0.00000000000E+00  0.00000000000E+00  0.17345421626E+04  0.17345421626E+04  0.25500000920E-02 0. -1.
       -2   -1    0    0    0  501  0.00000000000E+00  0.00000000000E+00 -0.38287461874E+03  0.38287461875E+03  0.25500000920E-02 0.  1.
    10030    2    1    2    0    0  0.00000000000E+00  0.00000000000E+00  0.13516675438E+04  0.21174167813E+04  0.16298615514E+04 0.  0.
        4    1    3    3  502    0  0.85841597138E+02  0.58396708452E+03 -0.54143915874E+02  0.59272212050E+03  0.12699999809E+01 0.  1.
       -4    1    3    3    0  502 -0.85841597138E+02 -0.58396708452E+03  0.14058114597E+04  0.15246946608E+04  0.12699999809E+01 0. -1.
</event>
<event>
 5   0  0.3723500E-04  0.1545280E+04  0.7818609E-02  0.8854888E-01
        1   -1    0    0  501    0  0.00000000000E+00  0.00000000000E+00  0.13683640531E+04  0.13683640531E+04  0.50400001928E-02 0. -1.
       -1   -1    0    0    0  501  0.00000000000E+00  0.00000000000E+00 -0.43626753954E+03  0.43626753957E+03  0.50400001928E-02 0.  1.
    10030    2    1    2    0    0  0.00000000000E+00  0.00000000000E+00  0.93209651354E+03  0.18046315927E+04  0.15452803224E+04 0.  0.
        1    1    3    3  502    0  0.63940364432E+03 -0.15590156001E+03 -0.66441898208E+01  0.65816902242E+03  0.50400001928E-02 0.  1.
       -1    1    3    3    0  502 -0.63940364432E+03  0.15590156001E+03  0.93874070336E+03  0.11464625702E+04  0.50400001928E-02 0. -1.
</event>
<event>
 5   0  0.7049044E-04  0.1708410E+04  0.7818609E-02  0.8756582E-01
       -2   -1    0    0    0  501  0.00000000000E+00  0.00000000000E+00  0.63745807135E+03  0.63745807136E+03  0.25500000920E-02 0.  1.
        2   -1    0    0  501    0  0.00000000000E+00  0.00000000000E+00 -0.11446499633E+04  0.11446499633E+04  0.25500000920E-02 0. -1.
    10030    2    1    2    0    0  0.00000000000E+00  0.00000000000E+00 -0.50719189196E+03  0.17821080347E+04  0.17084102060E+04 0.  0.
        4    1    3    3  502    0  0.31812234974E+03  0.53479319468E+03  0.35684866080E+03  0.71732013083E+03  0.12699999809E+01 0.  1.
       -4    1    3    3    0  502 -0.31812234974E+03 -0.53479319468E+03 -0.86404055276E+03  0.10647879039E+04  0.12699999809E+01 0. -1.
</event>
<event>
 5   0  0.3723500E-04  0.1662682E+04  0.7818609E-02  0.8782939E-01
       -1   -1    0    0    0  501  0.00000000000E+00  0.00000000000E+00  0.57928839135E+03  0.57928839137E+03  0.50400001928E-02 0. -1.
        1   -1    0    0  501    0  0.00000000000E+00  0.00000000000E+00 -0.11930636128E+04  0.11930636128E+04  0.50400001928E-02 0.  1.
    10030    2    1    2    0    0  0.00000000000E+00  0.00000000000E+00 -0.61377522145E+03  0.17723520042E+04  0.16626820515E+04 0.  0.
        1    1    3    3  502    0 -0.55404267299E+03  0.11197757316E+03 -0.95670840928E+03  0.11112125093E+04  0.50400001928E-02 0.  1.
       -1    1    3    3    0  502  0.55404267299E+03 -0.11197757316E+03  0.34293318783E+03  0.66113949490E+03  0.50400001928E-02 0. -1.
</event>
<event>
 5   0  0.3723500E-04  0.1701972E+04  0.7818609E-02  0.8760241E-01
        1   -1    0    0  501    0  0.00000000000E+00  0.00000000000E+00  0.22666092856E+04  0.22666092856E+04  0.50400001928E-02 0. -1.
       -1   -1    0    0    0  501  0.00000000000E+00  0.00000000000E+00 -0.31949785320E+03  0.31949785324E+03  0.50400001928E-02 0.  1.
    10030    2    1    2    0    0  0.00000000000E+00  0.00000000000E+00  0.19471114324E+04  0.25861071389E+04  0.17019715636E+04 0.  0.
        1    1    3    3  502    0  0.83021251026E+03 -0.92105155768E+01  0.68994148429E+03  0.10795169742E+04  0.50400001928E-02 0. -1.
       -1    1    3    3    0  502 -0.83021251026E+03  0.92105155768E+01  0.12571699481E+04  0.15065901647E+04  0.50400001928E-02 0.  1.
</event>
<event>
 5   0  0.7242144E-04  0.1722575E+04  0.7818609E-02  0.8748593E-01
       -2   -1    0    0    0  501  0.00000000000E+00  0.00000000000E+00  0.50998498411E+03  0.50998498411E+03  0.25500000920E-02 0.  1.
        2   -1    0    0  501    0  0.00000000000E+00  0.00000000000E+00 -0.14545842662E+04  0.14545842662E+04  0.25500000920E-02 0. -1.
    10030    2    1    2    0    0  0.00000000000E+00  0.00000000000E+00 -0.94459928212E+03  0.19645692503E+04  0.17225749724E+04 0.  0.
        3    1    3    3  502    0  0.48053164798E+03 -0.25822971378E+03  0.28783350021E+03  0.61679930596E+03  0.10100000352E+00 0.  1.
       -3    1    3    3    0  502 -0.48053164798E+03  0.25822971378E+03 -0.12324327823E+04  0.13477699444E+04  0.10100000352E+00 0. -1.
</event>
<event>
 5   0  0.3713516E-04  0.1709702E+04  0.7818609E-02  0.8755850E-01
       -1   -1    0    0    0  501  0.00000000000E+00  0.00000000000E+00  0.76445816131E+03  0.76445816133E+03  0.50400001928E-02 0. -1.
        1   -1    0    0  501    0  0.00000000000E+00  0.00000000000E+00 -0.95593201781E+03  0.95593201783E+03  0.50400001928E-02 0.  1.
    10030    2    1    2    0    0  0.00000000000E+00  0.00000000000E+00 -0.19147385650E+03  0.17203901792E+04  0.17097017666E+04 0.  0.
        5    1    3    3  502    0  0.51632742490E+03 -0.24773712093E+03  0.54288037111E+03  0.78911905193E+03  0.46999998093E+01 0. -1.
       -5    1    3    3    0  502 -0.51632742490E+03  0.24773712093E+03 -0.73435422761E+03  0.93127112722E+03  0.46999998093E+01 0.  1.
</event>
<event>
 5   0  0.7242144E-04  0.1660648E+04  0.7818609E-02  0.8784132E-01
        2   -1    0    0  501    0  0.00000000000E+00  0.00000000000E+00  0.88722073814E+03  0.88722073815E+03  0.25500000920E-02 0. -1.
       -2   -1    0    0    0  501  0.00000000000E+00  0.00000000000E+00 -0.77707562930E+03  0.77707562930E+03  0.25500000920E-02 0.  1.
    10030    2    1    2    0    0  0.00000000000E+00  0.00000000000E+00  0.11014510884E+03  0.16642963674E+04  0.16606476007E+04 0.  0.
        3    1    3    3  502    0 -0.38491442391E+03  0.65373055376E+03  0.39332688007E+03  0.85453425645E+03  0.10100000352E+00 0. -1.
       -3    1    3    3    0  502  0.38491442391E+03 -0.65373055376E+03 -0.28318177122E+03  0.80976211100E+03  0.10100000352E+00 0.  1.
</event>
<event>
 5   0  0.7049044E-04  0.1690589E+04  0.7818609E-02  0.8766750E-01
        2   -1    0    0  501    0  0.00000000000E+00  0.00000000000E+00  0.16273574385E+04  0.16273574385E+04  0.25500000920E-02 0.  1.
       -2   -1    0    0    0  501  0.00000000000E+00  0.00000000000E+00 -0.43906938067E+03  0.43906938068E+03  0.25500000920E-02 0. -1.
    10030    2    1    2    0    0  0.00000000000E+00  0.00000000000E+00  0.11882880578E+04  0.20664268192E+04  0.16905890366E+04 0.  0.
        4    1    3    3  502    0 -0.95787072734E+02  0.21223221020E+03  0.15873830947E+04  0.16043703988E+04  0.12699999809E+01 0.  1.
       -4    1    3    3    0  502  0.95787072734E+02 -0.21223221020E+03 -0.39909503681E+03  0.46205642043E+03  0.12699999809E+01 0. -1.
</event>
<event>
 5   0  0.7242144E-04  0.1684619E+04  0.7818609E-02  0.8770185E-01
        2   -1    0    0  501    0  0.00000000000E+00  0.00000000000E+00  0.21282784401E+04  0.21282784401E+04  0.25500000920E-02 0.  1.
       -2   -1    0    0    0  501  0.00000000000E+00  0.00000000000E+00 -0.33336129250E+03  0.33336129251E+03  0.25500000920E-02 0. -1.
    10030    2    1    2    0    0  0.00000000000E+00  0.00000000000E+00  0.17949171476E+04  0.24616397326E+04  0.16846194248E+04 0.  0.
        3    1    3    3  502    0  0.65683478887E+00 -0.70180665798E+03  0.15780792582E+04  0.17270979046E+04  0.10100000352E+00 0.  1.
       -3    1    3    3    0  502 -0.65683478887E+00  0.70180665798E+03  0.21683788937E+03  0.73454182801E+03  0.10100000352E+00 0. -1.
</event>
<event>
 5   0  0.7233728E-04  0.1620986E+04  0.7818609E-02  0.8807759E-01
       -2   -1    0    0    0  501  0.00000000000E+00  0.00000000000E+00  0.57454245058E+03  0.57454245059E+03  0.25500000920E-02 0.  1.
        2   -1    0    0  501    0  0.00000000000E+00  0.00000000000E+00 -0.11433420370E+04  0.11433420370E+04  0.25500000920E-02 0. -1.
    10030    2    1    2    0    0  0.00000000000E+00  0.00000000000E+00 -0.56879958640E+03  0.17178844876E+04  0.16209855469E+04 0.  0.
        1    1    3    3  502    0  0.35772307281E+03 -0.15612247129E+03 -0.10371841479E+04  0.11081926635E+04  0.50400001928E-02 0. -1.
       -1    1    3    3    0  502 -0.35772307281E+03  0.15612247129E+03  0.46838456147E+03  0.60969182405E+03  0.50400001928E-02 0.  1.
</event>
<event>
 5   0  0.3915701E-04  0.1681659E+04  0.7818609E-02  0.8771895E-01
       -1   -1    0    0    0  501  0.00000000000E+00  0.00000000000E+00  0.73282153989E+03  0.73282153991E+03  0.50400001928E-02 0.  1.
        1   -1    0    0  501    0  0.00000000000E+00  0.00000000000E+00 -0.96475623414E+03  0.96475623416E+03  0.50400001928E-02 0. -1.
    10030    2    1    2    0    0  0.00000000000E+00  0.00000000000E+00 -0.23193469425E+03  0.16975777741E+04  0.16816588824E+04 0.  0.
        2    1    3    3  502    0  0.66284593375E+03 -0.16557967119E+03  0.37878725024E+03  0.78119212768E+03  0.25500000920E-02 0.  1.
       -2    1    3    3    0  502 -0.66284593375E+03  0.16557967119E+03 -0.61072194450E+03  0.91638564638E+03  0.25500000920E-02 0. -1.
</event>
<event>
 5   0  0.3803253E-04  0.1672961E+04  0.7818609E-02  0.8776938E-01
       -1   -1    0    0    0  501  0.00000000000E+00  0.00000000000E+00  0.86969493310E+03  0.86969493311E+03  0.50400001928E-02 0.  1.
        1   -1    0    0  501    0  0.00000000000E+00  0.00000000000E+00 -0.80453461179E+03  0.80453461180E+03  0.50400001928E-02 0. -1.
    10030    2    1    2    0    0  0.00000000000E+00  0.00000000000E+00  0.65160321309E+02  0.16742295449E+04  0.16729610580E+04 0.  0.
        4    1    3    3  502    0  0.72117196037E+02 -0.54066254241E+03  0.66723858023E+03  0.86181541561E+03  0.12699999809E+01 0.  1.
       -4    1    3    3    0  502 -0.72117196037E+02  0.54066254241E+03 -0.60207825892E+03  0.81241412931E+03  0.12699999809E+01 0. -1.
</event>
<event>
 5   0  0.6746664E-04  0.1717310E+04  0.7818609E-02  0.8751553E-01
        2   -1    0    0  501    0  0.00000000000E+00  0.00000000000E+00  0.84566015640E+03  0.84566015640E+03  0.25500000920E-02 0.  1.
       -2   -1    0    0    0  501  0.00000000000E+00  0.00000000000E+00 -0.87184920986E+03  0.87184920986E+03  0.25500000920E-02 0. -1.
    10030    2    1    2    0    0  0.00000000000E+00  0.00000000000E+00 -0.26189053464E+02  0.17175093663E+04  0.17173096857E+04 0.  0.
        5    1    3    3  502    0 -0.61514892297E+03 -0.56901165151E+03 -0.20042245142E+03  0.86161111066E+03  0.46999998093E+01 0.  1.
       -5    1    3    3    0  502  0.61514892297E+03  0.56901165151E+03  0.17423339795E+03  0.85589825560E+03  0.46999998093E+01 0. -1.
</event>
<event>
 5   0  0.3723500E-04  0.1666437E+04  0.7818609E-02  0.8780741E-01
       -1   -1    0    0    0  501  0.00000000000E+00  0.00000000000E+00  0.78578296345E+03  0.78578296346E+03  0.50400001928E-02 0. -1.
        1   -1    0    0  501    0  0.00000000000E+00  0.00000000000E+00 -0.88351808316E+03  0.88351808318E+03  0.50400001928E-02 0.  1.
    10030    2    1    2    0    0  0.00000000000E+00  0.00000000000E+00 -0.97735119715E+02  0.16693010466E+04  0.16664374668E+04 0.  0.
        1    1    3    3  502    0 -0.73775940130E+03  0.19109107103E+03 -0.38626785328E+03  0.85440481398E+03  0.50400001928E-02 0.  1.
       -1    1    3    3    0  502  0.73775940130E+03 -0.19109107103E+03  0.28853273357E+03  0.81489623266E+03  0.50400001928E-02 0. -1.
</event>
<event>
 5   0  0.3803253E-04  0.1682522E+04  0.7818609E-02  0.8771396E-01
        1   -1    0    0  501    0  0.00000000000E+00  0.00000000000E+00  0.57309005286E+03  0.57309005289E+03  0.50400001928E-02 0.  1.
       -1   -1    0    0    0  501  0.00000000000E+00  0.00000000000E+00 -0.12349190677E+04  0.12349190677E+04  0.50400001928E-02 0. -1.
    10030    2    1    2    0    0  0.00000000000E+00  0.00000000000E+00 -0.66182901485E+03  0.18080091206E+04  0.16825217191E+04 0.  0.
        4    1    3    3  502    0  0.99843235248E+02  0.29665316920E+03  0.50818714603E+03  0.59684802313E+03  0.12699999809E+01 0.  1.
       -4    1    3    3    0  502 -0.99843235248E+02 -0.29665316920E+03 -0.11700161609E+04  0.12111610975E+04  0.12699999809E+01 0. -1.
</event>
<event>
 5   0  0.3713516E-04  0.1607570E+04  0.7818609E-02  0.8815911E-01
       -1   -1    0    0    0  501  0.00000000000E+00  0.00000000000E+00  0.46786386224E+03  0.46786386227E+03  0.50400001928E-02 0. -1.
        1   -1    0    0  501    0  0.00000000000E+00  0.00000000000E+00 -0.13808933033E+04  0.13808933033E+04  0.50400001928E-02 0.  1.
    10030    2    1    2    0    0  0.00000000000E+00  0.00000000000E+00 -0.91302944105E+03  0.18487571656E+04  0.16075696865E+04 0.  0.
        5    1    3    3  502    0 -0.77042094941E+02  0.61077823732E+03 -0.10508294202E+04  0.12178875564E+04  0.46999998093E+01 0.  1.
       -5    1    3    3    0  502  0.77042094941E+02 -0.61077823732E+03  0.13779997915E+03  0.63086960922E+03  0.46999998093E+01 0. -1.
</event>
<event>
 5   0  0.7049044E-04  0.1708439E+04  0.7818609E-02  0.8756566E-01
       -2   -1    0    0    0  501  0.00000000000E+00  0.00000000000E+00  0.91335058954E+03  0.91335058955E+03  0.25500000920E-02 0. -1.
        2   -1    0    0  501    0  0.00000000000E+00  0.00000000000E+00 -0.79891620381E+03  0.79891620382E+03  0.25500000920E-02 0.  1.
    10030    2    1    2    0    0  0.00000000000E+00  0.00000000000E+00  0.11443438573E+03  0.17122667934E+04  0.17084385687E+04 0.  0.
        4    1    3    3  502    0 -0.29173868455E+03 -0.48929145472E+03 -0.58073987035E+03  0.81349738638E+03  0.12699999809E+01 0.  1.
       -4    1    3    3    0  502  0.29173868455E+03  0.48929145472E+03  0.69517425608E+03  0.89876940699E+03  0.12699999809E+01 0. -1.
</event>
<event>
 5   0  0.3723500E-04  0.1799845E+04  0.7818609E-02  0.8706382E-01
        1   -1    0    0  501    0  0.00000000000E+00  0.00000000000E+00  0.28649533884E+04  0.28649533884E+04  0.50400001928E-02 0.  1.
       -1   -1    0    0    0  501  0.00000000000E+00  0.00000000000E+00 -0.28267851497E+03  0.28267851501E+03  0.50400001928E-02 0. -1.
    10030    2    1    2    0    0  0.00000000000E+00  0.00000000000E+00  0.25822748734E+04  0.31476319034E+04  0.17998452926E+04 0.  0.
        1    1    3    3  502    0  0.76565035873E+03 -0.42890801712E+03  0.16394946437E+04  0.18596035184E+04  0.50400001928E-02 0. -1.
       -1    1    3    3    0  502 -0.76565035873E+03  0.42890801712E+03  0.94278022972E+03  0.12880283850E+04  0.50400001928E-02 0.  1.
</event>
<event>
 5   0  0.7025426E-04  0.1695729E+04  0.7818609E-02  0.8763804E-01
        2   -1    0    0  501    0  0.00000000000E+00  0.00000000000E+00  0.11349328669E+04  0.11349328669E+04  0.25500000920E-02 0.  1.
       -2   -1    0    0    0  501  0.00000000000E+00  0.00000000000E+00 -0.63340714327E+03  0.63340714328E+03  0.25500000920E-02 0. -1.
    10030    2    1    2    0    0  0.00000000000E+00  0.00000000000E+00  0.50152572364E+03  0.17683400102E+04  0.16957294419E+04 0.  0.
        2    1    3    3  502    0 -0.46810837506E+03 -0.33011857435E+03  0.90264682716E+03  0.10690533282E+04  0.25500000920E-02 0.  1.
       -2    1    3    3    0  502  0.46810837506E+03  0.33011857435E+03 -0.40112110352E+03  0.69928668200E+03  0.25500000920E-02 0. -1.
</event>
<event>
 5   0  0.6746664E-04  0.1677741E+04  0.7818609E-02  0.8774162E-01
       -2   -1    0    0    0  501  0.00000000000E+00  0.00000000000E+00  0.63187125432E+03  0.63187125433E+03  0.25500000920E-02 0. -1.
        2   -1    0    0  501    0  0.00000000000E+00  0.00000000000E+00 -0.11136824779E+04  0.11136824779E+04  0.25500000920E-02 0.  1.
    10030    2    1    2    0    0  0.00000000000E+00  0.00000000000E+00 -0.48181122353E+03  0.17455537322E+04  0.16777412723E+04 0.  0.
        5    1    3    3  502    0 -0.53170411923E+03  0.49092378552E+03 -0.68227679312E+03  0.99460502011E+03  0.46999998093E+01 0.  1.
       -5    1    3    3    0  502  0.53170411923E+03 -0.49092378552E+03  0.20046556959E+03  0.75094871208E+03  0.46999998093E+01 0. -1.
</event>
<event>
 5   0  0.3635143E-04  0.1668682E+04  0.7818609E-02  0.8779431E-01
       -1   -1    0    0    0  501  0.00000000000E+00  0.00000000000E+00  0.73233584215E+03  0.73233584217E+03  0.50400001928E-02 0.  1.
        1   -1    0    0  501    0  0.00000000000E+00  0.00000000000E+00 -0.95055372196E+03  0.95055372197E+03  0.50400001928E-02 0. -1.
    10030    2    1    2    0    0  0.00000000000E+00  0.00000000000E+00 -0.21821787981E+03  0.16828895641E+04  0.16686815880E+04 0.  0.
        3    1    3    3  502    0  0.77999417797E+03  0.14354480598E+03 -0.37040669810E+03  0.87532688819E+03  0.10100000352E+00 0.  1.
       -3    1    3    3    0  502 -0.77999417797E+03 -0.14354480598E+03  0.15218881829E+03  0.80756267596E+03  0.10100000352E+00 0. -1.
</event>
<event>
 5   0  0.3713516E-04  0.1660262E+04  0.7818609E-02  0.8784359E-01
       -1   -1    0    0    0  501  0.00000000000E+00  0.00000000000E+00  0.10864303271E+04  0.10864303271E+04  0.50400001928E-02 0. -1.
        1   -1    0    0  501    0  0.00000000000E+00  0.00000000000E+00 -0.63429485386E+03  0.63429485388E+03  0.50400001928E-02 0.  1.
    10030    2    1    2    0    0  0.00000000000E+00  0.00000000000E+00  0.45213547325E+03  0.17207251810E+04  0.16602616247E+04 0.  0.
        5    1    3    3  502    0 -0.46111426274E+03 -0.44490513885E+03 -0.32090983138E+03  0.71663948800E+03  0.46999998093E+01 0.  1.
       -5    1    3    3    0  502  0.46111426274E+03  0.44490513885E+03  0.77304530463E+03  0.10040856930E+04  0.46999998093E+01 0. -1.
</event>
<event>
 5   0  0.7025426E-04  0.1719020E+04  0.7818609E-02  0.8750590E-01
        2   -1    0    0  501    0  0.00000000000E+00  0.00000000000E+00  0.10537780541E+04  0.10537780541E+04  0.25500000920E-02 0. -1.
       -2   -1    0    0    0  501  0.00000000000E+00  0.00000000000E+00 -0.70105592989E+03  0.70105592990E+03  0.25500000920E-02 0.  1.
    10030    2    1    2    0    0  0.00000000000E+00  0.00000000000E+00  0.35272212416E+03  0.17548339840E+04  0.17190198994E+04 0.  0.
        2    1    3    3  502    0 -0.76434347809E+02 -0.84303605917E+03  0.24241903575E+02  0.84684099835E+03  0.25500000920E-02 0. -1.
       -2    1    3    3    0  502  0.76434347809E+02  0.84303605917E+03  0.32848022059E+03  0.90799298561E+03  0.25500000920E-02 0.  1.
</event>
<event>
 5   0  0.3803253E-04  0.1593131E+04  0.7818609E-02  0.8824779E-01
        1   -1    0    0  501    0  0.00000000000E+00  0.00000000000E+00  0.55865865046E+03  0.55865865048E+03  0.50400001928E-02 0. -1.
       -1   -1    0    0    0  501  0.00000000000E+00  0.00000000000E+00 -0.11357865258E+04  0.11357865258E+04  0.50400001928E-02 0.  1.
    10030    2    1    2    0    0  0.00000000000E+00  0.00000000000E+00 -0.57712787537E+03  0.16944451763E+04  0.15931314670E+04 0.  0.
        4    1    3    3  502    0  0.35292015276E+02 -0.38328502440E+03  0.45318325417E+03  0.59458356102E+03  0.12699999809E+01 0. -1.
       -4    1    3    3    0  502 -0.35292015276E+02  0.38328502440E+03 -0.10303111295E+04  0.10998616153E+04  0.12699999809E+01 0.  1.
</event>
<event>
 5   0  0.7242144E-04  0.1682631E+04  0.7818609E-02  0.8771333E-01
       -2   -1    0    0    0  501  0.00000000000E+00  0.00000000000E+00  0.70258954005E+03  0.70258954005E+03  0.25500000920E-02 0. -1.
        2   -1    0    0  501    0  0.00000000000E+00  0.00000000000E+00 -0.10074333394E+04  0.10074333394E+04  0.25500000920E-02 0.  1.
    10030    2    1    2    0    0  0.00000000000E+00  0.00000000000E+00 -0.30484379932E+03  0.17100228794E+04  0.16826314231E+04 0.  0.
        3    1    3    3  502    0  0.71439257959E+03  0.18504836663E+03 -0.56299413968E+03  0.92820367769E+03  0.10100000352E+00 0.  1.
       -3    1    3    3    0  502 -0.71439257959E+03 -0.18504836663E+03  0.25815034035E+03  0.78181920173E+03  0.10100000352E+00 0. -1.
</event>
<event>
 5   0  0.6746664E-04  0.1717919E+04  0.7818609E-02  0.8751210E-01
        2   -1    0    0  501    0  0.00000000000E+00  0.00000000000E+00  0.70620090558E+03  0.70620090558E+03  0.25500000920E-02 0. -1.
       -2   -1    0    0    0  501  0.00000000000E+00  0.00000000000E+00 -0.10447617639E+04  0.10447617639E+04  0.25500000920E-02 0.  1.
    10030    2    1    2    0    0  0.00000000000E+00  0.00000000000E+00 -0.33856085835E+03  0.17509626695E+04  0.17179193273E+04 0.  0.
        5    1    3    3  502    0 -0.84234160075E+03 -0.15012930294E+03 -0.24630808776E+03  0.89037517039E+03  0.46999998093E+01 0.  1.
       -5    1    3    3    0  502  0.84234160075E+03  0.15012930294E+03 -0.92252770585E+02  0.86058749911E+03  0.46999998093E+01 0. -1.
</event>
<event>
 5   0  0.7049044E-04  0.1664994E+04  0.7818609E-02  0.8781585E-01
       -2   -1    0    0    0  501  0.00000000000E+00  0.00000000000E+00  0.60640387757E+03  0.60640387758E+03  0.25500000920E-02 0.  1.
        2   -1    0    0  501    0  0.00000000000E+00  0.00000000000E+00 -0.11428872369E+04  0.11428872369E+04  0.25500000920E-02 0. -1.
    10030    2    1    2    0    0  0.00000000000E+00  0.00000000000E+00 -0.53648335930E+03  0.17492911144E+04  0.16649939965E+04 0.  0.
        4    1    3    3  502    0 -0.78115683007E+03 -0.27648059477E+03 -0.18417738930E+03  0.84886420356E+03  0.12699999809E+01 0.  1.
       -4    1    3    3    0  502  0.78115683007E+03  0.27648059477E+03 -0.35230596999E+03  0.90042691088E+03  0.12699999809E+01 0. -1.
</event>
<event>
 5   0  0.3803253E-04  0.1690395E+04  0.7818609E-02  0.8766861E-01
       -1   -1    0    0    0  501  0.00000000000E+00  0.00000000000E+00  0.50481616474E+03  0.50481616477E+03  0.50400001928E-02 0.  1.
        1   -1    0    0  501    0  0.00000000000E+00  0.00000000000E+00 -0.14150876464E+04  0.14150876464E+04  0.50400001928E-02 0. -1.
    10030    2    1    2    0    0  0.00000000000E+00  0.00000000000E+00 -0.91027148169E+03  0.19199038112E+04  0.16903953602E+04 0.  0.
        4    1    3    3  502    0  0.31437650057E+03 -0.57135016060E+03 -0.10658009006E+04  0.12494825980E+04  0.12699999809E+01 0. -1.
       -4    1    3    3    0  502 -0.31437650057E+03  0.57135016060E+03  0.15552941886E+03  0.67042121323E+03  0.12699999809E+01 0.  1.
</event>
<event>
 5   0  0.7233728E-04  0.1683357E+04  0.7818609E-02  0.8770914E-01
        2   -1    0    0  501    0  0.00000000000E+00  0.00000000000E+00  0.93563559710E+03  0.93563559710E+03  0.25500000920E-02 0.  1.
       -2   -1    0    0    0  501  0.00000000000E+00  0.00000000000E+00 -0.75715657854E+03  0.75715657854E+03  0.25500000920E-02 0. -1.
    10030    2    1    2    0    0  0.00000000000E+00  0.00000000000E+00  0.17847901856E+03  0.16927921756E+04  0.16833569407E+04 0.  0.
        1    1    3    3  502    0 -0.46127897446E+03  0.55258417368E+03  0.52791282368E+03  0.89264747281E+03  0.50400001928E-02 0.  1.
       -1    1    3    3    0  502  0.46127897446E+03 -0.55258417368E+03 -0.34943380512E+03  0.80014470283E+03  0.50400001928E-02 0. -1.
</event>
<event>
 5   0  0.3803253E-04  0.1702928E+04  0.7818609E-02  0.8759696E-01
        1   -1    0    0  501    0  0.00000000000E+00  0.00000000000E+00  0.91695891854E+03  0.91695891855E+03  0.50400001928E-02 0.  1.
       -1   -1    0    0    0  501  0.00000000000E+00  0.00000000000E+00 -0.79064712716E+03  0.79064712717E+03  0.50400001928E-02 0. -1.
    10030    2    1    2    0    0  0.00000000000E+00  0.00000000000E+00  0.12631179138E+03  0.17076060457E+04  0.17029279899E+04 0.  0.
        4    1    3    3  502    0  0.32779874224E+03  0.52636689351E+03 -0.52194955202E+03  0.81052271390E+03  0.12699999809E+01 0. -1.
       -4    1    3    3    0  502 -0.32779874224E+03 -0.52636689351E+03  0.64826134339E+03  0.89708333182E+03  0.12699999809E+01 0.  1.
</event>
<event>
 5   0  0.7049044E-04  0.1507821E+04  0.7818609E-02  0.8879269E-01
       -2   -1    0    0    0  501  0.00000000000E+00  0.00000000000E+00  0.47439233301E+03  0.47439233301E+03  0.25500000920E-02 0.  1.
        2   -1    0    0  501    0  0.00000000000E+00  0.00000000000E+00 -0.11981238070E+04  0.11981238070E+04  0.25500000920E-02 0. -1.
    10030    2    1    2    0    0  0.00000000000E+00  0.00000000000E+00 -0.72373147396E+03  0.16725161400E+04  0.15078206101E+04 0.  0.
        4    1    3    3  502    0 -0.29485035412E+03  0.22334067157E+03 -0.10905542321E+04  0.11515762819E+04  0.12699999809E+01 0. -1.
       -4    1    3    3    0  502  0.29485035412E+03 -0.22334067157E+03  0.36682275819E+03  0.52093985807E+03  0.12699999809E+01 0.  1.
</event>
<event>
 5   0  0.3723500E-04  0.1657911E+04  0.7818609E-02  0.8785740E-01
        1   -1    0    0  501    0  0.00000000000E+00  0.00000000000E+00  0.10037511567E+04  0.10037511567E+04  0.50400001928E-02 0. -1.
       -1   -1    0    0    0  501  0.00000000000E+00  0.00000000000E+00 -0.68459894474E+03  0.68459894476E+03  0.50400001928E-02 0.  1.
    10030    2    1    2    0    0  0.00000000000E+00  0.00000000000E+00  0.31915221199E+03  0.16883501015E+04  0.16579107126E+04 0.  0.
        1    1    3    3  502    0  0.49001202107E+03 -0.61174857049E+03 -0.11522811109E+03  0.79222825745E+03  0.50400001928E-02 0.  1.
       -1    1    3    3    0  502 -0.49001202107E+03  0.61174857049E+03  0.43438032308E+03  0.89612184405E+03  0.50400001928E-02 0. -1.
</event>
<event>
 5   0  0.6746664E-04  0.1706586E+04  0.7818609E-02  0.8757617E-01
       -2   -1    0    0    0  501  0.00000000000E+00  0.00000000000E+00  0.57882505082E+03  0.57882505083E+03  0.25500000920E-02 0. -1.
        2   -1    0    0  501    0  0.00000000000E+00  0.00000000000E+00 -0.12579080444E+04  0.12579080444E+04  0.25500000920E-02 0.  1.
    10030    2    1    2    0    0  0.00000000000E+00  0.00000000000E+00 -0.67908299361E+03  0.18367330953E+04  0.17065856999E+04 0.  0.
        5    1    3    3  502    0 -0.54329056529E+03 -0.85816845134E+02 -0.10416383672E+04  0.11779481089E+04  0.46999998093E+01 0.  1.
       -5    1    3    3    0  502  0.54329056529E+03  0.85816845134E+02  0.36255537364E+03  0.65878498632E+03  0.46999998093E+01 0. -1.
</event>
<event>
 5   0  0.6746664E-04  0.1778614E+04  0.7818609E-02  0.8717756E-01
       -2   -1    0    0    0  501  0.00000000000E+00  0.00000000000E+00  0.29883163963E+03  0.29883163964E+03  0.25500000920E-02 0. -1.
        2   -1    0    0  501    0  0.00000000000E+00  0.00000000000E+00 -0.26465304617E+04  0.26465304617E+04  0.25500000920E-02 0.  1.
    10030    2    1    2    0    0  0.00000000000E+00  0.00000000000E+00 -0.23476988221E+04  0.29453621013E+04  0.17786141090E+04 0.  0.
        5    1    3    3  502    0  0.72190883724E+03  0.78859420153E+02 -0.32383624243E+03  0.79514978422E+03  0.46999998093E+01 0. -1.
       -5    1    3    3    0  502 -0.72190883724E+03 -0.78859420153E+02 -0.20238625796E+04  0.21502123171E+04  0.46999998093E+01 0.  1.
</event>
<event>
 5   0  0.7025426E-04  0.1696040E+04  0.7818609E-02  0.8763626E-01
       -2   -1    0    0    0  501  0.00000000000E+00  0.00000000000E+00  0.11079061357E+04  0.11079061357E+04  0.25500000920E-02 0. -1.
        2   -1    0    0  501    0  0.00000000000E+00  0.00000000000E+00 -0.64909626164E+03  0.64909626165E+03  0.25500000920E-02 0.  1.
    10030    2    1    2    0    0  0.00000000000E+00  0.00000000000E+00  0.45880987403E+03  0.17570023973E+04  0.16960397766E+04 0.  0.
        2    1    3    3  502    0  0.10403435524E+03 -0.49021391783E+03 -0.47929357369E+03  0.69343720847E+03  0.25500000920E-02 0.  1.
       -2    1    3    3    0  502 -0.10403435524E+03  0.49021391783E+03  0.93810344772E+03  0.10635651889E+04  0.25500000920E-02 0. -1.
</event>
<event>
 5   0  0.7025426E-04  0.1549123E+04  0.7818609E-02  0.8852428E-01
        2   -1    0    0  501    0  0.00000000000E+00  0.00000000000E+00  0.69222905391E+03  0.69222905391E+03  0.25500000920E-02 0.  1.
       -2   -1    0    0    0  501  0.00000000000E+00  0.00000000000E+00 -0.86668666841E+03  0.86668666842E+03  0.25500000920E-02 0. -1.
    10030    2    1    2    0    0  0.00000000000E+00  0.00000000000E+00 -0.17445761451E+03  0.15589157223E+04  0.15491232262E+04 0.  0.
        2    1    3    3  502    0 -0.40386139706E+03 -0.93457302175E+01 -0.75228030713E+03  0.85388349979E+03  0.25500000920E-02 0. -1.
       -2    1    3    3    0  502  0.40386139706E+03  0.93457302175E+01  0.57782269262E+03  0.70503222254E+03  0.25500000920E-02 0.  1.
</event>
<event>
 5   0  0.7233728E-04  0.1705286E+04  0.7818609E-02  0.8758355E-01
       -2   -1    0    0    0  501  0.00000000000E+00  0.00000000000E+00  0.76692084190E+03  0.76692084191E+03  0.25500000920E-02 0.  1.
        2   -1    0    0  501    0  0.00000000000E+00  0.00000000000E+00 -0.94794654522E+03  0.94794654523E+03  0.25500000920E-02 0. -1.
    10030    2    1    2    0    0  0.00000000000E+00  0.00000000000E+00 -0.18102570332E+03  0.17148673871E+04  0.17052858559E+04 0.  0.
        1    1    3    3  502    0  0.39440728686E+03  0.48849242457E+03 -0.67065812496E+03  0.91867528397E+03  0.50400001928E-02 0. -1.
       -1    1    3    3    0  502 -0.39440728686E+03 -0.48849242457E+03  0.48963242164E+03  0.79619210316E+03  0.50400001928E-02 0.  1.
</event>
<event>
 5   0  0.3635143E-04  0.1641211E+04  0.7818609E-02  0.8795623E-01
       -1   -1    0    0    0  501  0.00000000000E+00  0.00000000000E+00  0.66184177511E+03  0.66184177512E+03  0.50400001928E-02 0.  1.
        1   -1    0    0  501    0  0.00000000000E+00  0.00000000000E+00 -0.10174542270E+04  0.10174542271E+04  0.50400001928E-02 0. -1.
    10030    2    1    2    0    0  0.00000000000E+00  0.00000000000E+00 -0.35561245194E+03  0.16792960022E+04  0.16412113962E+04 0.  0.
        3    1    3    3  502    0  0.95954397399E+02 -0.63764444888E+03 -0.69712293673E+03  0.94961997066E+03  0.10100000352E+00 0. -1.
       -3    1    3    3    0  502 -0.95954397399E+02  0.63764444888E+03  0.34151048478E+03  0.72967603153E+03  0.10100000352E+00 0.  1.
</event>
<event>
 5   0  0.3635143E-04  0.1611572E+04  0.7818609E-02  0.8813470E-01
       -1   -1    0    0    0  501  0.00000000000E+00  0.00000000000E+00  0.14130494917E+04  0.14130494917E+04  0.50400001928E-02 0.  1.
        1   -1    0    0  501    0  0.00000000000E+00  0.00000000000E+00 -0.45949635132E+03  0.45949635135E+03  0.50400001928E-02 0. -1.
    10030    2    1    2    0    0  0.00000000000E+00  0.00000000000E+00  0.95355314034E+03  0.18725458430E+04  0.16115720098E+04 0.  0.
        3    1    3    3  502    0 -0.10493542405E+03  0.63658640273E+03  0.10376896162E+04  0.12219056597E+04  0.10100000352E+00 0.  1.
       -3    1    3    3    0  502  0.10493542405E+03 -0.63658640273E+03 -0.84136475904E+02  0.65064018332E+03  0.10100000352E+00 0. -1.
</event>
<event>
 5   0  0.2639750E-04  0.1702047E+04  0.7818609E-02  0.8760198E-01
       -3   -1    0    0    0  501  0.00000000000E+00  0.00000000000E+00  0.13671045579E+04  0.13671045616E+04  0.10100000352E+00 0.  1.
        3   -1    0    0  501    0  0.00000000000E+00  0.00000000000E+00 -0.52976244175E+03  0.52976245137E+03  0.10100000352E+00 0. -1.
    10030    2    1    2    0    0  0.00000000000E+00  0.00000000000E+00  0.83734211614E+03  0.18968670130E+04  0.17020466050E+04 0.  0.
        3    1    3    3  502    0 -0.50071266609E+03 -0.49236698621E+03  0.95442762466E+03  0.11849348185E+04  0.10100000352E+00 0.  1.
       -3    1    3    3    0  502  0.50071266609E+03  0.49236698621E+03 -0.11708550852E+03  0.71193219452E+03  0.10100000352E+00 0. -1.
</event>
<event>
 5   0  0.7242144E-04  0.1700696E+04  0.7818609E-02  0.8760967E-01
       -2   -1    0    0    0  501  0.00000000000E+00  0.00000000000E+00  0.15753480261E+04  0.15753480261E+04  0.25500000920E-02 0.  1.
        2   -1    0    0  501    0  0.00000000000E+00  0.00000000000E+00 -0.45900448203E+03  0.45900448204E+03  0.25500000920E-02 0. -1.
    10030    2    1    2    0    0  0.00000000000E+00  0.00000000000E+00  0.11163435441E+04  0.20343525081E+04  0.17006960984E+04 0.  0.
        3    1    3    3  502    0 -0.55472581876E+02  0.76804030196E+03  0.12666659709E+03  0.78038935782E+03  0.10100000352E+00 0. -1.
       -3    1    3    3    0  502  0.55472581876E+02 -0.76804030196E+03  0.98967694698E+03  0.12539631503E+04  0.10100000352E+00 0.  1.
</event>
<event>
 5   0  0.3723500E-04  0.1712081E+04  0.7818609E-02  0.8754504E-01
        1   -1    0    0  501    0  0.00000000000E+00  0.00000000000E+00  0.16632622810E+04  0.16632622810E+04  0.50400001928E-02 0.  1.
       -1   -1    0    0    0  501  0.00000000000E+00  0.00000000000E+00 -0.44058291355E+03  0.44058291358E+03  0.50400001928E-02 0. -1.
    10030    2    1    2    0    0  0.00000000000E+00  0.00000000000E+00  0.12226793675E+04  0.21038451946E+04  0.17120805376E+04 0.  0.
        1    1    3    3  502    0 -0.76982540852E+02 -0.75885889415E+03  0.10888635091E+04  0.13294423170E+04  0.50400001928E-02 0.  1.
       -1    1    3    3    0  502  0.76982540852E+02  0.75885889415E+03  0.13381585838E+03  0.77440287758E+03  0.50400001928E-02 0. -1.
</event>
<event>
 5   0  0.7025426E-04  0.1624785E+04  0.7818609E-02  0.8805464E-01
       -2   -1    0    0    0  501  0.00000000000E+00  0.00000000000E+00  0.72537615130E+03  0.72537615130E+03  0.25500000920E-02 0. -1.
        2   -1    0    0  501    0  0.00000000000E+00  0.00000000000E+00 -0.90984774074E+03  0.90984774074E+03  0.25500000920E-02 0.  1.
    10030    2    1    2    0    0  0.00000000000E+00  0.00000000000E+00 -0.18447158944E+03  0.16352238920E+04  0.16247853427E+04 0.  0.
        2    1    3    3  502    0 -0.64211665206E+03 -0.17760824313E+03 -0.56011322536E+03  0.87039376612E+03  0.25500000920E-02 0.  1.
       -2    1    3    3    0  502  0.64211665206E+03  0.17760824313E+03  0.37564163592E+03  0.76483012592E+03  0.25500000920E-02 0. -1.
</event>
<event>
 5   0  0.3803253E-04  0.1686711E+04  0.7818609E-02  0.8768980E-01
        1   -1    0    0  501    0  0.00000000000E+00  0.00000000000E+00  0.14302437635E+04  0.14302437635E+04  0.50400001928E-02 0.  1.
       -1   -1    0    0    0  501  0.00000000000E+00  0.00000000000E+00 -0.49729187774E+03  0.49729187776E+03  0.50400001928E-02 0. -1.
    10030    2    1    2    0    0  0.00000000000E+00  0.00000000000E+00  0.93295188572E+03  0.19275356412E+04  0.16867111274E+04 0.  0.
        4    1    3    3  502    0 -0.20668169040E+03  0.49028059382E+03 -0.28128369685E+03  0.60184259806E+03  0.12699999809E+01 0. -1.
       -4    1    3    3    0  502  0.20668169040E+03 -0.49028059382E+03  0.12142355826E+04  0.13256930432E+04  0.12699999809E+01 0.  1.
</event>
<event>
 5   0  0.3723500E-04  0.1698954E+04  0.7818609E-02  0.8761961E-01
        1   -1    0    0  501    0  0.00000000000E+00  0.00000000000E+00  0.11091340677E+04  0.11091340677E+04  0.50400001928E-02 0. -1.
       -1   -1    0    0    0  501  0.00000000000E+00  0.00000000000E+00 -0.65060754358E+03  0.65060754360E+03  0.50400001928E-02 0.  1.
    10030    2    1    2    0    0  0.00000000000E+00  0.00000000000E+00  0.45852652413E+03  0.17597416113E+04  0.16989537855E+04 0.  0.
        1    1    3    3  502    0 -0.72247886172E+03 -0.21143083921E+03  0.63696100056E+03  0.98610243974E+03  0.50400001928E-02 0. -1.
       -1    1    3    3    0  502  0.72247886172E+03  0.21143083921E+03 -0.17843447643E+03  0.77363917158E+03  0.50400001928E-02 0.  1.
</event>
<event>
 5   0  0.3915701E-04  0.1688015E+04  0.7818609E-02  0.8768230E-01
       -1   -1    0    0    0  501  0.00000000000E+00  0.00000000000E+00  0.46737997805E+03  0.46737997808E+03  0.50400001928E-02 0. -1.
        1   -1    0    0  501    0  0.00000000000E+00  0.00000000000E+00 -0.15241308843E+04  0.15241308843E+04  0.50400001928E-02 0.  1.
    10030    2    1    2    0    0  0.00000000000E+00  0.00000000000E+00 -0.10567509062E+04  0.19915108624E+04  0.16880145252E+04 0.  0.
        2    1    3    3  502    0  0.87955055393E+02  0.81972093196E+03 -0.31513014705E+03  0.88260155656E+03  0.25500000920E-02 0.  1.
       -2    1    3    3    0  502 -0.87955055393E+02 -0.81972093196E+03 -0.74162075920E+03  0.11089093058E+04  0.25500000920E-02 0. -1.
</event>
<event>
 5   0  0.3635143E-04  0.1632849E+04  0.7818609E-02  0.8800618E-01
        1   -1    0    0  501    0  0.00000000000E+00  0.00000000000E+00  0.15870904249E+04  0.15870904249E+04  0.50400001928E-02 0.  1.
       -1   -1    0    0    0  501  0.00000000000E+00  0.00000000000E+00 -0.41998159649E+03  0.41998159652E+03  0.50400001928E-02 0. -1.
    10030    2    1    2    0    0  0.00000000000E+00  0.00000000000E+00  0.11671088284E+04  0.20070720214E+04  0.16328487627E+04 0.  0.
        3    1    3    3  502    0  0.38890330807E+03 -0.19278907928E+03 -0.26639371317E+03  0.50929267886E+03  0.10100000352E+00 0. -1.
       -3    1    3    3    0  502 -0.38890330807E+03  0.19278907928E+03  0.14335025416E+04  0.14977793426E+04  0.10100000352E+00 0.  1.
</event>
<event>
 5   0  0.7049044E-04  0.1676310E+04  0.7818609E-02  0.8774992E-01
        2   -1    0    0  501    0  0.00000000000E+00  0.00000000000E+00  0.17370839970E+04  0.17370839970E+04  0.25500000920E-02 0.  1.
       -2   -1    0    0    0  501  0.00000000000E+00  0.00000000000E+00 -0.40441536042E+03  0.40441536043E+03  0.25500000920E-02 0. -1.
    10030    2    1    2    0    0  0.00000000000E+00  0.00000000000E+00  0.13326686366E+04  0.21414993575E+04  0.16763095785E+04 0.  0.
        4    1    3    3  502    0  0.42278838604E+03 -0.72180864086E+03  0.73325556790E+03  0.11123951969E+04  0.12699999809E+01 0.  1.
       -4    1    3    3    0  502 -0.42278838604E+03  0.72180864086E+03  0.59941306873E+03  0.10291041605E+04  0.12699999809E+01 0. -1.
</event>
<event>
 5   0  0.7049044E-04  0.1582552E+04  0.7818609E-02  0.8831339E-01
        2   -1    0    0  501    0  0.00000000000E+00  0.00000000000E+00  0.39330289338E+03  0.39330289339E+03  0.25500000920E-02 0.  1.
       -2   -1    0    0    0  501  0.00000000000E+00  0.00000000000E+00 -0.15919484720E+04  0.15919484720E+04  0.25500000920E-02 0. -1.
    10030    2    1    2    0    0  0.00000000000E+00  0.00000000000E+00 -0.11986455786E+04  0.19852513653E+04  0.15825522932E+04 0.  0.
        4    1    3    3  502    0 -0.50104927749E+02 -0.40042584626E+03 -0.14531542688E+04  0.15081479715E+04  0.12699999809E+01 0. -1.
       -4    1    3    3    0  502  0.50104927749E+02  0.40042584626E+03  0.25450869021E+03  0.47710339386E+03  0.12699999809E+01 0.  1.
</event>
<event>
 5   0  0.3915701E-04  0.1692072E+04  0.7818609E-02  0.8765899E-01
        1   -1    0    0  501    0  0.00000000000E+00  0.00000000000E+00  0.10558623324E+04  0.10558623324E+04  0.50400001928E-02 0.  1.
       -1   -1    0    0    0  501  0.00000000000E+00  0.00000000000E+00 -0.67790752104E+03  0.67790752106E+03  0.50400001928E-02 0. -1.
    10030    2    1    2    0    0  0.00000000000E+00  0.00000000000E+00  0.37795481132E+03  0.17337698534E+04  0.16920721218E+04 0.  0.
        2    1    3    3  502    0 -0.37677209900E+03  0.25803758065E+03  0.91873359409E+03  0.10259688224E+04  0.25500000920E-02 0.  1.
       -2    1    3    3    0  502  0.37677209900E+03 -0.25803758065E+03 -0.54077878278E+03  0.70780103103E+03  0.25500000920E-02 0. -1.
</event>
<event>
 5   0  0.7049044E-04  0.1704388E+04  0.7818609E-02  0.8758866E-01
       -2   -1    0    0    0  501  0.00000000000E+00  0.00000000000E+00  0.68568134921E+03  0.68568134922E+03  0.25500000920E-02 0.  1.
        2   -1    0    0  501    0  0.00000000000E+00  0.00000000000E+00 -0.10591426274E+04  0.10591426274E+04  0.25500000920E-02 0. -1.
    10030    2    1    2    0    0  0.00000000000E+00  0.00000000000E+00 -0.37346127818E+03  0.17448239766E+04  0.17043876857E+04 0.  0.
        4    1    3    3  502    0  0.47806576736E+03  0.22044675076E+03  0.49930943105E+03  0.72557230424E+03  0.12699999809E+01 0.  1.
       -4    1    3    3    0  502 -0.47806576736E+03 -0.22044675076E+03 -0.87277070922E+03  0.10192516724E+04  0.12699999809E+01 0. -1.
</event>
<event>
 5   0  0.7233728E-04  0.1684875E+04  0.7818609E-02  0.8770038E-01
       -2   -1    0    0    0  501  0.00000000000E+00  0.00000000000E+00  0.32732569573E+03  0.32732569574E+03  0.25500000920E-02 0.  1.
        2   -1    0    0  501    0  0.00000000000E+00  0.00000000000E+00 -0.21681798821E+04  0.21681798821E+04  0.25500000920E-02 0. -1.
    10030    2    1    2    0    0  0.00000000000E+00  0.00000000000E+00 -0.18408541864E+04  0.24955055779E+04  0.16848750558E+04 0.  0.
        1    1    3    3  502    0  0.83525614900E+03  0.86149680111E+02 -0.81968480693E+03  0.11734384452E+04  0.50400001928E-02 0.  1.
       -1    1    3    3    0  502 -0.83525614900E+03 -0.86149680111E+02 -0.10211693795E+04  0.13220671327E+04  0.50400001928E-02 0. -1.
</event>
<event>
 5   0  0.7049044E-04  0.1812902E+04  0.7818609E-02  0.8699468E-01
        2   -1    0    0  501    0  0.00000000000E+00  0.00000000000E+00  0.19755226893E+04  0.19755226893E+04  0.25500000920E-02 0.  1.
       -2   -1    0    0    0  501  0.00000000000E+00  0.00000000000E+00 -0.41591701848E+03  0.41591701849E+03  0.25500000920E-02 0. -1.
    10030    2    1    2    0    0  0.00000000000E+00  0.00000000000E+00  0.15596056709E+04  0.23914397078E+04  0.18129021010E+04 0.  0.
        4    1    3    3  502    0  0.59929446058E+03  0.67421055179E+03  0.89733194040E+03  0.12723678488E+04  0.12699999809E+01 0.  1.
       -4    1    3    3    0  502 -0.59929446058E+03 -0.67421055179E+03  0.66227373046E+03  0.11190718590E+04  0.12699999809E+01 0. -1.
</event>
<event>
 5   0  0.3635143E-04  0.1550382E+04  0.7818609E-02  0.8851624E-01
       -1   -1    0    0    0  501  0.00000000000E+00  0.00000000000E+00  0.64767502458E+03  0.64767502460E+03  0.50400001928E-02 0.  1.
        1   -1    0    0  501    0  0.00000000000E+00  0.00000000000E+00 -0.92781310232E+03  0.92781310234E+03  0.50400001928E-02 0. -1.
    10030    2    1    2    0    0  0.00000000000E+00  0.00000000000E+00 -0.28013807775E+03  0.15754881269E+04  0.15503823707E+04 0.  0.
        3    1    3    3  502    0 -0.76093719272E+03  0.49981240193E+02  0.14623817037E+01  0.76257831361E+03  0.10100000352E+00 0.  1.
       -3    1    3    3    0  502  0.76093719272E+03 -0.49981240193E+02 -0.28160045945E+03  0.81290981332E+03  0.10100000352E+00 0. -1.
</event>
<event>
 5   0  0.6746664E-04  0.1716531E+04  0.7818609E-02  0.8751992E-01
       -2   -1    0    0    0  501  0.00000000000E+00  0.00000000000E+00  0.10510172237E+04  0.10510172237E+04  0.25500000920E-02 0. -1.
        2   -1    0    0  501    0  0.00000000000E+00  0.00000000000E+00 -0.70086393144E+03  0.70086393144E+03  0.25500000920E-02 0.  1.
    10030    2    1    2    0    0  0.00000000000E+00  0.00000000000E+00  0.35015329223E+03  0.17518811551E+04  0.17165314601E+04 0.  0.
        5    1    3    3  502    0 -0.20080384386E+03 -0.23317089785E+03 -0.64261388880E+03  0.71250652726E+03  0.46999998093E+01 0.  1.
       -5    1    3    3    0  502  0.20080384386E+03  0.23317089785E+03  0.99276718103E+03  0.10393746279E+04  0.46999998093E+01 0. -1.
</event>
<event>
 5   0  0.3635143E-04  0.1684329E+04  0.7818609E-02  0.8770353E-01
       -1   -1    0    0    0  501  0.00000000000E+00  0.00000000000E+00  0.46303197986E+03  0.46303197989E+03  0.50400001928E-02 0. -1.
        1   -1    0    0  501    0  0.00000000000E+00  0.00000000000E+00 -0.15317322638E+04  0.15317322638E+04  0.50400001928E-02 0.  1.
    10030    2    1    2    0    0  0.00000000000E+00  0.00000000000E+00 -0.10687002840E+04  0.19947642437E+04  0.16843289735E+04 0.  0.
        3    1    3    3  502    0 -0.46369248198E+03  0.38288269661E+03  0.16392083107E+03  0.62328157864E+03  0.10100000352E+00 0. -1.
       -3    1    3    3    0  502  0.46369248198E+03 -0.38288269661E+03 -0.12326211150E+04  0.13714826651E+04  0.10100000352E+00 0.  1.
</event>
<event>
 5   0  0.3635143E-04  0.1635079E+04  0.7818609E-02  0.8799283E-01
       -1   -1    0    0    0  501  0.00000000000E+00  0.00000000000E+00  0.49002705420E+03  0.49002705422E+03  0.50400001928E-02 0. -1.
        1   -1    0    0  501    0  0.00000000000E+00  0.00000000000E+00 -0.13639465253E+04  0.13639465253E+04  0.50400001928E-02 0.  1.
    10030    2    1    2    0    0  0.00000000000E+00  0.00000000000E+00 -0.87391947110E+03  0.18539735795E+04  0.16350788335E+04 0.  0.
        3    1    3    3  502    0  0.23542204898E+03 -0.30683167037E+02  0.45007897762E+03  0.50885763646E+03  0.10100000352E+00 0. -1.
       -3    1    3    3    0  502 -0.23542204898E+03  0.30683167037E+02 -0.13239984487E+04  0.13451159431E+04  0.10100000352E+00 0.  1.
</event>
<event>
 5   0  0.7242144E-04  0.1704843E+04  0.7818609E-02  0.8758607E-01
       -2   -1    0    0    0  501  0.00000000000E+00  0.00000000000E+00  0.50475585959E+03  0.50475585960E+03  0.25500000920E-02 0. -1.
        2   -1    0    0  501    0  0.00000000000E+00  0.00000000000E+00 -0.14395517928E+04  0.14395517928E+04  0.25500000920E-02 0.  1.
    10030    2    1    2    0    0  0.00000000000E+00  0.00000000000E+00 -0.93479593324E+03  0.19443076524E+04  0.17048427524E+04 0.  0.
        3    1    3    3  502    0  0.59456369912E+03  0.47008335959E+03 -0.91223329778E+03  0.11860244336E+04  0.10100000352E+00 0.  1.
       -3    1    3    3    0  502 -0.59456369912E+03 -0.47008335959E+03 -0.22562635467E+02  0.75828321885E+03  0.10100000352E+00 0. -1.
</event>
<event>
 5   0  0.3723500E-04  0.1713158E+04  0.7818609E-02  0.8753895E-01
       -1   -1    0    0    0  501  0.00000000000E+00  0.00000000000E+00  0.55445478798E+03  0.55445478800E+03  0.50400001928E-02 0.  1.
        1   -1    0    0  501    0  0.00000000000E+00  0.00000000000E+00 -0.13233313282E+04  0.13233313282E+04  0.50400001928E-02 0. -1.
    10030    2    1    2    0    0  0.00000000000E+00  0.00000000000E+00 -0.76887654020E+03  0.18777861162E+04  0.17131577756E+04 0.  0.
        1    1    3    3  502    0 -0.64661756798E+03 -0.42860717133E+03 -0.78253259205E+03  0.11018963854E+04  0.50400001928E-02 0. -1.
       -1    1    3    3    0  502  0.64661756798E+03  0.42860717133E+03  0.13656051857E+02  0.77588973077E+03  0.50400001928E-02 0.  1.
</event>
<event>
 5   0  0.3803253E-04  0.1691019E+04  0.7818609E-02  0.8766503E-01
       -1   -1    0    0    0  501  0.00000000000E+00  0.00000000000E+00  0.84211085095E+03  0.84211085096E+03  0.50400001928E-02 0. -1.
        1   -1    0    0  501    0  0.00000000000E+00  0.00000000000E+00 -0.84892225562E+03  0.84892225564E+03  0.50400001928E-02 0.  1.
    10030    2    1    2    0    0  0.00000000000E+00  0.00000000000E+00 -0.68114046755E+01  0.16910331066E+04  0.16910193885E+04 0.  0.
        4    1    3    3  502    0  0.53231437091E+03  0.57793356223E+03  0.30887753541E+03  0.84425869058E+03  0.12699999809E+01 0.  1.
       -4    1    3    3    0  502 -0.53231437091E+03 -0.57793356223E+03 -0.31568894009E+03  0.84677441602E+03  0.12699999809E+01 0. -1.
</event>
<event>
 5   0  0.3713516E-04  0.1642884E+04  0.7818609E-02  0.8794627E-01
        1   -1    0    0  501    0  0.00000000000E+00  0.00000000000E+00  0.71743891140E+03  0.71743891141E+03  0.50400001928E-02 0.  1.
       -1   -1    0    0    0  501  0.00000000000E+00  0.00000000000E+00 -0.94052189775E+03  0.94052189776E+03  0.50400001928E-02 0. -1.
    10030    2    1    2    0    0  0.00000000000E+00  0.00000000000E+00 -0.22308298635E+03  0.16579608092E+04  0.16428840574E+04 0.  0.
        5    1    3    3  502    0 -0.29960878827E+03 -0.47771726098E+03 -0.71432158146E+03  0.91008605043E+03  0.46999998093E+01 0. -1.
       -5    1    3    3    0  502  0.29960878827E+03  0.47771726098E+03  0.49123859511E+03  0.74787475875E+03  0.46999998093E+01 0.  1.
</event>
<event>
 5   0  0.3803253E-04  0.1666767E+04  0.7818609E-02  0.8780549E-01
       -1   -1    0    0    0  501  0.00000000000E+00  0.00000000000E+00  0.11843391685E+04  0.11843391685E+04  0.50400001928E-02 0. -1.
        1   -1    0    0  501    0  0.00000000000E+00  0.00000000000E+00 -0.58642643933E+03  0.58642643935E+03  0.50400001928E-02 0.  1.
    10030    2    1    2    0    0  0.00000000000E+00  0.00000000000E+00  0.59791272919E+03  0.17707656079E+04  0.16667666922E+04 0.  0.
        4    1    3    3  502    0 -0.56889775804E+03 -0.60227703707E+03  0.39483072651E+03  0.91775552517E+03  0.12699999809E+01 0. -1.
       -4    1    3    3    0  502  0.56889775804E+03  0.60227703707E+03  0.20308200268E+03  0.85301008270E+03  0.12699999809E+01 0.  1.
</event>
<event>
 5   0  0.3723500E-04  0.1905911E+04  0.7818609E-02  0.8651920E-01
        1   -1    0    0  501    0  0.00000000000E+00  0.00000000000E+00  0.13017312185E+04  0.13017312185E+04  0.50400001928E-02 0.  1.
       -1   -1    0    0    0  501  0.00000000000E+00  0.00000000000E+00 -0.69762824048E+03  0.69762824050E+03  0.50400001928E-02 0. -1.
    10030    2    1    2    0    0  0.00000000000E+00  0.00000000000E+00  0.60410297806E+03  0.19993594590E+04  0.19059112882E+04 0.  0.
        1    1    3    3  502    0 -0.27014166895E+02 -0.89426405031E+03  0.64629743602E+03  0.11036930428E+04  0.50400001928E-02 0.  1.
       -1    1    3    3    0  502  0.27014166895E+02  0.89426405031E+03 -0.42194457959E+02  0.89566641625E+03  0.50400001928E-02 0. -1.
</event>
<event>
 5   0  0.7049044E-04  0.1679425E+04  0.7818609E-02  0.8773187E-01
       -2   -1    0    0    0  501  0.00000000000E+00  0.00000000000E+00  0.13435633494E+04  0.13435633494E+04  0.25500000920E-02 0.  1.
        2   -1    0    0  501    0  0.00000000000E+00  0.00000000000E+00 -0.52481117585E+03  0.52481117586E+03  0.25500000920E-02 0. -1.
    10030    2    1    2    0    0  0.00000000000E+00  0.00000000000E+00  0.81875217351E+03  0.18683745252E+04  0.16794249745E+04 0.  0.
        4    1    3    3  502    0  0.44360789786E+03 -0.52498451234E+02 -0.38165686728E+03  0.58754372745E+03  0.12699999809E+01 0. -1.
       -4    1    3    3    0  502 -0.44360789786E+03  0.52498451234E+02  0.12004090408E+04  0.12808307978E+04  0.12699999809E+01 0.  1.
</event>
<event>
 5   0  0.3803253E-04  0.1826514E+04  0.7818609E-02  0.8692326E-01
       -1   -1    0    0    0  501  0.00000000000E+00  0.00000000000E+00  0.53919081155E+03  0.53919081158E+03  0.50400001928E-02 0. -1.
        1   -1    0    0  501    0  0.00000000000E+00  0.00000000000E+00 -0.15468329053E+04  0.15468329053E+04  0.50400001928E-02 0.  1.
    10030    2    1    2    0    0  0.00000000000E+00  0.00000000000E+00 -0.10076420938E+04  0.20860237169E+04  0.18265137170E+04 0.  0.
        4    1    3    3  502    0  0.12885492797E+03 -0.48598098989E+03 -0.13745435924E+04  0.14636095159E+04  0.12699999809E+01 0.  1.
       -4    1    3    3    0  502 -0.12885492797E+03  0.48598098989E+03  0.36690149858E+03  0.62241420096E+03  0.12699999809E+01 0. -1.
</event>
<event>
 5   0  0.3723500E-04  0.1700978E+04  0.7818609E-02  0.8760807E-01
        1   -1    0    0  501    0  0.00000000000E+00  0.00000000000E+00  0.49795220277E+03  0.49795220279E+03  0.50400001928E-02 0.  1.
       -1   -1    0    0    0  501  0.00000000000E+00  0.00000000000E+00 -0.14526124449E+04  0.14526124449E+04  0.50400001928E-02 0. -1.
    10030    2    1    2    0    0  0.00000000000E+00  0.00000000000E+00 -0.95466024212E+03  0.19505646477E+04  0.17009780325E+04 0.  0.
        1    1    3    3  502    0 -0.27307241479E+03  0.14971645721E+02  0.44615446298E+03  0.52330344807E+03  0.50400001928E-02 0.  1.
       -1    1    3    3    0  502  0.27307241479E+03 -0.14971645721E+02 -0.14008147051E+04  0.14272611996E+04  0.50400001928E-02 0. -1.
</event>
<event>
 5   0  0.3635143E-04  0.1698624E+04  0.7818609E-02  0.8762150E-01
        1   -1    0    0  501    0  0.00000000000E+00  0.00000000000E+00  0.11711320740E+04  0.11711320740E+04  0.50400001928E-02 0. -1.
       -1   -1    0    0    0  501  0.00000000000E+00  0.00000000000E+00 -0.61592603835E+03  0.61592603838E+03  0.50400001928E-02 0.  1.
    10030    2    1    2    0    0  0.00000000000E+00  0.00000000000E+00  0.55520603561E+03  0.17870581123E+04  0.16986238415E+04 0.  0.
        3    1    3    3  502    0 -0.25107704154E+03 -0.33772164657E+03  0.10537335145E+04  0.11346585042E+04  0.10100000352E+00 0. -1.
       -3    1    3    3    0  502  0.25107704154E+03  0.33772164657E+03 -0.49852747887E+03  0.65239960817E+03  0.10100000352E+00 0.  1.
</event>
<event>
 5   0  0.3635143E-04  0.1751206E+04  0.7818609E-02  0.8732687E-01
       -1   -1    0    0    0  501  0.00000000000E+00  0.00000000000E+00  0.56009356383E+03  0.56009356385E+03  0.50400001928E-02 0.  1.
        1   -1    0    0  501    0  0.00000000000E+00  0.00000000000E+00 -0.13688434218E+04  0.13688434218E+04  0.50400001928E-02 0. -1.
    10030    2    1    2    0    0  0.00000000000E+00  0.00000000000E+00 -0.80874985800E+03  0.19289369857E+04  0.17512057452E+04 0.  0.
        3    1    3    3  502    0 -0.46806065857E+03 -0.70505758915E+02  0.40701980046E+03  0.62427315360E+03  0.10100000352E+00 0.  1.
       -3    1    3    3    0  502  0.46806065857E+03  0.70505758915E+02 -0.12157696585E+04  0.13046638321E+04  0.10100000352E+00 0. -1.
</event>
<event>
 5   0  0.7049044E-04  0.1714809E+04  0.7818609E-02  0.8752963E-01
        2   -1    0    0  501    0  0.00000000000E+00  0.00000000000E+00  0.13658361404E+04  0.13658361404E+04  0.25500000920E-02 0. -1.
       -2   -1    0    0    0  501  0.00000000000E+00  0.00000000000E+00 -0.53823651407E+03  0.53823651408E+03  0.25500000920E-02 0.  1.
    10030    2    1    2    0    0  0.00000000000E+00  0.00000000000E+00  0.82759962636E+03  0.19040726545E+04  0.17148094740E+04 0.  0.
        4    1    3    3  502    0  0.83627026939E+03  0.89113482502E+02  0.59910883646E+03  0.10325803538E+04  0.12699999809E+01 0. -1.
       -4    1    3    3    0  502 -0.83627026939E+03 -0.89113482502E+02  0.22849078990E+03  0.87149230072E+03  0.12699999809E+01 0.  1.
</event>
<event>
 5   0  0.3915701E-04  0.1693242E+04  0.7818609E-02  0.8765228E-01
       -1   -1    0    0    0  501  0.00000000000E+00  0.00000000000E+00  0.67033763364E+03  0.67033763366E+03  0.50400001928E-02 0.  1.
        1   -1    0    0  501    0  0.00000000000E+00  0.00000000000E+00 -0.10692634539E+04  0.10692634539E+04  0.50400001928E-02 0. -1.
    10030    2    1    2    0    0  0.00000000000E+00  0.00000000000E+00 -0.39892582024E+03  0.17396010875E+04  0.16932424911E+04 0.  0.
        2    1    3    3  502    0  0.34141798795E+03  0.21840983676E+03 -0.96311586737E+03  0.10449216589E+04  0.25500000920E-02 0. -1.
       -2    1    3    3    0  502 -0.34141798795E+03 -0.21840983676E+03  0.56419004712E+03  0.69467942863E+03  0.25500000920E-02 0.  1.
</event>
<event>
 5   0  0.3803253E-04  0.1688930E+04  0.7818609E-02  0.8767703E-01
        1   -1    0    0  501    0  0.00000000000E+00  0.00000000000E+00  0.84865527645E+03  0.84865527647E+03  0.50400001928E-02 0.  1.
       -1   -1    0    0    0  501  0.00000000000E+00  0.00000000000E+00 -0.84029530852E+03  0.84029530853E+03  0.50400001928E-02 0. -1.
    10030    2    1    2    0    0  0.00000000000E+00  0.00000000000E+00  0.83599679390E+01  0.16889505850E+04  0.16889298948E+04 0.  0.
        4    1    3    3  502    0  0.15948003822E+03  0.69230795358E+03  0.46068886144E+03  0.84673492023E+03  0.12699999809E+01 0.  1.
       -4    1    3    3    0  502 -0.15948003822E+03 -0.69230795358E+03 -0.45232889350E+03  0.84221566477E+03  0.12699999809E+01 0. -1.
</event>
<event>
 5   0  0.7049044E-04  0.1633115E+04  0.7818609E-02  0.8800459E-01
       -2   -1    0    0    0  501  0.00000000000E+00  0.00000000000E+00  0.10950680542E+04  0.10950680542E+04  0.25500000920E-02 0. -1.
        2   -1    0    0  501    0  0.00000000000E+00  0.00000000000E+00 -0.60888101220E+03  0.60888101220E+03  0.25500000920E-02 0.  1.
    10030    2    1    2    0    0  0.00000000000E+00  0.00000000000E+00  0.48618704196E+03  0.17039490664E+04  0.16331149932E+04 0.  0.
        4    1    3    3  502    0 -0.66302555749E+02 -0.80455694134E+03  0.11506587655E+03  0.81544446138E+03  0.12699999809E+01 0. -1.
       -4    1    3    3    0  502  0.66302555749E+02  0.80455694134E+03  0.37112116541E+03  0.88850460498E+03  0.12699999809E+01 0.  1.
</event>
<event>
 5   0  0.6746664E-04  0.1689877E+04  0.7818609E-02  0.8767159E-01
        2   -1    0    0  501    0  0.00000000000E+00  0.00000000000E+00  0.40661622029E+03  0.40661622030E+03  0.25500000920E-02 0. -1.
       -2   -1    0    0    0  501  0.00000000000E+00  0.00000000000E+00 -0.17557608611E+04  0.17557608611E+04  0.25500000920E-02 0.  1.
    10030    2    1    2    0    0  0.00000000000E+00  0.00000000000E+00 -0.13491446408E+04  0.21623770814E+04  0.16898767352E+04 0.  0.
        5    1    3    3  502    0  0.54200331706E+03 -0.31992986473E+03  0.46762634110E+02  0.63113512657E+03  0.46999998093E+01 0. -1.
       -5    1    3    3    0  502 -0.54200331706E+03  0.31992986473E+03 -0.13959072749E+04  0.15312419548E+04  0.46999998093E+01 0.  1.
</event>
<event>
 5   0  0.3803253E-04  0.1739818E+04  0.7818609E-02  0.8738975E-01
       -1   -1    0    0    0  501  0.00000000000E+00  0.00000000000E+00  0.89238346954E+03  0.89238346955E+03  0.50400001928E-02 0. -1.
        1   -1    0    0  501    0  0.00000000000E+00  0.00000000000E+00 -0.84800019728E+03  0.84800019730E+03  0.50400001928E-02 0.  1.
    10030    2    1    2    0    0  0.00000000000E+00  0.00000000000E+00  0.44383272254E+02  0.17403836669E+04  0.17398176436E+04 0.  0.
        4    1    3    3  502    0  0.63318483154E+02  0.55781698241E+03 -0.64253243638E+03  0.85324003708E+03  0.12699999809E+01 0.  1.
       -4    1    3    3    0  502 -0.63318483154E+02 -0.55781698241E+03  0.68691570864E+03  0.88714362977E+03  0.12699999809E+01 0. -1.
</event>
<event>
 5   0  0.7049044E-04  0.1689832E+04  0.7818609E-02  0.8767185E-01
        2   -1    0    0  501    0  0.00000000000E+00  0.00000000000E+00  0.74627699236E+03  0.74627699236E+03  0.25500000920E-02 0.  1.
       -2   -1    0    0    0  501  0.00000000000E+00  0.00000000000E+00 -0.95659270008E+03  0.95659270008E+03  0.25500000920E-02 0. -1.
    10030    2    1    2    0    0  0.00000000000E+00  0.00000000000E+00 -0.21031570772E+03  0.17028696924E+04  0.16898320900E+04 0.  0.
        4    1    3    3  502    0  0.84952648121E+02  0.41109789995E+03  0.63375456949E+03  0.76017425832E+03  0.12699999809E+01 0.  1.
       -4    1    3    3    0  502 -0.84952648121E+02 -0.41109789995E+03 -0.84407027721E+03  0.94269543413E+03  0.12699999809E+01 0. -1.
</event>
<event>
 5   0  0.7242144E-04  0.1718599E+04  0.7818609E-02  0.8750827E-01
        2   -1    0    0  501    0  0.00000000000E+00  0.00000000000E+00  0.70071345638E+03  0.70071345639E+03  0.25500000920E-02 0.  1.
       -2   -1    0    0    0  501  0.00000000000E+00  0.00000000000E+00 -0.10537767204E+04  0.10537767204E+04  0.25500000920E-02 0. -1.
    10030    2    1    2    0    0  0.00000000000E+00  0.00000000000E+00 -0.35306326399E+03  0.17544901768E+04  0.17185988805E+04 0.  0.
        3    1    3    3  502    0  0.21276164740E+03  0.34566112983E+03 -0.94974356171E+03  0.10328417006E+04  0.10100000352E+00 0. -1.
       -3    1    3    3    0  502 -0.21276164740E+03 -0.34566112983E+03  0.59668029772E+03  0.72164847617E+03  0.10100000352E+00 0.  1.
</event>
<event>
 5   0  0.3713516E-04  0.1702817E+04  0.7818609E-02  0.8759759E-01
        1   -1    0    0  501    0  0.00000000000E+00  0.00000000000E+00  0.75477097724E+03  0.75477097726E+03  0.50400001928E-02 0.  1.
       -1   -1    0    0    0  501  0.00000000000E+00  0.00000000000E+00 -0.96041877690E+03  0.96041877691E+03  0.50400001928E-02 0. -1.
    10030    2    1    2    0    0  0.00000000000E+00  0.00000000000E+00 -0.20564779966E+03  0.17151897542E+04  0.17028167474E+04 0.  0.
        5    1    3    3  502    0  0.76131797414E+02  0.81099832234E+03  0.14668510639E+03  0.82767924938E+03  0.46999998093E+01 0.  1.
       -5    1    3    3    0  502 -0.76131797414E+02 -0.81099832234E+03 -0.35233290605E+03  0.88751050479E+03  0.46999998093E+01 0. -1.
</event>
<event>
 5   0  0.7025426E-04  0.1679124E+04  0.7818609E-02  0.8773361E-01
        2   -1    0    0  501    0  0.00000000000E+00  0.00000000000E+00  0.81986742161E+03  0.81986742161E+03  0.25500000920E-02 0.  1.
       -2   -1    0    0    0  501  0.00000000000E+00  0.00000000000E+00 -0.85973006495E+03  0.85973006496E+03  0.25500000920E-02 0. -1.
    10030    2    1    2    0    0  0.00000000000E+00  0.00000000000E+00 -0.39862643343E+02  0.16795974866E+04  0.16791243809E+04 0.  0.
        2    1    3    3  502    0  0.56169046246E+03 -0.61919866444E+03  0.57301248111E+02  0.83796574794E+03  0.25500000920E-02 0. -1.
       -2    1    3    3    0  502 -0.56169046246E+03  0.61919866444E+03 -0.97163891454E+02  0.84163173864E+03  0.25500000920E-02 0.  1.
</event>
<event>
 5   0  0.3713516E-04  0.1746812E+04  0.7818609E-02  0.8735107E-01
       -1   -1    0    0    0  501  0.00000000000E+00  0.00000000000E+00  0.41954589165E+03  0.41954589168E+03  0.50400001928E-02 0.  1.
        1   -1    0    0  501    0  0.00000000000E+00  0.00000000000E+00 -0.18182463326E+04  0.18182463326E+04  0.50400001928E-02 0. -1.
    10030    2    1    2    0    0  0.00000000000E+00  0.00000000000E+00 -0.13987004409E+04  0.22377922242E+04  0.17468117001E+04 0.  0.
        5    1    3    3  502    0  0.27139061767E+03  0.37916447070E+03  0.24673463540E+03  0.52755912797E+03  0.46999998093E+01 0.  1.
       -5    1    3    3    0  502 -0.27139061767E+03 -0.37916447070E+03 -0.16454350763E+04  0.17102330963E+04  0.46999998093E+01 0. -1.
</event>
<event>
 5   0  0.7025426E-04  0.1724351E+04  0.7818609E-02  0.8747597E-01
        2   -1    0    0  501    0  0.00000000000E+00  0.00000000000E+00  0.10494794815E+04  0.10494794815E+04  0.25500000920E-02 0. -1.
       -2   -1    0    0    0  501  0.00000000000E+00  0.00000000000E+00 -0.70830001362E+03  0.70830001362E+03  0.25500000920E-02 0.  1.
    10030    2    1    2    0    0  0.00000000000E+00  0.00000000000E+00  0.34117946791E+03  0.17577794951E+04  0.17243506964E+04 0.  0.
        2    1    3    3  502    0  0.81076523406E+03  0.24395334618E+03  0.33651135546E+03  0.91109461212E+03  0.25500000920E-02 0. -1.
       -2    1    3    3    0  502 -0.81076523406E+03 -0.24395334618E+03  0.46681124494E+01  0.84668488303E+03  0.25500000920E-02 0.  1.
</event>
<event>
 5   0  0.3635143E-04  0.1721052E+04  0.7818609E-02  0.8749448E-01
        1   -1    0    0  501    0  0.00000000000E+00  0.00000000000E+00  0.80449994743E+03  0.80449994744E+03  0.50400001928E-02 0.  1.
       -1   -1    0    0    0  501  0.00000000000E+00  0.00000000000E+00 -0.92045381305E+03  0.92045381306E+03  0.50400001928E-02 0. -1.
    10030    2    1    2    0    0  0.00000000000E+00  0.00000000000E+00 -0.11595386562E+03  0.17249537605E+04  0.17210520553E+04 0.  0.
        3    1    3    3  502    0  0.51579769596E+03  0.34514644989E+03  0.53947150202E+03  0.82231553963E+03  0.10100000352E+00 0.  1.
       -3    1    3    3    0  502 -0.51579769596E+03 -0.34514644989E+03 -0.65542536765E+03  0.90263822087E+03  0.10100000352E+00 0. -1.
</event>
<event>
 5   0  0.7242144E-04  0.1917570E+04  0.7818609E-02  0.8646160E-01
       -2   -1    0    0    0  501  0.00000000000E+00  0.00000000000E+00  0.50573421926E+03  0.50573421927E+03  0.25500000920E-02 0. -1.
        2   -1    0    0  501    0  0.00000000000E+00  0.00000000000E+00 -0.18176918343E+04  0.18176918343E+04  0.25500000920E-02 0.  1.
    10030    2    1    2    0    0  0.00000000000E+00  0.00000000000E+00 -0.13119576150E+04  0.23234260535E+04  0.19175702967E+04 0.  0.
        3    1    3    3  502    0 -0.66561575575E+03  0.68836743000E+03 -0.71502610081E+03  0.11950549728E+04  0.10100000352E+00 0. -1.
       -3    1    3    3    0  502  0.66561575575E+03 -0.68836743000E+03 -0.59693151420E+03  0.11283710807E+04  0.10100000352E+00 0.  1.
</event>
<event>
 5   0  0.3915701E-04  0.1688701E+04  0.7818609E-02  0.8767835E-01
       -1   -1    0    0    0  501  0.00000000000E+00  0.00000000000E+00  0.78715125830E+03  0.78715125832E+03  0.50400001928E-02 0.  1.
        1   -1    0    0  501    0  0.00000000000E+00  0.00000000000E+00 -0.90570625157E+03  0.90570625158E+03  0.50400001928E-02 0. -1.
    10030    2    1    2    0    0  0.00000000000E+00  0.00000000000E+00 -0.11855499327E+03  0.16928575099E+04  0.16887010577E+04 0.  0.
        2    1    3    3  502    0  0.65017726398E+03 -0.27085262934E+03 -0.52608036623E+03  0.87912011304E+03  0.25500000920E-02 0. -1.
       -2    1    3    3    0  502 -0.65017726398E+03  0.27085262934E+03  0.40752537296E+03  0.81373739685E+03  0.25500000920E-02 0.  1.
</event>
<event>
 5   0  0.3723500E-04  0.1750705E+04  0.7818609E-02  0.8732963E-01
       -1   -1    0    0    0  501  0.00000000000E+00  0.00000000000E+00  0.86817801536E+03  0.86817801537E+03  0.50400001928E-02 0. -1.
        1   -1    0    0  501    0  0.00000000000E+00  0.00000000000E+00 -0.88258581080E+03  0.88258581081E+03  0.50400001928E-02 0.  1.
    10030    2    1    2    0    0  0.00000000000E+00  0.00000000000E+00 -0.14407795443E+02  0.17507638262E+04  0.17507045412E+04 0.  0.
        1    1    3    3  502    0 -0.71259159772E+03 -0.31425905188E+03  0.39242953018E+03  0.87209315615E+03  0.50400001928E-02 0. -1.
       -1    1    3    3    0  502  0.71259159772E+03  0.31425905188E+03 -0.40683732562E+03  0.87867067003E+03  0.50400001928E-02 0.  1.
</event>
<event>
 5   0  0.7025426E-04  0.1637961E+04  0.7818609E-02  0.8797561E-01
        2   -1    0    0  501    0  0.00000000000E+00  0.00000000000E+00  0.11490809960E+04  0.11490809960E+04  0.25500000920E-02 0.  1.
       -2   -1    0    0    0  501  0.00000000000E+00  0.00000000000E+00 -0.58370893178E+03  0.58370893178E+03  0.25500000920E-02 0. -1.
    10030    2    1    2    0    0  0.00000000000E+00  0.00000000000E+00  0.56537206419E+03  0.17327899278E+04  0.16379607330E+04 0.  0.
        2    1    3    3  502    0 -0.64346528852E+02 -0.52298362823E+03 -0.38056962531E+03  0.64998891597E+03  0.25500000920E-02 0. -1.
       -2    1    3    3    0  502  0.64346528852E+02  0.52298362823E+03  0.94594168950E+03  0.10828010118E+04  0.25500000920E-02 0.  1.
</event>
<event>
 5   0  0.3635143E-04  0.1627603E+04  0.7818609E-02  0.8803768E-01
        1   -1    0    0  501    0  0.00000000000E+00  0.00000000000E+00  0.12163989970E+04  0.12163989970E+04  0.50400001928E-02 0.  1.
       -1   -1    0    0    0  501  0.00000000000E+00  0.00000000000E+00 -0.54445376689E+03  0.54445376691E+03  0.50400001928E-02 0. -1.
    10030    2    1    2    0    0  0.00000000000E+00  0.00000000000E+00  0.67194523014E+03  0.17608527640E+04  0.16276031654E+04 0.  0.
        3    1    3    3  502    0  0.34833666780E+03 -0.37509870216E+03 -0.34846259015E+03  0.61924442463E+03  0.10100000352E+00 0. -1.
       -3    1    3    3    0  502 -0.34833666780E+03  0.37509870216E+03  0.10204078203E+04  0.11416083393E+04  0.10100000352E+00 0.  1.
</event>
<event>
 5   0  0.7049044E-04  0.1699149E+04  0.7818609E-02  0.8761850E-01
        2   -1    0    0  501    0  0.00000000000E+00  0.00000000000E+00  0.20710962706E+04  0.20710962706E+04  0.25500000920E-02 0. -1.
       -2   -1    0    0    0  501  0.00000000000E+00  0.00000000000E+00 -0.34850004319E+03  0.34850004320E+03  0.25500000920E-02 0.  1.
    10030    2    1    2    0    0  0.00000000000E+00  0.00000000000E+00  0.17225962274E+04  0.24195963138E+04  0.16991493634E+04 0.  0.
        4    1    3    3  502    0  0.12295484151E+02 -0.62543349071E+03  0.16798930050E+04  0.17925848240E+04  0.12699999809E+01 0. -1.
       -4    1    3    3    0  502 -0.12295484151E+02  0.62543349071E+03  0.42703222443E+02  0.62701148979E+03  0.12699999809E+01 0.  1.
</event>
<event>
 5   0  0.7242144E-04  0.1695993E+04  0.7818609E-02  0.8763653E-01
        2   -1    0    0  501    0  0.00000000000E+00  0.00000000000E+00  0.81235459576E+03  0.81235459576E+03  0.25500000920E-02 0. -1.
       -2   -1    0    0    0  501  0.00000000000E+00  0.00000000000E+00 -0.88520205517E+03  0.88520205517E+03  0.25500000920E-02 0.  1.
    10030    2    1    2    0    0  0.00000000000E+00  0.00000000000E+00 -0.72847459414E+02  0.16975566509E+04  0.16959928746E+04 0.  0.
        3    1    3    3  502    0 -0.69039461454E+02 -0.83950951874E+03 -0.13426491246E+03  0.85297699629E+03  0.10100000352E+00 0.  1.
       -3    1    3    3    0  502  0.69039461454E+02  0.83950951874E+03  0.61417453044E+02  0.84457965464E+03  0.10100000352E+00 0. -1.
</event>
<event>
 5   0  0.6746664E-04  0.1722650E+04  0.7818609E-02  0.8748550E-01
        2   -1    0    0  501    0  0.00000000000E+00  0.00000000000E+00  0.14498450376E+04  0.14498450376E+04  0.25500000920E-02 0. -1.
       -2   -1    0    0    0  501  0.00000000000E+00  0.00000000000E+00 -0.51169678589E+03  0.51169678590E+03  0.25500000920E-02 0.  1.
    10030    2    1    2    0    0  0.00000000000E+00  0.00000000000E+00  0.93814825166E+03  0.19615418235E+04  0.17226503369E+04 0.  0.
        5    1    3    3  502    0 -0.72397060670E+03 -0.41585123556E+03  0.22807980678E+03  0.86551035680E+03  0.46999998093E+01 0.  1.
       -5    1    3    3    0  502  0.72397060670E+03  0.41585123556E+03  0.71006844488E+03  0.10960314667E+04  0.46999998093E+01 0. -1.
</event>
<event>
 5   0  0.3803253E-04  0.1691876E+04  0.7818609E-02  0.8766012E-01
       -1   -1    0    0    0  501  0.00000000000E+00  0.00000000000E+00  0.32860231823E+03  0.32860231826E+03  0.50400001928E-02 0. -1.
        1   -1    0    0  501    0  0.00000000000E+00  0.00000000000E+00 -0.21777410501E+04  0.21777410501E+04  0.50400001928E-02 0.  1.
    10030    2    1    2    0    0  0.00000000000E+00  0.00000000000E+00 -0.18491387319E+04  0.25063433684E+04  0.16918755954E+04 0.  0.
        4    1    3    3  502    0  0.10367245249E+03 -0.65993044456E+03 -0.16934041644E+04  0.18204052972E+04  0.12699999809E+01 0.  1.
       -4    1    3    3    0  502 -0.10367245249E+03  0.65993044456E+03 -0.15573456743E+03  0.68593807115E+03  0.12699999809E+01 0. -1.
</event>
<event>
 5   0  0.3635143E-04  0.1673583E+04  0.7818609E-02  0.8776576E-01
       -1   -1    0    0    0  501  0.00000000000E+00  0.00000000000E+00  0.96226339793E+03  0.96226339794E+03  0.50400001928E-02 0. -1.
        1   -1    0    0  501    0  0.00000000000E+00  0.00000000000E+00 -0.72767977969E+03  0.72767977971E+03  0.50400001928E-02 0.  1.
    10030    2    1    2    0    0  0.00000000000E+00  0.00000000000E+00  0.23458361824E+03  0.16899431777E+04  0.16735825255E+04 0.  0.
        3    1    3    3  502    0  0.91687209879E+02  0.17537668335E+03  0.93829363349E+03  0.95893611798E+03  0.10100000352E+00 0. -1.
       -3    1    3    3    0  502 -0.91687209879E+02 -0.17537668335E+03 -0.70371001525E+03  0.73100705967E+03  0.10100000352E+00 0.  1.
</event>
<event>
 5   0  0.3713516E-04  0.1733230E+04  0.7818609E-02  0.8742636E-01
       -1   -1    0    0    0  501  0.00000000000E+00  0.00000000000E+00  0.20278462811E+04  0.20278462811E+04  0.50400001928E-02 0. -1.
        1   -1    0    0  501    0  0.00000000000E+00  0.00000000000E+00 -0.37035440264E+03  0.37035440268E+03  0.50400001928E-02 0.  1.
    10030    2    1    2    0    0  0.00000000000E+00  0.00000000000E+00  0.16574918785E+04  0.23982006838E+04  0.17332302769E+04 0.  0.
        5    1    3    3  502    0 -0.65712813471E+03 -0.49634095394E+03  0.45534243595E+03  0.94102632905E+03  0.46999998093E+01 0.  1.
       -5    1    3    3    0  502  0.65712813471E+03  0.49634095394E+03  0.12021494425E+04  0.14571743548E+04  0.46999998093E+01 0. -1.
</event>
<event>
 5   0  0.7049044E-04  0.1837893E+04  0.7818609E-02  0.8686404E-01
        2   -1    0    0  501    0  0.00000000000E+00  0.00000000000E+00  0.96439606159E+03  0.96439606159E+03  0.25500000920E-02 0. -1.
       -2   -1    0    0    0  501  0.00000000000E+00  0.00000000000E+00 -0.87563892010E+03  0.87563892010E+03  0.25500000920E-02 0.  1.
    10030    2    1    2    0    0  0.00000000000E+00  0.00000000000E+00  0.88757141488E+02  0.18400349817E+04  0.18378930610E+04 0.  0.
        4    1    3    3  502    0 -0.26626656408E+03  0.58839531735E+03 -0.61010661366E+03  0.88844731164E+03  0.12699999809E+01 0.  1.
       -4    1    3    3    0  502  0.26626656408E+03 -0.58839531735E+03  0.69886375515E+03  0.95158767005E+03  0.12699999809E+01 0. -1.
</event>
<event>
 5   0  0.7049044E-04  0.1699088E+04  0.7818609E-02  0.8761885E-01
        2   -1    0    0  501    0  0.00000000000E+00  0.00000000000E+00  0.16691270899E+04  0.16691270899E+04  0.25500000920E-02 0.  1.
       -2   -1    0    0    0  501  0.00000000000E+00  0.00000000000E+00 -0.43239670037E+03  0.43239670038E+03  0.25500000920E-02 0. -1.
    10030    2    1    2    0    0  0.00000000000E+00  0.00000000000E+00  0.12367303895E+04  0.21015237903E+04  0.16990880450E+04 0.  0.
        4    1    3    3  502    0  0.57294806238E+03 -0.48823205879E+02  0.13918393623E+04  0.15059454210E+04  0.12699999809E+01 0.  1.
       -4    1    3    3    0  502 -0.57294806238E+03  0.48823205879E+02 -0.15510897280E+03  0.59557836928E+03  0.12699999809E+01 0. -1.
</event>
<event>
 5   0  0.6746664E-04  0.1812491E+04  0.7818609E-02  0.8699685E-01
        2   -1    0    0  501    0  0.00000000000E+00  0.00000000000E+00  0.17385557378E+04  0.17385557378E+04  0.25500000920E-02 0.  1.
       -2   -1    0    0    0  501  0.00000000000E+00  0.00000000000E+00 -0.47239246226E+03  0.47239246227E+03  0.25500000920E-02 0. -1.
    10030    2    1    2    0    0  0.00000000000E+00  0.00000000000E+00  0.12661632755E+04  0.22109482000E+04  0.18124906905E+04 0.  0.
        5    1    3    3  502    0 -0.76593458254E+03 -0.89761782060E+02  0.52476902437E+02  0.77297404713E+03  0.46999998093E+01 0. -1.
       -5    1    3    3    0  502  0.76593458254E+03  0.89761782060E+02  0.12136863731E+04  0.14379741529E+04  0.46999998093E+01 0.  1.
</event>
<event>
 5   0  0.7049044E-04  0.1709471E+04  0.7818609E-02  0.8755981E-01
       -2   -1    0    0    0  501  0.00000000000E+00  0.00000000000E+00  0.64383730884E+03  0.64383730885E+03  0.25500000920E-02 0. -1.
        2   -1    0    0  501    0  0.00000000000E+00  0.00000000000E+00 -0.11347159514E+04  0.11347159514E+04  0.25500000920E-02 0.  1.
    10030    2    1    2    0    0  0.00000000000E+00  0.00000000000E+00 -0.49087864257E+03  0.17785532603E+04  0.17094706367E+04 0.  0.
        4    1    3    3  502    0 -0.64409588885E+02  0.39081584679E+03  0.54258943197E+03  0.67178160575E+03  0.12699999809E+01 0. -1.
       -4    1    3    3    0  502  0.64409588885E+02 -0.39081584679E+03 -0.10334680745E+04  0.11067716545E+04  0.12699999809E+01 0.  1.
</event>
<event>
 5   0  0.7025426E-04  0.1709903E+04  0.7818609E-02  0.8755737E-01
        2   -1    0    0  501    0  0.00000000000E+00  0.00000000000E+00  0.94617568474E+03  0.94617568475E+03  0.25500000920E-02 0.  1.
       -2   -1    0    0    0  501  0.00000000000E+00  0.00000000000E+00 -0.77252214865E+03  0.77252214866E+03  0.25500000920E-02 0. -1.
    10030    2    1    2    0    0  0.00000000000E+00  0.00000000000E+00  0.17365353609E+03  0.17186978334E+04  0.17099025387E+04 0.  0.
        2    1    3    3  502    0 -0.52708961259E+03 -0.45983758650E+03  0.58095241221E+03  0.90927431005E+03  0.25500000920E-02 0.  1.
       -2    1    3    3    0  502  0.52708961259E+03  0.45983758650E+03 -0.40729887612E+03  0.80942352335E+03  0.25500000920E-02 0. -1.
</event>
<event>
 5   0  0.6746664E-04  0.1647928E+04  0.7818609E-02  0.8791633E-01
       -2   -1    0    0    0  501  0.00000000000E+00  0.00000000000E+00  0.46086312457E+03  0.46086312457E+03  0.25500000920E-02 0.  1.
        2   -1    0    0  501    0  0.00000000000E+00  0.00000000000E+00 -0.14731416168E+04  0.14731416168E+04  0.25500000920E-02 0. -1.
    10030    2    1    2    0    0  0.00000000000E+00  0.00000000000E+00 -0.10122784923E+04  0.19340047414E+04  0.16479279699E+04 0.  0.
        5    1    3    3  502    0 -0.28790397334E+03 -0.77010292908E+03 -0.56985317292E+03  0.10003509124E+04  0.46999998093E+01 0. -1.
       -5    1    3    3    0  502  0.28790397334E+03  0.77010292908E+03 -0.44242531936E+03  0.93365382902E+03  0.46999998093E+01 0.  1.
</event>
<event>
 5   0  0.6746664E-04  0.1705115E+04  0.7818609E-02  0.8758453E-01
        2   -1    0    0  501    0  0.00000000000E+00  0.00000000000E+00  0.11303513129E+04  0.11303513129E+04  0.25500000920E-02 0.  1.
       -2   -1    0    0    0  501  0.00000000000E+00  0.00000000000E+00 -0.64303361223E+03  0.64303361223E+03  0.25500000920E-02 0. -1.
    10030    2    1    2    0    0  0.00000000000E+00  0.00000000000E+00  0.48731770069E+03  0.17733849252E+04  0.17051145273E+04 0.  0.
        5    1    3    3  502    0 -0.55734038168E+03  0.61919784925E+03  0.55306969032E+02  0.83493426591E+03  0.46999998093E+01 0.  1.
       -5    1    3    3    0  502  0.55734038168E+03 -0.61919784925E+03  0.43201073166E+03  0.93845065924E+03  0.46999998093E+01 0. -1.
</event>
<event>
 5   0  0.3915701E-04  0.1765534E+04  0.7818609E-02  0.8724846E-01
       -1   -1    0    0    0  501  0.00000000000E+00  0.00000000000E+00  0.48627592924E+03  0.48627592927E+03  0.50400001928E-02 0. -1.
        1   -1    0    0  501    0  0.00000000000E+00  0.00000000000E+00 -0.16025425439E+04  0.16025425439E+04  0.50400001928E-02 0.  1.
    10030    2    1    2    0    0  0.00000000000E+00  0.00000000000E+00 -0.11162666147E+04  0.20888184732E+04  0.17655343267E+04 0.  0.
        2    1    3    3  502    0  0.84640916533E+03  0.12909651483E+03 -0.81244239207E+03  0.11803122577E+04  0.25500000920E-02 0.  1.
       -2    1    3    3    0  502 -0.84640916533E+03 -0.12909651483E+03 -0.30382422261E+03  0.90850621547E+03  0.25500000920E-02 0. -1.
</event>
<event>
 5   0  0.3915701E-04  0.1692094E+04  0.7818609E-02  0.8765886E-01
       -1   -1    0    0    0  501  0.00000000000E+00  0.00000000000E+00  0.66048386796E+03  0.66048386798E+03  0.50400001928E-02 0.  1.
        1   -1    0    0  501    0  0.00000000000E+00  0.00000000000E+00 -0.10837444515E+04  0.10837444515E+04  0.50400001928E-02 0. -1.
    10030    2    1    2    0    0  0.00000000000E+00  0.00000000000E+00 -0.42326058355E+03  0.17442283195E+04  0.16920942376E+04 0.  0.
        2    1    3    3  502    0 -0.39966449031E+03 -0.65053667380E+03 -0.58736889171E+03  0.96329221098E+03  0.25500000920E-02 0. -1.
       -2    1    3    3    0  502  0.39966449031E+03  0.65053667380E+03  0.16410830815E+03  0.78093610852E+03  0.25500000920E-02 0.  1.
</event>
<event>
 5   0  0.2639750E-04  0.1731804E+04  0.7818609E-02  0.8743430E-01
       -4   -1    0    0    0  501  0.00000000000E+00  0.00000000000E+00  0.75500559433E+03  0.75500666247E+03  0.12699999809E+01 0. -1.
        4   -1    0    0  501    0  0.00000000000E+00  0.00000000000E+00 -0.99308497599E+03  0.99308578806E+03  0.12699999809E+01 0.  1.
    10030    2    1    2    0    0  0.00000000000E+00  0.00000000000E+00 -0.23807938166E+03  0.17480924505E+04  0.17318040950E+04 0.  0.
        2    1    3    3  502    0  0.46678862080E+03 -0.47931263702E+03 -0.67389520478E+03  0.94961411507E+03  0.25500000920E-02 0.  1.
       -2    1    3    3    0  502 -0.46678862080E+03  0.47931263702E+03  0.43581582312E+03  0.79847833546E+03  0.25500000920E-02 0. -1.
</event>
<event>
 5   0  0.3713516E-04  0.1680675E+04  0.7818609E-02  0.8772463E-01
       -1   -1    0    0    0  501  0.00000000000E+00  0.00000000000E+00  0.63862161304E+03  0.63862161306E+03  0.50400001928E-02 0.  1.
        1   -1    0    0  501    0  0.00000000000E+00  0.00000000000E+00 -0.11057682812E+04  0.11057682812E+04  0.50400001928E-02 0. -1.
    10030    2    1    2    0    0  0.00000000000E+00  0.00000000000E+00 -0.46714666819E+03  0.17443898943E+04  0.16806754873E+04 0.  0.
        5    1    3    3  502    0 -0.75075744479E+02  0.77372858449E+02 -0.10985469454E+04  0.11038344114E+04  0.46999998093E+01 0. -1.
       -5    1    3    3    0  502  0.75075744479E+02 -0.77372858449E+02  0.63140027718E+03  0.64055548289E+03  0.46999998093E+01 0.  1.
</event>
<event>
 5   0  0.7242144E-04  0.1691749E+04  0.7818609E-02  0.8766084E-01
       -2   -1    0    0    0  501  0.00000000000E+00  0.00000000000E+00  0.40480298560E+03  0.40480298561E+03  0.25500000920E-02 0.  1.
        2   -1    0    0  501    0  0.00000000000E+00  0.00000000000E+00 -0.17675348453E+04  0.17675348453E+04  0.25500000920E-02 0. -1.
    10030    2    1    2    0    0  0.00000000000E+00  0.00000000000E+00 -0.13627318597E+04  0.21723378309E+04  0.16917486605E+04 0.  0.
        3    1    3    3  502    0 -0.31659155820E+03  0.50720891924E+03  0.86951135779E+02  0.60419501214E+03  0.10100000352E+00 0.  1.
       -3    1    3    3    0  502  0.31659155820E+03 -0.50720891924E+03 -0.14496829955E+04  0.15681428188E+04  0.10100000352E+00 0. -1.
</event>
<event>
 5   0  0.3723500E-04  0.1690102E+04  0.7818609E-02  0.8767030E-01
        1   -1    0    0  501    0  0.00000000000E+00  0.00000000000E+00  0.11667692264E+04  0.11667692265E+04  0.50400001928E-02 0. -1.
       -1   -1    0    0    0  501  0.00000000000E+00  0.00000000000E+00 -0.61204153738E+03  0.61204153740E+03  0.50400001928E-02 0.  1.
    10030    2    1    2    0    0  0.00000000000E+00  0.00000000000E+00  0.55472768906E+03  0.17788107639E+04  0.16901020456E+04 0.  0.
        1    1    3    3  502    0  0.31279881945E+03  0.67307710880E+03 -0.14786616794E+03  0.75679607523E+03  0.50400001928E-02 0.  1.
       -1    1    3    3    0  502 -0.31279881945E+03 -0.67307710880E+03  0.70259385700E+03  0.10220146886E+04  0.50400001928E-02 0. -1.
</event>
<event>
 5   0  0.3915701E-04  0.1547484E+04  0.7818609E-02  0.8853476E-01
       -1   -1    0    0    0  501  0.00000000000E+00  0.00000000000E+00  0.63116111857E+03  0.63116111859E+03  0.50400001928E-02 0. -1.
        1   -1    0    0  501    0  0.00000000000E+00  0.00000000000E+00 -0.94853223929E+03  0.94853223930E+03  0.50400001928E-02 0.  1.
    10030    2    1    2    0    0  0.00000000000E+00  0.00000000000E+00 -0.31737112072E+03  0.15796933579E+04  0.15474839827E+04 0.  0.
        2    1    3    3  502    0 -0.35573967969E+03 -0.68289701511E+03 -0.81092840639E+02  0.77425777475E+03  0.25500000920E-02 0.  1.
       -2    1    3    3    0  502  0.35573967969E+03  0.68289701511E+03 -0.23627828008E+03  0.80543558314E+03  0.25500000920E-02 0. -1.
</event>
<event>
 5   0  0.3713516E-04  0.1758242E+04  0.7818609E-02  0.8728827E-01
       -1   -1    0    0    0  501  0.00000000000E+00  0.00000000000E+00  0.14548263184E+04  0.14548263185E+04  0.50400001928E-02 0. -1.
        1   -1    0    0  501    0  0.00000000000E+00  0.00000000000E+00 -0.53123426265E+03  0.53123426268E+03  0.50400001928E-02 0.  1.
    10030    2    1    2    0    0  0.00000000000E+00  0.00000000000E+00  0.92359205580E+03  0.19860605811E+04  0.17582418339E+04 0.  0.
        5    1    3    3  502    0  0.49862760431E+03 -0.12397291912E+03 -0.34395598604E+03  0.61832562844E+03  0.46999998093E+01 0.  1.
       -5    1    3    3    0  502 -0.49862760431E+03  0.12397291912E+03  0.12675480418E+04  0.13677349527E+04  0.46999998093E+01 0. -1.
</event>
<event>
 5   0  0.7025426E-04  0.1618828E+04  0.7818609E-02  0.8809064E-01
        2   -1    0    0  501    0  0.00000000000E+00  0.00000000000E+00  0.89505425806E+03  0.89505425806E+03  0.25500000920E-02 0.  1.
       -2   -1    0    0    0  501  0.00000000000E+00  0.00000000000E+00 -0.73196754005E+03  0.73196754006E+03  0.25500000920E-02 0. -1.
    10030    2    1    2    0    0  0.00000000000E+00  0.00000000000E+00  0.16308671801E+03  0.16270217981E+04  0.16188275553E+04 0.  0.
        2    1    3    3  502    0 -0.68792875173E+03 -0.15689009843E+03 -0.31706243385E+03  0.77355611135E+03  0.25500000920E-02 0. -1.
       -2    1    3    3    0  502  0.68792875173E+03  0.15689009843E+03  0.48014915186E+03  0.85346568676E+03  0.25500000920E-02 0.  1.
</event>
<event>
 5   0  0.7049044E-04  0.1631495E+04  0.7818609E-02  0.8801430E-01
        2   -1    0    0  501    0  0.00000000000E+00  0.00000000000E+00  0.10574939847E+04  0.10574939847E+04  0.25500000920E-02 0.  1.
       -2   -1    0    0    0  501  0.00000000000E+00  0.00000000000E+00 -0.62926505161E+03  0.62926505162E+03  0.25500000920E-02 0. -1.
    10030    2    1    2    0    0  0.00000000000E+00  0.00000000000E+00  0.42822893305E+03  0.16867590363E+04  0.16314950283E+04 0.  0.
        4    1    3    3  502    0  0.96296821014E+02  0.49116858275E+02  0.10500550636E+04  0.10556054154E+04  0.12699999809E+01 0.  1.
       -4    1    3    3    0  502 -0.96296821014E+02 -0.49116858275E+02 -0.62182613060E+03  0.63115362084E+03  0.12699999809E+01 0. -1.
</event>
<event>
 5   0  0.3635143E-04  0.1668946E+04  0.7818609E-02  0.8779277E-01
        1   -1    0    0  501    0  0.00000000000E+00  0.00000000000E+00  0.95438685781E+03  0.95438685782E+03  0.50400001928E-02 0.  1.
       -1   -1    0    0    0  501  0.00000000000E+00  0.00000000000E+00 -0.72962554637E+03  0.72962554639E+03  0.50400001928E-02 0. -1.
    10030    2    1    2    0    0  0.00000000000E+00  0.00000000000E+00  0.22476131144E+03  0.16840124042E+04  0.16689458141E+04 0.  0.
        3    1    3    3  502    0 -0.29386423054E+03 -0.74639012177E+03 -0.11967512360E+03  0.81103424420E+03  0.10100000352E+00 0. -1.
       -3    1    3    3    0  502  0.29386423054E+03  0.74639012177E+03  0.34443643504E+03  0.87297816001E+03  0.10100000352E+00 0.  1.
</event>
<event>
 5   0  0.7025426E-04  0.1772961E+04  0.7818609E-02  0.8720812E-01
       -2   -1    0    0    0  501  0.00000000000E+00  0.00000000000E+00  0.94040201039E+03  0.94040201040E+03  0.25500000920E-02 0.  1.
        2   -1    0    0  501    0  0.00000000000E+00  0.00000000000E+00 -0.83565112115E+03  0.83565112116E+03  0.25500000920E-02 0. -1.
    10030    2    1    2    0    0  0.00000000000E+00  0.00000000000E+00  0.10475088924E+03  0.17760531316E+04  0.17729613581E+04 0.  0.
        2    1    3    3  502    0  0.42158832032E+03 -0.34982783353E+03 -0.64578451580E+03  0.84684937609E+03  0.25500000920E-02 0. -1.
       -2    1    3    3    0  502 -0.42158832032E+03  0.34982783353E+03  0.75053540504E+03  0.92920375546E+03  0.25500000920E-02 0.  1.
</event>
<event>
 5   0  0.3713516E-04  0.1694048E+04  0.7818609E-02  0.8764766E-01
        1   -1    0    0  501    0  0.00000000000E+00  0.00000000000E+00  0.18618624474E+04  0.18618624474E+04  0.50400001928E-02 0. -1.
       -1   -1    0    0    0  501  0.00000000000E+00  0.00000000000E+00 -0.38534000232E+03  0.38534000235E+03  0.50400001928E-02 0.  1.
    10030    2    1    2    0    0  0.00000000000E+00  0.00000000000E+00  0.14765224451E+04  0.22472024498E+04  0.16940484997E+04 0.  0.
        5    1    3    3  502    0 -0.62579669341E+03  0.45140790056E+03  0.12016684740E+04  0.14280825626E+04  0.46999998093E+01 0. -1.
       -5    1    3    3    0  502  0.62579669341E+03 -0.45140790056E+03  0.27485397112E+03  0.81911988720E+03  0.46999998093E+01 0.  1.
</event>
<event>
 5   0  0.2639750E-04  0.1890920E+04  0.7818609E-02  0.8659390E-01
       -3   -1    0    0    0  501  0.00000000000E+00  0.00000000000E+00  0.11418345414E+04  0.11418345459E+04  0.10100000352E+00 0.  1.
        3   -1    0    0  501    0  0.00000000000E+00  0.00000000000E+00 -0.78285793529E+03  0.78285794181E+03  0.10100000352E+00 0. -1.
    10030    2    1    2    0    0  0.00000000000E+00  0.00000000000E+00  0.35897660611E+03  0.19246924877E+04  0.18909196092E+04 0.  0.
        3    1    3    3  502    0 -0.77367503462E+03 -0.11186594355E+03 -0.36180605926E+03  0.86138881072E+03  0.10100000352E+00 0. -1.
       -3    1    3    3    0  502  0.77367503462E+03  0.11186594355E+03  0.72078266537E+03  0.10633036770E+04  0.10100000352E+00 0.  1.
</event>
<event>
 5   0  0.3803253E-04  0.1728120E+04  0.7818609E-02  0.8745487E-01
       -1   -1    0    0    0  501  0.00000000000E+00  0.00000000000E+00  0.10934260313E+04  0.10934260313E+04  0.50400001928E-02 0. -1.
        1   -1    0    0  501    0  0.00000000000E+00  0.00000000000E+00 -0.68280745875E+03  0.68280745877E+03  0.50400001928E-02 0.  1.
    10030    2    1    2    0    0  0.00000000000E+00  0.00000000000E+00  0.41061857252E+03  0.17762334900E+04  0.17281197294E+04 0.  0.
        4    1    3    3  502    0 -0.82317543214E+03  0.13511339851E+03  0.43680062498E+03  0.94163146794E+03  0.12699999809E+01 0. -1.
       -4    1    3    3    0  502  0.82317543214E+03 -0.13511339851E+03 -0.26182052453E+02  0.83460202211E+03  0.12699999809E+01 0.  1.
</event>
<event>
 5   0  0.3915701E-04  0.1713458E+04  0.7818609E-02  0.8753726E-01
        1   -1    0    0  501    0  0.00000000000E+00  0.00000000000E+00  0.13470986461E+04  0.13470986461E+04  0.50400001928E-02 0.  1.
       -1   -1    0    0    0  501  0.00000000000E+00  0.00000000000E+00 -0.54486299530E+03  0.54486299532E+03  0.50400001928E-02 0. -1.
    10030    2    1    2    0    0  0.00000000000E+00  0.00000000000E+00  0.80223565080E+03  0.18919616414E+04  0.17134575610E+04 0.  0.
        2    1    3    3  502    0  0.36555854241E+03 -0.76272290481E+03  0.55172752646E+03  0.10098428298E+04  0.25500000920E-02 0.  1.
       -2    1    3    3    0  502 -0.36555854241E+03  0.76272290481E+03  0.25050812434E+03  0.88211881162E+03  0.25500000920E-02 0. -1.
</event>
<event>
 5   0  0.3713516E-04  0.1680717E+04  0.7818609E-02  0.8772439E-01
        1   -1    0    0  501    0  0.00000000000E+00  0.00000000000E+00  0.13559705428E+04  0.13559705428E+04  0.50400001928E-02 0. -1.
       -1   -1    0    0    0  501  0.00000000000E+00  0.00000000000E+00 -0.52080943838E+03  0.52080943841E+03  0.50400001928E-02 0.  1.
    10030    2    1    2    0    0  0.00000000000E+00  0.00000000000E+00  0.83516110443E+03  0.18767799812E+04  0.16807168196E+04 0.  0.
        5    1    3    3  502    0 -0.47434679257E+03  0.53525317714E+03  0.91027620515E+03  0.11576379844E+04  0.46999998093E+01 0. -1.
       -5    1    3    3    0  502  0.47434679257E+03 -0.53525317714E+03 -0.75115100722E+02  0.71914199684E+03  0.46999998093E+01 0.  1.
</event>
<event>
 5   0  0.3723500E-04  0.1754738E+04  0.7818609E-02  0.8730747E-01
        1   -1    0    0  501    0  0.00000000000E+00  0.00000000000E+00  0.16067223131E+04  0.16067223131E+04  0.50400001928E-02 0.  1.
       -1   -1    0    0    0  501  0.00000000000E+00  0.00000000000E+00 -0.47909718668E+03  0.47909718670E+03  0.50400001928E-02 0. -1.
    10030    2    1    2    0    0  0.00000000000E+00  0.00000000000E+00  0.11276251264E+04  0.20858194998E+04  0.17547377468E+04 0.  0.
        1    1    3    3  502    0 -0.80309613372E+03  0.29203012946E+03  0.32747421648E+03  0.91514171525E+03  0.50400001928E-02 0. -1.
       -1    1    3    3    0  502  0.80309613372E+03 -0.29203012946E+03  0.80015090990E+03  0.11706777845E+04  0.50400001928E-02 0.  1.
</event>
<event>
 5   0  0.7242144E-04  0.1596216E+04  0.7818609E-02  0.8822876E-01
       -2   -1    0    0    0  501  0.00000000000E+00  0.00000000000E+00  0.37198833182E+03  0.37198833183E+03  0.25500000920E-02 0.  1.
        2   -1    0    0  501    0  0.00000000000E+00  0.00000000000E+00 -0.17123555419E+04  0.17123555419E+04  0.25500000920E-02 0. -1.
    10030    2    1    2    0    0  0.00000000000E+00  0.00000000000E+00 -0.13403672101E+04  0.20843438738E+04  0.15962158771E+04 0.  0.
        3    1    3    3  502    0  0.17635229655E+03 -0.30688423923E+03 -0.16042649306E+04  0.16428463247E+04  0.10100000352E+00 0. -1.
       -3    1    3    3    0  502 -0.17635229655E+03  0.30688423923E+03  0.26389772047E+03  0.44149754909E+03  0.10100000352E+00 0.  1.
</event>
<event>
 5   0  0.7242144E-04  0.1691943E+04  0.7818609E-02  0.8765973E-01
       -2   -1    0    0    0  501  0.00000000000E+00  0.00000000000E+00  0.86920961169E+03  0.86920961170E+03  0.25500000920E-02 0.  1.
        2   -1    0    0  501    0  0.00000000000E+00  0.00000000000E+00 -0.82335489775E+03  0.82335489775E+03  0.25500000920E-02 0. -1.
    10030    2    1    2    0    0  0.00000000000E+00  0.00000000000E+00  0.45854713941E+02  0.16925645095E+04  0.16919432508E+04 0.  0.
        3    1    3    3  502    0  0.27580416803E+03 -0.78983934432E+03 -0.10263307927E+03  0.84288058947E+03  0.10100000352E+00 0. -1.
       -3    1    3    3    0  502 -0.27580416803E+03  0.78983934432E+03  0.14848779321E+03  0.84968391998E+03  0.10100000352E+00 0.  1.
</event>
<event>
 5   0  0.3713516E-04  0.1765830E+04  0.7818609E-02  0.8724685E-01
        1   -1    0    0  501    0  0.00000000000E+00  0.00000000000E+00  0.81666656167E+03  0.81666656168E+03  0.50400001928E-02 0. -1.
       -1   -1    0    0    0  501  0.00000000000E+00  0.00000000000E+00 -0.95453771764E+03  0.95453771765E+03  0.50400001928E-02 0.  1.
    10030    2    1    2    0    0  0.00000000000E+00  0.00000000000E+00 -0.13787115597E+03  0.17712042793E+04  0.17658301570E+04 0.  0.
        5    1    3    3  502    0 -0.18933032912E+03 -0.38609098206E+03  0.70451737459E+03  0.82539629334E+03  0.46999998093E+01 0. -1.
       -5    1    3    3    0  502  0.18933032912E+03  0.38609098206E+03 -0.84238853057E+03  0.94580798600E+03  0.46999998093E+01 0.  1.
</event>
<event>
 5   0  0.3635143E-04  0.1708944E+04  0.7818609E-02  0.8756280E-01
       -1   -1    0    0    0  501  0.00000000000E+00  0.00000000000E+00  0.69388643648E+03  0.69388643650E+03  0.50400001928E-02 0. -1.
        1   -1    0    0  501    0  0.00000000000E+00  0.00000000000E+00 -0.10522215550E+04  0.10522215551E+04  0.50400001928E-02 0.  1.
    10030    2    1    2    0    0  0.00000000000E+00  0.00000000000E+00 -0.35833511857E+03  0.17461079916E+04  0.17089438437E+04 0.  0.
        3    1    3    3  502    0  0.24361879196E+03  0.31991210516E+02  0.65701142512E+03  0.70145390176E+03  0.10100000352E+00 0. -1.
       -3    1    3    3    0  502 -0.24361879196E+03 -0.31991210516E+02 -0.10153465437E+04  0.10446540898E+04  0.10100000352E+00 0.  1.
</event>
<event>
 5   0  0.3635143E-04  0.1810463E+04  0.7818609E-02  0.8700755E-01
       -1   -1    0    0    0  501  0.00000000000E+00  0.00000000000E+00  0.55119932808E+03  0.55119932810E+03  0.50400001928E-02 0. -1.
        1   -1    0    0  501    0  0.00000000000E+00  0.00000000000E+00 -0.14866572253E+04  0.14866572253E+04  0.50400001928E-02 0.  1.
    10030    2    1    2    0    0  0.00000000000E+00  0.00000000000E+00 -0.93545789722E+03  0.20378565534E+04  0.18104634365E+04 0.  0.
        3    1    3    3  502    0 -0.74524556153E+03  0.43176942220E+03 -0.78134258049E+03  0.11628895129E+04  0.10100000352E+00 0.  1.
       -3    1    3    3    0  502  0.74524556153E+03 -0.43176942220E+03 -0.15411531673E+03  0.87496704051E+03  0.10100000352E+00 0. -1.
</event>
<event>
 5   0  0.7025426E-04  0.1761858E+04  0.7818609E-02  0.8726850E-01
        2   -1    0    0  501    0  0.00000000000E+00  0.00000000000E+00  0.27410451943E+04  0.27410451944E+04  0.25500000920E-02 0. -1.
       -2   -1    0    0    0  501  0.00000000000E+00  0.00000000000E+00 -0.28311677897E+03  0.28311677898E+03  0.25500000920E-02 0.  1.
    10030    2    1    2    0    0  0.00000000000E+00  0.00000000000E+00  0.24579284154E+04  0.30241619733E+04  0.17618579812E+04 0.  0.
        2    1    3    3  502    0 -0.48739175146E+03 -0.38331018893E+03  0.15489452207E+03  0.63911636914E+03  0.25500000920E-02 0.  1.
       -2    1    3    3    0  502  0.48739175146E+03  0.38331018893E+03  0.23030338933E+04  0.23850456042E+04  0.25500000920E-02 0. -1.
</event>
<event>
 5   0  0.7025426E-04  0.1704945E+04  0.7818609E-02  0.8758549E-01
        2   -1    0    0  501    0  0.00000000000E+00  0.00000000000E+00  0.22394463710E+04  0.22394463710E+04  0.25500000920E-02 0. -1.
       -2   -1    0    0    0  501  0.00000000000E+00  0.00000000000E+00 -0.32450415094E+03  0.32450415095E+03  0.25500000920E-02 0.  1.
    10030    2    1    2    0    0  0.00000000000E+00  0.00000000000E+00  0.19149422201E+04  0.25639505220E+04  0.17049453284E+04 0.  0.
        2    1    3    3  502    0  0.19349553330E+03  0.39647186195E+03  0.20544223350E+04  0.21012571449E+04  0.25500000920E-02 0. -1.
       -2    1    3    3    0  502 -0.19349553330E+03 -0.39647186195E+03 -0.13948011487E+03  0.46269337706E+03  0.25500000920E-02 0.  1.
</event>
<event>
 5   0  0.3803253E-04  0.1684738E+04  0.7818609E-02  0.8770117E-01
        1   -1    0    0  501    0  0.00000000000E+00  0.00000000000E+00  0.10038951715E+04  0.10038951715E+04  0.50400001928E-02 0.  1.
       -1   -1    0    0    0  501  0.00000000000E+00  0.00000000000E+00 -0.70683265489E+03  0.70683265491E+03  0.50400001928E-02 0. -1.
    10030    2    1    2    0    0  0.00000000000E+00  0.00000000000E+00  0.29706251658E+03  0.17107278264E+04  0.16847384240E+04 0.  0.
        4    1    3    3  502    0 -0.67419504004E+03 -0.22833607990E+03 -0.30887065811E+03  0.77593750633E+03  0.12699999809E+01 0. -1.
       -4    1    3    3    0  502  0.67419504004E+03  0.22833607990E+03  0.60593317469E+03  0.93479032006E+03  0.12699999809E+01 0.  1.
</event>
<event>
 5   0  0.7233728E-04  0.1740217E+04  0.7818609E-02  0.8738754E-01
        2   -1    0    0  501    0  0.00000000000E+00  0.00000000000E+00  0.19221714594E+04  0.19221714594E+04  0.25500000920E-02 0. -1.
       -2   -1    0    0    0  501  0.00000000000E+00  0.00000000000E+00 -0.39387173930E+03  0.39387173931E+03  0.25500000920E-02 0.  1.
    10030    2    1    2    0    0  0.00000000000E+00  0.00000000000E+00  0.15282997201E+04  0.23160431987E+04  0.17402172461E+04 0.  0.
        1    1    3    3  502    0  0.23624833224E+03  0.51586398453E+03  0.16420956824E+04  0.17373563697E+04  0.50400001928E-02 0. -1.
       -1    1    3    3    0  502 -0.23624833224E+03 -0.51586398453E+03 -0.11379596232E+03  0.57868682902E+03  0.50400001928E-02 0.  1.
</event>
<event>
 5   0  0.2639750E-04  0.1662393E+04  0.7818609E-02  0.8783109E-01
       -3   -1    0    0    0  501  0.00000000000E+00  0.00000000000E+00  0.11281278192E+04  0.11281278238E+04  0.10100000352E+00 0. -1.
        3   -1    0    0  501    0  0.00000000000E+00  0.00000000000E+00 -0.61241954112E+03  0.61241954945E+03  0.10100000352E+00 0.  1.
    10030    2    1    2    0    0  0.00000000000E+00  0.00000000000E+00  0.51570827812E+03  0.17405473732E+04  0.16623928929E+04 0.  0.
        3    1    3    3  502    0  0.16225133062E+03 -0.72182205017E+03 -0.13881737591E+03  0.75274354229E+03  0.10100000352E+00 0.  1.
       -3    1    3    3    0  502 -0.16225133062E+03  0.72182205017E+03  0.65452565403E+03  0.98780383092E+03  0.10100000352E+00 0. -1.
</event>
<event>
 5   0  0.6746664E-04  0.1701877E+04  0.7818609E-02  0.8760295E-01
       -2   -1    0    0    0  501  0.00000000000E+00  0.00000000000E+00  0.41421812905E+03  0.41421812905E+03  0.25500000920E-02 0. -1.
        2   -1    0    0  501    0  0.00000000000E+00  0.00000000000E+00 -0.17481030175E+04  0.17481030175E+04  0.25500000920E-02 0.  1.
    10030    2    1    2    0    0  0.00000000000E+00  0.00000000000E+00 -0.13338848885E+04  0.21623211466E+04  0.17018765658E+04 0.  0.
        5    1    3    3  502    0 -0.52400927489E+03 -0.31115553278E+03 -0.14214726556E+04  0.15466124552E+04  0.46999998093E+01 0. -1.
       -5    1    3    3    0  502  0.52400927489E+03  0.31115553278E+03  0.87587767151E+02  0.61570869143E+03  0.46999998093E+01 0.  1.
</event>
<event>
 5   0  0.6746664E-04  0.1716615E+04  0.7818609E-02  0.8751944E-01
       -2   -1    0    0    0  501  0.00000000000E+00  0.00000000000E+00  0.10443888696E+04  0.10443888696E+04  0.25500000920E-02 0. -1.
        2   -1    0    0  501    0  0.00000000000E+00  0.00000000000E+00 -0.70538099448E+03  0.70538099448E+03  0.25500000920E-02 0.  1.
    10030    2    1    2    0    0  0.00000000000E+00  0.00000000000E+00  0.33900787512E+03  0.17497698641E+04  0.17166153436E+04 0.  0.
        5    1    3    3  502    0  0.54307229670E+03 -0.25947862732E+03  0.79321517888E+03  0.99572540767E+03  0.46999998093E+01 0. -1.
       -5    1    3    3    0  502 -0.54307229670E+03  0.25947862732E+03 -0.45420730375E+03  0.75404445642E+03  0.46999998093E+01 0.  1.
</event>
<event>
 5   0  0.7025426E-04  0.1652626E+04  0.7818609E-02  0.8788855E-01
       -2   -1    0    0    0  501  0.00000000000E+00  0.00000000000E+00  0.43563286587E+03  0.43563286588E+03  0.25500000920E-02 0.  1.
        2   -1    0    0  501    0  0.00000000000E+00  0.00000000000E+00 -0.15673584673E+04  0.15673584673E+04  0.25500000920E-02 0. -1.
    10030    2    1    2    0    0  0.00000000000E+00  0.00000000000E+00 -0.11317256015E+04  0.20029913332E+04  0.16526256212E+04 0.  0.
        2    1    3    3  502    0 -0.11696350503E+03  0.66002912267E+03  0.19767865649E+02  0.67060396121E+03  0.25500000920E-02 0.  1.
       -2    1    3    3    0  502  0.11696350503E+03 -0.66002912267E+03 -0.11514934671E+04  0.13323873720E+04  0.25500000920E-02 0. -1.
</event>
<event>
 5   0  0.3713516E-04  0.1688668E+04  0.7818609E-02  0.8767854E-01
        1   -1    0    0  501    0  0.00000000000E+00  0.00000000000E+00  0.11926500305E+04  0.11926500305E+04  0.50400001928E-02 0. -1.
       -1   -1    0    0    0  501  0.00000000000E+00  0.00000000000E+00 -0.59774475303E+03  0.59774475305E+03  0.50400001928E-02 0.  1.
    10030    2    1    2    0    0  0.00000000000E+00  0.00000000000E+00  0.59490527748E+03  0.17903947836E+04  0.16886684671E+04 0.  0.
        5    1    3    3  502    0 -0.79660611646E+03  0.30318331796E+02  0.59237813834E+03  0.99319406704E+03  0.46999998093E+01 0. -1.
       -5    1    3    3    0  502  0.79660611646E+03 -0.30318331796E+02  0.25271391413E+01  0.79720071654E+03  0.46999998093E+01 0.  1.
</event>
<event>
 5   0  0.7242144E-04  0.1665249E+04  0.7818609E-02  0.8781436E-01
       -2   -1    0    0    0  501  0.00000000000E+00  0.00000000000E+00  0.12352605169E+04  0.12352605169E+04  0.25500000920E-02 0.  1.
        2   -1    0    0  501    0  0.00000000000E+00  0.00000000000E+00 -0.56122878676E+03  0.56122878676E+03  0.25500000920E-02 0. -1.
    10030    2    1    2    0    0  0.00000000000E+00  0.00000000000E+00  0.67403173019E+03  0.17964893037E+04  0.16652492441E+04 0.  0.
        3    1    3    3  502    0  0.40120001463E+03 -0.62870264965E+03  0.73637312381E+03  0.10480810375E+04  0.10100000352E+00 0.  1.
       -3    1    3    3    0  502 -0.40120001463E+03  0.62870264965E+03 -0.62341393622E+02  0.74840826624E+03  0.10100000352E+00 0. -1.
</event>
<event>
 5   0  0.3635143E-04  0.1706517E+04  0.7818609E-02  0.8757656E-01
        1   -1    0    0  501    0  0.00000000000E+00  0.00000000000E+00  0.11480484988E+04  0.11480484989E+04  0.50400001928E-02 0.  1.
       -1   -1    0    0    0  501  0.00000000000E+00  0.00000000000E+00 -0.63416346543E+03  0.63416346545E+03  0.50400001928E-02 0. -1.
    10030    2    1    2    0    0  0.00000000000E+00  0.00000000000E+00  0.51388503342E+03  0.17822119643E+04  0.17065174064E+04 0.  0.
        3    1    3    3  502    0  0.55865147240E+03 -0.82969676728E+02  0.92490194720E+03  0.10837061673E+04  0.10100000352E+00 0.  1.
       -3    1    3    3    0  502 -0.55865147240E+03  0.82969676728E+02 -0.41101691378E+03  0.69850579703E+03  0.10100000352E+00 0. -1.
</event>
<event>
 5   0  0.7049044E-04  0.1757288E+04  0.7818609E-02  0.8729349E-01
        2   -1    0    0  501    0  0.00000000000E+00  0.00000000000E+00  0.66421932552E+03  0.66421932552E+03  0.25500000920E-02 0.  1.
       -2   -1    0    0    0  501  0.00000000000E+00  0.00000000000E+00 -0.11622898897E+04  0.11622898897E+04  0.25500000920E-02 0. -1.
    10030    2    1    2    0    0  0.00000000000E+00  0.00000000000E+00 -0.49807056419E+03  0.18265092152E+04  0.17572881455E+04 0.  0.
        4    1    3    3  502    0  0.36697901887E+03  0.75487084629E+03 -0.51909734570E+03  0.98689779719E+03  0.12699999809E+01 0. -1.
       -4    1    3    3    0  502 -0.36697901887E+03 -0.75487084629E+03  0.21026781510E+02  0.83961141805E+03  0.12699999809E+01 0.  1.
</event>
<event>
 5   0  0.3915701E-04  0.1693539E+04  0.7818609E-02  0.8765058E-01
       -1   -1    0    0    0  501  0.00000000000E+00  0.00000000000E+00  0.44116639734E+03  0.44116639737E+03  0.50400001928E-02 0.  1.
        1   -1    0    0  501    0  0.00000000000E+00  0.00000000000E+00 -0.16252784865E+04  0.16252784865E+04  0.50400001928E-02 0. -1.
    10030    2    1    2    0    0  0.00000000000E+00  0.00000000000E+00 -0.11841120892E+04  0.20664448839E+04  0.16935386085E+04 0.  0.
        2    1    3    3  502    0  0.35772282976E+03 -0.15606796038E+03 -0.15089853610E+04  0.15586403212E+04  0.25500000920E-02 0. -1.
       -2    1    3    3    0  502 -0.35772282976E+03  0.15606796038E+03  0.32487327179E+03  0.50780456272E+03  0.25500000920E-02 0.  1.
</event>
<event>
 5   0  0.3723500E-04  0.1696464E+04  0.7818609E-02  0.8763384E-01
       -1   -1    0    0    0  501  0.00000000000E+00  0.00000000000E+00  0.63268115981E+03  0.63268115983E+03  0.50400001928E-02 0. -1.
        1   -1    0    0  501    0  0.00000000000E+00  0.00000000000E+00 -0.11372192984E+04  0.11372192985E+04  0.50400001928E-02 0.  1.
    10030    2    1    2    0    0  0.00000000000E+00  0.00000000000E+00 -0.50453813864E+03  0.17699004583E+04  0.16964636450E+04 0.  0.
        1    1    3    3  502    0  0.56204270733E+03  0.55533002822E+03 -0.57419368590E+03  0.97671993635E+03  0.50400001928E-02 0.  1.
       -1    1    3    3    0  502 -0.56204270733E+03 -0.55533002822E+03  0.69655547262E+02  0.79318052195E+03  0.50400001928E-02 0. -1.
</event>
<event>
 5   0  0.6746664E-04  0.1701160E+04  0.7818609E-02  0.8760703E-01
        2   -1    0    0  501    0  0.00000000000E+00  0.00000000000E+00  0.13510819993E+04  0.13510819993E+04  0.25500000920E-02 0.  1.
       -2   -1    0    0    0  501  0.00000000000E+00  0.00000000000E+00 -0.53548655705E+03  0.53548655705E+03  0.25500000920E-02 0. -1.
    10030    2    1    2    0    0  0.00000000000E+00  0.00000000000E+00  0.81559544222E+03  0.18865685563E+04  0.17011598962E+04 0.  0.
        5    1    3    3  502    0 -0.18617899619E+02 -0.84923531485E+03  0.35924332747E+03  0.92229339393E+03  0.46999998093E+01 0.  1.
       -5    1    3    3    0  502  0.18617899619E+02  0.84923531485E+03  0.45635211476E+03  0.96427516239E+03  0.46999998093E+01 0. -1.
</event>
<event>
 5   0  0.3713516E-04  0.1696522E+04  0.7818609E-02  0.8763350E-01
        1   -1    0    0  501    0  0.00000000000E+00  0.00000000000E+00  0.19798473957E+04  0.19798473958E+04  0.50400001928E-02 0.  1.
       -1   -1    0    0    0  501  0.00000000000E+00  0.00000000000E+00 -0.36343542706E+03  0.36343542709E+03  0.50400001928E-02 0. -1.
    10030    2    1    2    0    0  0.00000000000E+00  0.00000000000E+00  0.16164119687E+04  0.23432828228E+04  0.16965219525E+04 0.  0.
        5    1    3    3  502    0  0.15105716202E+03  0.82358662196E+03  0.62078911615E+03  0.10423600178E+04  0.46999998093E+01 0.  1.
       -5    1    3    3    0  502 -0.15105716202E+03 -0.82358662196E+03  0.99562285254E+03  0.13009228050E+04  0.46999998093E+01 0. -1.
</event>
<event>
 5   0  0.7242144E-04  0.1695204E+04  0.7818609E-02  0.8764104E-01
       -2   -1    0    0    0  501  0.00000000000E+00  0.00000000000E+00  0.55757262091E+03  0.55757262091E+03  0.25500000920E-02 0. -1.
        2   -1    0    0  501    0  0.00000000000E+00  0.00000000000E+00 -0.12884945922E+04  0.12884945922E+04  0.25500000920E-02 0.  1.
    10030    2    1    2    0    0  0.00000000000E+00  0.00000000000E+00 -0.73092197128E+03  0.18460672131E+04  0.16952041845E+04 0.  0.
        3    1    3    3  502    0 -0.86939410194E+02 -0.59126527467E+03 -0.10200145254E+04  0.11821940316E+04  0.10100000352E+00 0.  1.
       -3    1    3    3    0  502  0.86939410194E+02  0.59126527467E+03  0.28909255413E+03  0.66387318151E+03  0.10100000352E+00 0. -1.
</event>
<event>
 5   0  0.7233728E-04  0.1746846E+04  0.7818609E-02  0.8735088E-01
       -2   -1    0    0    0  501  0.00000000000E+00  0.00000000000E+00  0.43095134401E+03  0.43095134402E+03  0.25500000920E-02 0. -1.
        2   -1    0    0  501    0  0.00000000000E+00  0.00000000000E+00 -0.17701947965E+04  0.17701947965E+04  0.25500000920E-02 0.  1.
    10030    2    1    2    0    0  0.00000000000E+00  0.00000000000E+00 -0.13392434525E+04  0.22011461405E+04  0.17468461028E+04 0.  0.
        1    1    3    3  502    0 -0.28186415935E+03  0.75942824782E+03 -0.10812018351E+04  0.13509907758E+04  0.50400001928E-02 0.  1.
       -1    1    3    3    0  502  0.28186415935E+03 -0.75942824782E+03 -0.25804161738E+03  0.85015536477E+03  0.50400001928E-02 0. -1.
</event>
<event>
 5   0  0.3915701E-04  0.1713776E+04  0.7818609E-02  0.8753546E-01
        1   -1    0    0  501    0  0.00000000000E+00  0.00000000000E+00  0.70760296990E+03  0.70760296992E+03  0.50400001928E-02 0. -1.
       -1   -1    0    0    0  501  0.00000000000E+00  0.00000000000E+00 -0.10376682928E+04  0.10376682928E+04  0.50400001928E-02 0.  1.
    10030    2    1    2    0    0  0.00000000000E+00  0.00000000000E+00 -0.33006532292E+03  0.17452712628E+04  0.17137761415E+04 0.  0.
        2    1    3    3  502    0 -0.54624853389E+02  0.79224256030E+02  0.70208272511E+03  0.70864695742E+03  0.25500000920E-02 0. -1.
       -2    1    3    3    0  502  0.54624853389E+02 -0.79224256030E+02 -0.10321480480E+04  0.10366243053E+04  0.25500000920E-02 0.  1.
</event>
<event>
 5   0  0.3915701E-04  0.1528376E+04  0.7818609E-02  0.8865800E-01
        1   -1    0    0  501    0  0.00000000000E+00  0.00000000000E+00  0.94877495791E+03  0.94877495792E+03  0.50400001928E-02 0. -1.
       -1   -1    0    0    0  501  0.00000000000E+00  0.00000000000E+00 -0.61551284073E+03  0.61551284075E+03  0.50400001928E-02 0.  1.
    10030    2    1    2    0    0  0.00000000000E+00  0.00000000000E+00  0.33326211718E+03  0.15642877987E+04  0.15283758302E+04 0.  0.
        2    1    3    3  502    0 -0.51992258039E+03 -0.84131680842E+02 -0.40008083951E+03  0.66140933428E+03  0.25500000920E-02 0.  1.
       -2    1    3    3    0  502  0.51992258039E+03  0.84131680842E+02  0.73334295669E+03  0.90287846439E+03  0.25500000920E-02 0. -1.
</event>
<event>
 5   0  0.7242144E-04  0.1699714E+04  0.7818609E-02  0.8761527E-01
        2   -1    0    0  501    0  0.00000000000E+00  0.00000000000E+00  0.16021528978E+04  0.16021528978E+04  0.25500000920E-02 0.  1.
       -2   -1    0    0    0  501  0.00000000000E+00  0.00000000000E+00 -0.45080408396E+03  0.45080408397E+03  0.25500000920E-02 0. -1.
    10030    2    1    2    0    0  0.00000000000E+00  0.00000000000E+00  0.11513488138E+04  0.20529569817E+04  0.16997141753E+04 0.  0.
        3    1    3    3  502    0  0.53611442980E+03 -0.11137145282E+03 -0.20935113055E+03  0.58621684418E+03  0.10100000352E+00 0. -1.
       -3    1    3    3    0  502 -0.53611442980E+03  0.11137145282E+03  0.13606999444E+04  0.14667401376E+04  0.10100000352E+00 0.  1.
</event>
<event>
 5   0  0.7242144E-04  0.1716565E+04  0.7818609E-02  0.8751973E-01
       -2   -1    0    0    0  501  0.00000000000E+00  0.00000000000E+00  0.62780167819E+03  0.62780167820E+03  0.25500000920E-02 0.  1.
        2   -1    0    0  501    0  0.00000000000E+00  0.00000000000E+00 -0.11733777823E+04  0.11733777823E+04  0.25500000920E-02 0. -1.
    10030    2    1    2    0    0  0.00000000000E+00  0.00000000000E+00 -0.54557610410E+03  0.18011794605E+04  0.17165646401E+04 0.  0.
        3    1    3    3  502    0  0.29103534322E+02 -0.19637717935E+03  0.60337956557E+03  0.63519912046E+03  0.10100000352E+00 0.  1.
       -3    1    3    3    0  502 -0.29103534322E+02  0.19637717935E+03 -0.11489556697E+04  0.11659803400E+04  0.10100000352E+00 0. -1.
</event>
<event>
 5   0  0.3803253E-04  0.1748457E+04  0.7818609E-02  0.8734200E-01
       -1   -1    0    0    0  501  0.00000000000E+00  0.00000000000E+00  0.78319075943E+03  0.78319075945E+03  0.50400001928E-02 0. -1.
        1   -1    0    0  501    0  0.00000000000E+00  0.00000000000E+00 -0.97584805121E+03  0.97584805122E+03  0.50400001928E-02 0.  1.
    10030    2    1    2    0    0  0.00000000000E+00  0.00000000000E+00 -0.19265729178E+03  0.17590388107E+04  0.17484566639E+04 0.  0.
        4    1    3    3  502    0 -0.37842916635E+02 -0.43642767557E+03 -0.85746046174E+03  0.96288174700E+03  0.12699999809E+01 0.  1.
       -4    1    3    3    0  502  0.37842916635E+02  0.43642767557E+03  0.66480316997E+03  0.79615706367E+03  0.12699999809E+01 0. -1.
</event>
<event>
 5   0  0.3803253E-04  0.1654401E+04  0.7818609E-02  0.8787807E-01
        1   -1    0    0  501    0  0.00000000000E+00  0.00000000000E+00  0.88390744723E+03  0.88390744724E+03  0.50400001928E-02 0. -1.
       -1   -1    0    0    0  501  0.00000000000E+00  0.00000000000E+00 -0.77413111227E+03  0.77413111228E+03  0.50400001928E-02 0.  1.
    10030    2    1    2    0    0  0.00000000000E+00  0.00000000000E+00  0.10977633496E+03  0.16580385595E+04  0.16544005020E+04 0.  0.
        4    1    3    3  502    0  0.57980799866E+03 -0.31702088128E+03 -0.44377920379E+03  0.79600323435E+03  0.12699999809E+01 0.  1.
       -4    1    3    3    0  502 -0.57980799866E+03  0.31702088128E+03  0.55355553875E+03  0.86203532518E+03  0.12699999809E+01 0. -1.
</event>
<event>
 5   0  0.3723500E-04  0.1691875E+04  0.7818609E-02  0.8766012E-01
        1   -1    0    0  501    0  0.00000000000E+00  0.00000000000E+00  0.49215305682E+03  0.49215305685E+03  0.50400001928E-02 0.  1.
       -1   -1    0    0    0  501  0.00000000000E+00  0.00000000000E+00 -0.14540397478E+04  0.14540397479E+04  0.50400001928E-02 0. -1.
    10030    2    1    2    0    0  0.00000000000E+00  0.00000000000E+00 -0.96188669103E+03  0.19461928047E+04  0.16918748260E+04 0.  0.
        1    1    3    3  502    0 -0.28862099537E+03 -0.47826467225E+02  0.43210763812E+03  0.52182991566E+03  0.50400001928E-02 0.  1.
       -1    1    3    3    0  502  0.28862099537E+03  0.47826467225E+02 -0.13939943292E+04  0.14243628890E+04  0.50400001928E-02 0. -1.
</event>
<event>
 5   0  0.3723500E-04  0.1695023E+04  0.7818609E-02  0.8764208E-01
        1   -1    0    0  501    0  0.00000000000E+00  0.00000000000E+00  0.25546079989E+04  0.25546079989E+04  0.50400001928E-02 0.  1.
       -1   -1    0    0    0  501  0.00000000000E+00  0.00000000000E+00 -0.28116873464E+03  0.28116873468E+03  0.50400001928E-02 0. -1.
    10030    2    1    2    0    0  0.00000000000E+00  0.00000000000E+00  0.22734392642E+04  0.28357767336E+04  0.16950231840E+04 0.  0.
        1    1    3    3  502    0  0.58889419985E+03 -0.60255006996E+03  0.12901707693E+04  0.15409099842E+04  0.50400001928E-02 0.  1.
       -1    1    3    3    0  502 -0.58889419985E+03  0.60255006996E+03  0.98326849496E+03  0.12948667494E+04  0.50400001928E-02 0. -1.
</event>
<event>
 5   0  0.3915701E-04  0.1709293E+04  0.7818609E-02  0.8756082E-01
       -1   -1    0    0    0  501  0.00000000000E+00  0.00000000000E+00  0.51057655890E+03  0.51057655893E+03  0.50400001928E-02 0.  1.
        1   -1    0    0  501    0  0.00000000000E+00  0.00000000000E+00 -0.14305807479E+04  0.14305807479E+04  0.50400001928E-02 0. -1.
    10030    2    1    2    0    0  0.00000000000E+00  0.00000000000E+00 -0.92000418902E+03  0.19411573069E+04  0.17092934161E+04 0.  0.
        2    1    3    3  502    0 -0.95638719036E+02  0.58523291269E+03 -0.11589353766E+04  0.13018354481E+04  0.25500000920E-02 0.  1.
       -2    1    3    3    0  502  0.95638719036E+02 -0.58523291269E+03  0.23893118762E+03  0.63932185877E+03  0.25500000920E-02 0. -1.
</event>
<event>
 5   0  0.3713516E-04  0.1701719E+04  0.7818609E-02  0.8760385E-01
       -1   -1    0    0    0  501  0.00000000000E+00  0.00000000000E+00  0.43523731230E+03  0.43523731233E+03  0.50400001928E-02 0. -1.
        1   -1    0    0  501    0  0.00000000000E+00  0.00000000000E+00 -0.16633722704E+04  0.16633722704E+04  0.50400001928E-02 0.  1.
    10030    2    1    2    0    0  0.00000000000E+00  0.00000000000E+00 -0.12281349581E+04  0.20986095827E+04  0.17017187504E+04 0.  0.
        5    1    3    3  502    0 -0.84363607931E+03 -0.98358266379E+02 -0.55187304830E+03  0.10129077620E+04  0.46999998093E+01 0. -1.
       -5    1    3    3    0  502  0.84363607931E+03  0.98358266379E+02 -0.67626190979E+03  0.10857018207E+04  0.46999998093E+01 0.  1.
</event>
<event>
 5   0  0.3915701E-04  0.1404557E+04  0.7818609E-02  0.8950527E-01
       -1   -1    0    0    0  501  0.00000000000E+00  0.00000000000E+00  0.27547727886E+03  0.27547727891E+03  0.50400001928E-02 0.  1.
        1   -1    0    0  501    0  0.00000000000E+00  0.00000000000E+00 -0.17903294146E+04  0.17903294146E+04  0.50400001928E-02 0. -1.
    10030    2    1    2    0    0  0.00000000000E+00  0.00000000000E+00 -0.15148521357E+04  0.20658066935E+04  0.14045569771E+04 0.  0.
        2    1    3    3  502    0 -0.48775457595E+03 -0.18721994830E+03 -0.67189969144E+02  0.52675452287E+03  0.25500000920E-02 0.  1.
       -2    1    3    3    0  502  0.48775457595E+03  0.18721994830E+03 -0.14476621666E+04  0.15390521707E+04  0.25500000920E-02 0. -1.
</event>
<event>
 5   0  0.7233728E-04  0.1697486E+04  0.7818609E-02  0.8762800E-01
        2   -1    0    0  501    0  0.00000000000E+00  0.00000000000E+00  0.11051580019E+04  0.11051580019E+04  0.25500000920E-02 0. -1.
       -2   -1    0    0    0  501  0.00000000000E+00  0.00000000000E+00 -0.65182018530E+03  0.65182018530E+03  0.25500000920E-02 0.  1.
    10030    2    1    2    0    0  0.00000000000E+00  0.00000000000E+00  0.45333781658E+03  0.17569781872E+04  0.16974855446E+04 0.  0.
        1    1    3    3  502    0  0.11042045681E+03 -0.17691331253E+03 -0.62488858625E+03  0.65876911181E+03  0.50400001928E-02 0.  1.
       -1    1    3    3    0  502 -0.11042045681E+03  0.17691331253E+03  0.10782264028E+04  0.10982090754E+04  0.50400001928E-02 0. -1.
</event>
<event>
 5   0  0.7233728E-04  0.1674501E+04  0.7818609E-02  0.8776043E-01
       -2   -1    0    0    0  501  0.00000000000E+00  0.00000000000E+00  0.29224763837E+03  0.29224763838E+03  0.25500000920E-02 0. -1.
        2   -1    0    0  501    0  0.00000000000E+00  0.00000000000E+00 -0.23986106425E+04  0.23986106425E+04  0.25500000920E-02 0.  1.
    10030    2    1    2    0    0  0.00000000000E+00  0.00000000000E+00 -0.21063630041E+04  0.26908582808E+04  0.16745008757E+04 0.  0.
        1    1    3    3  502    0  0.64399323350E+03  0.33836627115E+03 -0.17191875772E+04  0.18667685834E+04  0.50400001928E-02 0.  1.
       -1    1    3    3    0  502 -0.64399323350E+03 -0.33836627115E+03 -0.38717542685E+03  0.82408969744E+03  0.50400001928E-02 0. -1.
</event>
<event>
 5   0  0.7025426E-04  0.1658673E+04  0.7818609E-02  0.8785292E-01
       -2   -1    0    0    0  501  0.00000000000E+00  0.00000000000E+00  0.37179538106E+03  0.37179538107E+03  0.25500000920E-02 0. -1.
        2   -1    0    0  501    0  0.00000000000E+00  0.00000000000E+00 -0.18499387006E+04  0.18499387006E+04  0.25500000920E-02 0.  1.
    10030    2    1    2    0    0  0.00000000000E+00  0.00000000000E+00 -0.14781433196E+04  0.22217340817E+04  0.16586725586E+04 0.  0.
        2    1    3    3  502    0 -0.46086973208E+03  0.30636626481E+03  0.88298804071E+02  0.56040866960E+03  0.25500000920E-02 0. -1.
       -2    1    3    3    0  502  0.46086973208E+03 -0.30636626481E+03 -0.15664421236E+04  0.16613254121E+04  0.25500000920E-02 0.  1.
</event>
<event>
 5   0  0.3803253E-04  0.1690847E+04  0.7818609E-02  0.8766602E-01
       -1   -1    0    0    0  501  0.00000000000E+00  0.00000000000E+00  0.10027646727E+04  0.10027646727E+04  0.50400001928E-02 0. -1.
        1   -1    0    0  501    0  0.00000000000E+00  0.00000000000E+00 -0.71277015207E+03  0.71277015209E+03  0.50400001928E-02 0.  1.
    10030    2    1    2    0    0  0.00000000000E+00  0.00000000000E+00  0.28999452063E+03  0.17155348248E+04  0.16908468036E+04 0.  0.
        4    1    3    3  502    0 -0.55684507345E+03  0.23499350288E+02 -0.49998136705E+03  0.74874003204E+03  0.12699999809E+01 0.  1.
       -4    1    3    3    0  502  0.55684507345E+03 -0.23499350288E+02  0.78997588768E+03  0.96679479276E+03  0.12699999809E+01 0. -1.
</event>
<event>
 5   0  0.3803253E-04  0.1728732E+04  0.7818609E-02  0.8745145E-01
       -1   -1    0    0    0  501  0.00000000000E+00  0.00000000000E+00  0.11644561768E+04  0.11644561768E+04  0.50400001928E-02 0. -1.
        1   -1    0    0  501    0  0.00000000000E+00  0.00000000000E+00 -0.64161137560E+03  0.64161137562E+03  0.50400001928E-02 0.  1.
    10030    2    1    2    0    0  0.00000000000E+00  0.00000000000E+00  0.52284480119E+03  0.18060675524E+04  0.17287317079E+04 0.  0.
        4    1    3    3  502    0 -0.50566119586E+03 -0.12823630890E+03  0.98144832308E+03  0.11114765943E+04  0.12699999809E+01 0. -1.
       -4    1    3    3    0  502  0.50566119586E+03  0.12823630890E+03 -0.45860352189E+03  0.69459095812E+03  0.12699999809E+01 0.  1.
</event>
<event>
 5   0  0.3723500E-04  0.1710183E+04  0.7818609E-02  0.8755578E-01
        1   -1    0    0  501    0  0.00000000000E+00  0.00000000000E+00  0.22333143092E+04  0.22333143092E+04  0.50400001928E-02 0. -1.
       -1   -1    0    0    0  501  0.00000000000E+00  0.00000000000E+00 -0.32739736591E+03  0.32739736595E+03  0.50400001928E-02 0.  1.
    10030    2    1    2    0    0  0.00000000000E+00  0.00000000000E+00  0.19059169433E+04  0.25607116752E+04  0.17101827062E+04 0.  0.
        1    1    3    3  502    0  0.17978878251E+03 -0.71072443427E+03  0.16120023984E+04  0.17708768902E+04  0.50400001928E-02 0.  1.
       -1    1    3    3    0  502 -0.17978878251E+03  0.71072443427E+03  0.29391454487E+03  0.78983478493E+03  0.50400001928E-02 0. -1.
</event>
<event>
 5   0  0.3915701E-04  0.1668924E+04  0.7818609E-02  0.8779289E-01
        1   -1    0    0  501    0  0.00000000000E+00  0.00000000000E+00  0.13925117938E+04  0.13925117938E+04  0.50400001928E-02 0. -1.
       -1   -1    0    0    0  501  0.00000000000E+00  0.00000000000E+00 -0.50005086995E+03  0.50005086998E+03  0.50400001928E-02 0.  1.
    10030    2    1    2    0    0  0.00000000000E+00  0.00000000000E+00  0.89246092388E+03  0.18925626638E+04  0.16689238856E+04 0.  0.
        2    1    3    3  502    0  0.74400467230E+03  0.29220977958E+03  0.71791141408E+03  0.10743957866E+04  0.25500000920E-02 0.  1.
       -2    1    3    3    0  502 -0.74400467230E+03 -0.29220977958E+03  0.17454950980E+03  0.81816687727E+03  0.25500000920E-02 0. -1.
</event>
<event>
 5   0  0.3915701E-04  0.1113231E+04  0.7818609E-02  0.9192391E-01
       -1   -1    0    0    0  501  0.00000000000E+00  0.00000000000E+00  0.47864687373E+03  0.47864687376E+03  0.50400001928E-02 0. -1.
        1   -1    0    0  501    0  0.00000000000E+00  0.00000000000E+00 -0.64728453274E+03  0.64728453276E+03  0.50400001928E-02 0.  1.
    10030    2    1    2    0    0  0.00000000000E+00  0.00000000000E+00 -0.16863765902E+03  0.11259314065E+04  0.11132308261E+04 0.  0.
        2    1    3    3  502    0  0.22270228682E+03  0.50641321032E+03 -0.22217426708E+02  0.55366439491E+03  0.25500000920E-02 0.  1.
       -2    1    3    3    0  502 -0.22270228682E+03 -0.50641321032E+03 -0.14642023231E+03  0.57226701161E+03  0.25500000920E-02 0. -1.
</event>
<event>
 5   0  0.7242144E-04  0.1691973E+04  0.7818609E-02  0.8765956E-01
       -2   -1    0    0    0  501  0.00000000000E+00  0.00000000000E+00  0.50316098889E+03  0.50316098890E+03  0.25500000920E-02 0. -1.
        2   -1    0    0  501    0  0.00000000000E+00  0.00000000000E+00 -0.14223939042E+04  0.14223939042E+04  0.25500000920E-02 0.  1.
    10030    2    1    2    0    0  0.00000000000E+00  0.00000000000E+00 -0.91923291526E+03  0.19255548931E+04  0.16919729589E+04 0.  0.
        3    1    3    3  502    0  0.72798789676E+03 -0.20515299920E+03 -0.28297401945E+02  0.75687177518E+03  0.10100000352E+00 0. -1.
       -3    1    3    3    0  502 -0.72798789676E+03  0.20515299920E+03 -0.89093551331E+03  0.11686831179E+04  0.10100000352E+00 0.  1.
</event>
<event>
 5   0  0.7233728E-04  0.1758576E+04  0.7818609E-02  0.8728644E-01
        2   -1    0    0  501    0  0.00000000000E+00  0.00000000000E+00  0.67529170622E+03  0.67529170622E+03  0.25500000920E-02 0.  1.
       -2   -1    0    0    0  501  0.00000000000E+00  0.00000000000E+00 -0.11449086480E+04  0.11449086480E+04  0.25500000920E-02 0. -1.
    10030    2    1    2    0    0  0.00000000000E+00  0.00000000000E+00 -0.46961694175E+03  0.18202003542E+04  0.17585759174E+04 0.  0.
        1    1    3    3  502    0  0.73027100958E+03 -0.23459011863E+03  0.21016224640E+03  0.79529644852E+03  0.50400001928E-02 0.  1.
       -1    1    3    3    0  502 -0.73027100958E+03  0.23459011863E+03 -0.67977918815E+03  0.10249039057E+04  0.50400001928E-02 0. -1.
</event>
<event>
 5   0  0.7242144E-04  0.1610009E+04  0.7818609E-02  0.8814422E-01
       -2   -1    0    0    0  501  0.00000000000E+00  0.00000000000E+00  0.47813034563E+03  0.47813034564E+03  0.25500000920E-02 0.  1.
        2   -1    0    0  501    0  0.00000000000E+00  0.00000000000E+00 -0.13553468683E+04  0.13553468683E+04  0.25500000920E-02 0. -1.
    10030    2    1    2    0    0  0.00000000000E+00  0.00000000000E+00 -0.87721652267E+03  0.18334772139E+04  0.16100092753E+04 0.  0.
        3    1    3    3  502    0 -0.39925233453E+03 -0.15915617999E+03  0.33652786778E+03  0.54587922863E+03  0.10100000352E+00 0.  1.
       -3    1    3    3    0  502  0.39925233453E+03  0.15915617999E+03 -0.12137443904E+04  0.12875979853E+04  0.10100000352E+00 0. -1.
</event>
<event>
 5   0  0.3723500E-04  0.1743617E+04  0.7818609E-02  0.8736872E-01
       -1   -1    0    0    0  501  0.00000000000E+00  0.00000000000E+00  0.83841246823E+03  0.83841246824E+03  0.50400001928E-02 0. -1.
        1   -1    0    0  501    0  0.00000000000E+00  0.00000000000E+00 -0.90653471758E+03  0.90653471759E+03  0.50400001928E-02 0.  1.
    10030    2    1    2    0    0  0.00000000000E+00  0.00000000000E+00 -0.68122249351E+02  0.17449471858E+04  0.17436169420E+04 0.  0.
        1    1    3    3  502    0  0.69809269343E+01  0.22244109031E+03 -0.87762842863E+03  0.90540622417E+03  0.50400001928E-02 0.  1.
       -1    1    3    3    0  502 -0.69809269343E+01 -0.22244109031E+03  0.80950617928E+03  0.83954096167E+03  0.50400001928E-02 0. -1.
</event>
<event>
 5   0  0.7025426E-04  0.1526967E+04  0.7818609E-02  0.8866716E-01
        2   -1    0    0  501    0  0.00000000000E+00  0.00000000000E+00  0.16520279402E+04  0.16520279402E+04  0.25500000920E-02 0.  1.
       -2   -1    0    0    0  501  0.00000000000E+00  0.00000000000E+00 -0.35284321458E+03  0.35284321459E+03  0.25500000920E-02 0. -1.
    10030    2    1    2    0    0  0.00000000000E+00  0.00000000000E+00  0.12991847256E+04  0.20048711548E+04  0.15269667305E+04 0.  0.
        2    1    3    3  502    0 -0.52720017153E+03 -0.40404743535E+03  0.11438586277E+04  0.13227270736E+04  0.25500000920E-02 0.  1.
       -2    1    3    3    0  502  0.52720017153E+03  0.40404743535E+03  0.15532609788E+03  0.68214408124E+03  0.25500000920E-02 0. -1.
</event>
<event>
 5   0  0.7025426E-04  0.1971388E+04  0.7818609E-02  0.8620116E-01
       -2   -1    0    0    0  501  0.00000000000E+00  0.00000000000E+00  0.65036956839E+03  0.65036956840E+03  0.25500000920E-02 0.  1.
        2   -1    0    0  501    0  0.00000000000E+00  0.00000000000E+00 -0.14939081687E+04  0.14939081687E+04  0.25500000920E-02 0. -1.
    10030    2    1    2    0    0  0.00000000000E+00  0.00000000000E+00 -0.84353860033E+03  0.21442777371E+04  0.19713877456E+04 0.  0.
        2    1    3    3  502    0  0.28350063107E+03 -0.94404178469E+03 -0.42417993690E+03  0.10730871903E+04  0.25500000920E-02 0. -1.
       -2    1    3    3    0  502 -0.28350063107E+03  0.94404178469E+03 -0.41935866343E+03  0.10711905468E+04  0.25500000920E-02 0.  1.
</event>
<event>
 5   0  0.3723500E-04  0.1692720E+04  0.7818609E-02  0.8765527E-01
       -1   -1    0    0    0  501  0.00000000000E+00  0.00000000000E+00  0.11066738917E+04  0.11066738917E+04  0.50400001928E-02 0. -1.
        1   -1    0    0  501    0  0.00000000000E+00  0.00000000000E+00 -0.64727775290E+03  0.64727775292E+03  0.50400001928E-02 0.  1.
    10030    2    1    2    0    0  0.00000000000E+00  0.00000000000E+00  0.45939613878E+03  0.17539516446E+04  0.16927201657E+04 0.  0.
        1    1    3    3  502    0  0.88269245898E+02 -0.49969092056E+03  0.93158064722E+03  0.10608133569E+04  0.50400001928E-02 0. -1.
       -1    1    3    3    0  502 -0.88269245898E+02  0.49969092056E+03 -0.47218450844E+03  0.69313828772E+03  0.50400001928E-02 0.  1.
</event>
<event>
 5   0  0.3915701E-04  0.1621312E+04  0.7818609E-02  0.8807561E-01
       -1   -1    0    0    0  501  0.00000000000E+00  0.00000000000E+00  0.41867803259E+03  0.41867803262E+03  0.50400001928E-02 0. -1.
        1   -1    0    0  501    0  0.00000000000E+00  0.00000000000E+00 -0.15696138157E+04  0.15696138157E+04  0.50400001928E-02 0.  1.
    10030    2    1    2    0    0  0.00000000000E+00  0.00000000000E+00 -0.11509357831E+04  0.19882918483E+04  0.16213115978E+04 0.  0.
        2    1    3    3  502    0 -0.70825370041E+03  0.30539312838E+02 -0.10576688146E+04  0.12732710925E+04  0.25500000920E-02 0.  1.
       -2    1    3    3    0  502  0.70825370041E+03 -0.30539312838E+02 -0.93266968519E+02  0.71502075578E+03  0.25500000920E-02 0. -1.
</event>
<event>
 5   0  0.3713516E-04  0.1701070E+04  0.7818609E-02  0.8760755E-01
       -1   -1    0    0    0  501  0.00000000000E+00  0.00000000000E+00  0.12399337292E+04  0.12399337292E+04  0.50400001928E-02 0.  1.
        1   -1    0    0  501    0  0.00000000000E+00  0.00000000000E+00 -0.58342596486E+03  0.58342596488E+03  0.50400001928E-02 0. -1.
    10030    2    1    2    0    0  0.00000000000E+00  0.00000000000E+00  0.65650776434E+03  0.18233596941E+04  0.17010697015E+04 0.  0.
        5    1    3    3  502    0  0.56320428176E+03 -0.22680118538E+03 -0.31017304976E+03  0.68181174196E+03  0.46999998093E+01 0. -1.
       -5    1    3    3    0  502 -0.56320428176E+03  0.22680118538E+03  0.96668081409E+03  0.11415479521E+04  0.46999998093E+01 0.  1.
</event>
<event>
 5   0  0.7049044E-04  0.1409882E+04  0.7818609E-02  0.8946697E-01
        2   -1    0    0  501    0  0.00000000000E+00  0.00000000000E+00  0.14475175603E+04  0.14475175603E+04  0.25500000920E-02 0.  1.
       -2   -1    0    0    0  501  0.00000000000E+00  0.00000000000E+00 -0.34330612418E+03  0.34330612419E+03  0.25500000920E-02 0. -1.
    10030    2    1    2    0    0  0.00000000000E+00  0.00000000000E+00  0.11042114361E+04  0.17908236845E+04  0.14098817586E+04 0.  0.
        4    1    3    3  502    0 -0.58478777236E+03  0.39362845134E+03  0.54643461575E+03  0.89191507364E+03  0.12699999809E+01 0. -1.
       -4    1    3    3    0  502  0.58478777236E+03 -0.39362845134E+03  0.55777682036E+03  0.89890861084E+03  0.12699999809E+01 0.  1.
</event>
<event>
 5   0  0.3713516E-04  0.1646509E+04  0.7818609E-02  0.8792475E-01
        1   -1    0    0  501    0  0.00000000000E+00  0.00000000000E+00  0.53609437186E+03  0.53609437188E+03  0.50400001928E-02 0. -1.
       -1   -1    0    0    0  501  0.00000000000E+00  0.00000000000E+00 -0.12642318186E+04  0.12642318186E+04  0.50400001928E-02 0.  1.
    10030    2    1    2    0    0  0.00000000000E+00  0.00000000000E+00 -0.72813744674E+03  0.18003261905E+04  0.16465085031E+04 0.  0.
        5    1    3    3  502    0  0.67728242143E+03 -0.46748007217E+03 -0.34020367269E+03  0.89051093489E+03  0.46999998093E+01 0. -1.
       -5    1    3    3    0  502 -0.67728242143E+03  0.46748007217E+03 -0.38793377406E+03  0.90981525559E+03  0.46999998093E+01 0.  1.
</event>
<event>
 5   0  0.7233728E-04  0.1580959E+04  0.7818609E-02  0.8832332E-01
       -2   -1    0    0    0  501  0.00000000000E+00  0.00000000000E+00  0.10260153119E+04  0.10260153119E+04  0.25500000920E-02 0. -1.
        2   -1    0    0  501    0  0.00000000000E+00  0.00000000000E+00 -0.60901438948E+03  0.60901438948E+03  0.25500000920E-02 0.  1.
    10030    2    1    2    0    0  0.00000000000E+00  0.00000000000E+00  0.41700092241E+03  0.16350297014E+04  0.15809593148E+04 0.  0.
        1    1    3    3  502    0 -0.29966946619E+03 -0.66390162517E+03  0.52607078843E+03  0.89850855941E+03  0.50400001928E-02 0. -1.
       -1    1    3    3    0  502  0.29966946619E+03  0.66390162517E+03 -0.10906986602E+03  0.73652114197E+03  0.50400001928E-02 0.  1.
</event>
<event>
 5   0  0.3713516E-04  0.1553984E+04  0.7818609E-02  0.8849327E-01
        1   -1    0    0  501    0  0.00000000000E+00  0.00000000000E+00  0.53622759100E+03  0.53622759103E+03  0.50400001928E-02 0.  1.
       -1   -1    0    0    0  501  0.00000000000E+00  0.00000000000E+00 -0.11258587751E+04  0.11258587751E+04  0.50400001928E-02 0. -1.
    10030    2    1    2    0    0  0.00000000000E+00  0.00000000000E+00 -0.58963118407E+03  0.16620863661E+04  0.15539839623E+04 0.  0.
        5    1    3    3  502    0 -0.50371986648E+03 -0.56867510523E+03 -0.12047533588E+03  0.76919534304E+03  0.46999998093E+01 0.  1.
       -5    1    3    3    0  502  0.50371986648E+03  0.56867510523E+03 -0.46915584819E+03  0.89289102307E+03  0.46999998093E+01 0. -1.
</event>
<event>
 5   0  0.3635143E-04  0.1687965E+04  0.7818609E-02  0.8768258E-01
        1   -1    0    0  501    0  0.00000000000E+00  0.00000000000E+00  0.15340760670E+04  0.15340760670E+04  0.50400001928E-02 0. -1.
       -1   -1    0    0    0  501  0.00000000000E+00  0.00000000000E+00 -0.46432290799E+03  0.46432290802E+03  0.50400001928E-02 0.  1.
    10030    2    1    2    0    0  0.00000000000E+00  0.00000000000E+00  0.10697531590E+04  0.19983989751E+04  0.16879652373E+04 0.  0.
        3    1    3    3  502    0 -0.26417133272E+03 -0.78338745550E+03  0.73587735001E+03  0.11067962247E+04  0.10100000352E+00 0. -1.
       -3    1    3    3    0  502  0.26417133272E+03  0.78338745550E+03  0.33387580903E+03  0.89160275040E+03  0.10100000352E+00 0.  1.
</event>
<event>
 5   0  0.3635143E-04  0.1685107E+04  0.7818609E-02  0.8769904E-01
        1   -1    0    0  501    0  0.00000000000E+00  0.00000000000E+00  0.75078765064E+03  0.75078765065E+03  0.50400001928E-02 0.  1.
       -1   -1    0    0    0  501  0.00000000000E+00  0.00000000000E+00 -0.94553593184E+03  0.94553593185E+03  0.50400001928E-02 0. -1.
    10030    2    1    2    0    0  0.00000000000E+00  0.00000000000E+00 -0.19474828120E+03  0.16963235825E+04  0.16851073567E+04 0.  0.
        3    1    3    3  502    0 -0.19642786356E+03  0.46537665712E+03  0.58145650385E+03  0.77022789786E+03  0.10100000352E+00 0.  1.
       -3    1    3    3    0  502  0.19642786356E+03 -0.46537665712E+03 -0.77620478505E+03  0.92609568464E+03  0.10100000352E+00 0. -1.
</event>
<event>
 5   0  0.3713516E-04  0.1757020E+04  0.7818609E-02  0.8729496E-01
        1   -1    0    0  501    0  0.00000000000E+00  0.00000000000E+00  0.24687396076E+03  0.24687396081E+03  0.50400001928E-02 0.  1.
       -1   -1    0    0    0  501  0.00000000000E+00  0.00000000000E+00 -0.31262089376E+04  0.31262089376E+04  0.50400001928E-02 0. -1.
    10030    2    1    2    0    0  0.00000000000E+00  0.00000000000E+00 -0.28793349768E+04  0.33730828984E+04  0.17570197297E+04 0.  0.
        5    1    3    3  502    0 -0.74093208448E+03 -0.20665044261E+03 -0.22543236657E+04  0.23819492100E+04  0.46999998093E+01 0. -1.
       -5    1    3    3    0  502  0.74093208448E+03  0.20665044261E+03 -0.62501131112E+03  0.99113368840E+03  0.46999998093E+01 0.  1.
</event>
<event>
 5   0  0.7049044E-04  0.1696554E+04  0.7818609E-02  0.8763332E-01
        2   -1    0    0  501    0  0.00000000000E+00  0.00000000000E+00  0.55166328611E+03  0.55166328611E+03  0.25500000920E-02 0. -1.
       -2   -1    0    0    0  501  0.00000000000E+00  0.00000000000E+00 -0.13043710347E+04  0.13043710347E+04  0.25500000920E-02 0.  1.
    10030    2    1    2    0    0  0.00000000000E+00  0.00000000000E+00 -0.75270774859E+03  0.18560343208E+04  0.16965536965E+04 0.  0.
        4    1    3    3  502    0 -0.25773878110E+02  0.57682631889E+02  0.54908474108E+03  0.55270900536E+03  0.12699999809E+01 0. -1.
       -4    1    3    3    0  502  0.25773878110E+02 -0.57682631889E+02 -0.13017924897E+04  0.13033253154E+04  0.12699999809E+01 0.  1.
</event>
<event>
 5   0  0.7242144E-04  0.1649391E+04  0.7818609E-02  0.8790767E-01
        2   -1    0    0  501    0  0.00000000000E+00  0.00000000000E+00  0.46030441805E+03  0.46030441806E+03  0.25500000920E-02 0. -1.
       -2   -1    0    0    0  501  0.00000000000E+00  0.00000000000E+00 -0.14775498973E+04  0.14775498973E+04  0.25500000920E-02 0.  1.
    10030    2    1    2    0    0  0.00000000000E+00  0.00000000000E+00 -0.10172454792E+04  0.19378543153E+04  0.16493910944E+04 0.  0.
        3    1    3    3  502    0  0.41727285553E+03  0.36621422402E+03  0.20786146752E+03  0.59282028788E+03  0.10100000352E+00 0. -1.
       -3    1    3    3    0  502 -0.41727285553E+03 -0.36621422402E+03 -0.12251069467E+04  0.13450340274E+04  0.10100000352E+00 0.  1.
</event>
<event>
 5   0  0.7025426E-04  0.1721225E+04  0.7818609E-02  0.8749350E-01
        2   -1    0    0  501    0  0.00000000000E+00  0.00000000000E+00  0.83638783310E+03  0.83638783310E+03  0.25500000920E-02 0. -1.
       -2   -1    0    0    0  501  0.00000000000E+00  0.00000000000E+00 -0.88553919708E+03  0.88553919709E+03  0.25500000920E-02 0.  1.
    10030    2    1    2    0    0  0.00000000000E+00  0.00000000000E+00 -0.49151363984E+02  0.17219270302E+04  0.17212253893E+04 0.  0.
        2    1    3    3  502    0 -0.59158654468E+03 -0.54317766729E+03 -0.33395502755E+03  0.86979456110E+03  0.25500000920E-02 0.  1.
       -2    1    3    3    0  502  0.59158654468E+03  0.54317766729E+03  0.28480366356E+03  0.85213246909E+03  0.25500000920E-02 0. -1.
</event>
<event>
 5   0  0.7233728E-04  0.1722438E+04  0.7818609E-02  0.8748670E-01
       -2   -1    0    0    0  501  0.00000000000E+00  0.00000000000E+00  0.38995958721E+03  0.38995958721E+03  0.25500000920E-02 0.  1.
        2   -1    0    0  501    0  0.00000000000E+00  0.00000000000E+00 -0.19019867117E+04  0.19019867117E+04  0.25500000920E-02 0. -1.
    10030    2    1    2    0    0  0.00000000000E+00  0.00000000000E+00 -0.15120271245E+04  0.22919462989E+04  0.17224377527E+04 0.  0.
        1    1    3    3  502    0  0.28752983134E+03  0.16474752101E+03  0.30172702679E+03  0.44816776804E+03  0.50400001928E-02 0.  1.
       -1    1    3    3    0  502 -0.28752983134E+03 -0.16474752101E+03 -0.18137541513E+04  0.18437785309E+04  0.50400001928E-02 0. -1.
</event>
<event>
 5   0  0.6746664E-04  0.1779469E+04  0.7818609E-02  0.8717294E-01
        2   -1    0    0  501    0  0.00000000000E+00  0.00000000000E+00  0.23850446720E+04  0.23850446720E+04  0.25500000920E-02 0.  1.
       -2   -1    0    0    0  501  0.00000000000E+00  0.00000000000E+00 -0.33191319404E+03  0.33191319405E+03  0.25500000920E-02 0. -1.
    10030    2    1    2    0    0  0.00000000000E+00  0.00000000000E+00  0.20531314779E+04  0.27169578660E+04  0.17794693535E+04 0.  0.
        5    1    3    3  502    0 -0.57825582613E+03 -0.61087072890E+03  0.14692503898E+04  0.16930037348E+04  0.46999998093E+01 0.  1.
       -5    1    3    3    0  502  0.57825582613E+03  0.61087072890E+03  0.58388108808E+03  0.10239541312E+04  0.46999998093E+01 0. -1.
</event>
<event>
 5   0  0.7242144E-04  0.1691787E+04  0.7818609E-02  0.8766062E-01
        2   -1    0    0  501    0  0.00000000000E+00  0.00000000000E+00  0.93994759078E+03  0.93994759079E+03  0.25500000920E-02 0.  1.
       -2   -1    0    0    0  501  0.00000000000E+00  0.00000000000E+00 -0.76125078461E+03  0.76125078462E+03  0.25500000920E-02 0. -1.
    10030    2    1    2    0    0  0.00000000000E+00  0.00000000000E+00  0.17869680617E+03  0.17011983754E+04  0.16917870327E+04 0.  0.
        3    1    3    3  502    0 -0.63088395786E+02 -0.15905506642E+03 -0.74366639264E+03  0.76309787942E+03  0.10100000352E+00 0. -1.
       -3    1    3    3    0  502  0.63088395786E+02  0.15905506642E+03  0.92236319881E+03  0.93810049598E+03  0.10100000352E+00 0.  1.
</event>
<event>
 5   0  0.3723500E-04  0.1768952E+04  0.7818609E-02  0.8722987E-01
       -1   -1    0    0    0  501  0.00000000000E+00  0.00000000000E+00  0.16496830059E+04  0.16496830059E+04  0.50400001928E-02 0. -1.
        1   -1    0    0  501    0  0.00000000000E+00  0.00000000000E+00 -0.47421081592E+03  0.47421081594E+03  0.50400001928E-02 0.  1.
    10030    2    1    2    0    0  0.00000000000E+00  0.00000000000E+00  0.11754721900E+04  0.21238938219E+04  0.17689516944E+04 0.  0.
        1    1    3    3  502    0 -0.81211583799E+02  0.62785516690E+03 -0.15385439473E+03  0.65151255303E+03  0.50400001928E-02 0.  1.
       -1    1    3    3    0  502  0.81211583799E+02 -0.62785516690E+03  0.13293265848E+04  0.14723812689E+04  0.50400001928E-02 0. -1.
</event>
<event>
 5   0  0.3635143E-04  0.1676086E+04  0.7818609E-02  0.8775122E-01
        1   -1    0    0  501    0  0.00000000000E+00  0.00000000000E+00  0.11015401801E+04  0.11015401801E+04  0.50400001928E-02 0. -1.
       -1   -1    0    0    0  501  0.00000000000E+00  0.00000000000E+00 -0.63757681050E+03  0.63757681052E+03  0.50400001928E-02 0.  1.
    10030    2    1    2    0    0  0.00000000000E+00  0.00000000000E+00  0.46396336957E+03  0.17391169906E+04  0.16760864831E+04 0.  0.
        3    1    3    3  502    0 -0.17425429657E+02 -0.72667007871E+03  0.66475585996E+03  0.98501442246E+03  0.10100000352E+00 0. -1.
       -3    1    3    3    0  502  0.17425429657E+02  0.72667007871E+03 -0.20079249039E+03  0.75410256815E+03  0.10100000352E+00 0.  1.
</event>
<event>
 5   0  0.3713516E-04  0.1631065E+04  0.7818609E-02  0.8801688E-01
        1   -1    0    0  501    0  0.00000000000E+00  0.00000000000E+00  0.12458035988E+04  0.12458035988E+04  0.50400001928E-02 0. -1.
       -1   -1    0    0    0  501  0.00000000000E+00  0.00000000000E+00 -0.53386657708E+03  0.53386657711E+03  0.50400001928E-02 0.  1.
    10030    2    1    2    0    0  0.00000000000E+00  0.00000000000E+00  0.71193702175E+03  0.17796701759E+04  0.16310645641E+04 0.  0.
        5    1    3    3  502    0 -0.34417411452E+03  0.27131511043E+03  0.11063815381E+04  0.11900293728E+04  0.46999998093E+01 0. -1.
       -5    1    3    3    0  502  0.34417411452E+03 -0.27131511043E+03 -0.39444451636E+03  0.58964080315E+03  0.46999998093E+01 0.  1.
</event>
<event>
 5   0  0.3635143E-04  0.1696328E+04  0.7818609E-02  0.8763462E-01
       -1   -1    0    0    0  501  0.00000000000E+00  0.00000000000E+00  0.59517671666E+03  0.59517671668E+03  0.50400001928E-02 0. -1.
        1   -1    0    0  501    0  0.00000000000E+00  0.00000000000E+00 -0.12086860209E+04  0.12086860209E+04  0.50400001928E-02 0.  1.
    10030    2    1    2    0    0  0.00000000000E+00  0.00000000000E+00 -0.61350930421E+03  0.18038627376E+04  0.16963275361E+04 0.  0.
        3    1    3    3  502    0 -0.21190909978E+03  0.47077078781E+03 -0.10223566108E+04  0.11453137784E+04  0.10100000352E+00 0.  1.
       -3    1    3    3    0  502  0.21190909978E+03 -0.47077078781E+03  0.40884730661E+03  0.65854895911E+03  0.10100000352E+00 0. -1.
</event>
<event>
 5   0  0.7025426E-04  0.1728457E+04  0.7818609E-02  0.8745299E-01
       -2   -1    0    0    0  501  0.00000000000E+00  0.00000000000E+00  0.55459020312E+03  0.55459020312E+03  0.25500000920E-02 0.  1.
        2   -1    0    0  501    0  0.00000000000E+00  0.00000000000E+00 -0.13467440827E+04  0.13467440827E+04  0.25500000920E-02 0. -1.
    10030    2    1    2    0    0  0.00000000000E+00  0.00000000000E+00 -0.79215387958E+03  0.19013342858E+04  0.17284572015E+04 0.  0.
        2    1    3    3  502    0  0.62858818165E+03 -0.28903396911E+03 -0.96578369385E+03  0.11880243603E+04  0.25500000920E-02 0. -1.
       -2    1    3    3    0  502 -0.62858818165E+03  0.28903396911E+03  0.17362981427E+03  0.71330992550E+03  0.25500000920E-02 0.  1.
</event>
<event>
 5   0  0.7242144E-04  0.1695039E+04  0.7818609E-02  0.8764199E-01
        2   -1    0    0  501    0  0.00000000000E+00  0.00000000000E+00  0.10294435006E+04  0.10294435006E+04  0.25500000920E-02 0.  1.
       -2   -1    0    0    0  501  0.00000000000E+00  0.00000000000E+00 -0.69774498643E+03  0.69774498643E+03  0.25500000920E-02 0. -1.
    10030    2    1    2    0    0  0.00000000000E+00  0.00000000000E+00  0.33169851415E+03  0.17271884870E+04  0.16950386914E+04 0.  0.
        3    1    3    3  502    0  0.60200960539E+03  0.59444722087E+03  0.21685838023E+03  0.87339030832E+03  0.10100000352E+00 0.  1.
       -3    1    3    3    0  502 -0.60200960539E+03 -0.59444722087E+03  0.11484013391E+03  0.85379817869E+03  0.10100000352E+00 0. -1.
</event>
<event>
 5   0  0.3635143E-04  0.1581250E+04  0.7818609E-02  0.8832151E-01
       -1   -1    0    0    0  501  0.00000000000E+00  0.00000000000E+00  0.70370470427E+03  0.70370470428E+03  0.50400001928E-02 0.  1.
        1   -1    0    0  501    0  0.00000000000E+00  0.00000000000E+00 -0.88828098709E+03  0.88828098710E+03  0.50400001928E-02 0. -1.
    10030    2    1    2    0    0  0.00000000000E+00  0.00000000000E+00 -0.18457628282E+03  0.15919856914E+04  0.15812495178E+04 0.  0.
        3    1    3    3  502    0 -0.45283720031E+03  0.35477641756E+03 -0.63833550349E+03  0.85930207823E+03  0.10100000352E+00 0. -1.
       -3    1    3    3    0  502  0.45283720031E+03 -0.35477641756E+03  0.45375922066E+03  0.73268361315E+03  0.10100000352E+00 0.  1.
</event>
<event>
 5   0  0.3915701E-04  0.1720133E+04  0.7818609E-02  0.8749965E-01
       -1   -1    0    0    0  501  0.00000000000E+00  0.00000000000E+00  0.70330292205E+03  0.70330292207E+03  0.50400001928E-02 0.  1.
        1   -1    0    0  501    0  0.00000000000E+00  0.00000000000E+00 -0.10517715916E+04  0.10517715916E+04  0.50400001928E-02 0. -1.
    10030    2    1    2    0    0  0.00000000000E+00  0.00000000000E+00 -0.34846866955E+03  0.17550745137E+04  0.17201325922E+04 0.  0.
        2    1    3    3  502    0  0.35886155722E+03  0.68589660252E+03  0.20818355933E+03  0.80160848360E+03  0.25500000920E-02 0.  1.
       -2    1    3    3    0  502 -0.35886155722E+03 -0.68589660252E+03 -0.55665222888E+03  0.95346603008E+03  0.25500000920E-02 0. -1.
</event>
<event>
 5   0  0.7025426E-04  0.1580796E+04  0.7818609E-02  0.8832433E-01
        2   -1    0    0  501    0  0.00000000000E+00  0.00000000000E+00  0.24355992584E+04  0.24355992584E+04  0.25500000920E-02 0. -1.
       -2   -1    0    0    0  501  0.00000000000E+00  0.00000000000E+00 -0.25649920604E+03  0.25649920605E+03  0.25500000920E-02 0.  1.
    10030    2    1    2    0    0  0.00000000000E+00  0.00000000000E+00  0.21791000523E+04  0.26920984644E+04  0.15807963512E+04 0.  0.
        2    1    3    3  502    0 -0.58526446657E+03  0.31776647735E+03  0.18145152515E+04  0.19328672039E+04  0.25500000920E-02 0. -1.
       -2    1    3    3    0  502  0.58526446657E+03 -0.31776647735E+03  0.36458480083E+03  0.75923126053E+03  0.25500000920E-02 0.  1.
</event>
<event>
 5   0  0.3803253E-04  0.1724830E+04  0.7818609E-02  0.8747328E-01
        1   -1    0    0  501    0  0.00000000000E+00  0.00000000000E+00  0.16084563259E+04  0.16084563259E+04  0.50400001928E-02 0.  1.
       -1   -1    0    0    0  501  0.00000000000E+00  0.00000000000E+00 -0.46240571520E+03  0.46240571523E+03  0.50400001928E-02 0. -1.
    10030    2    1    2    0    0  0.00000000000E+00  0.00000000000E+00  0.11460506107E+04  0.20708620411E+04  0.17248297281E+04 0.  0.
        4    1    3    3  502    0 -0.40162588943E+03 -0.19546247148E+03  0.14587600878E+04  0.15256118574E+04  0.12699999809E+01 0.  1.
       -4    1    3    3    0  502  0.40162588943E+03  0.19546247148E+03 -0.31270947714E+03  0.54525018369E+03  0.12699999809E+01 0. -1.
</event>
<event>
 5   0  0.2639750E-04  0.1695441E+04  0.7818609E-02  0.8763969E-01
       -3   -1    0    0    0  501  0.00000000000E+00  0.00000000000E+00  0.16984846309E+04  0.16984846339E+04  0.10100000352E+00 0.  1.
        3   -1    0    0  501    0  0.00000000000E+00  0.00000000000E+00 -0.42310074418E+03  0.42310075623E+03  0.10100000352E+00 0. -1.
    10030    2    1    2    0    0  0.00000000000E+00  0.00000000000E+00  0.12753838867E+04  0.21215853902E+04  0.16954410957E+04 0.  0.
        5    1    3    3  502    0 -0.62281896371E+02 -0.47498990334E+02  0.16939303851E+04  0.16957468644E+04  0.46999998093E+01 0.  1.
       -5    1    3    3    0  502  0.62281896371E+02  0.47498990334E+02 -0.41854649836E+03  0.42583852571E+03  0.46999998093E+01 0. -1.
</event>
<event>
 5   0  0.7233728E-04  0.1729297E+04  0.7818609E-02  0.8744829E-01
        2   -1    0    0  501    0  0.00000000000E+00  0.00000000000E+00  0.80553705863E+03  0.80553705864E+03  0.25500000920E-02 0. -1.
       -2   -1    0    0    0  501  0.00000000000E+00  0.00000000000E+00 -0.92809786629E+03  0.92809786629E+03  0.25500000920E-02 0.  1.
    10030    2    1    2    0    0  0.00000000000E+00  0.00000000000E+00 -0.12256080766E+03  0.17336349249E+04  0.17292972276E+04 0.  0.
        1    1    3    3  502    0  0.20002582925E+03 -0.17684868334E+03  0.76317617774E+03  0.80853179744E+03  0.50400001928E-02 0. -1.
       -1    1    3    3    0  502 -0.20002582925E+03  0.17684868334E+03 -0.88573698540E+03  0.92510312749E+03  0.50400001928E-02 0.  1.
</event>
<event>
 5   0  0.3803253E-04  0.1709807E+04  0.7818609E-02  0.8755791E-01
        1   -1    0    0  501    0  0.00000000000E+00  0.00000000000E+00  0.10174375966E+04  0.10174375966E+04  0.50400001928E-02 0.  1.
       -1   -1    0    0    0  501  0.00000000000E+00  0.00000000000E+00 -0.71833360662E+03  0.71833360664E+03  0.50400001928E-02 0. -1.
    10030    2    1    2    0    0  0.00000000000E+00  0.00000000000E+00  0.29910398995E+03  0.17357712032E+04  0.17098065602E+04 0.  0.
        4    1    3    3  502    0  0.15081799798E+03  0.13880804163E+03 -0.69301806614E+03  0.72269592072E+03  0.12699999809E+01 0. -1.
       -4    1    3    3    0  502 -0.15081799798E+03 -0.13880804163E+03  0.99212205609E+03  0.10130752825E+04  0.12699999809E+01 0.  1.
</event>
<event>
 5   0  0.3635143E-04  0.1683669E+04  0.7818609E-02  0.8770734E-01
        1   -1    0    0  501    0  0.00000000000E+00  0.00000000000E+00  0.12224857563E+04  0.12224857563E+04  0.50400001928E-02 0. -1.
       -1   -1    0    0    0  501  0.00000000000E+00  0.00000000000E+00 -0.57970816188E+03  0.57970816190E+03  0.50400001928E-02 0.  1.
    10030    2    1    2    0    0  0.00000000000E+00  0.00000000000E+00  0.64277759445E+03  0.18021939182E+04  0.16836685787E+04 0.  0.
        3    1    3    3  502    0 -0.13729666335E+03 -0.74077837954E+03  0.72343936944E+03  0.10444939027E+04  0.10100000352E+00 0. -1.
       -3    1    3    3    0  502  0.13729666335E+03  0.74077837954E+03 -0.80661774988E+02  0.75770001551E+03  0.10100000352E+00 0.  1.
</event>
<event>
 5   0  0.3915701E-04  0.1564453E+04  0.7818609E-02  0.8842688E-01
        1   -1    0    0  501    0  0.00000000000E+00  0.00000000000E+00  0.11284597488E+04  0.11284597488E+04  0.50400001928E-02 0. -1.
       -1   -1    0    0    0  501  0.00000000000E+00  0.00000000000E+00 -0.54222454032E+03  0.54222454034E+03  0.50400001928E-02 0.  1.
    10030    2    1    2    0    0  0.00000000000E+00  0.00000000000E+00  0.58623520845E+03  0.16706842891E+04  0.15644533468E+04 0.  0.
        2    1    3    3  502    0  0.74394911057E+03  0.11205999161E+03  0.64424636094E+02  0.75509486462E+03  0.25500000920E-02 0.  1.
       -2    1    3    3    0  502 -0.74394911057E+03 -0.11205999161E+03  0.52181057235E+03  0.91558942450E+03  0.25500000920E-02 0. -1.
</event>
<event>
 5   0  0.7233728E-04  0.1652518E+04  0.7818609E-02  0.8788918E-01
       -2   -1    0    0    0  501  0.00000000000E+00  0.00000000000E+00  0.90262360033E+03  0.90262360033E+03  0.25500000920E-02 0.  1.
        2   -1    0    0  501    0  0.00000000000E+00  0.00000000000E+00 -0.75635504317E+03  0.75635504318E+03  0.25500000920E-02 0. -1.
    10030    2    1    2    0    0  0.00000000000E+00  0.00000000000E+00  0.14626855716E+03  0.16589786435E+04  0.16525179723E+04 0.  0.
        1    1    3    3  502    0 -0.71357763002E+03 -0.40769486578E+03  0.15888352371E+03  0.83704964715E+03  0.50400001928E-02 0. -1.
       -1    1    3    3    0  502  0.71357763002E+03  0.40769486578E+03 -0.12614966553E+02  0.82192899636E+03  0.50400001928E-02 0.  1.
</event>
<event>
 5   0  0.6746664E-04  0.1716740E+04  0.7818609E-02  0.8751874E-01
        2   -1    0    0  501    0  0.00000000000E+00  0.00000000000E+00  0.89055610567E+03  0.89055610567E+03  0.25500000920E-02 0. -1.
       -2   -1    0    0    0  501  0.00000000000E+00  0.00000000000E+00 -0.82734693304E+03  0.82734693304E+03  0.25500000920E-02 0.  1.
    10030    2    1    2    0    0  0.00000000000E+00  0.00000000000E+00  0.63209172632E+02  0.17179030387E+04  0.17167397738E+04 0.  0.
        5    1    3    3  502    0 -0.67604834243E+03 -0.47792835430E+03  0.25829704758E+03  0.86729252732E+03  0.46999998093E+01 0. -1.
       -5    1    3    3    0  502  0.67604834243E+03  0.47792835430E+03 -0.19508787495E+03  0.85061051140E+03  0.46999998093E+01 0.  1.
</event>
<event>
 5   0  0.3713516E-04  0.1727625E+04  0.7818609E-02  0.8745764E-01
        1   -1    0    0  501    0  0.00000000000E+00  0.00000000000E+00  0.78329316810E+03  0.78329316812E+03  0.50400001928E-02 0. -1.
       -1   -1    0    0    0  501  0.00000000000E+00  0.00000000000E+00 -0.95260858873E+03  0.95260858874E+03  0.50400001928E-02 0.  1.
    10030    2    1    2    0    0  0.00000000000E+00  0.00000000000E+00 -0.16931542063E+03  0.17359017569E+04  0.17276247271E+04 0.  0.
        5    1    3    3  502    0  0.54768923702E+03  0.44262658621E+03 -0.58732233020E+03  0.91697950071E+03  0.46999998093E+01 0.  1.
       -5    1    3    3    0  502 -0.54768923702E+03 -0.44262658621E+03  0.41800690957E+03  0.81892225615E+03  0.46999998093E+01 0. -1.
</event>
<event>
 5   0  0.7049044E-04  0.1672481E+04  0.7818609E-02  0.8777217E-01
       -2   -1    0    0    0  501  0.00000000000E+00  0.00000000000E+00  0.49165479104E+03  0.49165479104E+03  0.25500000920E-02 0. -1.
        2   -1    0    0  501    0  0.00000000000E+00  0.00000000000E+00 -0.14223364333E+04  0.14223364333E+04  0.25500000920E-02 0.  1.
    10030    2    1    2    0    0  0.00000000000E+00  0.00000000000E+00 -0.93068164231E+03  0.19139912244E+04  0.16724814162E+04 0.  0.
        4    1    3    3  502    0  0.10433932197E+03 -0.56404942393E+03  0.23101488385E+03  0.61839141020E+03  0.12699999809E+01 0. -1.
       -4    1    3    3    0  502 -0.10433932197E+03  0.56404942393E+03 -0.11616965262E+04  0.12955998142E+04  0.12699999809E+01 0.  1.
</event>
<event>
 5   0  0.3723500E-04  0.1633386E+04  0.7818609E-02  0.8800296E-01
        1   -1    0    0  501    0  0.00000000000E+00  0.00000000000E+00  0.65137729748E+03  0.65137729750E+03  0.50400001928E-02 0.  1.
       -1   -1    0    0    0  501  0.00000000000E+00  0.00000000000E+00 -0.10239645218E+04  0.10239645218E+04  0.50400001928E-02 0. -1.
    10030    2    1    2    0    0  0.00000000000E+00  0.00000000000E+00 -0.37258722429E+03  0.16753418193E+04  0.16333857388E+04 0.  0.
        1    1    3    3  502    0  0.16038132574E+03  0.11255717196E+03  0.62691217643E+03  0.65681821197E+03  0.50400001928E-02 0.  1.
       -1    1    3    3    0  502 -0.16038132574E+03 -0.11255717196E+03 -0.99949940071E+03  0.10185236073E+04  0.50400001928E-02 0. -1.
</event>
<event>
 5   0  0.3713516E-04  0.1646047E+04  0.7818609E-02  0.8792748E-01
       -1   -1    0    0    0  501  0.00000000000E+00  0.00000000000E+00  0.86456694284E+03  0.86456694285E+03  0.50400001928E-02 0.  1.
        1   -1    0    0  501    0  0.00000000000E+00  0.00000000000E+00 -0.78347646087E+03  0.78347646089E+03  0.50400001928E-02 0. -1.
    10030    2    1    2    0    0  0.00000000000E+00  0.00000000000E+00  0.81090481966E+02  0.16480434037E+04  0.16460472030E+04 0.  0.
        5    1    3    3  502    0 -0.57153551473E+03 -0.58036283622E+03  0.15846707220E+03  0.82982393870E+03  0.46999998093E+01 0.  1.
       -5    1    3    3    0  502  0.57153551473E+03  0.58036283622E+03 -0.77376590236E+02  0.81821946505E+03  0.46999998093E+01 0. -1.
</event>
<event>
 5   0  0.3915701E-04  0.1672327E+04  0.7818609E-02  0.8777307E-01
       -1   -1    0    0    0  501  0.00000000000E+00  0.00000000000E+00  0.75062224762E+03  0.75062224764E+03  0.50400001928E-02 0.  1.
        1   -1    0    0  501    0  0.00000000000E+00  0.00000000000E+00 -0.93145258223E+03  0.93145258225E+03  0.50400001928E-02 0. -1.
    10030    2    1    2    0    0  0.00000000000E+00  0.00000000000E+00 -0.18083033461E+03  0.16820748299E+04  0.16723265600E+04 0.  0.
        2    1    3    3  502    0  0.57705214012E+03 -0.35086675301E+03  0.40548246143E+03  0.78772627055E+03  0.25500000920E-02 0.  1.
       -2    1    3    3    0  502 -0.57705214012E+03  0.35086675301E+03 -0.58631279604E+03  0.89434855934E+03  0.25500000920E-02 0. -1.
</event>
<event>
 5   0  0.3915701E-04  0.1695893E+04  0.7818609E-02  0.8763710E-01
        1   -1    0    0  501    0  0.00000000000E+00  0.00000000000E+00  0.54984309454E+03  0.54984309456E+03  0.50400001928E-02 0. -1.
       -1   -1    0    0    0  501  0.00000000000E+00  0.00000000000E+00 -0.13076702652E+04  0.13076702652E+04  0.50400001928E-02 0.  1.
    10030    2    1    2    0    0  0.00000000000E+00  0.00000000000E+00 -0.75782717067E+03  0.18575133598E+04  0.16958932340E+04 0.  0.
        2    1    3    3  502    0 -0.71393741886E+03 -0.45064390495E+03 -0.46534454211E+03  0.96401872906E+03  0.25500000920E-02 0. -1.
       -2    1    3    3    0  502  0.71393741886E+03  0.45064390495E+03 -0.29248262856E+03  0.89349463072E+03  0.25500000920E-02 0.  1.
</event>
<event>
 5   0  0.3713516E-04  0.1650682E+04  0.7818609E-02  0.8790003E-01
       -1   -1    0    0    0  501  0.00000000000E+00  0.00000000000E+00  0.87651433276E+03  0.87651433277E+03  0.50400001928E-02 0. -1.
        1   -1    0    0  501    0  0.00000000000E+00  0.00000000000E+00 -0.77715524943E+03  0.77715524944E+03  0.50400001928E-02 0.  1.
    10030    2    1    2    0    0  0.00000000000E+00  0.00000000000E+00  0.99359083332E+02  0.16536695822E+04  0.16506819378E+04 0.  0.
        5    1    3    3  502    0 -0.42231947940E+03  0.67998878311E+03  0.25110846551E+03  0.83893744659E+03  0.46999998093E+01 0. -1.
       -5    1    3    3    0  502  0.42231947940E+03 -0.67998878311E+03 -0.15174938218E+03  0.81473213563E+03  0.46999998093E+01 0.  1.
</event>
<event>
 5   0  0.3713516E-04  0.1634692E+04  0.7818609E-02  0.8799514E-01
       -1   -1    0    0    0  501  0.00000000000E+00  0.00000000000E+00  0.51702085946E+03  0.51702085948E+03  0.50400001928E-02 0. -1.
        1   -1    0    0  501    0  0.00000000000E+00  0.00000000000E+00 -0.12921235319E+04  0.12921235319E+04  0.50400001928E-02 0.  1.
    10030    2    1    2    0    0  0.00000000000E+00  0.00000000000E+00 -0.77510267242E+03  0.18091443914E+04  0.16346924102E+04 0.  0.
        5    1    3    3  502    0  0.28064717549E+03 -0.76126042639E+03 -0.27825787904E+03  0.85774693887E+03  0.46999998093E+01 0.  1.
       -5    1    3    3    0  502 -0.28064717549E+03  0.76126042639E+03 -0.49684479339E+03  0.95139745250E+03  0.46999998093E+01 0. -1.
</event>
<event>
 5   0  0.3915701E-04  0.1694766E+04  0.7818609E-02  0.8764355E-01
        1   -1    0    0  501    0  0.00000000000E+00  0.00000000000E+00  0.91860078510E+03  0.91860078512E+03  0.50400001928E-02 0.  1.
       -1   -1    0    0    0  501  0.00000000000E+00  0.00000000000E+00 -0.78168695417E+03  0.78168695419E+03  0.50400001928E-02 0. -1.
    10030    2    1    2    0    0  0.00000000000E+00  0.00000000000E+00  0.13691383093E+03  0.17002877393E+04  0.16947663554E+04 0.  0.
        2    1    3    3  502    0 -0.16152428239E+03  0.80164780582E+02  0.89912887059E+03  0.91703283026E+03  0.25500000920E-02 0.  1.
       -2    1    3    3    0  502  0.16152428239E+03 -0.80164780582E+02 -0.76221503966E+03  0.78325490904E+03  0.25500000920E-02 0. -1.
</event>
<event>
 5   0  0.3915701E-04  0.1883121E+04  0.7818609E-02  0.8663304E-01
       -1   -1    0    0    0  501  0.00000000000E+00  0.00000000000E+00  0.13031289386E+04  0.13031289387E+04  0.50400001928E-02 0. -1.
        1   -1    0    0  501    0  0.00000000000E+00  0.00000000000E+00 -0.68031381502E+03  0.68031381504E+03  0.50400001928E-02 0.  1.
    10030    2    1    2    0    0  0.00000000000E+00  0.00000000000E+00  0.62281512362E+03  0.19834427537E+04  0.18831214722E+04 0.  0.
        2    1    3    3  502    0 -0.40164939180E+02 -0.91790487326E+03  0.94591587550E+02  0.92363961973E+03  0.25500000920E-02 0.  1.
       -2    1    3    3    0  502  0.40164939180E+02  0.91790487326E+03  0.52822353607E+03  0.10598031340E+04  0.25500000920E-02 0. -1.
</event>
<event>
 5   0  0.2639750E-04  0.1681371E+04  0.7818609E-02  0.8772061E-01
       -4   -1    0    0    0  501  0.00000000000E+00  0.00000000000E+00  0.49249641451E+03  0.49249805198E+03  0.12699999809E+01 0. -1.
        4   -1    0    0  501    0  0.00000000000E+00  0.00000000000E+00 -0.14350357899E+04  0.14350363519E+04  0.12699999809E+01 0.  1.
    10030    2    1    2    0    0  0.00000000000E+00  0.00000000000E+00 -0.94253937540E+03  0.19275344039E+04  0.16813709894E+04 0.  0.
        2    1    3    3  502    0  0.65487615684E+03  0.21060894317E+03 -0.10252736839E+04  0.12346679856E+04  0.25500000920E-02 0.  1.
       -2    1    3    3    0  502 -0.65487615684E+03 -0.21060894317E+03  0.82734308516E+02  0.69286641826E+03  0.25500000920E-02 0. -1.
</event>
<event>
 5   0  0.7233728E-04  0.1693960E+04  0.7818609E-02  0.8764816E-01
       -2   -1    0    0    0  501  0.00000000000E+00  0.00000000000E+00  0.81369859616E+03  0.81369859617E+03  0.25500000920E-02 0.  1.
        2   -1    0    0  501    0  0.00000000000E+00  0.00000000000E+00 -0.88162308804E+03  0.88162308805E+03  0.25500000920E-02 0. -1.
    10030    2    1    2    0    0  0.00000000000E+00  0.00000000000E+00 -0.67924491880E+02  0.16953216842E+04  0.16939604117E+04 0.  0.
        1    1    3    3  502    0 -0.52117503434E+03  0.66487732481E+03 -0.94758042674E+02  0.85009667693E+03  0.50400001928E-02 0. -1.
       -1    1    3    3    0  502  0.52117503434E+03 -0.66487732481E+03  0.26833550794E+02  0.84522500728E+03  0.50400001928E-02 0.  1.
</event>
<event>
 5   0  0.3713516E-04  0.1698469E+04  0.7818609E-02  0.8762238E-01
        1   -1    0    0  501    0  0.00000000000E+00  0.00000000000E+00  0.63073784879E+03  0.63073784881E+03  0.50400001928E-02 0. -1.
       -1   -1    0    0    0  501  0.00000000000E+00  0.00000000000E+00 -0.11434221320E+04  0.11434221320E+04  0.50400001928E-02 0.  1.
    10030    2    1    2    0    0  0.00000000000E+00  0.00000000000E+00 -0.51268428323E+03  0.17741599808E+04  0.16984694473E+04 0.  0.
        5    1    3    3  502    0  0.64456515670E+03  0.41904277841E+03  0.12044937549E+03  0.77819742573E+03  0.46999998093E+01 0. -1.
       -5    1    3    3    0  502 -0.64456515670E+03 -0.41904277841E+03 -0.63313365872E+03  0.99596255510E+03  0.46999998093E+01 0.  1.
</event>
<event>
 5   0  0.3915701E-04  0.1685470E+04  0.7818609E-02  0.8769695E-01
        1   -1    0    0  501    0  0.00000000000E+00  0.00000000000E+00  0.10812368612E+04  0.10812368612E+04  0.50400001928E-02 0. -1.
       -1   -1    0    0    0  501  0.00000000000E+00  0.00000000000E+00 -0.65684280589E+03  0.65684280591E+03  0.50400001928E-02 0.  1.
    10030    2    1    2    0    0  0.00000000000E+00  0.00000000000E+00  0.42439405533E+03  0.17380796671E+04  0.16854704433E+04 0.  0.
        2    1    3    3  502    0 -0.31840616686E+03  0.99749314104E+02 -0.58582504603E+03  0.67418350419E+03  0.25500000920E-02 0.  1.
       -2    1    3    3    0  502  0.31840616686E+03 -0.99749314104E+02  0.10102191014E+04  0.10638961629E+04  0.25500000920E-02 0. -1.
</event>
<event>
 5   0  0.3723500E-04  0.1755798E+04  0.7818609E-02  0.8730165E-01
        1   -1    0    0  501    0  0.00000000000E+00  0.00000000000E+00  0.97419077588E+03  0.97419077590E+03  0.50400001928E-02 0. -1.
       -1   -1    0    0    0  501  0.00000000000E+00  0.00000000000E+00 -0.79112535926E+03  0.79112535928E+03  0.50400001928E-02 0.  1.
    10030    2    1    2    0    0  0.00000000000E+00  0.00000000000E+00  0.18306541662E+03  0.17653161352E+04  0.17557984253E+04 0.  0.
        1    1    3    3  502    0  0.55146607123E+03  0.17588262099E+03 -0.57208877168E+03  0.81383971812E+03  0.50400001928E-02 0.  1.
       -1    1    3    3    0  502 -0.55146607123E+03 -0.17588262099E+03  0.75515418830E+03  0.95147641705E+03  0.50400001928E-02 0. -1.
</event>
<event>
 5   0  0.6746664E-04  0.1720633E+04  0.7818609E-02  0.8749683E-01
        2   -1    0    0  501    0  0.00000000000E+00  0.00000000000E+00  0.79492190514E+03  0.79492190515E+03  0.25500000920E-02 0. -1.
       -2   -1    0    0    0  501  0.00000000000E+00  0.00000000000E+00 -0.93109103496E+03  0.93109103497E+03  0.25500000920E-02 0.  1.
    10030    2    1    2    0    0  0.00000000000E+00  0.00000000000E+00 -0.13616912982E+03  0.17260129401E+04  0.17206332083E+04 0.  0.
        5    1    3    3  502    0  0.37016822491E+03  0.23834314937E+03 -0.80951022033E+03  0.92149924492E+03  0.46999998093E+01 0.  1.
       -5    1    3    3    0  502 -0.37016822491E+03 -0.23834314937E+03  0.67334109051E+03  0.80451369519E+03  0.46999998093E+01 0. -1.
</event>
<event>
 5   0  0.6746664E-04  0.1860033E+04  0.7818609E-02  0.8675010E-01
       -2   -1    0    0    0  501  0.00000000000E+00  0.00000000000E+00  0.47188333718E+03  0.47188333718E+03  0.25500000920E-02 0. -1.
        2   -1    0    0  501    0  0.00000000000E+00  0.00000000000E+00 -0.18329333655E+04  0.18329333655E+04  0.25500000920E-02 0.  1.
    10030    2    1    2    0    0  0.00000000000E+00  0.00000000000E+00 -0.13610500283E+04  0.23048167027E+04  0.18600330248E+04 0.  0.
        5    1    3    3  502    0 -0.23646575929E+03  0.52925868117E+03 -0.15816673905E+04  0.16845547278E+04  0.46999998093E+01 0.  1.
       -5    1    3    3    0  502  0.23646575929E+03 -0.52925868117E+03  0.22061736220E+03  0.62026197482E+03  0.46999998093E+01 0. -1.
</event>
<event>
 5   0  0.7049044E-04  0.1588148E+04  0.7818609E-02  0.8827862E-01
        2   -1    0    0  501    0  0.00000000000E+00  0.00000000000E+00  0.77562109767E+03  0.77562109768E+03  0.25500000920E-02 0.  1.
       -2   -1    0    0    0  501  0.00000000000E+00  0.00000000000E+00 -0.81296619004E+03  0.81296619005E+03  0.25500000920E-02 0. -1.
    10030    2    1    2    0    0  0.00000000000E+00  0.00000000000E+00 -0.37345092372E+02  0.15885872877E+04  0.15881482660E+04 0.  0.
        4    1    3    3  502    0 -0.52922062183E+03 -0.58763839883E+03 -0.90516919531E+02  0.79598258773E+03  0.12699999809E+01 0.  1.
       -4    1    3    3    0  502  0.52922062183E+03  0.58763839883E+03  0.53171827159E+02  0.79260469999E+03  0.12699999809E+01 0. -1.
</event>
<event>
 5   0  0.3713516E-04  0.1676275E+04  0.7818609E-02  0.8775012E-01
        1   -1    0    0  501    0  0.00000000000E+00  0.00000000000E+00  0.16862481998E+04  0.16862481998E+04  0.50400001928E-02 0.  1.
       -1   -1    0    0    0  501  0.00000000000E+00  0.00000000000E+00 -0.41659033314E+03  0.41659033317E+03  0.50400001928E-02 0. -1.
    10030    2    1    2    0    0  0.00000000000E+00  0.00000000000E+00  0.12696578667E+04  0.21028385330E+04  0.16762752750E+04 0.  0.
        5    1    3    3  502    0 -0.55076052552E+03  0.59045033052E+03  0.35296671572E+03  0.88123569020E+03  0.46999998093E+01 0.  1.
       -5    1    3    3    0  502  0.55076052552E+03 -0.59045033052E+03  0.91669115098E+03  0.12216028428E+04  0.46999998093E+01 0. -1.
</event>
<event>
 5   0  0.7025426E-04  0.1722515E+04  0.7818609E-02  0.8748627E-01
        2   -1    0    0  501    0  0.00000000000E+00  0.00000000000E+00  0.82835399819E+03  0.82835399820E+03  0.25500000920E-02 0. -1.
       -2   -1    0    0    0  501  0.00000000000E+00  0.00000000000E+00 -0.89546748093E+03  0.89546748094E+03  0.25500000920E-02 0.  1.
    10030    2    1    2    0    0  0.00000000000E+00  0.00000000000E+00 -0.67113482739E+02  0.17238214791E+04  0.17225145202E+04 0.  0.
        2    1    3    3  502    0  0.44151186218E+03 -0.17027703793E+03  0.68659823535E+03  0.83387297047E+03  0.25500000920E-02 0. -1.
       -2    1    3    3    0  502 -0.44151186218E+03  0.17027703793E+03 -0.75371171809E+03  0.88994850867E+03  0.25500000920E-02 0.  1.
</event>
<event>
 5   0  0.3915701E-04  0.1689381E+04  0.7818609E-02  0.8767444E-01
        1   -1    0    0  501    0  0.00000000000E+00  0.00000000000E+00  0.92341371496E+03  0.92341371498E+03  0.50400001928E-02 0.  1.
       -1   -1    0    0    0  501  0.00000000000E+00  0.00000000000E+00 -0.77267895251E+03  0.77267895253E+03  0.50400001928E-02 0. -1.
    10030    2    1    2    0    0  0.00000000000E+00  0.00000000000E+00  0.15073476245E+03  0.16960926675E+04  0.16893813566E+04 0.  0.
        2    1    3    3  502    0 -0.69669570085E+03 -0.48127489715E+02  0.55244054779E+03  0.89044467189E+03  0.25500000920E-02 0.  1.
       -2    1    3    3    0  502  0.69669570085E+03  0.48127489715E+02 -0.40170578534E+03  0.80564799561E+03  0.25500000920E-02 0. -1.
</event>
<event>
 5   0  0.7025426E-04  0.1645471E+04  0.7818609E-02  0.8793090E-01
        2   -1    0    0  501    0  0.00000000000E+00  0.00000000000E+00  0.15887418563E+04  0.15887418563E+04  0.25500000920E-02 0. -1.
       -2   -1    0    0    0  501  0.00000000000E+00  0.00000000000E+00 -0.42605662000E+03  0.42605662001E+03  0.25500000920E-02 0.  1.
    10030    2    1    2    0    0  0.00000000000E+00  0.00000000000E+00  0.11626852363E+04  0.20147984763E+04  0.16454713432E+04 0.  0.
        2    1    3    3  502    0 -0.62669447477E+03  0.53269625380E+03  0.55738835054E+03  0.99357588379E+03  0.25500000920E-02 0.  1.
       -2    1    3    3    0  502  0.62669447477E+03 -0.53269625380E+03  0.60529688573E+03  0.10212225925E+04  0.25500000920E-02 0. -1.
</event>
<event>
 5   0  0.3713516E-04  0.1668137E+04  0.7818609E-02  0.8779749E-01
       -1   -1    0    0    0  501  0.00000000000E+00  0.00000000000E+00  0.10436314481E+04  0.10436314481E+04  0.50400001928E-02 0. -1.
        1   -1    0    0  501    0  0.00000000000E+00  0.00000000000E+00 -0.66658588135E+03  0.66658588137E+03  0.50400001928E-02 0.  1.
    10030    2    1    2    0    0  0.00000000000E+00  0.00000000000E+00  0.37704556675E+03  0.17102173295E+04  0.16681366715E+04 0.  0.
        5    1    3    3  502    0 -0.78700429152E+03 -0.80727312020E+02 -0.82251931299E+02  0.79541192094E+03  0.46999998093E+01 0.  1.
       -5    1    3    3    0  502  0.78700429152E+03  0.80727312020E+02  0.45929749805E+03  0.91480540854E+03  0.46999998093E+01 0. -1.
</event>
<event>
 5   0  0.7049044E-04  0.1765126E+04  0.7818609E-02  0.8725068E-01
        2   -1    0    0  501    0  0.00000000000E+00  0.00000000000E+00  0.17165268099E+04  0.17165268099E+04  0.25500000920E-02 0.  1.
       -2   -1    0    0    0  501  0.00000000000E+00  0.00000000000E+00 -0.45377504336E+03  0.45377504337E+03  0.25500000920E-02 0. -1.
    10030    2    1    2    0    0  0.00000000000E+00  0.00000000000E+00  0.12627517665E+04  0.21703018532E+04  0.17651255226E+04 0.  0.
        4    1    3    3  502    0 -0.27194650249E+03 -0.72259288345E+03  0.11570982394E+04  0.13910331858E+04  0.12699999809E+01 0.  1.
       -4    1    3    3    0  502  0.27194650249E+03  0.72259288345E+03  0.10565352715E+03  0.77926866749E+03  0.12699999809E+01 0. -1.
</event>
<event>
 5   0  0.3723500E-04  0.1677145E+04  0.7818609E-02  0.8774508E-01
       -1   -1    0    0    0  501  0.00000000000E+00  0.00000000000E+00  0.44268596835E+03  0.44268596838E+03  0.50400001928E-02 0. -1.
        1   -1    0    0  501    0  0.00000000000E+00  0.00000000000E+00 -0.15884941176E+04  0.15884941176E+04  0.50400001928E-02 0.  1.
    10030    2    1    2    0    0  0.00000000000E+00  0.00000000000E+00 -0.11458081492E+04  0.20311800860E+04  0.16771452611E+04 0.  0.
        1    1    3    3  502    0 -0.52839167650E+02 -0.63772025374E+02  0.43772094616E+03  0.44548678498E+03  0.50400001928E-02 0. -1.
       -1    1    3    3    0  502  0.52839167650E+02  0.63772025374E+02 -0.15835290954E+04  0.15856933010E+04  0.50400001928E-02 0.  1.
</event>
<event>
 5   0  0.3713516E-04  0.1691601E+04  0.7818609E-02  0.8766169E-01
        1   -1    0    0  501    0  0.00000000000E+00  0.00000000000E+00  0.18046762477E+04  0.18046762477E+04  0.50400001928E-02 0. -1.
       -1   -1    0    0    0  501  0.00000000000E+00  0.00000000000E+00 -0.39640256663E+03  0.39640256666E+03  0.50400001928E-02 0.  1.
    10030    2    1    2    0    0  0.00000000000E+00  0.00000000000E+00  0.14082736811E+04  0.22010788144E+04  0.16916007763E+04 0.  0.
        5    1    3    3  502    0  0.40979945158E+03 -0.73502246315E+03  0.59401514060E+03  0.10300823701E+04  0.46999998093E+01 0.  1.
       -5    1    3    3    0  502 -0.40979945158E+03  0.73502246315E+03  0.81425854047E+03  0.11709964443E+04  0.46999998093E+01 0. -1.
</event>
<event>
 5   0  0.3723500E-04  0.1708447E+04  0.7818609E-02  0.8756561E-01
        1   -1    0    0  501    0  0.00000000000E+00  0.00000000000E+00  0.16954856134E+04  0.16954856134E+04  0.50400001928E-02 0. -1.
       -1   -1    0    0    0  501  0.00000000000E+00  0.00000000000E+00 -0.43037682602E+03  0.43037682605E+03  0.50400001928E-02 0.  1.
    10030    2    1    2    0    0  0.00000000000E+00  0.00000000000E+00  0.12651087874E+04  0.21258624395E+04  0.17084469168E+04 0.  0.
        1    1    3    3  502    0  0.72655783403E+03 -0.42495884541E+03  0.81382224698E+03  0.11708044056E+04  0.50400001928E-02 0.  1.
       -1    1    3    3    0  502 -0.72655783403E+03  0.42495884541E+03  0.45128654043E+03  0.95505803388E+03  0.50400001928E-02 0. -1.
</event>
<event>
 5   0  0.7025426E-04  0.1701910E+04  0.7818609E-02  0.8760276E-01
       -2   -1    0    0    0  501  0.00000000000E+00  0.00000000000E+00  0.27128959551E+03  0.27128959552E+03  0.25500000920E-02 0.  1.
        2   -1    0    0  501    0  0.00000000000E+00  0.00000000000E+00 -0.26691945401E+04  0.26691945401E+04  0.25500000920E-02 0. -1.
    10030    2    1    2    0    0  0.00000000000E+00  0.00000000000E+00 -0.23979049446E+04  0.29404841357E+04  0.17019103468E+04 0.  0.
        2    1    3    3  502    0 -0.58547838022E+03 -0.43161704030E+03 -0.43590554607E+03  0.84799283504E+03  0.25500000920E-02 0.  1.
       -2    1    3    3    0  502  0.58547838022E+03  0.43161704030E+03 -0.19619993986E+04  0.20924913006E+04  0.25500000920E-02 0. -1.
</event>
<event>
 5   0  0.7242144E-04  0.1713113E+04  0.7818609E-02  0.8753921E-01
        2   -1    0    0  501    0  0.00000000000E+00  0.00000000000E+00  0.45821575315E+03  0.45821575316E+03  0.25500000920E-02 0. -1.
       -2   -1    0    0    0  501  0.00000000000E+00  0.00000000000E+00 -0.16011866328E+04  0.16011866328E+04  0.25500000920E-02 0.  1.
    10030    2    1    2    0    0  0.00000000000E+00  0.00000000000E+00 -0.11429708796E+04  0.20594023859E+04  0.17131128846E+04 0.  0.
        3    1    3    3  502    0 -0.61920382921E+03 -0.56706218425E+03 -0.36777307176E+03  0.91664057592E+03  0.10100000352E+00 0. -1.
       -3    1    3    3    0  502  0.61920382921E+03  0.56706218425E+03 -0.77519780787E+03  0.11427618100E+04  0.10100000352E+00 0.  1.
</event>
<event>
 5   0  0.3713516E-04  0.1689437E+04  0.7818609E-02  0.8767412E-01
        1   -1    0    0  501    0  0.00000000000E+00  0.00000000000E+00  0.10244924665E+04  0.10244924665E+04  0.50400001928E-02 0. -1.
       -1   -1    0    0    0  501  0.00000000000E+00  0.00000000000E+00 -0.69649071528E+03  0.69649071530E+03  0.50400001928E-02 0.  1.
    10030    2    1    2    0    0  0.00000000000E+00  0.00000000000E+00  0.32800175120E+03  0.17209831818E+04  0.16894371735E+04 0.  0.
        5    1    3    3  502    0  0.47685283957E+03  0.64712841134E+03  0.42839219397E+03  0.91088186568E+03  0.46999998093E+01 0. -1.
       -5    1    3    3    0  502 -0.47685283957E+03 -0.64712841134E+03 -0.10039044277E+03  0.81010131611E+03  0.46999998093E+01 0.  1.
</event>
<event>
 5   0  0.6746664E-04  0.2333845E+04  0.7818609E-02  0.8464695E-01
       -2   -1    0    0    0  501  0.00000000000E+00  0.00000000000E+00  0.43425601391E+03  0.43425601391E+03  0.25500000920E-02 0. -1.
        2   -1    0    0  501    0  0.00000000000E+00  0.00000000000E+00 -0.31357278308E+04  0.31357278308E+04  0.25500000920E-02 0.  1.
    10030    2    1    2    0    0  0.00000000000E+00  0.00000000000E+00 -0.27014718169E+04  0.35699838447E+04  0.23338454692E+04 0.  0.
        5    1    3    3  502    0 -0.10630771668E+03  0.10276850395E+04 -0.21804938848E+04  0.24128849004E+04  0.46999998093E+01 0.  1.
       -5    1    3    3    0  502  0.10630771668E+03 -0.10276850395E+04 -0.52097793205E+03  0.11570989442E+04  0.46999998093E+01 0. -1.
</event>
<event>
 5   0  0.6746664E-04  0.1693360E+04  0.7818609E-02  0.8765160E-01
        2   -1    0    0  501    0  0.00000000000E+00  0.00000000000E+00  0.19709888076E+04  0.19709888076E+04  0.25500000920E-02 0. -1.
       -2   -1    0    0    0  501  0.00000000000E+00  0.00000000000E+00 -0.36370942070E+03  0.36370942071E+03  0.25500000920E-02 0.  1.
    10030    2    1    2    0    0  0.00000000000E+00  0.00000000000E+00  0.16072793869E+04  0.23346982283E+04  0.16933602067E+04 0.  0.
        5    1    3    3  502    0  0.61702309393E+03 -0.38524732088E+03  0.20629150561E+03  0.75611591173E+03  0.46999998093E+01 0.  1.
       -5    1    3    3    0  502 -0.61702309393E+03  0.38524732088E+03  0.14009878813E+04  0.15785823166E+04  0.46999998093E+01 0. -1.
</event>
<event>
 5   0  0.6746664E-04  0.1741754E+04  0.7818609E-02  0.8737903E-01
        2   -1    0    0  501    0  0.00000000000E+00  0.00000000000E+00  0.13542000916E+04  0.13542000916E+04  0.25500000920E-02 0.  1.
       -2   -1    0    0    0  501  0.00000000000E+00  0.00000000000E+00 -0.56005501134E+03  0.56005501134E+03  0.25500000920E-02 0. -1.
    10030    2    1    2    0    0  0.00000000000E+00  0.00000000000E+00  0.79414508029E+03  0.19142551030E+04  0.17417537687E+04 0.  0.
        5    1    3    3  502    0 -0.52818504881E+02 -0.85827327699E+03  0.54849140306E+03  0.10199449601E+04  0.46999998093E+01 0.  1.
       -5    1    3    3    0  502  0.52818504881E+02  0.85827327699E+03  0.24565367723E+03  0.89431014284E+03  0.46999998093E+01 0. -1.
</event>
<event>
 5   0  0.3723500E-04  0.1725344E+04  0.7818609E-02  0.8747040E-01
        1   -1    0    0  501    0  0.00000000000E+00  0.00000000000E+00  0.75330729603E+03  0.75330729605E+03  0.50400001928E-02 0. -1.
       -1   -1    0    0    0  501  0.00000000000E+00  0.00000000000E+00 -0.98791465735E+03  0.98791465737E+03  0.50400001928E-02 0.  1.
    10030    2    1    2    0    0  0.00000000000E+00  0.00000000000E+00 -0.23460736133E+03  0.17412219534E+04  0.17253443938E+04 0.  0.
        1    1    3    3  502    0 -0.23102872719E+03  0.61979697793E+03 -0.67618757859E+03  0.94591342527E+03  0.50400001928E-02 0.  1.
       -1    1    3    3    0  502  0.23102872719E+03 -0.61979697793E+03  0.44158021726E+03  0.79530852815E+03  0.50400001928E-02 0. -1.
</event>
<event>
 5   0  0.7049044E-04  0.1689177E+04  0.7818609E-02  0.8767561E-01
       -2   -1    0    0    0  501  0.00000000000E+00  0.00000000000E+00  0.10074255492E+04  0.10074255492E+04  0.25500000920E-02 0.  1.
        2   -1    0    0  501    0  0.00000000000E+00  0.00000000000E+00 -0.70807224950E+03  0.70807224950E+03  0.25500000920E-02 0. -1.
    10030    2    1    2    0    0  0.00000000000E+00  0.00000000000E+00  0.29935329973E+03  0.17154977987E+04  0.16891774032E+04 0.  0.
        4    1    3    3  502    0 -0.76800806108E+03  0.35127348490E+03  0.15978252467E+03  0.85951236824E+03  0.12699999809E+01 0. -1.
       -4    1    3    3    0  502  0.76800806108E+03 -0.35127348490E+03  0.13957077506E+03  0.85598543050E+03  0.12699999809E+01 0.  1.
</event>
<event>
 5   0  0.3723500E-04  0.1644379E+04  0.7818609E-02  0.8793738E-01
        1   -1    0    0  501    0  0.00000000000E+00  0.00000000000E+00  0.10768974673E+04  0.10768974673E+04  0.50400001928E-02 0.  1.
       -1   -1    0    0    0  501  0.00000000000E+00  0.00000000000E+00 -0.62772544897E+03  0.62772544899E+03  0.50400001928E-02 0. -1.
    10030    2    1    2    0    0  0.00000000000E+00  0.00000000000E+00  0.44917201832E+03  0.17046229163E+04  0.16443794528E+04 0.  0.
        1    1    3    3  502    0 -0.12519254271E+03  0.81014258647E+03  0.29008108585E+03  0.86956955993E+03  0.50400001928E-02 0. -1.
       -1    1    3    3    0  502  0.12519254271E+03 -0.81014258647E+03  0.15909093247E+03  0.83505335637E+03  0.50400001928E-02 0.  1.
</event>
<event>
 5   0  0.3723500E-04  0.1668487E+04  0.7818609E-02  0.8779544E-01
       -1   -1    0    0    0  501  0.00000000000E+00  0.00000000000E+00  0.99629106341E+03  0.99629106342E+03  0.50400001928E-02 0. -1.
        1   -1    0    0  501    0  0.00000000000E+00  0.00000000000E+00 -0.69855331740E+03  0.69855331742E+03  0.50400001928E-02 0.  1.
    10030    2    1    2    0    0  0.00000000000E+00  0.00000000000E+00  0.29773774601E+03  0.16948443808E+04  0.16684872519E+04 0.  0.
        1    1    3    3  502    0 -0.13269366938E+03 -0.49767626758E+03  0.81549270167E+03  0.96452974226E+03  0.50400001928E-02 0. -1.
       -1    1    3    3    0  502  0.13269366938E+03  0.49767626758E+03 -0.51775495566E+03  0.73031463859E+03  0.50400001928E-02 0.  1.
</event>
<event>
 5   0  0.3915701E-04  0.1691877E+04  0.7818609E-02  0.8766011E-01
       -1   -1    0    0    0  501  0.00000000000E+00  0.00000000000E+00  0.37390202360E+03  0.37390202364E+03  0.50400001928E-02 0. -1.
        1   -1    0    0  501    0  0.00000000000E+00  0.00000000000E+00 -0.19139021775E+04  0.19139021775E+04  0.50400001928E-02 0.  1.
    10030    2    1    2    0    0  0.00000000000E+00  0.00000000000E+00 -0.15400001539E+04  0.22878042012E+04  0.16918769426E+04 0.  0.
        2    1    3    3  502    0  0.68073655391E+03 -0.19851061445E+03 -0.14620903256E+03  0.72400676868E+03  0.25500000920E-02 0. -1.
       -2    1    3    3    0  502 -0.68073655391E+03  0.19851061445E+03 -0.13937911214E+04  0.15637974325E+04  0.25500000920E-02 0.  1.
</event>
<event>
 5   0  0.7049044E-04  0.1851514E+04  0.7818609E-02  0.8679375E-01
       -2   -1    0    0    0  501  0.00000000000E+00  0.00000000000E+00  0.45968743613E+03  0.45968743613E+03  0.25500000920E-02 0. -1.
        2   -1    0    0  501    0  0.00000000000E+00  0.00000000000E+00 -0.18643665436E+04  0.18643665436E+04  0.25500000920E-02 0.  1.
    10030    2    1    2    0    0  0.00000000000E+00  0.00000000000E+00 -0.14046791075E+04  0.23240539797E+04  0.18515138416E+04 0.  0.
        4    1    3    3  502    0 -0.85550640200E+02 -0.90937279181E+03 -0.51302834909E+03  0.10476055968E+04  0.12699999809E+01 0.  1.
       -4    1    3    3    0  502  0.85550640200E+02  0.90937279181E+03 -0.89165075838E+03  0.12764483830E+04  0.12699999809E+01 0. -1.
</event>
<event>
 5   0  0.3803253E-04  0.1729370E+04  0.7818609E-02  0.8744789E-01
        1   -1    0    0  501    0  0.00000000000E+00  0.00000000000E+00  0.12352511951E+04  0.12352511951E+04  0.50400001928E-02 0.  1.
       -1   -1    0    0    0  501  0.00000000000E+00  0.00000000000E+00 -0.60528587032E+03  0.60528587034E+03  0.50400001928E-02 0. -1.
    10030    2    1    2    0    0  0.00000000000E+00  0.00000000000E+00  0.62996532482E+03  0.18405370655E+04  0.17293699370E+04 0.  0.
        4    1    3    3  502    0 -0.42600712694E+02  0.31398113171E+03 -0.54127129668E+03  0.62719630205E+03  0.12699999809E+01 0. -1.
       -4    1    3    3    0  502  0.42600712694E+02 -0.31398113171E+03  0.11712366215E+04  0.12133407634E+04  0.12699999809E+01 0.  1.
</event>
<event>
 5   0  0.3635143E-04  0.1702706E+04  0.7818609E-02  0.8759823E-01
        1   -1    0    0  501    0  0.00000000000E+00  0.00000000000E+00  0.13091978711E+04  0.13091978711E+04  0.50400001928E-02 0. -1.
       -1   -1    0    0    0  501  0.00000000000E+00  0.00000000000E+00 -0.55362287160E+03  0.55362287162E+03  0.50400001928E-02 0.  1.
    10030    2    1    2    0    0  0.00000000000E+00  0.00000000000E+00  0.75557499947E+03  0.18628207427E+04  0.17027059463E+04 0.  0.
        3    1    3    3  502    0 -0.70472320045E+03 -0.38090740211E+03  0.69312154700E+03  0.10593123842E+04  0.10100000352E+00 0. -1.
       -3    1    3    3    0  502  0.70472320045E+03  0.38090740211E+03  0.62453452470E+02  0.80350835848E+03  0.10100000352E+00 0.  1.
</event>
<event>
 5   0  0.7233728E-04  0.1633431E+04  0.7818609E-02  0.8800269E-01
       -2   -1    0    0    0  501  0.00000000000E+00  0.00000000000E+00  0.46544875292E+03  0.46544875293E+03  0.25500000920E-02 0. -1.
        2   -1    0    0  501    0  0.00000000000E+00  0.00000000000E+00 -0.14330780471E+04  0.14330780471E+04  0.25500000920E-02 0.  1.
    10030    2    1    2    0    0  0.00000000000E+00  0.00000000000E+00 -0.96762929421E+03  0.18985268001E+04  0.16334312228E+04 0.  0.
        1    1    3    3  502    0 -0.71361283408E+03 -0.37144191199E+02 -0.94347413400E+03  0.11835397794E+04  0.50400001928E-02 0. -1.
       -1    1    3    3    0  502  0.71361283408E+03  0.37144191199E+02 -0.24155160204E+02  0.71498702065E+03  0.50400001928E-02 0.  1.
</event>
<event>
 5   0  0.6746664E-04  0.1668114E+04  0.7818609E-02  0.8779762E-01
        2   -1    0    0  501    0  0.00000000000E+00  0.00000000000E+00  0.18113117604E+04  0.18113117604E+04  0.25500000920E-02 0.  1.
       -2   -1    0    0    0  501  0.00000000000E+00  0.00000000000E+00 -0.38405918061E+03  0.38405918062E+03  0.25500000920E-02 0. -1.
    10030    2    1    2    0    0  0.00000000000E+00  0.00000000000E+00  0.14272525798E+04  0.21953709410E+04  0.16681137977E+04 0.  0.
        5    1    3    3  502    0 -0.28145127222E+03  0.95042928914E+02 -0.31205582333E+03  0.43086993843E+03  0.46999998093E+01 0. -1.
       -5    1    3    3    0  502  0.28145127222E+03 -0.95042928914E+02  0.17393084031E+04  0.17645010026E+04  0.46999998093E+01 0.  1.
</event>
<event>
 5   0  0.3803253E-04  0.1696258E+04  0.7818609E-02  0.8763502E-01
       -1   -1    0    0    0  501  0.00000000000E+00  0.00000000000E+00  0.43333550771E+03  0.43333550774E+03  0.50400001928E-02 0. -1.
        1   -1    0    0  501    0  0.00000000000E+00  0.00000000000E+00 -0.16599665113E+04  0.16599665113E+04  0.50400001928E-02 0.  1.
    10030    2    1    2    0    0  0.00000000000E+00  0.00000000000E+00 -0.12266310036E+04  0.20933020191E+04  0.16962575642E+04 0.  0.
        4    1    3    3  502    0 -0.59777366795E+02 -0.80797723975E+03 -0.30376225393E+03  0.86525930989E+03  0.12699999809E+01 0. -1.
       -4    1    3    3    0  502  0.59777366795E+02  0.80797723975E+03 -0.92286874969E+03  0.12280427092E+04  0.12699999809E+01 0.  1.
</event>
<event>
 5   0  0.7049044E-04  0.1713906E+04  0.7818609E-02  0.8753473E-01
       -2   -1    0    0    0  501  0.00000000000E+00  0.00000000000E+00  0.63468673698E+03  0.63468673699E+03  0.25500000920E-02 0. -1.
        2   -1    0    0  501    0  0.00000000000E+00  0.00000000000E+00 -0.11570559641E+04  0.11570559641E+04  0.25500000920E-02 0.  1.
    10030    2    1    2    0    0  0.00000000000E+00  0.00000000000E+00 -0.52236922716E+03  0.17917427011E+04  0.17139055685E+04 0.  0.
        4    1    3    3  502    0  0.14527478609E+03 -0.46457517065E+03  0.47613441720E+03  0.68091148382E+03  0.12699999809E+01 0. -1.
       -4    1    3    3    0  502 -0.14527478609E+03  0.46457517065E+03 -0.99850364436E+03  0.11108312173E+04  0.12699999809E+01 0.  1.
</event>
<event>
 5   0  0.7025426E-04  0.1477774E+04  0.7818609E-02  0.8899369E-01
       -2   -1    0    0    0  501  0.00000000000E+00  0.00000000000E+00  0.68207895417E+03  0.68207895417E+03  0.25500000920E-02 0. -1.
        2   -1    0    0  501    0  0.00000000000E+00  0.00000000000E+00 -0.80042595360E+03  0.80042595360E+03  0.25500000920E-02 0.  1.
    10030    2    1    2    0    0  0.00000000000E+00  0.00000000000E+00 -0.11834699943E+03  0.14825049078E+04  0.14777735920E+04 0.  0.
        2    1    3    3  502    0  0.25417648659E+03  0.32104585117E+03  0.55783839300E+03  0.69199696358E+03  0.25500000920E-02 0. -1.
       -2    1    3    3    0  502 -0.25417648659E+03 -0.32104585117E+03 -0.67618539244E+03  0.79050794420E+03  0.25500000920E-02 0.  1.
</event>
<event>
 5   0  0.3723500E-04  0.1722370E+04  0.7818609E-02  0.8748708E-01
       -1   -1    0    0    0  501  0.00000000000E+00  0.00000000000E+00  0.60207462020E+03  0.60207462022E+03  0.50400001928E-02 0. -1.
        1   -1    0    0  501    0  0.00000000000E+00  0.00000000000E+00 -0.12318068508E+04  0.12318068508E+04  0.50400001928E-02 0.  1.
    10030    2    1    2    0    0  0.00000000000E+00  0.00000000000E+00 -0.62973223059E+03  0.18338814710E+04  0.17223700437E+04 0.  0.
        1    1    3    3  502    0 -0.73414427294E+03 -0.44492407432E+03 -0.24175930264E+03  0.89183675964E+03  0.50400001928E-02 0. -1.
       -1    1    3    3    0  502  0.73414427294E+03  0.44492407432E+03 -0.38797292795E+03  0.94204471139E+03  0.50400001928E-02 0.  1.
</event>
<event>
 5   0  0.7025426E-04  0.1704468E+04  0.7818609E-02  0.8758820E-01
        2   -1    0    0  501    0  0.00000000000E+00  0.00000000000E+00  0.90867603670E+03  0.90867603671E+03  0.25500000920E-02 0. -1.
       -2   -1    0    0    0  501  0.00000000000E+00  0.00000000000E+00 -0.79929739518E+03  0.79929739518E+03  0.25500000920E-02 0.  1.
    10030    2    1    2    0    0  0.00000000000E+00  0.00000000000E+00  0.10937864153E+03  0.17079734319E+04  0.17044675288E+04 0.  0.
        2    1    3    3  502    0 -0.66263088042E+01  0.60458969064E+03  0.65653255344E+03  0.89252876465E+03  0.25500000920E-02 0. -1.
       -2    1    3    3    0  502  0.66263088042E+01 -0.60458969064E+03 -0.54715391191E+03  0.81544466724E+03  0.25500000920E-02 0.  1.
</event>
<event>
 5   0  0.3915701E-04  0.1705405E+04  0.7818609E-02  0.8758288E-01
       -1   -1    0    0    0  501  0.00000000000E+00  0.00000000000E+00  0.31592190031E+03  0.31592190035E+03  0.50400001928E-02 0.  1.
        1   -1    0    0  501    0  0.00000000000E+00  0.00000000000E+00 -0.23015232577E+04  0.23015232577E+04  0.50400001928E-02 0. -1.
    10030    2    1    2    0    0  0.00000000000E+00  0.00000000000E+00 -0.19856013574E+04  0.26174451580E+04  0.17054050560E+04 0.  0.
        2    1    3    3  502    0  0.42524528641E+03 -0.71951128917E+03 -0.73337260948E+03  0.11119197063E+04  0.25500000920E-02 0.  1.
       -2    1    3    3    0  502 -0.42524528641E+03  0.71951128917E+03 -0.12522287479E+04  0.15055254517E+04  0.25500000920E-02 0. -1.
</event>
<event>
 5   0  0.3803253E-04  0.1708559E+04  0.7818609E-02  0.8756498E-01
        1   -1    0    0  501    0  0.00000000000E+00  0.00000000000E+00  0.78365254801E+03  0.78365254803E+03  0.50400001928E-02 0.  1.
       -1   -1    0    0    0  501  0.00000000000E+00  0.00000000000E+00 -0.93127209449E+03  0.93127209450E+03  0.50400001928E-02 0. -1.
    10030    2    1    2    0    0  0.00000000000E+00  0.00000000000E+00 -0.14761954648E+03  0.17149246425E+04  0.17085593344E+04 0.  0.
        4    1    3    3  502    0 -0.74955354398E+03  0.50549586180E+02  0.33440721943E+03  0.82232328027E+03  0.12699999809E+01 0.  1.
       -4    1    3    3    0  502  0.74955354398E+03 -0.50549586180E+02 -0.48202676591E+03  0.89260136226E+03  0.12699999809E+01 0. -1.
</event>
<event>
 5   0  0.7233728E-04  0.1681552E+04  0.7818609E-02  0.8771957E-01
       -2   -1    0    0    0  501  0.00000000000E+00  0.00000000000E+00  0.30498023734E+03  0.30498023735E+03  0.25500000920E-02 0. -1.
        2   -1    0    0  501    0  0.00000000000E+00  0.00000000000E+00 -0.23178682101E+04  0.23178682101E+04  0.25500000920E-02 0.  1.
    10030    2    1    2    0    0  0.00000000000E+00  0.00000000000E+00 -0.20128879727E+04  0.26228484474E+04  0.16815516606E+04 0.  0.
        1    1    3    3  502    0  0.78195217699E+03 -0.13541272283E+03 -0.14395970400E+04  0.16438447160E+04  0.50400001928E-02 0.  1.
       -1    1    3    3    0  502 -0.78195217699E+03  0.13541272283E+03 -0.57329093272E+03  0.97900373144E+03  0.50400001928E-02 0. -1.
</event>
<event>
 5   0  0.7025426E-04  0.1726414E+04  0.7818609E-02  0.8746441E-01
       -2   -1    0    0    0  501  0.00000000000E+00  0.00000000000E+00  0.72976451202E+03  0.72976451203E+03  0.25500000920E-02 0. -1.
        2   -1    0    0  501    0  0.00000000000E+00  0.00000000000E+00 -0.10210508907E+04  0.10210508907E+04  0.25500000920E-02 0.  1.
    10030    2    1    2    0    0  0.00000000000E+00  0.00000000000E+00 -0.29128637872E+03  0.17508154028E+04  0.17264144404E+04 0.  0.
        2    1    3    3  502    0  0.10866211003E+03  0.20961993258E+03 -0.98766674289E+03  0.10154967087E+04  0.25500000920E-02 0.  1.
       -2    1    3    3    0  502 -0.10866211003E+03 -0.20961993258E+03  0.69638036417E+03  0.73531869410E+03  0.25500000920E-02 0. -1.
</event>
<event>
 5   0  0.3723500E-04  0.1693086E+04  0.7818609E-02  0.8765317E-01
        1   -1    0    0  501    0  0.00000000000E+00  0.00000000000E+00  0.80018395101E+03  0.80018395102E+03  0.50400001928E-02 0. -1.
       -1   -1    0    0    0  501  0.00000000000E+00  0.00000000000E+00 -0.89558807499E+03  0.89558807500E+03  0.50400001928E-02 0.  1.
    10030    2    1    2    0    0  0.00000000000E+00  0.00000000000E+00 -0.95404123981E+02  0.16957720260E+04  0.16930861813E+04 0.  0.
        1    1    3    3  502    0  0.42567067997E+03 -0.13567500385E+03  0.67248796084E+03  0.80736812666E+03  0.50400001928E-02 0. -1.
       -1    1    3    3    0  502 -0.42567067997E+03  0.13567500385E+03 -0.76789208482E+03  0.88840389936E+03  0.50400001928E-02 0.  1.
</event>
<event>
 5   0  0.3915701E-04  0.1520289E+04  0.7818609E-02  0.8871072E-01
        1   -1    0    0  501    0  0.00000000000E+00  0.00000000000E+00  0.15515280011E+04  0.15515280011E+04  0.50400001928E-02 0. -1.
       -1   -1    0    0    0  501  0.00000000000E+00  0.00000000000E+00 -0.37241985272E+03  0.37241985275E+03  0.50400001928E-02 0.  1.
    10030    2    1    2    0    0  0.00000000000E+00  0.00000000000E+00  0.11791081484E+04  0.19239478538E+04  0.15202892221E+04 0.  0.
        2    1    3    3  502    0 -0.13798272839E+03  0.26078568587E+03  0.14761111761E+04  0.15053081450E+04  0.25500000920E-02 0. -1.
       -2    1    3    3    0  502  0.13798272839E+03 -0.26078568587E+03 -0.29700302774E+03  0.41863970880E+03  0.25500000920E-02 0.  1.
</event>
<event>
 5   0  0.7233728E-04  0.1723728E+04  0.7818609E-02  0.8747946E-01
       -2   -1    0    0    0  501  0.00000000000E+00  0.00000000000E+00  0.69132134854E+03  0.69132134855E+03  0.25500000920E-02 0. -1.
        2   -1    0    0  501    0  0.00000000000E+00  0.00000000000E+00 -0.10744775381E+04  0.10744775381E+04  0.25500000920E-02 0.  1.
    10030    2    1    2    0    0  0.00000000000E+00  0.00000000000E+00 -0.38315618959E+03  0.17657988867E+04  0.17237276591E+04 0.  0.
        1    1    3    3  502    0  0.96988816663E+02 -0.88816097535E+02 -0.10641385488E+04  0.10722341072E+04  0.50400001928E-02 0.  1.
       -1    1    3    3    0  502 -0.96988816663E+02  0.88816097535E+02  0.68098235918E+03  0.69356477944E+03  0.50400001928E-02 0. -1.
</event>
<event>
 5   0  0.3915701E-04  0.1706518E+04  0.7818609E-02  0.8757656E-01
       -1   -1    0    0    0  501  0.00000000000E+00  0.00000000000E+00  0.68337343720E+03  0.68337343722E+03  0.50400001928E-02 0. -1.
        1   -1    0    0  501    0  0.00000000000E+00  0.00000000000E+00 -0.10653778828E+04  0.10653778829E+04  0.50400001928E-02 0.  1.
    10030    2    1    2    0    0  0.00000000000E+00  0.00000000000E+00 -0.38200444565E+03  0.17487513201E+04  0.17065180289E+04 0.  0.
        2    1    3    3  502    0 -0.25478044428E+03  0.77049469081E+03 -0.46110805404E+03  0.93337869102E+03  0.25500000920E-02 0.  1.
       -2    1    3    3    0  502  0.25478044428E+03 -0.77049469081E+03  0.79103608392E+02  0.81537262906E+03  0.25500000920E-02 0. -1.
</event>
<event>
 5   0  0.3635143E-04  0.1797382E+04  0.7818609E-02  0.8707693E-01
        1   -1    0    0  501    0  0.00000000000E+00  0.00000000000E+00  0.12847806901E+04  0.12847806902E+04  0.50400001928E-02 0. -1.
       -1   -1    0    0    0  501  0.00000000000E+00  0.00000000000E+00 -0.62862550217E+03  0.62862550219E+03  0.50400001928E-02 0.  1.
    10030    2    1    2    0    0  0.00000000000E+00  0.00000000000E+00  0.65615518798E+03  0.19134061923E+04  0.17973824374E+04 0.  0.
        3    1    3    3  502    0 -0.79019450466E+03  0.25672608712E+03 -0.36568606708E+02  0.83165672738E+03  0.10100000352E+00 0.  1.
       -3    1    3    3    0  502  0.79019450466E+03 -0.25672608712E+03  0.69272379468E+03  0.10817494650E+04  0.10100000352E+00 0. -1.
</event>
<event>
 5   0  0.7049044E-04  0.1726907E+04  0.7818609E-02  0.8746166E-01
        2   -1    0    0  501    0  0.00000000000E+00  0.00000000000E+00  0.19242015658E+04  0.19242015658E+04  0.25500000920E-02 0. -1.
       -2   -1    0    0    0  501  0.00000000000E+00  0.00000000000E+00 -0.38746020511E+03  0.38746020512E+03  0.25500000920E-02 0.  1.
    10030    2    1    2    0    0  0.00000000000E+00  0.00000000000E+00  0.15367413607E+04  0.23116617709E+04  0.17269065214E+04 0.  0.
        4    1    3    3  502    0 -0.74422725415E+03 -0.39719609182E+03  0.10148756205E+04  0.13197018903E+04  0.12699999809E+01 0. -1.
       -4    1    3    3    0  502  0.74422725415E+03  0.39719609182E+03  0.52186574021E+03  0.99195988068E+03  0.12699999809E+01 0.  1.
</event>
<event>
 5   0  0.7049044E-04  0.1597314E+04  0.7818609E-02  0.8822200E-01
       -2   -1    0    0    0  501  0.00000000000E+00  0.00000000000E+00  0.39837931802E+03  0.39837931803E+03  0.25500000920E-02 0. -1.
        2   -1    0    0  501    0  0.00000000000E+00  0.00000000000E+00 -0.16011206146E+04  0.16011206146E+04  0.25500000920E-02 0.  1.
    10030    2    1    2    0    0  0.00000000000E+00  0.00000000000E+00 -0.12027412965E+04  0.19994999326E+04  0.15973144193E+04 0.  0.
        4    1    3    3  502    0  0.45204458350E+03  0.52369084581E+03 -0.11009194870E+04  0.13002391077E+04  0.12699999809E+01 0.  1.
       -4    1    3    3    0  502 -0.45204458350E+03 -0.52369084581E+03 -0.10182180958E+03  0.69926082492E+03  0.12699999809E+01 0. -1.
</event>
<event>
 5   0  0.7049044E-04  0.1763832E+04  0.7818609E-02  0.8725773E-01
       -2   -1    0    0    0  501  0.00000000000E+00  0.00000000000E+00  0.12258928766E+04  0.12258928766E+04  0.25500000920E-02 0. -1.
        2   -1    0    0  501    0  0.00000000000E+00  0.00000000000E+00 -0.63445640306E+03  0.63445640307E+03  0.25500000920E-02 0.  1.
    10030    2    1    2    0    0  0.00000000000E+00  0.00000000000E+00  0.59143647356E+03  0.18603492797E+04  0.17638317211E+04 0.  0.
        4    1    3    3  502    0 -0.60318163880E+03 -0.54104556191E+03 -0.71493512557E+02  0.81343181932E+03  0.12699999809E+01 0. -1.
       -4    1    3    3    0  502  0.60318163880E+03  0.54104556191E+03  0.66292998611E+03  0.10469174604E+04  0.12699999809E+01 0.  1.
</event>
<event>
 5   0  0.7242144E-04  0.1653360E+04  0.7818609E-02  0.8788421E-01
       -2   -1    0    0    0  501  0.00000000000E+00  0.00000000000E+00  0.65751664546E+03  0.65751664547E+03  0.25500000920E-02 0. -1.
        2   -1    0    0  501    0  0.00000000000E+00  0.00000000000E+00 -0.10393645035E+04  0.10393645035E+04  0.25500000920E-02 0.  1.
    10030    2    1    2    0    0  0.00000000000E+00  0.00000000000E+00 -0.38184785808E+03  0.16968811490E+04  0.16533595638E+04 0.  0.
        3    1    3    3  502    0 -0.75882034675E+03  0.77961150759E+01  0.14562611365E+03  0.77270697760E+03  0.10100000352E+00 0. -1.
       -3    1    3    3    0  502  0.75882034675E+03 -0.77961150759E+01 -0.52747397173E+03  0.92417417141E+03  0.10100000352E+00 0.  1.
</event>
<event>
 5   0  0.3723500E-04  0.1717608E+04  0.7818609E-02  0.8751385E-01
       -1   -1    0    0    0  501  0.00000000000E+00  0.00000000000E+00  0.57850612122E+03  0.57850612124E+03  0.50400001928E-02 0.  1.
        1   -1    0    0  501    0  0.00000000000E+00  0.00000000000E+00 -0.12749119948E+04  0.12749119948E+04  0.50400001928E-02 0. -1.
    10030    2    1    2    0    0  0.00000000000E+00  0.00000000000E+00 -0.69640587359E+03  0.18534181161E+04  0.17176080962E+04 0.  0.
        1    1    3    3  502    0 -0.23157772506E+03  0.69137621241E+03  0.14145568398E+03  0.74272405399E+03  0.50400001928E-02 0.  1.
       -1    1    3    3    0  502  0.23157772506E+03 -0.69137621241E+03 -0.83786155756E+03  0.11106940621E+04  0.50400001928E-02 0. -1.
</event>
<event>
 5   0  0.7025426E-04  0.1781724E+04  0.7818609E-02  0.8716079E-01
        2   -1    0    0  501    0  0.00000000000E+00  0.00000000000E+00  0.78498267463E+03  0.78498267463E+03  0.25500000920E-02 0. -1.
       -2   -1    0    0    0  501  0.00000000000E+00  0.00000000000E+00 -0.10110224531E+04  0.10110224531E+04  0.25500000920E-02 0.  1.
    10030    2    1    2    0    0  0.00000000000E+00  0.00000000000E+00 -0.22603977846E+03  0.17960051277E+04  0.17817240071E+04 0.  0.
        2    1    3    3  502    0 -0.50017905958E+03  0.42473687792E+03 -0.72038957715E+03  0.97444427752E+03  0.25500000920E-02 0.  1.
       -2    1    3    3    0  502  0.50017905958E+03 -0.42473687792E+03  0.49434979870E+03  0.82156085021E+03  0.25500000920E-02 0. -1.
</event>
<event>
 5   0  0.7233728E-04  0.1690013E+04  0.7818609E-02  0.8767081E-01
       -2   -1    0    0    0  501  0.00000000000E+00  0.00000000000E+00  0.47697430503E+03  0.47697430503E+03  0.25500000920E-02 0. -1.
        2   -1    0    0  501    0  0.00000000000E+00  0.00000000000E+00 -0.14970107965E+04  0.14970107965E+04  0.25500000920E-02 0.  1.
    10030    2    1    2    0    0  0.00000000000E+00  0.00000000000E+00 -0.10200364914E+04  0.19739851015E+04  0.16900126441E+04 0.  0.
        1    1    3    3  502    0 -0.52429259845E+03  0.48173303784E+03  0.21513898672E+02  0.71232878392E+03  0.50400001928E-02 0. -1.
       -1    1    3    3    0  502  0.52429259845E+03 -0.48173303784E+03 -0.10415503901E+04  0.12616563176E+04  0.50400001928E-02 0.  1.
</event>
<event>
 5   0  0.3915701E-04  0.1666615E+04  0.7818609E-02  0.8780637E-01
        1   -1    0    0  501    0  0.00000000000E+00  0.00000000000E+00  0.98548872511E+03  0.98548872512E+03  0.50400001928E-02 0. -1.
       -1   -1    0    0    0  501  0.00000000000E+00  0.00000000000E+00 -0.70462638048E+03  0.70462638050E+03  0.50400001928E-02 0.  1.
    10030    2    1    2    0    0  0.00000000000E+00  0.00000000000E+00  0.28086234463E+03  0.16901151056E+04  0.16666149566E+04 0.  0.
        2    1    3    3  502    0  0.80270650952E+03  0.16174727443E+03  0.29721200647E+03  0.87111130059E+03  0.25500000920E-02 0.  1.
       -2    1    3    3    0  502 -0.80270650952E+03 -0.16174727443E+03 -0.16349661842E+02  0.81900380504E+03  0.25500000920E-02 0. -1.
</event>
<event>
 5   0  0.3915701E-04  0.1629011E+04  0.7818609E-02  0.8802921E-01
       -1   -1    0    0    0  501  0.00000000000E+00  0.00000000000E+00  0.10508976026E+04  0.10508976026E+04  0.50400001928E-02 0.  1.
        1   -1    0    0  501    0  0.00000000000E+00  0.00000000000E+00 -0.63128806039E+03  0.63128806041E+03  0.50400001928E-02 0. -1.
    10030    2    1    2    0    0  0.00000000000E+00  0.00000000000E+00  0.41960954220E+03  0.16821856630E+04  0.16290108769E+04 0.  0.
        2    1    3    3  502    0 -0.14941974507E+03  0.28376954026E+03  0.98295515703E+03  0.10339498310E+04  0.25500000920E-02 0.  1.
       -2    1    3    3    0  502  0.14941974507E+03 -0.28376954026E+03 -0.56334561484E+03  0.64823583206E+03  0.25500000920E-02 0. -1.
</event>
<event>
 5   0  0.7049044E-04  0.1651827E+04  0.7818609E-02  0.8789327E-01
       -2   -1    0    0    0  501  0.00000000000E+00  0.00000000000E+00  0.10481418688E+04  0.10481418688E+04  0.25500000920E-02 0.  1.
        2   -1    0    0  501    0  0.00000000000E+00  0.00000000000E+00 -0.65080201214E+03  0.65080201215E+03  0.25500000920E-02 0. -1.
    10030    2    1    2    0    0  0.00000000000E+00  0.00000000000E+00  0.39733985670E+03  0.16989438810E+04  0.16518266704E+04 0.  0.
        4    1    3    3  502    0 -0.57050521103E+03  0.45334158205E+03 -0.20118196028E+03  0.75595673148E+03  0.12699999809E+01 0. -1.
       -4    1    3    3    0  502  0.57050521103E+03 -0.45334158205E+03  0.59852181698E+03  0.94298714951E+03  0.12699999809E+01 0.  1.
</event>
<event>
 5   0  0.7049044E-04  0.1679847E+04  0.7818609E-02  0.8772943E-01
       -2   -1    0    0    0  501  0.00000000000E+00  0.00000000000E+00  0.88299300795E+03  0.88299300795E+03  0.25500000920E-02 0.  1.
        2   -1    0    0  501    0  0.00000000000E+00  0.00000000000E+00 -0.79895455028E+03  0.79895455028E+03  0.25500000920E-02 0. -1.
    10030    2    1    2    0    0  0.00000000000E+00  0.00000000000E+00  0.84038457668E+02  0.16819475582E+04  0.16798467568E+04 0.  0.
        4    1    3    3  502    0  0.39284879871E+03 -0.57239404444E+03  0.51537313775E+03  0.86462489252E+03  0.12699999809E+01 0.  1.
       -4    1    3    3    0  502 -0.39284879871E+03  0.57239404444E+03 -0.43133468008E+03  0.81732266572E+03  0.12699999809E+01 0. -1.
</event>
<event>
 5   0  0.7049044E-04  0.1729116E+04  0.7818609E-02  0.8744931E-01
       -2   -1    0    0    0  501  0.00000000000E+00  0.00000000000E+00  0.78541581230E+03  0.78541581230E+03  0.25500000920E-02 0.  1.
        2   -1    0    0  501    0  0.00000000000E+00  0.00000000000E+00 -0.95167485561E+03  0.95167485561E+03  0.25500000920E-02 0. -1.
    10030    2    1    2    0    0  0.00000000000E+00  0.00000000000E+00 -0.16625904331E+03  0.17370906679E+04  0.17291159357E+04 0.  0.
        4    1    3    3  502    0  0.15657645954E+03 -0.33069381736E+03  0.70379936097E+03  0.79322742131E+03  0.12699999809E+01 0.  1.
       -4    1    3    3    0  502 -0.15657645954E+03  0.33069381736E+03 -0.87005840428E+03  0.94386324660E+03  0.12699999809E+01 0. -1.
</event>
<event>
 5   0  0.3635143E-04  0.1701189E+04  0.7818609E-02  0.8760686E-01
        1   -1    0    0  501    0  0.00000000000E+00  0.00000000000E+00  0.83559581656E+03  0.83559581658E+03  0.50400001928E-02 0. -1.
       -1   -1    0    0    0  501  0.00000000000E+00  0.00000000000E+00 -0.86586282985E+03  0.86586282986E+03  0.50400001928E-02 0.  1.
    10030    2    1    2    0    0  0.00000000000E+00  0.00000000000E+00 -0.30267013284E+02  0.17014586464E+04  0.17011894173E+04 0.  0.
        3    1    3    3  502    0  0.40147914296E+03  0.73888462440E+03 -0.14311999528E+03  0.85300605722E+03  0.10100000352E+00 0.  1.
       -3    1    3    3    0  502 -0.40147914296E+03 -0.73888462440E+03  0.11285298200E+03  0.84845258922E+03  0.10100000352E+00 0. -1.
</event>
<event>
 5   0  0.3713516E-04  0.1709924E+04  0.7818609E-02  0.8755725E-01
       -1   -1    0    0    0  501  0.00000000000E+00  0.00000000000E+00  0.10488915154E+04  0.10488915154E+04  0.50400001928E-02 0.  1.
        1   -1    0    0  501    0  0.00000000000E+00  0.00000000000E+00 -0.69688781360E+03  0.69688781362E+03  0.50400001928E-02 0. -1.
    10030    2    1    2    0    0  0.00000000000E+00  0.00000000000E+00  0.35200370183E+03  0.17457793291E+04  0.17099236415E+04 0.  0.
        5    1    3    3  502    0 -0.71560822912E+03 -0.31910185327E+03 -0.17324795381E+03  0.80246998314E+03  0.46999998093E+01 0. -1.
       -5    1    3    3    0  502  0.71560822912E+03  0.31910185327E+03  0.52525165564E+03  0.94330934592E+03  0.46999998093E+01 0.  1.
</event>
<event>
 5   0  0.7025426E-04  0.1721926E+04  0.7818609E-02  0.8748957E-01
        2   -1    0    0  501    0  0.00000000000E+00  0.00000000000E+00  0.14194808982E+04  0.14194808982E+04  0.25500000920E-02 0. -1.
       -2   -1    0    0    0  501  0.00000000000E+00  0.00000000000E+00 -0.52220288057E+03  0.52220288057E+03  0.25500000920E-02 0.  1.
    10030    2    1    2    0    0  0.00000000000E+00  0.00000000000E+00  0.89727801761E+03  0.19416837788E+04  0.17219256824E+04 0.  0.
        2    1    3    3  502    0  0.59048060670E+03 -0.25159716375E+03  0.10957107046E+04  0.12698623657E+04  0.25500000920E-02 0. -1.
       -2    1    3    3    0  502 -0.59048060670E+03  0.25159716375E+03 -0.19843268701E+03  0.67182141301E+03  0.25500000920E-02 0.  1.
</event>
<event>
 5   0  0.3915701E-04  0.1636949E+04  0.7818609E-02  0.8798165E-01
        1   -1    0    0  501    0  0.00000000000E+00  0.00000000000E+00  0.15354467291E+04  0.15354467291E+04  0.50400001928E-02 0. -1.
       -1   -1    0    0    0  501  0.00000000000E+00  0.00000000000E+00 -0.43629029004E+03  0.43629029007E+03  0.50400001928E-02 0.  1.
    10030    2    1    2    0    0  0.00000000000E+00  0.00000000000E+00  0.10991564390E+04  0.19717370191E+04  0.16369489898E+04 0.  0.
        2    1    3    3  502    0 -0.45073641551E+02  0.30075719863E+03  0.14648656299E+04  0.14961008788E+04  0.25500000920E-02 0. -1.
       -2    1    3    3    0  502  0.45073641551E+02 -0.30075719863E+03 -0.36570919092E+03  0.47563614036E+03  0.25500000920E-02 0.  1.
</event>
<event>
 5   0  0.3915701E-04  0.1798047E+04  0.7818609E-02  0.8707338E-01
        1   -1    0    0  501    0  0.00000000000E+00  0.00000000000E+00  0.13114589450E+04  0.13114589450E+04  0.50400001928E-02 0. -1.
       -1   -1    0    0    0  501  0.00000000000E+00  0.00000000000E+00 -0.61629352902E+03  0.61629352904E+03  0.50400001928E-02 0.  1.
    10030    2    1    2    0    0  0.00000000000E+00  0.00000000000E+00  0.69516541595E+03  0.19277524740E+04  0.17980474536E+04 0.  0.
        2    1    3    3  502    0 -0.59569743945E+03 -0.50283763360E+03  0.82770665905E+03  0.11370133854E+04  0.25500000920E-02 0.  1.
       -2    1    3    3    0  502  0.59569743945E+03  0.50283763360E+03 -0.13254124310E+03  0.79073908861E+03  0.25500000920E-02 0. -1.
</event>
<event>
 5   0  0.3723500E-04  0.1730638E+04  0.7818609E-02  0.8744081E-01
       -1   -1    0    0    0  501  0.00000000000E+00  0.00000000000E+00  0.10423661924E+04  0.10423661924E+04  0.50400001928E-02 0.  1.
        1   -1    0    0  501    0  0.00000000000E+00  0.00000000000E+00 -0.71834310146E+03  0.71834310148E+03  0.50400001928E-02 0. -1.
    10030    2    1    2    0    0  0.00000000000E+00  0.00000000000E+00  0.32402309092E+03  0.17607092939E+04  0.17306375282E+04 0.  0.
        1    1    3    3  502    0 -0.24669310374E+03  0.82690026378E+03  0.96431968315E+02  0.86828604631E+03  0.50400001928E-02 0.  1.
       -1    1    3    3    0  502  0.24669310374E+03 -0.82690026378E+03  0.22759112261E+03  0.89242324756E+03  0.50400001928E-02 0. -1.
</event>
<event>
 5   0  0.7025426E-04  0.1139082E+04  0.7818609E-02  0.9167915E-01
       -2   -1    0    0    0  501  0.00000000000E+00  0.00000000000E+00  0.36667636270E+03  0.36667636271E+03  0.25500000920E-02 0. -1.
        2   -1    0    0  501    0  0.00000000000E+00  0.00000000000E+00 -0.88464078125E+03  0.88464078125E+03  0.25500000920E-02 0.  1.
    10030    2    1    2    0    0  0.00000000000E+00  0.00000000000E+00 -0.51796441854E+03  0.12513171440E+04  0.11390818478E+04 0.  0.
        2    1    3    3  502    0 -0.60240715074E+02  0.30251412219E+03  0.26697589601E+03  0.40794591177E+03  0.25500000920E-02 0. -1.
       -2    1    3    3    0  502  0.60240715074E+02 -0.30251412219E+03 -0.78494031455E+03  0.84337123219E+03  0.25500000920E-02 0.  1.
</event>
<event>
 5   0  0.7049044E-04  0.1724081E+04  0.7818609E-02  0.8747748E-01
       -2   -1    0    0    0  501  0.00000000000E+00  0.00000000000E+00  0.90074510797E+03  0.90074510797E+03  0.25500000920E-02 0. -1.
        2   -1    0    0  501    0  0.00000000000E+00  0.00000000000E+00 -0.82499916700E+03  0.82499916700E+03  0.25500000920E-02 0.  1.
    10030    2    1    2    0    0  0.00000000000E+00  0.00000000000E+00  0.75745940974E+02  0.17257442750E+04  0.17240811625E+04 0.  0.
        4    1    3    3  502    0 -0.24196027307E+03 -0.79190327916E+03 -0.20205968026E+03  0.85234107291E+03  0.12699999809E+01 0.  1.
       -4    1    3    3    0  502  0.24196027307E+03  0.79190327916E+03  0.27780562124E+03  0.87340320206E+03  0.12699999809E+01 0. -1.
</event>
<event>
 5   0  0.3723500E-04  0.1993973E+04  0.7818609E-02  0.8609444E-01
       -1   -1    0    0    0  501  0.00000000000E+00  0.00000000000E+00  0.75436844676E+03  0.75436844678E+03  0.50400001928E-02 0.  1.
        1   -1    0    0  501    0  0.00000000000E+00  0.00000000000E+00 -0.13176351411E+04  0.13176351411E+04  0.50400001928E-02 0. -1.
    10030    2    1    2    0    0  0.00000000000E+00  0.00000000000E+00 -0.56326669435E+03  0.20720035879E+04  0.19939732945E+04 0.  0.
        1    1    3    3  502    0  0.84645647238E+03  0.10328213873E+03  0.25513356763E+03  0.89008364617E+03  0.50400001928E-02 0.  1.
       -1    1    3    3    0  502 -0.84645647238E+03 -0.10328213873E+03 -0.81840026198E+03  0.11819199417E+04  0.50400001928E-02 0. -1.
</event>
<event>
 5   0  0.7233728E-04  0.1724380E+04  0.7818609E-02  0.8747581E-01
       -2   -1    0    0    0  501  0.00000000000E+00  0.00000000000E+00  0.32211628522E+03  0.32211628523E+03  0.25500000920E-02 0.  1.
        2   -1    0    0  501    0  0.00000000000E+00  0.00000000000E+00 -0.23077734108E+04  0.23077734108E+04  0.25500000920E-02 0. -1.
    10030    2    1    2    0    0  0.00000000000E+00  0.00000000000E+00 -0.19856571256E+04  0.26298896960E+04  0.17243797705E+04 0.  0.
        1    1    3    3  502    0  0.52593026047E+03  0.65695426863E+03 -0.70677221132E+03  0.10989624692E+04  0.50400001928E-02 0.  1.
       -1    1    3    3    0  502 -0.52593026047E+03 -0.65695426863E+03 -0.12788849143E+04  0.15309272269E+04  0.50400001928E-02 0. -1.
</event>
<event>
 5   0  0.3915701E-04  0.1674007E+04  0.7818609E-02  0.8776330E-01
       -1   -1    0    0    0  501  0.00000000000E+00  0.00000000000E+00  0.54611049818E+03  0.54611049820E+03  0.50400001928E-02 0. -1.
        1   -1    0    0  501    0  0.00000000000E+00  0.00000000000E+00 -0.12828442859E+04  0.12828442859E+04  0.50400001928E-02 0.  1.
    10030    2    1    2    0    0  0.00000000000E+00  0.00000000000E+00 -0.73673378775E+03  0.18289547841E+04  0.16740068484E+04 0.  0.
        2    1    3    3  502    0 -0.27750931448E+03  0.36906376317E+03 -0.11310929158E+04  0.12217162785E+04  0.25500000920E-02 0.  1.
       -2    1    3    3    0  502  0.27750931448E+03 -0.36906376317E+03  0.39435912803E+03  0.60723850568E+03  0.25500000920E-02 0. -1.
</event>
<event>
 5   0  0.3723500E-04  0.1691408E+04  0.7818609E-02  0.8766280E-01
       -1   -1    0    0    0  501  0.00000000000E+00  0.00000000000E+00  0.46063815349E+03  0.46063815352E+03  0.50400001928E-02 0. -1.
        1   -1    0    0  501    0  0.00000000000E+00  0.00000000000E+00 -0.15526608992E+04  0.15526608992E+04  0.50400001928E-02 0.  1.
    10030    2    1    2    0    0  0.00000000000E+00  0.00000000000E+00 -0.10920227457E+04  0.20132990527E+04  0.16914075199E+04 0.  0.
        1    1    3    3  502    0  0.53224553408E+03 -0.30420270607E+03  0.14742994651E+03  0.63052373792E+03  0.50400001928E-02 0. -1.
       -1    1    3    3    0  502 -0.53224553408E+03  0.30420270607E+03 -0.12394526922E+04  0.13827753148E+04  0.50400001928E-02 0.  1.
</event>
<event>
 5   0  0.3723500E-04  0.1703789E+04  0.7818609E-02  0.8759206E-01
        1   -1    0    0  501    0  0.00000000000E+00  0.00000000000E+00  0.10615757846E+04  0.10615757846E+04  0.50400001928E-02 0. -1.
       -1   -1    0    0    0  501  0.00000000000E+00  0.00000000000E+00 -0.68362938030E+03  0.68362938031E+03  0.50400001928E-02 0.  1.
    10030    2    1    2    0    0  0.00000000000E+00  0.00000000000E+00  0.37794640429E+03  0.17452051649E+04  0.17037891839E+04 0.  0.
        1    1    3    3  502    0 -0.37092856581E+03 -0.22524455605E+03 -0.56192312989E+03  0.70998641881E+03  0.50400001928E-02 0.  1.
       -1    1    3    3    0  502  0.37092856581E+03  0.22524455605E+03  0.93986953418E+03  0.10352187461E+04  0.50400001928E-02 0. -1.
</event>
<event>
 5   0  0.3723500E-04  0.1664080E+04  0.7818609E-02  0.8782120E-01
       -1   -1    0    0    0  501  0.00000000000E+00  0.00000000000E+00  0.56701487374E+03  0.56701487377E+03  0.50400001928E-02 0. -1.
        1   -1    0    0  501    0  0.00000000000E+00  0.00000000000E+00 -0.12209390840E+04  0.12209390840E+04  0.50400001928E-02 0.  1.
    10030    2    1    2    0    0  0.00000000000E+00  0.00000000000E+00 -0.65392421026E+03  0.17879539578E+04  0.16640800709E+04 0.  0.
        1    1    3    3  502    0 -0.29993289099E+03 -0.72883627026E+03 -0.61351457638E+03  0.99878034793E+03  0.50400001928E-02 0.  1.
       -1    1    3    3    0  502  0.29993289099E+03  0.72883627026E+03 -0.40409633875E+02  0.78917360985E+03  0.50400001928E-02 0. -1.
</event>
<event>
 5   0  0.3723500E-04  0.1689188E+04  0.7818609E-02  0.8767555E-01
        1   -1    0    0  501    0  0.00000000000E+00  0.00000000000E+00  0.49453376437E+03  0.49453376440E+03  0.50400001928E-02 0.  1.
       -1   -1    0    0    0  501  0.00000000000E+00  0.00000000000E+00 -0.14424477051E+04  0.14424477051E+04  0.50400001928E-02 0. -1.
    10030    2    1    2    0    0  0.00000000000E+00  0.00000000000E+00 -0.94791394074E+03  0.19369814695E+04  0.16891880814E+04 0.  0.
        1    1    3    3  502    0 -0.37455394390E+03 -0.36045621438E+02  0.39310516558E+03  0.54417057523E+03  0.50400001928E-02 0.  1.
       -1    1    3    3    0  502  0.37455394390E+03  0.36045621438E+02 -0.13410191063E+04  0.13928108943E+04  0.50400001928E-02 0. -1.
</event>
<event>
 5   0  0.3915701E-04  0.1590843E+04  0.7818609E-02  0.8826193E-01
        1   -1    0    0  501    0  0.00000000000E+00  0.00000000000E+00  0.11072882081E+04  0.11072882082E+04  0.50400001928E-02 0. -1.
       -1   -1    0    0    0  501  0.00000000000E+00  0.00000000000E+00 -0.57139157625E+03  0.57139157627E+03  0.50400001928E-02 0.  1.
    10030    2    1    2    0    0  0.00000000000E+00  0.00000000000E+00  0.53589663189E+03  0.16786797844E+04  0.15908427385E+04 0.  0.
        2    1    3    3  502    0 -0.26128981349E+03 -0.37315601079E+03  0.95600732565E+03  0.10589937591E+04  0.25500000920E-02 0. -1.
       -2    1    3    3    0  502  0.26128981349E+03  0.37315601079E+03 -0.42011069376E+03  0.61968602537E+03  0.25500000920E-02 0.  1.
</event>
<event>
 5   0  0.3803253E-04  0.1053844E+04  0.7818609E-02  0.9251384E-01
       -1   -1    0    0    0  501  0.00000000000E+00  0.00000000000E+00  0.41432592685E+03  0.41432592688E+03  0.50400001928E-02 0.  1.
        1   -1    0    0  501    0  0.00000000000E+00  0.00000000000E+00 -0.67011721785E+03  0.67011721787E+03  0.50400001928E-02 0. -1.
    10030    2    1    2    0    0  0.00000000000E+00  0.00000000000E+00 -0.25579129100E+03  0.10844431447E+04  0.10538442720E+04 0.  0.
        4    1    3    3  502    0  0.49125059840E+03 -0.17837398919E+03 -0.58858990001E+02  0.52593766176E+03  0.12699999809E+01 0. -1.
       -4    1    3    3    0  502 -0.49125059840E+03  0.17837398919E+03 -0.19693230100E+03  0.55850548299E+03  0.12699999809E+01 0.  1.
</event>
<event>
 5   0  0.7025426E-04  0.1678361E+04  0.7818609E-02  0.8773803E-01
        2   -1    0    0  501    0  0.00000000000E+00  0.00000000000E+00  0.74542321876E+03  0.74542321876E+03  0.25500000920E-02 0. -1.
       -2   -1    0    0    0  501  0.00000000000E+00  0.00000000000E+00 -0.94473022845E+03  0.94473022845E+03  0.25500000920E-02 0.  1.
    10030    2    1    2    0    0  0.00000000000E+00  0.00000000000E+00 -0.19930700969E+03  0.16901534472E+04  0.16783609239E+04 0.  0.
        2    1    3    3  502    0  0.27642786123E+03  0.26070380766E+03  0.65383161781E+03  0.75622392335E+03  0.25500000920E-02 0. -1.
       -2    1    3    3    0  502 -0.27642786123E+03 -0.26070380766E+03 -0.85313862751E+03  0.93392952386E+03  0.25500000920E-02 0.  1.
</event>
<event>
 5   0  0.3915701E-04  0.1691208E+04  0.7818609E-02  0.8766395E-01
       -1   -1    0    0    0  501  0.00000000000E+00  0.00000000000E+00  0.10215552978E+04  0.10215552978E+04  0.50400001928E-02 0. -1.
        1   -1    0    0  501    0  0.00000000000E+00  0.00000000000E+00 -0.69995798569E+03  0.69995798571E+03  0.50400001928E-02 0.  1.
    10030    2    1    2    0    0  0.00000000000E+00  0.00000000000E+00  0.32159731213E+03  0.17215132835E+04  0.16912076024E+04 0.  0.
        2    1    3    3  502    0  0.17455998031E+03  0.22392610396E+02 -0.68110953623E+03  0.70347908006E+03  0.25500000920E-02 0.  1.
       -2    1    3    3    0  502 -0.17455998031E+03 -0.22392610396E+02  0.10027068484E+04  0.10180342035E+04  0.25500000920E-02 0. -1.
</event>
<event>
 5   0  0.3713516E-04  0.1779409E+04  0.7818609E-02  0.8717327E-01
       -1   -1    0    0    0  501  0.00000000000E+00  0.00000000000E+00  0.59362009088E+03  0.59362009090E+03  0.50400001928E-02 0. -1.
        1   -1    0    0  501    0  0.00000000000E+00  0.00000000000E+00 -0.13334689111E+04  0.13334689111E+04  0.50400001928E-02 0.  1.
    10030    2    1    2    0    0  0.00000000000E+00  0.00000000000E+00 -0.73984882021E+03  0.19270890020E+04  0.17794088189E+04 0.  0.
        5    1    3    3  502    0  0.37294880008E+02  0.79043874828E+03 -0.81032829907E+03  0.11326245473E+04  0.46999998093E+01 0.  1.
       -5    1    3    3    0  502 -0.37294880008E+02 -0.79043874828E+03  0.70479478856E+02  0.79446445471E+03  0.46999998093E+01 0. -1.
</event>
<event>
 5   0  0.7233728E-04  0.1775465E+04  0.7818609E-02  0.8719457E-01
       -2   -1    0    0    0  501  0.00000000000E+00  0.00000000000E+00  0.34863470366E+03  0.34863470367E+03  0.25500000920E-02 0.  1.
        2   -1    0    0  501    0  0.00000000000E+00  0.00000000000E+00 -0.22604430465E+04  0.22604430465E+04  0.25500000920E-02 0. -1.
    10030    2    1    2    0    0  0.00000000000E+00  0.00000000000E+00 -0.19118083428E+04  0.26090777501E+04  0.17754648875E+04 0.  0.
        1    1    3    3  502    0 -0.69910578527E+03  0.50276864794E+02 -0.15533069698E+03  0.71791662996E+03  0.50400001928E-02 0.  1.
       -1    1    3    3    0  502  0.69910578527E+03 -0.50276864794E+02 -0.17564776458E+04  0.18911611202E+04  0.50400001928E-02 0. -1.
</event>
<event>
 5   0  0.7233728E-04  0.1688350E+04  0.7818609E-02  0.8768037E-01
        2   -1    0    0  501    0  0.00000000000E+00  0.00000000000E+00  0.10139589679E+04  0.10139589679E+04  0.25500000920E-02 0.  1.
       -2   -1    0    0    0  501  0.00000000000E+00  0.00000000000E+00 -0.70282095421E+03  0.70282095421E+03  0.25500000920E-02 0. -1.
    10030    2    1    2    0    0  0.00000000000E+00  0.00000000000E+00  0.31113801370E+03  0.17167799221E+04  0.16883502117E+04 0.  0.
        1    1    3    3  502    0  0.23723595475E+03 -0.93852817422E+02  0.97381932098E+03  0.10066843197E+04  0.50400001928E-02 0.  1.
       -1    1    3    3    0  502 -0.23723595475E+03  0.93852817422E+02 -0.66268130728E+03  0.71009560244E+03  0.50400001928E-02 0. -1.
</event>
<event>
 5   0  0.7025426E-04  0.1696023E+04  0.7818609E-02  0.8763636E-01
       -2   -1    0    0    0  501  0.00000000000E+00  0.00000000000E+00  0.12989752589E+04  0.12989752589E+04  0.25500000920E-02 0.  1.
        2   -1    0    0  501    0  0.00000000000E+00  0.00000000000E+00 -0.55360830538E+03  0.55360830538E+03  0.25500000920E-02 0. -1.
    10030    2    1    2    0    0  0.00000000000E+00  0.00000000000E+00  0.74536695352E+03  0.18525835643E+04  0.16960229855E+04 0.  0.
        2    1    3    3  502    0  0.24938150815E+03  0.57091833221E+03 -0.25573648992E+03  0.67345380758E+03  0.25500000920E-02 0. -1.
       -2    1    3    3    0  502 -0.24938150815E+03 -0.57091833221E+03  0.10011034434E+04  0.11791297567E+04  0.25500000920E-02 0.  1.
</event>
<event>
 5   0  0.6746664E-04  0.1772468E+04  0.7818609E-02  0.8721079E-01
        2   -1    0    0  501    0  0.00000000000E+00  0.00000000000E+00  0.11480258111E+04  0.11480258111E+04  0.25500000920E-02 0. -1.
       -2   -1    0    0    0  501  0.00000000000E+00  0.00000000000E+00 -0.68414017035E+03  0.68414017035E+03  0.25500000920E-02 0.  1.
    10030    2    1    2    0    0  0.00000000000E+00  0.00000000000E+00  0.46388564074E+03  0.18321659814E+04  0.17724678547E+04 0.  0.
        5    1    3    3  502    0 -0.62911268995E+03 -0.58918901487E+03  0.44494631678E+03  0.97001329202E+03  0.46999998093E+01 0.  1.
       -5    1    3    3    0  502  0.62911268995E+03  0.58918901487E+03  0.18939323962E+02  0.86215268942E+03  0.46999998093E+01 0. -1.
</event>
<event>
 5   0  0.3803253E-04  0.1716783E+04  0.7818609E-02  0.8751850E-01
        1   -1    0    0  501    0  0.00000000000E+00  0.00000000000E+00  0.68956547028E+03  0.68956547030E+03  0.50400001928E-02 0.  1.
       -1   -1    0    0    0  501  0.00000000000E+00  0.00000000000E+00 -0.10685507710E+04  0.10685507710E+04  0.50400001928E-02 0. -1.
    10030    2    1    2    0    0  0.00000000000E+00  0.00000000000E+00 -0.37898530075E+03  0.17581162413E+04  0.17167827061E+04 0.  0.
        4    1    3    3  502    0 -0.31975271594E+02 -0.75953534971E+03 -0.59773536353E+03  0.96706025829E+03  0.12699999809E+01 0. -1.
       -4    1    3    3    0  502  0.31975271594E+02  0.75953534971E+03  0.21875006278E+03  0.79105598305E+03  0.12699999809E+01 0.  1.
</event>
<event>
 5   0  0.7233728E-04  0.1703471E+04  0.7818609E-02  0.8759387E-01
        2   -1    0    0  501    0  0.00000000000E+00  0.00000000000E+00  0.21827075222E+04  0.21827075222E+04  0.25500000920E-02 0. -1.
       -2   -1    0    0    0  501  0.00000000000E+00  0.00000000000E+00 -0.33236391296E+03  0.33236391297E+03  0.25500000920E-02 0.  1.
    10030    2    1    2    0    0  0.00000000000E+00  0.00000000000E+00  0.18503436093E+04  0.25150714352E+04  0.17034708251E+04 0.  0.
        1    1    3    3  502    0 -0.69393875164E+01  0.84657098590E+03  0.78727976600E+03  0.11560882403E+04  0.50400001928E-02 0.  1.
       -1    1    3    3    0  502  0.69393875164E+01 -0.84657098590E+03  0.10630638433E+04  0.13589831950E+04  0.50400001928E-02 0. -1.
</event>
<event>
 5   0  0.3723500E-04  0.1731765E+04  0.7818609E-02  0.8743452E-01
        1   -1    0    0  501    0  0.00000000000E+00  0.00000000000E+00  0.17870737379E+04  0.17870737379E+04  0.50400001928E-02 0. -1.
       -1   -1    0    0    0  501  0.00000000000E+00  0.00000000000E+00 -0.41954198080E+03  0.41954198083E+03  0.50400001928E-02 0.  1.
    10030    2    1    2    0    0  0.00000000000E+00  0.00000000000E+00  0.13675317571E+04  0.22066157187E+04  0.17317649446E+04 0.  0.
        1    1    3    3  502    0 -0.48225440763E+03 -0.66234307931E+03  0.32679687528E+03  0.88207928561E+03  0.50400001928E-02 0. -1.
       -1    1    3    3    0  502  0.48225440763E+03  0.66234307931E+03  0.10407348818E+04  0.13245364331E+04  0.50400001928E-02 0.  1.
</event>
<event>
 5   0  0.2639750E-04  0.1564111E+04  0.7818609E-02  0.8842904E-01
        4   -1    0    0  501    0  0.00000000000E+00  0.00000000000E+00  0.37253660265E+03  0.37253876740E+03  0.12699999809E+01 0.  1.
       -4   -1    0    0    0  501  0.00000000000E+00  0.00000000000E+00 -0.16417401922E+04  0.16417406834E+04  0.12699999809E+01 0. -1.
    10030    2    1    2    0    0  0.00000000000E+00  0.00000000000E+00 -0.12692035895E+04  0.20142794508E+04  0.15641112346E+04 0.  0.
        5    1    3    3  502    0  0.65742894653E+03  0.76139211134E+00 -0.89178543390E+02  0.66346688090E+03  0.46999998093E+01 0.  1.
       -5    1    3    3    0  502 -0.65742894653E+03 -0.76139211134E+00 -0.11800250461E+04  0.13508125699E+04  0.46999998093E+01 0. -1.
</event>
<event>
 5   0  0.3723500E-04  0.1707391E+04  0.7818609E-02  0.8757160E-01
       -1   -1    0    0    0  501  0.00000000000E+00  0.00000000000E+00  0.19604815107E+04  0.19604815107E+04  0.50400001928E-02 0. -1.
        1   -1    0    0  501    0  0.00000000000E+00  0.00000000000E+00 -0.37174343556E+03  0.37174343559E+03  0.50400001928E-02 0.  1.
    10030    2    1    2    0    0  0.00000000000E+00  0.00000000000E+00  0.15887380751E+04  0.23322249463E+04  0.17073911469E+04 0.  0.
        1    1    3    3  502    0  0.24829705898E+03  0.45818581638E+02  0.19083122335E+04  0.19249432076E+04  0.50400001928E-02 0. -1.
       -1    1    3    3    0  502 -0.24829705898E+03 -0.45818581638E+02 -0.31957415839E+03  0.40728173867E+03  0.50400001928E-02 0.  1.
</event>
<event>
 5   0  0.3713516E-04  0.1701666E+04  0.7818609E-02  0.8760415E-01
       -1   -1    0    0    0  501  0.00000000000E+00  0.00000000000E+00  0.67873309907E+03  0.67873309909E+03  0.50400001928E-02 0.  1.
        1   -1    0    0  501    0  0.00000000000E+00  0.00000000000E+00 -0.10665706716E+04  0.10665706716E+04  0.50400001928E-02 0. -1.
    10030    2    1    2    0    0  0.00000000000E+00  0.00000000000E+00 -0.38783757251E+03  0.17453037707E+04  0.17016660275E+04 0.  0.
        5    1    3    3  502    0  0.12816961519E+03 -0.50035999220E+03 -0.88735370636E+03  0.10267454710E+04  0.46999998093E+01 0. -1.
       -5    1    3    3    0  502 -0.12816961519E+03  0.50035999220E+03  0.49951613385E+03  0.71855829967E+03  0.46999998093E+01 0.  1.
</event>
<event>
 5   0  0.3915701E-04  0.1695472E+04  0.7818609E-02  0.8763951E-01
       -1   -1    0    0    0  501  0.00000000000E+00  0.00000000000E+00  0.11201458686E+04  0.11201458686E+04  0.50400001928E-02 0. -1.
        1   -1    0    0  501    0  0.00000000000E+00  0.00000000000E+00 -0.64157395908E+03  0.64157395910E+03  0.50400001928E-02 0.  1.
    10030    2    1    2    0    0  0.00000000000E+00  0.00000000000E+00  0.47857190955E+03  0.17617198277E+04  0.16954721109E+04 0.  0.
        2    1    3    3  502    0  0.19566044314E+02  0.47796673944E+03  0.96650469684E+03  0.10784091817E+04  0.25500000920E-02 0. -1.
       -2    1    3    3    0  502 -0.19566044314E+02 -0.47796673944E+03 -0.48793278729E+03  0.68331064607E+03  0.25500000920E-02 0.  1.
</event>
<event>
 5   0  0.7233728E-04  0.1709758E+04  0.7818609E-02  0.8755818E-01
       -2   -1    0    0    0  501  0.00000000000E+00  0.00000000000E+00  0.72888852359E+03  0.72888852360E+03  0.25500000920E-02 0.  1.
        2   -1    0    0  501    0  0.00000000000E+00  0.00000000000E+00 -0.10026477725E+04  0.10026477725E+04  0.25500000920E-02 0. -1.
    10030    2    1    2    0    0  0.00000000000E+00  0.00000000000E+00 -0.27375924893E+03  0.17315362961E+04  0.17097584094E+04 0.  0.
        1    1    3    3  502    0  0.25908675837E+03  0.41621985055E+03 -0.84612381779E+03  0.97790103150E+03  0.50400001928E-02 0. -1.
       -1    1    3    3    0  502 -0.25908675837E+03 -0.41621985055E+03  0.57236456886E+03  0.75363526461E+03  0.50400001928E-02 0.  1.
</event>
<event>
 5   0  0.7242144E-04  0.1722502E+04  0.7818609E-02  0.8748634E-01
        2   -1    0    0  501    0  0.00000000000E+00  0.00000000000E+00  0.10324060937E+04  0.10324060937E+04  0.25500000920E-02 0.  1.
       -2   -1    0    0    0  501  0.00000000000E+00  0.00000000000E+00 -0.71847035839E+03  0.71847035839E+03  0.25500000920E-02 0. -1.
    10030    2    1    2    0    0  0.00000000000E+00  0.00000000000E+00  0.31393573531E+03  0.17508764521E+04  0.17225018736E+04 0.  0.
        3    1    3    3  502    0 -0.29494971004E+03  0.64709670870E+02 -0.66289832719E+03  0.72843453745E+03  0.10100000352E+00 0. -1.
       -3    1    3    3    0  502  0.29494971004E+03 -0.64709670870E+02  0.97683406250E+03  0.10224419146E+04  0.10100000352E+00 0.  1.
</event>
<event>
 5   0  0.3723500E-04  0.1675016E+04  0.7818609E-02  0.8775743E-01
        1   -1    0    0  501    0  0.00000000000E+00  0.00000000000E+00  0.16716131554E+04  0.16716131554E+04  0.50400001928E-02 0. -1.
       -1   -1    0    0    0  501  0.00000000000E+00  0.00000000000E+00 -0.41960630717E+03  0.41960630720E+03  0.50400001928E-02 0.  1.
    10030    2    1    2    0    0  0.00000000000E+00  0.00000000000E+00  0.12520068482E+04  0.20912194626E+04  0.16750157291E+04 0.  0.
        1    1    3    3  502    0 -0.34343857968E+03  0.73031870108E+03  0.90546155405E+03  0.12129204793E+04  0.50400001928E-02 0. -1.
       -1    1    3    3    0  502  0.34343857968E+03 -0.73031870108E+03  0.34654529416E+03  0.87829898332E+03  0.50400001928E-02 0.  1.
</event>
<event>
 5   0  0.3915701E-04  0.1700129E+04  0.7818609E-02  0.8761291E-01
       -1   -1    0    0    0  501  0.00000000000E+00  0.00000000000E+00  0.43992283727E+03  0.43992283730E+03  0.50400001928E-02 0. -1.
        1   -1    0    0  501    0  0.00000000000E+00  0.00000000000E+00 -0.16425824144E+04  0.16425824144E+04  0.50400001928E-02 0.  1.
    10030    2    1    2    0    0  0.00000000000E+00  0.00000000000E+00 -0.12026595771E+04  0.20825052517E+04  0.17001288377E+04 0.  0.
        2    1    3    3  502    0 -0.19278833114E+03  0.68691332371E+03 -0.35224739747E+02  0.71432348219E+03  0.25500000920E-02 0. -1.
       -2    1    3    3    0  502  0.19278833114E+03 -0.68691332371E+03 -0.11674348374E+04  0.13681817695E+04  0.25500000920E-02 0.  1.
</event>
<event>
 5   0  0.2639750E-04  0.1672990E+04  0.7818609E-02  0.8776921E-01
       -3   -1    0    0    0  501  0.00000000000E+00  0.00000000000E+00  0.87349781174E+03  0.87349781758E+03  0.10100000352E+00 0. -1.
        3   -1    0    0  501    0  0.00000000000E+00  0.00000000000E+00 -0.80105989909E+03  0.80105990546E+03  0.10100000352E+00 0.  1.
    10030    2    1    2    0    0  0.00000000000E+00  0.00000000000E+00  0.72437912652E+02  0.16745577230E+04  0.16729902321E+04 0.  0.
        5    1    3    3  502    0  0.17996260594E+02  0.43868077722E+03 -0.67644343488E+03  0.80645055663E+03  0.46999998093E+01 0.  1.
       -5    1    3    3    0  502 -0.17996260594E+02 -0.43868077722E+03  0.74888134753E+03  0.86810716641E+03  0.46999998093E+01 0. -1.
</event>
<event>
 5   0  0.3723500E-04  0.1695152E+04  0.7818609E-02  0.8764134E-01
       -1   -1    0    0    0  501  0.00000000000E+00  0.00000000000E+00  0.77280500938E+03  0.77280500940E+03  0.50400001928E-02 0.  1.
        1   -1    0    0  501    0  0.00000000000E+00  0.00000000000E+00 -0.92958180887E+03  0.92958180888E+03  0.50400001928E-02 0. -1.
    10030    2    1    2    0    0  0.00000000000E+00  0.00000000000E+00 -0.15677679949E+03  0.17023868183E+04  0.16951524752E+04 0.  0.
        1    1    3    3  502    0 -0.82109044632E+03  0.58031059815E+02  0.12453419797E+03  0.83250579063E+03  0.50400001928E-02 0.  1.
       -1    1    3    3    0  502  0.82109044632E+03 -0.58031059815E+02 -0.28131099746E+03  0.86988102765E+03  0.50400001928E-02 0. -1.
</event>
<event>
 5   0  0.3915701E-04  0.1666673E+04  0.7818609E-02  0.8780604E-01
       -1   -1    0    0    0  501  0.00000000000E+00  0.00000000000E+00  0.88254792041E+03  0.88254792043E+03  0.50400001928E-02 0.  1.
        1   -1    0    0  501    0  0.00000000000E+00  0.00000000000E+00 -0.78686914755E+03  0.78686914757E+03  0.50400001928E-02 0. -1.
    10030    2    1    2    0    0  0.00000000000E+00  0.00000000000E+00  0.95678772863E+02  0.16694170680E+04  0.16666730091E+04 0.  0.
        2    1    3    3  502    0  0.82718554011E+00 -0.51463446910E+03  0.70435761659E+03  0.87233535586E+03  0.25500000920E-02 0.  1.
       -2    1    3    3    0  502 -0.82718554011E+00  0.51463446910E+03 -0.60867884373E+03  0.79708171214E+03  0.25500000920E-02 0. -1.
</event>
<event>
 5   0  0.3635143E-04  0.1713333E+04  0.7818609E-02  0.8753796E-01
        1   -1    0    0  501    0  0.00000000000E+00  0.00000000000E+00  0.17378341688E+04  0.17378341688E+04  0.50400001928E-02 0. -1.
       -1   -1    0    0    0  501  0.00000000000E+00  0.00000000000E+00 -0.42229435548E+03  0.42229435551E+03  0.50400001928E-02 0.  1.
    10030    2    1    2    0    0  0.00000000000E+00  0.00000000000E+00  0.13155398133E+04  0.21601285243E+04  0.17133330795E+04 0.  0.
        3    1    3    3  502    0 -0.66810364102E+03  0.46528694850E+03  0.99376868418E+03  0.12846908684E+04  0.10100000352E+00 0. -1.
       -3    1    3    3    0  502  0.66810364102E+03 -0.46528694850E+03  0.32177112916E+03  0.87543765589E+03  0.10100000352E+00 0.  1.
</event>
<event>
 5   0  0.7233728E-04  0.1682211E+04  0.7818609E-02  0.8771576E-01
        2   -1    0    0  501    0  0.00000000000E+00  0.00000000000E+00  0.79717834263E+03  0.79717834263E+03  0.25500000920E-02 0.  1.
       -2   -1    0    0    0  501  0.00000000000E+00  0.00000000000E+00 -0.88745311506E+03  0.88745311507E+03  0.25500000920E-02 0. -1.
    10030    2    1    2    0    0  0.00000000000E+00  0.00000000000E+00 -0.90274772434E+02  0.16846314577E+04  0.16822109302E+04 0.  0.
        1    1    3    3  502    0  0.26048186037E+03  0.61759547015E+03 -0.55398605934E+03  0.86958353153E+03  0.50400001928E-02 0. -1.
       -1    1    3    3    0  502 -0.26048186037E+03 -0.61759547015E+03  0.46371128691E+03  0.81504792617E+03  0.50400001928E-02 0.  1.
</event>
<event>
 5   0  0.3713516E-04  0.1696826E+04  0.7818609E-02  0.8763177E-01
       -1   -1    0    0    0  501  0.00000000000E+00  0.00000000000E+00  0.93240101090E+03  0.93240101092E+03  0.50400001928E-02 0. -1.
        1   -1    0    0  501    0  0.00000000000E+00  0.00000000000E+00 -0.77199019338E+03  0.77199019340E+03  0.50400001928E-02 0.  1.
    10030    2    1    2    0    0  0.00000000000E+00  0.00000000000E+00  0.16041081752E+03  0.17043912043E+04  0.16968257857E+04 0.  0.
        5    1    3    3  502    0 -0.63263812194E+03  0.48996084572E+03 -0.20299085608E+03  0.82554224684E+03  0.46999998093E+01 0.  1.
       -5    1    3    3    0  502  0.63263812194E+03 -0.48996084572E+03  0.36340167360E+03  0.87884895747E+03  0.46999998093E+01 0. -1.
</event>
<event>
 5   0  0.7025426E-04  0.1697322E+04  0.7818609E-02  0.8762893E-01
       -2   -1    0    0    0  501  0.00000000000E+00  0.00000000000E+00  0.35891110380E+03  0.35891110381E+03  0.25500000920E-02 0. -1.
        2   -1    0    0  501    0  0.00000000000E+00  0.00000000000E+00 -0.20066967466E+04  0.20066967466E+04  0.25500000920E-02 0.  1.
    10030    2    1    2    0    0  0.00000000000E+00  0.00000000000E+00 -0.16477856428E+04  0.23656078504E+04  0.16973222962E+04 0.  0.
        2    1    3    3  502    0  0.22889663445E+02  0.49108782416E+03 -0.17880216947E+04  0.18543766523E+04  0.25500000920E-02 0.  1.
       -2    1    3    3    0  502 -0.22889663445E+02 -0.49108782416E+03  0.14023605188E+03  0.51123119817E+03  0.25500000920E-02 0. -1.
</event>
<event>
 5   0  0.3915701E-04  0.1658838E+04  0.7818609E-02  0.8785195E-01
        1   -1    0    0  501    0  0.00000000000E+00  0.00000000000E+00  0.60302038302E+03  0.60302038304E+03  0.50400001928E-02 0. -1.
       -1   -1    0    0    0  501  0.00000000000E+00  0.00000000000E+00 -0.11408163174E+04  0.11408163174E+04  0.50400001928E-02 0.  1.
    10030    2    1    2    0    0  0.00000000000E+00  0.00000000000E+00 -0.53779593440E+03  0.17438367005E+04  0.16588375360E+04 0.  0.
        2    1    3    3  502    0 -0.26554687091E+03 -0.22536575940E+02 -0.10945817004E+04  0.11265576491E+04  0.25500000920E-02 0.  1.
       -2    1    3    3    0  502  0.26554687091E+03  0.22536575940E+02  0.55678576605E+03  0.61727905131E+03  0.25500000920E-02 0. -1.
</event>
<event>
 5   0  0.7242144E-04  0.1414397E+04  0.7818609E-02  0.8943463E-01
        2   -1    0    0  501    0  0.00000000000E+00  0.00000000000E+00  0.14920417107E+04  0.14920417107E+04  0.25500000920E-02 0.  1.
       -2   -1    0    0    0  501  0.00000000000E+00  0.00000000000E+00 -0.33519825487E+03  0.33519825488E+03  0.25500000920E-02 0. -1.
    10030    2    1    2    0    0  0.00000000000E+00  0.00000000000E+00  0.11568434558E+04  0.18272399656E+04  0.14143970838E+04 0.  0.
        3    1    3    3  502    0  0.61886697075E+03 -0.26557188120E+03  0.29952683378E+03  0.73704890334E+03  0.10100000352E+00 0. -1.
       -3    1    3    3    0  502 -0.61886697075E+03  0.26557188120E+03  0.85731662207E+03  0.10901910623E+04  0.10100000352E+00 0.  1.
</event>
<event>
 5   0  0.3723500E-04  0.1763497E+04  0.7818609E-02  0.8725956E-01
        1   -1    0    0  501    0  0.00000000000E+00  0.00000000000E+00  0.11668211394E+04  0.11668211394E+04  0.50400001928E-02 0.  1.
       -1   -1    0    0    0  501  0.00000000000E+00  0.00000000000E+00 -0.66632345906E+03  0.66632345908E+03  0.50400001928E-02 0. -1.
    10030    2    1    2    0    0  0.00000000000E+00  0.00000000000E+00  0.50049768037E+03  0.18331445985E+04  0.17634968645E+04 0.  0.
        1    1    3    3  502    0  0.30351541293E+03 -0.64122541299E+03  0.79455942206E+03  0.10651836984E+04  0.50400001928E-02 0.  1.
       -1    1    3    3    0  502 -0.30351541293E+03  0.64122541299E+03 -0.29406174169E+03  0.76796090012E+03  0.50400001928E-02 0. -1.
</event>
<event>
 5   0  0.7242144E-04  0.1688268E+04  0.7818609E-02  0.8768084E-01
       -2   -1    0    0    0  501  0.00000000000E+00  0.00000000000E+00  0.48240062890E+03  0.48240062891E+03  0.25500000920E-02 0. -1.
        2   -1    0    0  501    0  0.00000000000E+00  0.00000000000E+00 -0.14771164691E+04  0.14771164691E+04  0.25500000920E-02 0.  1.
    10030    2    1    2    0    0  0.00000000000E+00  0.00000000000E+00 -0.99471584022E+03  0.19595170980E+04  0.16882676490E+04 0.  0.
        3    1    3    3  502    0 -0.13351385362E+03 -0.43444278838E+03  0.32826368827E+03  0.56064564987E+03  0.10100000352E+00 0. -1.
       -3    1    3    3    0  502  0.13351385362E+03  0.43444278838E+03 -0.13229795285E+04  0.13988714482E+04  0.10100000352E+00 0.  1.
</event>
<event>
 5   0  0.3635143E-04  0.1684689E+04  0.7818609E-02  0.8770145E-01
       -1   -1    0    0    0  501  0.00000000000E+00  0.00000000000E+00  0.61562526879E+03  0.61562526881E+03  0.50400001928E-02 0.  1.
        1   -1    0    0  501    0  0.00000000000E+00  0.00000000000E+00 -0.11525589801E+04  0.11525589801E+04  0.50400001928E-02 0. -1.
    10030    2    1    2    0    0  0.00000000000E+00  0.00000000000E+00 -0.53693371128E+03  0.17681842489E+04  0.16846892080E+04 0.  0.
        3    1    3    3  502    0 -0.70502699963E+03 -0.39612091007E+02 -0.75047969797E+03  0.10304620203E+04  0.10100000352E+00 0. -1.
       -3    1    3    3    0  502  0.70502699963E+03  0.39612091007E+02  0.21354598669E+03  0.73772222861E+03  0.10100000352E+00 0.  1.
</event>
<event>
 5   0  0.3713516E-04  0.1689353E+04  0.7818609E-02  0.8767460E-01
        1   -1    0    0  501    0  0.00000000000E+00  0.00000000000E+00  0.15478139017E+04  0.15478139017E+04  0.50400001928E-02 0. -1.
       -1   -1    0    0    0  501  0.00000000000E+00  0.00000000000E+00 -0.46095875278E+03  0.46095875281E+03  0.50400001928E-02 0.  1.
    10030    2    1    2    0    0  0.00000000000E+00  0.00000000000E+00  0.10868551489E+04  0.20087726545E+04  0.16893529716E+04 0.  0.
        5    1    3    3  502    0 -0.50340171353E+03  0.17755531620E+02 -0.26280573789E+03  0.56817030013E+03  0.46999998093E+01 0.  1.
       -5    1    3    3    0  502  0.50340171353E+03 -0.17755531620E+02  0.13496608868E+04  0.14406023544E+04  0.46999998093E+01 0. -1.
</event>
<event>
 5   0  0.3635143E-04  0.1666190E+04  0.7818609E-02  0.8780886E-01
       -1   -1    0    0    0  501  0.00000000000E+00  0.00000000000E+00  0.96490304350E+03  0.96490304352E+03  0.50400001928E-02 0. -1.
        1   -1    0    0  501    0  0.00000000000E+00  0.00000000000E+00 -0.71929258233E+03  0.71929258235E+03  0.50400001928E-02 0.  1.
    10030    2    1    2    0    0  0.00000000000E+00  0.00000000000E+00  0.24561046117E+03  0.16841956259E+04  0.16661903875E+04 0.  0.
        3    1    3    3  502    0 -0.13095879261E+03  0.28783142547E+03 -0.65627032407E+03  0.72848327592E+03  0.10100000352E+00 0.  1.
       -3    1    3    3    0  502  0.13095879261E+03 -0.28783142547E+03  0.90188078524E+03  0.95571234994E+03  0.10100000352E+00 0. -1.
</event>
<event>
 5   0  0.6746664E-04  0.1652852E+04  0.7818609E-02  0.8788721E-01
       -2   -1    0    0    0  501  0.00000000000E+00  0.00000000000E+00  0.48127329397E+03  0.48127329398E+03  0.25500000920E-02 0. -1.
        2   -1    0    0  501    0  0.00000000000E+00  0.00000000000E+00 -0.14191107113E+04  0.14191107113E+04  0.25500000920E-02 0.  1.
    10030    2    1    2    0    0  0.00000000000E+00  0.00000000000E+00 -0.93783741728E+03  0.19003840052E+04  0.16528521852E+04 0.  0.
        5    1    3    3  502    0  0.65742520153E+03 -0.42364998596E+03 -0.77586552802E+03  0.11016699205E+04  0.46999998093E+01 0.  1.
       -5    1    3    3    0  502 -0.65742520153E+03  0.42364998596E+03 -0.16197188926E+03  0.79871408471E+03  0.46999998093E+01 0. -1.
</event>
<event>
 5   0  0.7233728E-04  0.1704908E+04  0.7818609E-02  0.8758570E-01
        2   -1    0    0  501    0  0.00000000000E+00  0.00000000000E+00  0.86280690807E+03  0.86280690808E+03  0.25500000920E-02 0.  1.
       -2   -1    0    0    0  501  0.00000000000E+00  0.00000000000E+00 -0.84222524910E+03  0.84222524910E+03  0.25500000920E-02 0. -1.
    10030    2    1    2    0    0  0.00000000000E+00  0.00000000000E+00  0.20581658976E+02  0.17050321572E+04  0.17049079307E+04 0.  0.
        1    1    3    3  502    0  0.45458764361E+03 -0.35914994197E+03 -0.61508597209E+03  0.84496707606E+03  0.50400001928E-02 0. -1.
       -1    1    3    3    0  502 -0.45458764361E+03  0.35914994197E+03  0.63566763107E+03  0.86006508111E+03  0.50400001928E-02 0.  1.
</event>
<event>
 5   0  0.7233728E-04  0.1699652E+04  0.7818609E-02  0.8761563E-01
       -2   -1    0    0    0  501  0.00000000000E+00  0.00000000000E+00  0.32343257081E+03  0.32343257082E+03  0.25500000920E-02 0.  1.
        2   -1    0    0  501    0  0.00000000000E+00  0.00000000000E+00 -0.22329354380E+04  0.22329354380E+04  0.25500000920E-02 0. -1.
    10030    2    1    2    0    0  0.00000000000E+00  0.00000000000E+00 -0.19095028672E+04  0.25563680088E+04  0.16996517869E+04 0.  0.
        1    1    3    3  502    0  0.20861855791E+03 -0.74100354102E+03 -0.41330015613E+03  0.87374193535E+03  0.50400001928E-02 0.  1.
       -1    1    3    3    0  502 -0.20861855791E+03  0.74100354102E+03 -0.14962027111E+04  0.16826260735E+04  0.50400001928E-02 0. -1.
</event>
<event>
 5   0  0.3915701E-04  0.1734954E+04  0.7818609E-02  0.8741676E-01
       -1   -1    0    0    0  501  0.00000000000E+00  0.00000000000E+00  0.28152430090E+03  0.28152430094E+03  0.50400001928E-02 0.  1.
        1   -1    0    0  501    0  0.00000000000E+00  0.00000000000E+00 -0.26730068310E+04  0.26730068310E+04  0.50400001928E-02 0. -1.
    10030    2    1    2    0    0  0.00000000000E+00  0.00000000000E+00 -0.23914825301E+04  0.29545311319E+04  0.17349540391E+04 0.  0.
        2    1    3    3  502    0  0.17323862354E+03  0.86608856834E+02 -0.26357155285E+04  0.26428221775E+04  0.25500000920E-02 0. -1.
       -2    1    3    3    0  502 -0.17323862354E+03 -0.86608856834E+02  0.24423299839E+03  0.31170895444E+03  0.25500000920E-02 0.  1.
</event>
<event>
 5   0  0.6746664E-04  0.1680585E+04  0.7818609E-02  0.8772516E-01
       -2   -1    0    0    0  501  0.00000000000E+00  0.00000000000E+00  0.98682351474E+03  0.98682351474E+03  0.25500000920E-02 0.  1.
        2   -1    0    0  501    0  0.00000000000E+00  0.00000000000E+00 -0.71551941498E+03  0.71551941498E+03  0.25500000920E-02 0. -1.
    10030    2    1    2    0    0  0.00000000000E+00  0.00000000000E+00  0.27130409977E+03  0.17023429297E+04  0.16805848791E+04 0.  0.
        5    1    3    3  502    0  0.73477424168E+02 -0.41918260918E+03 -0.59826702710E+03  0.73420604561E+03  0.46999998093E+01 0. -1.
       -5    1    3    3    0  502 -0.73477424168E+02  0.41918260918E+03  0.86957112687E+03  0.96813688411E+03  0.46999998093E+01 0.  1.
</event>
<event>
 5   0  0.7025426E-04  0.1697390E+04  0.7818609E-02  0.8762855E-01
        2   -1    0    0  501    0  0.00000000000E+00  0.00000000000E+00  0.17114105904E+04  0.17114105904E+04  0.25500000920E-02 0.  1.
       -2   -1    0    0    0  501  0.00000000000E+00  0.00000000000E+00 -0.42087089559E+03  0.42087089560E+03  0.25500000920E-02 0. -1.
    10030    2    1    2    0    0  0.00000000000E+00  0.00000000000E+00  0.12905396948E+04  0.21322814860E+04  0.16973896523E+04 0.  0.
        2    1    3    3  502    0 -0.39602756119E+03  0.72959971160E+03  0.86690974394E+03  0.12002858295E+04  0.25500000920E-02 0.  1.
       -2    1    3    3    0  502  0.39602756119E+03 -0.72959971160E+03  0.42362995082E+03  0.93199565644E+03  0.25500000920E-02 0. -1.
</event>
<event>
 5   0  0.3713516E-04  0.1483269E+04  0.7818609E-02  0.8895656E-01
        1   -1    0    0  501    0  0.00000000000E+00  0.00000000000E+00  0.99943859176E+03  0.99943859177E+03  0.50400001928E-02 0. -1.
       -1   -1    0    0    0  501  0.00000000000E+00  0.00000000000E+00 -0.55033076250E+03  0.55033076252E+03  0.50400001928E-02 0.  1.
    10030    2    1    2    0    0  0.00000000000E+00  0.00000000000E+00  0.44910782926E+03  0.15497693543E+04  0.14832690953E+04 0.  0.
        5    1    3    3  502    0 -0.21450030489E+03  0.70982344846E+03  0.21219112143E+03  0.77130206196E+03  0.46999998093E+01 0. -1.
       -5    1    3    3    0  502  0.21450030489E+03 -0.70982344846E+03  0.23691670783E+03  0.77846729233E+03  0.46999998093E+01 0.  1.
</event>
<event>
 5   0  0.3803253E-04  0.1628297E+04  0.7818609E-02  0.8803350E-01
        1   -1    0    0  501    0  0.00000000000E+00  0.00000000000E+00  0.92451739697E+03  0.92451739699E+03  0.50400001928E-02 0. -1.
       -1   -1    0    0    0  501  0.00000000000E+00  0.00000000000E+00 -0.71695583335E+03  0.71695583337E+03  0.50400001928E-02 0.  1.
    10030    2    1    2    0    0  0.00000000000E+00  0.00000000000E+00  0.20756156362E+03  0.16414732304E+04  0.16282974431E+04 0.  0.
        4    1    3    3  502    0 -0.12739384772E+03  0.72022476121E+03 -0.25672110266E+03  0.77515175065E+03  0.12699999809E+01 0.  1.
       -4    1    3    3    0  502  0.12739384772E+03 -0.72022476121E+03  0.46428266628E+03  0.86632147970E+03  0.12699999809E+01 0. -1.
</event>
<event>
 5   0  0.3635143E-04  0.1671563E+04  0.7818609E-02  0.8777751E-01
       -1   -1    0    0    0  501  0.00000000000E+00  0.00000000000E+00  0.75935715953E+03  0.75935715955E+03  0.50400001928E-02 0. -1.
        1   -1    0    0  501    0  0.00000000000E+00  0.00000000000E+00 -0.91989741567E+03  0.91989741568E+03  0.50400001928E-02 0.  1.
    10030    2    1    2    0    0  0.00000000000E+00  0.00000000000E+00 -0.16054025613E+03  0.16792545752E+04  0.16715629676E+04 0.  0.
        3    1    3    3  502    0 -0.16295734862E+03  0.17467434120E+02 -0.90359631054E+03  0.91833899587E+03  0.10100000352E+00 0.  1.
       -3    1    3    3    0  502  0.16295734862E+03 -0.17467434120E+02  0.74305605440E+03  0.76091557936E+03  0.10100000352E+00 0. -1.
</event>
<event>
 5   0  0.3713516E-04  0.1713527E+04  0.7818609E-02  0.8753687E-01
        1   -1    0    0  501    0  0.00000000000E+00  0.00000000000E+00  0.10491719996E+04  0.10491719996E+04  0.50400001928E-02 0.  1.
       -1   -1    0    0    0  501  0.00000000000E+00  0.00000000000E+00 -0.69964117017E+03  0.69964117019E+03  0.50400001928E-02 0. -1.
    10030    2    1    2    0    0  0.00000000000E+00  0.00000000000E+00  0.34953082939E+03  0.17488131698E+04  0.17135272691E+04 0.  0.
        5    1    3    3  502    0 -0.28745964042E+03  0.25143699279E+03 -0.60794871861E+03  0.71796750670E+03  0.46999998093E+01 0. -1.
       -5    1    3    3    0  502  0.28745964042E+03 -0.25143699279E+03  0.95747954800E+03  0.10308456631E+04  0.46999998093E+01 0.  1.
</event>
<event>
 5   0  0.7025426E-04  0.1696816E+04  0.7818609E-02  0.8763182E-01
        2   -1    0    0  501    0  0.00000000000E+00  0.00000000000E+00  0.19712353948E+04  0.19712353948E+04  0.25500000920E-02 0.  1.
       -2   -1    0    0    0  501  0.00000000000E+00  0.00000000000E+00 -0.36514991243E+03  0.36514991244E+03  0.25500000920E-02 0. -1.
    10030    2    1    2    0    0  0.00000000000E+00  0.00000000000E+00  0.16060854824E+04  0.23363853072E+04  0.16968163505E+04 0.  0.
        2    1    3    3  502    0 -0.25600563615E+02  0.59856026248E+03  0.16301903206E+04  0.17367930959E+04  0.25500000920E-02 0.  1.
       -2    1    3    3    0  502  0.25600563615E+02 -0.59856026248E+03 -0.24104838195E+02  0.59959221135E+03  0.25500000920E-02 0. -1.
</event>
<event>
 5   0  0.7025426E-04  0.1671745E+04  0.7818609E-02  0.8777645E-01
        2   -1    0    0  501    0  0.00000000000E+00  0.00000000000E+00  0.97289526355E+03  0.97289526355E+03  0.25500000920E-02 0.  1.
       -2   -1    0    0    0  501  0.00000000000E+00  0.00000000000E+00 -0.71814825259E+03  0.71814825260E+03  0.25500000920E-02 0. -1.
    10030    2    1    2    0    0  0.00000000000E+00  0.00000000000E+00  0.25474701095E+03  0.16910435161E+04  0.16717452359E+04 0.  0.
        2    1    3    3  502    0  0.37361040475E+02 -0.46993530294E+03 -0.57084674767E+03  0.74033846694E+03  0.25500000920E-02 0. -1.
       -2    1    3    3    0  502 -0.37361040475E+02  0.46993530294E+03  0.82559375863E+03  0.95070504921E+03  0.25500000920E-02 0.  1.
</event>
<event>
 5   0  0.3803253E-04  0.1715205E+04  0.7818609E-02  0.8752740E-01
       -1   -1    0    0    0  501  0.00000000000E+00  0.00000000000E+00  0.82542672431E+03  0.82542672432E+03  0.50400001928E-02 0. -1.
        1   -1    0    0  501    0  0.00000000000E+00  0.00000000000E+00 -0.89103259291E+03  0.89103259293E+03  0.50400001928E-02 0.  1.
    10030    2    1    2    0    0  0.00000000000E+00  0.00000000000E+00 -0.65605868604E+02  0.17164593172E+04  0.17152050775E+04 0.  0.
        4    1    3    3  502    0  0.89306465921E+02  0.82209844761E+03  0.19464942948E+03  0.84953605911E+03  0.12699999809E+01 0. -1.
       -4    1    3    3    0  502 -0.89306465921E+02 -0.82209844761E+03 -0.26025529808E+03  0.86692325814E+03  0.12699999809E+01 0.  1.
</event>
<event>
 5   0  0.3723500E-04  0.1614612E+04  0.7818609E-02  0.8811621E-01
        1   -1    0    0  501    0  0.00000000000E+00  0.00000000000E+00  0.12341782071E+04  0.12341782071E+04  0.50400001928E-02 0.  1.
       -1   -1    0    0    0  501  0.00000000000E+00  0.00000000000E+00 -0.52807871359E+03  0.52807871361E+03  0.50400001928E-02 0. -1.
    10030    2    1    2    0    0  0.00000000000E+00  0.00000000000E+00  0.70609949350E+03  0.17622569207E+04  0.16146123249E+04 0.  0.
        1    1    3    3  502    0 -0.16024972918E+03 -0.73214630095E+03  0.68052815216E+03  0.10123422087E+04  0.50400001928E-02 0.  1.
       -1    1    3    3    0  502  0.16024972918E+03  0.73214630095E+03  0.25571341337E+02  0.74991471196E+03  0.50400001928E-02 0. -1.
</event>
<event>
 5   0  0.3723500E-04  0.1693348E+04  0.7818609E-02  0.8765167E-01
       -1   -1    0    0    0  501  0.00000000000E+00  0.00000000000E+00  0.10985899220E+04  0.10985899220E+04  0.50400001928E-02 0. -1.
        1   -1    0    0  501    0  0.00000000000E+00  0.00000000000E+00 -0.65252436147E+03  0.65252436149E+03  0.50400001928E-02 0.  1.
    10030    2    1    2    0    0  0.00000000000E+00  0.00000000000E+00  0.44606556053E+03  0.17511142835E+04  0.16933477935E+04 0.  0.
        1    1    3    3  502    0 -0.16144444062E+01 -0.84173181943E+03  0.31748097430E+03  0.89961615778E+03  0.50400001928E-02 0.  1.
       -1    1    3    3    0  502  0.16144444062E+01  0.84173181943E+03  0.12858458623E+03  0.85149812572E+03  0.50400001928E-02 0. -1.
</event>
<event>
 5   0  0.3713516E-04  0.1699813E+04  0.7818609E-02  0.8761471E-01
       -1   -1    0    0    0  501  0.00000000000E+00  0.00000000000E+00  0.45989413810E+03  0.45989413812E+03  0.50400001928E-02 0.  1.
        1   -1    0    0  501    0  0.00000000000E+00  0.00000000000E+00 -0.15706676636E+04  0.15706676637E+04  0.50400001928E-02 0. -1.
    10030    2    1    2    0    0  0.00000000000E+00  0.00000000000E+00 -0.11107735255E+04  0.20305618018E+04  0.16998127561E+04 0.  0.
        5    1    3    3  502    0 -0.36430538922E+03 -0.70479728843E+03 -0.91941251106E+03  0.12144130639E+04  0.46999998093E+01 0. -1.
       -5    1    3    3    0  502  0.36430538922E+03  0.70479728843E+03 -0.19136101449E+03  0.81614873783E+03  0.46999998093E+01 0.  1.
</event>
<event>
 5   0  0.7049044E-04  0.1699329E+04  0.7818609E-02  0.8761747E-01
       -2   -1    0    0    0  501  0.00000000000E+00  0.00000000000E+00  0.34855045041E+03  0.34855045042E+03  0.25500000920E-02 0.  1.
        2   -1    0    0  501    0  0.00000000000E+00  0.00000000000E+00 -0.20712342304E+04  0.20712342305E+04  0.25500000920E-02 0. -1.
    10030    2    1    2    0    0  0.00000000000E+00  0.00000000000E+00 -0.17226837800E+04  0.24197846809E+04  0.16993288368E+04 0.  0.
        4    1    3    3  502    0 -0.35582981212E+03  0.21878456491E+03 -0.19149282163E+04  0.19599574555E+04  0.12699999809E+01 0. -1.
       -4    1    3    3    0  502  0.35582981212E+03 -0.21878456491E+03  0.19224443622E+03  0.45982722537E+03  0.12699999809E+01 0.  1.
</event>
<event>
 5   0  0.7242144E-04  0.1481333E+04  0.7818609E-02  0.8896962E-01
       -2   -1    0    0    0  501  0.00000000000E+00  0.00000000000E+00  0.99642132800E+03  0.99642132801E+03  0.25500000920E-02 0. -1.
        2   -1    0    0  501    0  0.00000000000E+00  0.00000000000E+00 -0.55055714360E+03  0.55055714361E+03  0.25500000920E-02 0.  1.
    10030    2    1    2    0    0  0.00000000000E+00  0.00000000000E+00  0.44586418440E+03  0.15469784716E+04  0.14813330215E+04 0.  0.
        3    1    3    3  502    0  0.24224975041E+03  0.40071039705E+03 -0.37637478433E+03  0.60075931317E+03  0.10100000352E+00 0.  1.
       -3    1    3    3    0  502 -0.24224975041E+03 -0.40071039705E+03  0.82223896874E+03  0.94621915844E+03  0.10100000352E+00 0. -1.
</event>
<event>
 5   0  0.7233728E-04  0.1676265E+04  0.7818609E-02  0.8775018E-01
        2   -1    0    0  501    0  0.00000000000E+00  0.00000000000E+00  0.19591023654E+04  0.19591023654E+04  0.25500000920E-02 0. -1.
       -2   -1    0    0    0  501  0.00000000000E+00  0.00000000000E+00 -0.35856534426E+03  0.35856534427E+03  0.25500000920E-02 0.  1.
    10030    2    1    2    0    0  0.00000000000E+00  0.00000000000E+00  0.16005370211E+04  0.23176677097E+04  0.16762651510E+04 0.  0.
        1    1    3    3  502    0 -0.36647606700E+03 -0.27817677139E+03 -0.16834723313E+03  0.48992633605E+03  0.50400001928E-02 0.  1.
       -1    1    3    3    0  502  0.36647606700E+03  0.27817677139E+03  0.17688842543E+04  0.18277413736E+04  0.50400001928E-02 0. -1.
</event>
<event>
 5   0  0.7242144E-04  0.1709033E+04  0.7818609E-02  0.8756229E-01
       -2   -1    0    0    0  501  0.00000000000E+00  0.00000000000E+00  0.81562667259E+03  0.81562667259E+03  0.25500000920E-02 0.  1.
        2   -1    0    0  501    0  0.00000000000E+00  0.00000000000E+00 -0.89526094738E+03  0.89526094738E+03  0.25500000920E-02 0. -1.
    10030    2    1    2    0    0  0.00000000000E+00  0.00000000000E+00 -0.79634274791E+02  0.17108876200E+04  0.17090333029E+04 0.  0.
        3    1    3    3  502    0  0.77955307066E+03 -0.32701626437E+03  0.85042165587E+02  0.84963215998E+03  0.10100000352E+00 0.  1.
       -3    1    3    3    0  502 -0.77955307066E+03  0.32701626437E+03 -0.16467644038E+03  0.86125545999E+03  0.10100000352E+00 0. -1.
</event>
<event>
 5   0  0.6746664E-04  0.1691163E+04  0.7818609E-02  0.8766421E-01
       -2   -1    0    0    0  501  0.00000000000E+00  0.00000000000E+00  0.66924717443E+03  0.66924717444E+03  0.25500000920E-02 0. -1.
        2   -1    0    0  501    0  0.00000000000E+00  0.00000000000E+00 -0.10683766383E+04  0.10683766383E+04  0.25500000920E-02 0.  1.
    10030    2    1    2    0    0  0.00000000000E+00  0.00000000000E+00 -0.39912946383E+03  0.17376238127E+04  0.16911629684E+04 0.  0.
        5    1    3    3  502    0 -0.64560998395E+02  0.84125896951E+03 -0.14234658431E+03  0.85566898761E+03  0.46999998093E+01 0.  1.
       -5    1    3    3    0  502  0.64560998395E+02 -0.84125896951E+03 -0.25678287952E+03  0.88195482509E+03  0.46999998093E+01 0. -1.
</event>
<event>
 5   0  0.6746664E-04  0.1663947E+04  0.7818609E-02  0.8782198E-01
       -2   -1    0    0    0  501  0.00000000000E+00  0.00000000000E+00  0.33605883709E+03  0.33605883710E+03  0.25500000920E-02 0.  1.
        2   -1    0    0  501    0  0.00000000000E+00  0.00000000000E+00 -0.20596985988E+04  0.20596985988E+04  0.25500000920E-02 0. -1.
    10030    2    1    2    0    0  0.00000000000E+00  0.00000000000E+00 -0.17236397618E+04  0.23957574359E+04  0.16639470134E+04 0.  0.
        5    1    3    3  502    0 -0.98652224088E+02 -0.19272347203E+03 -0.20184075048E+04  0.20299915131E+04  0.46999998093E+01 0. -1.
       -5    1    3    3    0  502  0.98652224088E+02  0.19272347203E+03  0.29476774301E+03  0.36576592283E+03  0.46999998093E+01 0.  1.
</event>
<event>
 5   0  0.3635143E-04  0.1728434E+04  0.7818609E-02  0.8745311E-01
        1   -1    0    0  501    0  0.00000000000E+00  0.00000000000E+00  0.82409592485E+03  0.82409592487E+03  0.50400001928E-02 0.  1.
       -1   -1    0    0    0  501  0.00000000000E+00  0.00000000000E+00 -0.90629155566E+03  0.90629155567E+03  0.50400001928E-02 0. -1.
    10030    2    1    2    0    0  0.00000000000E+00  0.00000000000E+00 -0.82195630808E+02  0.17303874805E+04  0.17284341790E+04 0.  0.
        3    1    3    3  502    0  0.10258992430E+03  0.92388449342E+02  0.81298460182E+03  0.82462372700E+03  0.10100000352E+00 0.  1.
       -3    1    3    3    0  502 -0.10258992430E+03 -0.92388449342E+02 -0.89518023263E+03  0.90576375354E+03  0.10100000352E+00 0. -1.
</event>
<event>
 5   0  0.7233728E-04  0.1702443E+04  0.7818609E-02  0.8759972E-01
        2   -1    0    0  501    0  0.00000000000E+00  0.00000000000E+00  0.68583963319E+03  0.68583963319E+03  0.25500000920E-02 0. -1.
       -2   -1    0    0    0  501  0.00000000000E+00  0.00000000000E+00 -0.10564832927E+04  0.10564832927E+04  0.25500000920E-02 0.  1.
    10030    2    1    2    0    0  0.00000000000E+00  0.00000000000E+00 -0.37064365948E+03  0.17423229259E+04  0.17024430844E+04 0.  0.
        1    1    3    3  502    0  0.46593450532E+03 -0.58673482202E+03 -0.59879746146E+03  0.95911996877E+03  0.50400001928E-02 0.  1.
       -1    1    3    3    0  502 -0.46593450532E+03  0.58673482202E+03  0.22815380197E+03  0.78320295709E+03  0.50400001928E-02 0. -1.
</event>
<event>
 5   0  0.3635143E-04  0.1411368E+04  0.7818609E-02  0.8945630E-01
        1   -1    0    0  501    0  0.00000000000E+00  0.00000000000E+00  0.14345268613E+04  0.14345268613E+04  0.50400001928E-02 0.  1.
       -1   -1    0    0    0  501  0.00000000000E+00  0.00000000000E+00 -0.34714588040E+03  0.34714588044E+03  0.50400001928E-02 0. -1.
    10030    2    1    2    0    0  0.00000000000E+00  0.00000000000E+00  0.10873809809E+04  0.17816727417E+04  0.14113682585E+04 0.  0.
        3    1    3    3  502    0  0.10926124759E+03  0.47273378733E+03  0.11905562049E+04  0.12856279948E+04  0.10100000352E+00 0.  1.
       -3    1    3    3    0  502 -0.10926124759E+03 -0.47273378733E+03 -0.10317522397E+03  0.49604474693E+03  0.10100000352E+00 0. -1.
</event>
<event>
 5   0  0.3915701E-04  0.1740922E+04  0.7818609E-02  0.8738363E-01
       -1   -1    0    0    0  501  0.00000000000E+00  0.00000000000E+00  0.76391519910E+03  0.76391519912E+03  0.50400001928E-02 0.  1.
        1   -1    0    0  501    0  0.00000000000E+00  0.00000000000E+00 -0.99186765832E+03  0.99186765833E+03  0.50400001928E-02 0. -1.
    10030    2    1    2    0    0  0.00000000000E+00  0.00000000000E+00 -0.22795245921E+03  0.17557828575E+04  0.17409224908E+04 0.  0.
        2    1    3    3  502    0  0.41186374562E+03  0.18514323975E+02  0.65920206456E+03  0.77751005593E+03  0.25500000920E-02 0.  1.
       -2    1    3    3    0  502 -0.41186374562E+03 -0.18514323975E+02 -0.88715452377E+03  0.97827280152E+03  0.25500000920E-02 0. -1.
</event>
<event>
 5   0  0.3803253E-04  0.1741180E+04  0.7818609E-02  0.8738220E-01
        1   -1    0    0  501    0  0.00000000000E+00  0.00000000000E+00  0.15668863311E+04  0.15668863311E+04  0.50400001928E-02 0. -1.
       -1   -1    0    0    0  501  0.00000000000E+00  0.00000000000E+00 -0.48371539007E+03  0.48371539010E+03  0.50400001928E-02 0.  1.
    10030    2    1    2    0    0  0.00000000000E+00  0.00000000000E+00  0.10831709410E+04  0.20506017212E+04  0.17411800974E+04 0.  0.
        4    1    3    3  502    0  0.36655060261E+03 -0.31359259574E+03  0.13950994372E+04  0.14761448821E+04  0.12699999809E+01 0. -1.
       -4    1    3    3    0  502 -0.36655060261E+03  0.31359259574E+03 -0.31192849617E+03  0.57445683911E+03  0.12699999809E+01 0.  1.
</event>
<event>
 5   0  0.7049044E-04  0.1547082E+04  0.7818609E-02  0.8853733E-01
       -2   -1    0    0    0  501  0.00000000000E+00  0.00000000000E+00  0.75829486790E+03  0.75829486790E+03  0.25500000920E-02 0. -1.
        2   -1    0    0  501    0  0.00000000000E+00  0.00000000000E+00 -0.78909410496E+03  0.78909410497E+03  0.25500000920E-02 0.  1.
    10030    2    1    2    0    0  0.00000000000E+00  0.00000000000E+00 -0.30799237062E+02  0.15473889729E+04  0.15470824284E+04 0.  0.
        4    1    3    3  502    0 -0.11649567668E+03 -0.22130372463E+03  0.71674119765E+03  0.75912195234E+03  0.12699999809E+01 0. -1.
       -4    1    3    3    0  502  0.11649567668E+03  0.22130372463E+03 -0.74754043471E+03  0.78826702053E+03  0.12699999809E+01 0.  1.
</event>
<event>
 5   0  0.3713516E-04  0.1709024E+04  0.7818609E-02  0.8756234E-01
       -1   -1    0    0    0  501  0.00000000000E+00  0.00000000000E+00  0.10583483544E+04  0.10583483545E+04  0.50400001928E-02 0.  1.
        1   -1    0    0  501    0  0.00000000000E+00  0.00000000000E+00 -0.68993444055E+03  0.68993444057E+03  0.50400001928E-02 0. -1.
    10030    2    1    2    0    0  0.00000000000E+00  0.00000000000E+00  0.36841391389E+03  0.17482827950E+04  0.17090242595E+04 0.  0.
        5    1    3    3  502    0  0.50097344163E+03 -0.16958764571E+03 -0.50235430358E+03  0.72946301834E+03  0.46999998093E+01 0. -1.
       -5    1    3    3    0  502 -0.50097344163E+03  0.16958764571E+03  0.87076821747E+03  0.10188197767E+04  0.46999998093E+01 0.  1.
</event>
<event>
 5   0  0.3713516E-04  0.1674048E+04  0.7818609E-02  0.8776306E-01
       -1   -1    0    0    0  501  0.00000000000E+00  0.00000000000E+00  0.40252254149E+03  0.40252254152E+03  0.50400001928E-02 0.  1.
        1   -1    0    0  501    0  0.00000000000E+00  0.00000000000E+00 -0.17405460285E+04  0.17405460285E+04  0.50400001928E-02 0. -1.
    10030    2    1    2    0    0  0.00000000000E+00  0.00000000000E+00 -0.13380234870E+04  0.21430685700E+04  0.16740478022E+04 0.  0.
        5    1    3    3  502    0  0.14049278757E+03  0.70545128951E+02  0.38343581729E+03  0.41443932554E+03  0.46999998093E+01 0.  1.
       -5    1    3    3    0  502 -0.14049278757E+03 -0.70545128951E+02 -0.17214593043E+04  0.17286292445E+04  0.46999998093E+01 0. -1.
</event>
<event>
 5   0  0.3713516E-04  0.1709253E+04  0.7818609E-02  0.8756105E-01
       -1   -1    0    0    0  501  0.00000000000E+00  0.00000000000E+00  0.10708550578E+04  0.10708550578E+04  0.50400001928E-02 0. -1.
        1   -1    0    0  501    0  0.00000000000E+00  0.00000000000E+00 -0.68205887121E+03  0.68205887123E+03  0.50400001928E-02 0.  1.
    10030    2    1    2    0    0  0.00000000000E+00  0.00000000000E+00  0.38879618658E+03  0.17529139290E+04  0.17092526928E+04 0.  0.
        5    1    3    3  502    0 -0.55404274742E+03 -0.44214705436E+03  0.68398848159E+03  0.98504807832E+03  0.46999998093E+01 0. -1.
       -5    1    3    3    0  502  0.55404274742E+03  0.44214705436E+03 -0.29519229501E+03  0.76786585071E+03  0.46999998093E+01 0.  1.
</event>
<event>
 5   0  0.6746664E-04  0.1736772E+04  0.7818609E-02  0.8740665E-01
       -2   -1    0    0    0  501  0.00000000000E+00  0.00000000000E+00  0.69733503116E+03  0.69733503116E+03  0.25500000920E-02 0. -1.
        2   -1    0    0  501    0  0.00000000000E+00  0.00000000000E+00 -0.10813944670E+04  0.10813944670E+04  0.25500000920E-02 0.  1.
    10030    2    1    2    0    0  0.00000000000E+00  0.00000000000E+00 -0.38405943588E+03  0.17787294982E+04  0.17367719993E+04 0.  0.
        5    1    3    3  502    0  0.11627418180E+03  0.22108596459E+02 -0.10730819259E+04  0.10795996411E+04  0.46999998093E+01 0.  1.
       -5    1    3    3    0  502 -0.11627418180E+03 -0.22108596459E+02  0.68902249000E+03  0.69912985712E+03  0.46999998093E+01 0. -1.
</event>
<event>
 5   0  0.7233728E-04  0.1489124E+04  0.7818609E-02  0.8891717E-01
        2   -1    0    0  501    0  0.00000000000E+00  0.00000000000E+00  0.10193394027E+04  0.10193394027E+04  0.25500000920E-02 0. -1.
       -2   -1    0    0    0  501  0.00000000000E+00  0.00000000000E+00 -0.54385505996E+03  0.54385505997E+03  0.25500000920E-02 0.  1.
    10030    2    1    2    0    0  0.00000000000E+00  0.00000000000E+00  0.47548434275E+03  0.15631944627E+04  0.14891244300E+04 0.  0.
        1    1    3    3  502    0 -0.61192604169E+03 -0.14970445750E+03  0.65435564358E+03  0.90832054552E+03  0.50400001928E-02 0. -1.
       -1    1    3    3    0  502  0.61192604169E+03  0.14970445750E+03 -0.17887130083E+03  0.65487391717E+03  0.50400001928E-02 0.  1.
</event>
<event>
 5   0  0.3915701E-04  0.1697830E+04  0.7818609E-02  0.8762603E-01
       -1   -1    0    0    0  501  0.00000000000E+00  0.00000000000E+00  0.48220857910E+03  0.48220857913E+03  0.50400001928E-02 0.  1.
        1   -1    0    0  501    0  0.00000000000E+00  0.00000000000E+00 -0.14944915769E+04  0.14944915769E+04  0.50400001928E-02 0. -1.
    10030    2    1    2    0    0  0.00000000000E+00  0.00000000000E+00 -0.10122829978E+04  0.19767001560E+04  0.16978299795E+04 0.  0.
        2    1    3    3  502    0  0.27270597917E+03  0.45023422417E+03 -0.12815512029E+04  0.13854432119E+04  0.25500000920E-02 0. -1.
       -2    1    3    3    0  502 -0.27270597917E+03 -0.45023422417E+03  0.26926820513E+03  0.59125694413E+03  0.25500000920E-02 0.  1.
</event>
<event>
 5   0  0.6746664E-04  0.1668898E+04  0.7818609E-02  0.8779304E-01
        2   -1    0    0  501    0  0.00000000000E+00  0.00000000000E+00  0.72934070505E+03  0.72934070505E+03  0.25500000920E-02 0.  1.
       -2   -1    0    0    0  501  0.00000000000E+00  0.00000000000E+00 -0.95470528357E+03  0.95470528357E+03  0.25500000920E-02 0. -1.
    10030    2    1    2    0    0  0.00000000000E+00  0.00000000000E+00 -0.22536457852E+03  0.16840459886E+04  0.16688983488E+04 0.  0.
        5    1    3    3  502    0  0.24582080277E+03 -0.69040129666E+03 -0.51530443895E+03  0.89590321592E+03  0.46999998093E+01 0. -1.
       -5    1    3    3    0  502 -0.24582080277E+03  0.69040129666E+03  0.28993986042E+03  0.78814277270E+03  0.46999998093E+01 0.  1.
</event>
<event>
 5   0  0.7233728E-04  0.1175092E+04  0.7818609E-02  0.9134943E-01
        2   -1    0    0  501    0  0.00000000000E+00  0.00000000000E+00  0.36419038283E+03  0.36419038284E+03  0.25500000920E-02 0. -1.
       -2   -1    0    0    0  501  0.00000000000E+00  0.00000000000E+00 -0.94788358006E+03  0.94788358007E+03  0.25500000920E-02 0.  1.
    10030    2    1    2    0    0  0.00000000000E+00  0.00000000000E+00 -0.58369319723E+03  0.13120739629E+04  0.11750916286E+04 0.  0.
        1    1    3    3  502    0  0.57311898034E+03  0.80577164374E+02 -0.40490210157E+03  0.70633119492E+03  0.50400001928E-02 0.  1.
       -1    1    3    3    0  502 -0.57311898034E+03 -0.80577164374E+02 -0.17879109567E+03  0.60574276798E+03  0.50400001928E-02 0. -1.
</event>
<event>
 5   0  0.2639750E-04  0.1700014E+04  0.7818609E-02  0.8761356E-01
       -3   -1    0    0    0  501  0.00000000000E+00  0.00000000000E+00  0.13365007137E+04  0.13365007175E+04  0.10100000352E+00 0. -1.
        3   -1    0    0  501    0  0.00000000000E+00  0.00000000000E+00 -0.54059990990E+03  0.54059991934E+03  0.10100000352E+00 0.  1.
    10030    2    1    2    0    0  0.00000000000E+00  0.00000000000E+00  0.79590080375E+03  0.18771006368E+04  0.17000143268E+04 0.  0.
        3    1    3    3  502    0 -0.63827061342E+03  0.39763662495E+03  0.83546821198E+03  0.11240602319E+04  0.10100000352E+00 0. -1.
       -3    1    3    3    0  502  0.63827061342E+03 -0.39763662495E+03 -0.39567408228E+02  0.75304040493E+03  0.10100000352E+00 0.  1.
</event>
<event>
 5   0  0.7233728E-04  0.1680220E+04  0.7818609E-02  0.8772727E-01
       -2   -1    0    0    0  501  0.00000000000E+00  0.00000000000E+00  0.33572697042E+03  0.33572697043E+03  0.25500000920E-02 0. -1.
        2   -1    0    0  501    0  0.00000000000E+00  0.00000000000E+00 -0.21022571053E+04  0.21022571053E+04  0.25500000920E-02 0.  1.
    10030    2    1    2    0    0  0.00000000000E+00  0.00000000000E+00 -0.17665301349E+04  0.24379840757E+04  0.16802195202E+04 0.  0.
        1    1    3    3  502    0 -0.68695111742E+03 -0.13102841655E+03 -0.15587387740E+04  0.17084311076E+04  0.50400001928E-02 0.  1.
       -1    1    3    3    0  502  0.68695111742E+03  0.13102841655E+03 -0.20779136087E+03  0.72955296816E+03  0.50400001928E-02 0. -1.
</event>
<event>
 5   0  0.7242144E-04  0.1733111E+04  0.7818609E-02  0.8742702E-01
        2   -1    0    0  501    0  0.00000000000E+00  0.00000000000E+00  0.10180938914E+04  0.10180938914E+04  0.25500000920E-02 0. -1.
       -2   -1    0    0    0  501  0.00000000000E+00  0.00000000000E+00 -0.73757327744E+03  0.73757327745E+03  0.25500000920E-02 0.  1.
    10030    2    1    2    0    0  0.00000000000E+00  0.00000000000E+00  0.28052061398E+03  0.17556671689E+04  0.17331114774E+04 0.  0.
        3    1    3    3  502    0 -0.44910062174E+03 -0.57219590192E+03 -0.33684623743E+03  0.80160146986E+03  0.10100000352E+00 0.  1.
       -3    1    3    3    0  502  0.44910062174E+03  0.57219590192E+03  0.61736685141E+03  0.95406569902E+03  0.10100000352E+00 0. -1.
</event>
<event>
 5   0  0.3803253E-04  0.1405796E+04  0.7818609E-02  0.8949634E-01
       -1   -1    0    0    0  501  0.00000000000E+00  0.00000000000E+00  0.55915789413E+03  0.55915789415E+03  0.50400001928E-02 0. -1.
        1   -1    0    0  501    0  0.00000000000E+00  0.00000000000E+00 -0.88358844827E+03  0.88358844828E+03  0.50400001928E-02 0.  1.
    10030    2    1    2    0    0  0.00000000000E+00  0.00000000000E+00 -0.32443055413E+03  0.14427463424E+04  0.14057957975E+04 0.  0.
        4    1    3    3  502    0 -0.20600425670E+03 -0.65176534005E+02 -0.84865926536E+03  0.87573391846E+03  0.12699999809E+01 0.  1.
       -4    1    3    3    0  502  0.20600425670E+03  0.65176534005E+02  0.52422871123E+03  0.56701242397E+03  0.12699999809E+01 0. -1.
</event>
<event>
 5   0  0.3803253E-04  0.1707620E+04  0.7818609E-02  0.8757030E-01
       -1   -1    0    0    0  501  0.00000000000E+00  0.00000000000E+00  0.72962739634E+03  0.72962739635E+03  0.50400001928E-02 0. -1.
        1   -1    0    0  501    0  0.00000000000E+00  0.00000000000E+00 -0.99912824101E+03  0.99912824102E+03  0.50400001928E-02 0.  1.
    10030    2    1    2    0    0  0.00000000000E+00  0.00000000000E+00 -0.26950084467E+03  0.17287556374E+04  0.17076197904E+04 0.  0.
        4    1    3    3  502    0 -0.77313514569E+03 -0.33654955028E+03  0.10220692763E+01  0.84321184220E+03  0.12699999809E+01 0.  1.
       -4    1    3    3    0  502  0.77313514569E+03  0.33654955028E+03 -0.27052291395E+03  0.88554379517E+03  0.12699999809E+01 0. -1.
</event>
<event>
 5   0  0.3723500E-04  0.1697931E+04  0.7818609E-02  0.8762545E-01
       -1   -1    0    0    0  501  0.00000000000E+00  0.00000000000E+00  0.50299417447E+03  0.50299417450E+03  0.50400001928E-02 0.  1.
        1   -1    0    0  501    0  0.00000000000E+00  0.00000000000E+00 -0.14329037869E+04  0.14329037869E+04  0.50400001928E-02 0. -1.
    10030    2    1    2    0    0  0.00000000000E+00  0.00000000000E+00 -0.92990961240E+03  0.19358979614E+04  0.16979308083E+04 0.  0.
        1    1    3    3  502    0  0.34266262571E+03  0.13823905410E+03  0.40650760031E+03  0.54934155156E+03  0.50400001928E-02 0.  1.
       -1    1    3    3    0  502 -0.34266262571E+03 -0.13823905410E+03 -0.13364172127E+04  0.13865564098E+04  0.50400001928E-02 0. -1.
</event>
<event>
 5   0  0.6746664E-04  0.1722174E+04  0.7818609E-02  0.8748818E-01
       -2   -1    0    0    0  501  0.00000000000E+00  0.00000000000E+00  0.62087203991E+03  0.62087203991E+03  0.25500000920E-02 0.  1.
        2   -1    0    0  501    0  0.00000000000E+00  0.00000000000E+00 -0.11942410661E+04  0.11942410661E+04  0.25500000920E-02 0. -1.
    10030    2    1    2    0    0  0.00000000000E+00  0.00000000000E+00 -0.57336902616E+03  0.18151131060E+04  0.17221740758E+04 0.  0.
        5    1    3    3  502    0 -0.46469117453E+03 -0.47102052661E+03 -0.86746724792E+03  0.10910177544E+04  0.46999998093E+01 0. -1.
       -5    1    3    3    0  502  0.46469117453E+03  0.47102052661E+03  0.29409822175E+03  0.72409535160E+03  0.46999998093E+01 0.  1.
</event>
<event>
 5   0  0.3723500E-04  0.1616552E+04  0.7818609E-02  0.8810443E-01
       -1   -1    0    0    0  501  0.00000000000E+00  0.00000000000E+00  0.82895030352E+03  0.82895030354E+03  0.50400001928E-02 0. -1.
        1   -1    0    0  501    0  0.00000000000E+00  0.00000000000E+00 -0.78811752247E+03  0.78811752249E+03  0.50400001928E-02 0.  1.
    10030    2    1    2    0    0  0.00000000000E+00  0.00000000000E+00  0.40832781053E+02  0.16170678260E+04  0.16165522070E+04 0.  0.
        1    1    3    3  502    0 -0.29232637229E+03 -0.74529973248E+03 -0.90901898702E+02  0.80572300103E+03  0.50400001928E-02 0. -1.
       -1    1    3    3    0  502  0.29232637229E+03  0.74529973248E+03  0.13173467976E+03  0.81134482500E+03  0.50400001928E-02 0.  1.
</event>
<event>
 5   0  0.2639750E-04  0.1727115E+04  0.7818609E-02  0.8746049E-01
        3   -1    0    0  501    0  0.00000000000E+00  0.00000000000E+00  0.88333412258E+03  0.88333412835E+03  0.10100000352E+00 0.  1.
       -3   -1    0    0    0  501  0.00000000000E+00  0.00000000000E+00 -0.84422410101E+03  0.84422410706E+03  0.10100000352E+00 0. -1.
    10030    2    1    2    0    0  0.00000000000E+00  0.00000000000E+00  0.39110021565E+02  0.17275582354E+04  0.17271154747E+04 0.  0.
        5    1    3    3  502    0  0.77868943164E+03  0.36735182729E+03 -0.46834285996E+02  0.86227613692E+03  0.46999998093E+01 0. -1.
       -5    1    3    3    0  502 -0.77868943164E+03 -0.36735182729E+03  0.85944307561E+02  0.86528209849E+03  0.46999998093E+01 0.  1.
</event>
<event>
 5   0  0.6746664E-04  0.1688350E+04  0.7818609E-02  0.8768037E-01
       -2   -1    0    0    0  501  0.00000000000E+00  0.00000000000E+00  0.67825800565E+03  0.67825800565E+03  0.25500000920E-02 0. -1.
        2   -1    0    0  501    0  0.00000000000E+00  0.00000000000E+00 -0.10506789156E+04  0.10506789156E+04  0.25500000920E-02 0.  1.
    10030    2    1    2    0    0  0.00000000000E+00  0.00000000000E+00 -0.37242090992E+03  0.17289369212E+04  0.16883499470E+04 0.  0.
        5    1    3    3  502    0  0.19011336330E+03 -0.61350827530E+03 -0.74716893799E+03  0.98530148009E+03  0.46999998093E+01 0.  1.
       -5    1    3    3    0  502 -0.19011336330E+03  0.61350827530E+03  0.37474802807E+03  0.74363544113E+03  0.46999998093E+01 0. -1.
</event>
<event>
 5   0  0.7233728E-04  0.1293117E+04  0.7818609E-02  0.9035041E-01
       -2   -1    0    0    0  501  0.00000000000E+00  0.00000000000E+00  0.96632576277E+03  0.96632576278E+03  0.25500000920E-02 0.  1.
        2   -1    0    0  501    0  0.00000000000E+00  0.00000000000E+00 -0.43260575766E+03  0.43260575767E+03  0.25500000920E-02 0. -1.
    10030    2    1    2    0    0  0.00000000000E+00  0.00000000000E+00  0.53372000511E+03  0.13989315204E+04  0.12931173014E+04 0.  0.
        1    1    3    3  502    0  0.12816221165E+03 -0.61143649014E+03  0.44710045347E+03  0.76823105215E+03  0.50400001928E-02 0. -1.
       -1    1    3    3    0  502 -0.12816221165E+03  0.61143649014E+03  0.86619551643E+02  0.63070046830E+03  0.50400001928E-02 0.  1.
</event>
<event>
 5   0  0.7049044E-04  0.1659957E+04  0.7818609E-02  0.8784538E-01
        2   -1    0    0  501    0  0.00000000000E+00  0.00000000000E+00  0.14917716246E+04  0.14917716246E+04  0.25500000920E-02 0. -1.
       -2   -1    0    0    0  501  0.00000000000E+00  0.00000000000E+00 -0.46177582049E+03  0.46177582049E+03  0.25500000920E-02 0.  1.
    10030    2    1    2    0    0  0.00000000000E+00  0.00000000000E+00  0.10299958041E+04  0.19535474451E+04  0.16599567054E+04 0.  0.
        4    1    3    3  502    0 -0.58589362460E+03 -0.29102070854E+02  0.12059941287E+04  0.13410972079E+04  0.12699999809E+01 0. -1.
       -4    1    3    3    0  502  0.58589362460E+03  0.29102070854E+02 -0.17599832453E+03  0.61245023717E+03  0.12699999809E+01 0.  1.
</event>
<event>
 5   0  0.6746664E-04  0.1702305E+04  0.7818609E-02  0.8760051E-01
       -2   -1    0    0    0  501  0.00000000000E+00  0.00000000000E+00  0.80326902101E+03  0.80326902101E+03  0.25500000920E-02 0. -1.
        2   -1    0    0  501    0  0.00000000000E+00  0.00000000000E+00 -0.90189036664E+03  0.90189036665E+03  0.25500000920E-02 0.  1.
    10030    2    1    2    0    0  0.00000000000E+00  0.00000000000E+00 -0.98621345632E+02  0.17051593877E+04  0.17023050160E+04 0.  0.
        5    1    3    3  502    0  0.59090213963E+03 -0.61182560850E+03 -0.80063749221E+02  0.85435836027E+03  0.46999998093E+01 0.  1.
       -5    1    3    3    0  502 -0.59090213963E+03  0.61182560850E+03 -0.18557596412E+02  0.85080102739E+03  0.46999998093E+01 0. -1.
</event>
<event>
 5   0  0.3803253E-04  0.1264903E+04  0.7818609E-02  0.9057870E-01
        1   -1    0    0  501    0  0.00000000000E+00  0.00000000000E+00  0.13684233925E+04  0.13684233925E+04  0.50400001928E-02 0.  1.
       -1   -1    0    0    0  501  0.00000000000E+00  0.00000000000E+00 -0.29230334271E+03  0.29230334275E+03  0.50400001928E-02 0. -1.
    10030    2    1    2    0    0  0.00000000000E+00  0.00000000000E+00  0.10761200497E+04  0.16607267352E+04  0.12649027344E+04 0.  0.
        4    1    3    3  502    0  0.48542167526E+03 -0.20008007802E+03  0.75121246963E+02  0.53038764604E+03  0.12699999809E+01 0. -1.
       -4    1    3    3    0  502 -0.48542167526E+03  0.20008007802E+03  0.10009988028E+04  0.11303390892E+04  0.12699999809E+01 0.  1.
</event>
<event>
 5   0  0.7233728E-04  0.1721129E+04  0.7818609E-02  0.8749405E-01
        2   -1    0    0  501    0  0.00000000000E+00  0.00000000000E+00  0.14084660100E+04  0.14084660100E+04  0.25500000920E-02 0. -1.
       -2   -1    0    0    0  501  0.00000000000E+00  0.00000000000E+00 -0.52579984147E+03  0.52579984147E+03  0.25500000920E-02 0.  1.
    10030    2    1    2    0    0  0.00000000000E+00  0.00000000000E+00  0.88266616852E+03  0.19342658515E+04  0.17211289374E+04 0.  0.
        1    1    3    3  502    0 -0.51406388088E+03 -0.12830191991E+03 -0.32076343707E+03  0.61936438295E+03  0.50400001928E-02 0.  1.
       -1    1    3    3    0  502  0.51406388088E+03  0.12830191991E+03  0.12034296056E+04  0.13149014685E+04  0.50400001928E-02 0. -1.
</event>
<event>
 5   0  0.3803253E-04  0.1708245E+04  0.7818609E-02  0.8756676E-01
        1   -1    0    0  501    0  0.00000000000E+00  0.00000000000E+00  0.62429105113E+03  0.62429105116E+03  0.50400001928E-02 0.  1.
       -1   -1    0    0    0  501  0.00000000000E+00  0.00000000000E+00 -0.11685660175E+04  0.11685660175E+04  0.50400001928E-02 0. -1.
    10030    2    1    2    0    0  0.00000000000E+00  0.00000000000E+00 -0.54427496633E+03  0.17928570686E+04  0.17082450730E+04 0.  0.
        4    1    3    3  502    0 -0.13484183313E+03 -0.59450860937E+03 -0.90001781473E+03  0.10870402414E+04  0.12699999809E+01 0.  1.
       -4    1    3    3    0  502  0.13484183313E+03  0.59450860937E+03  0.35574284841E+03  0.70581682728E+03  0.12699999809E+01 0. -1.
</event>
<event>
 5   0  0.3915701E-04  0.1691267E+04  0.7818609E-02  0.8766361E-01
       -1   -1    0    0    0  501  0.00000000000E+00  0.00000000000E+00  0.41109790985E+03  0.41109790988E+03  0.50400001928E-02 0. -1.
        1   -1    0    0  501    0  0.00000000000E+00  0.00000000000E+00 -0.17394782310E+04  0.17394782310E+04  0.50400001928E-02 0.  1.
    10030    2    1    2    0    0  0.00000000000E+00  0.00000000000E+00 -0.13283803212E+04  0.21505761409E+04  0.16912668211E+04 0.  0.
        2    1    3    3  502    0  0.59424764789E+03  0.54563927793E+03 -0.34189270782E+03  0.87620951393E+03  0.25500000920E-02 0.  1.
       -2    1    3    3    0  502 -0.59424764789E+03 -0.54563927793E+03 -0.98648761334E+03  0.12743666270E+04  0.25500000920E-02 0. -1.
</event>
<event>
 5   0  0.2639750E-04  0.1689494E+04  0.7818609E-02  0.8767379E-01
        4   -1    0    0  501    0  0.00000000000E+00  0.00000000000E+00  0.37982584676E+03  0.37982796996E+03  0.12699999809E+01 0.  1.
       -4   -1    0    0    0  501  0.00000000000E+00  0.00000000000E+00 -0.18787421195E+04  0.18787425488E+04  0.12699999809E+01 0. -1.
    10030    2    1    2    0    0  0.00000000000E+00  0.00000000000E+00 -0.14989162728E+04  0.22585705187E+04  0.16894942425E+04 0.  0.
        1    1    3    3  502    0  0.16601670666E+03 -0.80140534875E+03 -0.10291904809E+04  0.13149316050E+04  0.50400001928E-02 0.  1.
       -1    1    3    3    0  502 -0.16601670666E+03  0.80140534875E+03 -0.46972579185E+03  0.94363891370E+03  0.50400001928E-02 0. -1.
</event>
<event>
 5   0  0.3723500E-04  0.1699020E+04  0.7818609E-02  0.8761924E-01
        1   -1    0    0  501    0  0.00000000000E+00  0.00000000000E+00  0.22897339177E+04  0.22897339177E+04  0.50400001928E-02 0.  1.
       -1   -1    0    0    0  501  0.00000000000E+00  0.00000000000E+00 -0.31517509658E+03  0.31517509662E+03  0.50400001928E-02 0. -1.
    10030    2    1    2    0    0  0.00000000000E+00  0.00000000000E+00  0.19745588211E+04  0.26049090143E+04  0.16990198453E+04 0.  0.
        1    1    3    3  502    0  0.69838610069E+03 -0.19179126713E+03  0.16680198699E+04  0.18184656505E+04  0.50400001928E-02 0.  1.
       -1    1    3    3    0  502 -0.69838610069E+03  0.19179126713E+03  0.30653895122E+03  0.78644336377E+03  0.50400001928E-02 0. -1.
</event>
<event>
 5   0  0.3803253E-04  0.1691184E+04  0.7818609E-02  0.8766409E-01
       -1   -1    0    0    0  501  0.00000000000E+00  0.00000000000E+00  0.29814375887E+03  0.29814375892E+03  0.50400001928E-02 0.  1.
        1   -1    0    0  501    0  0.00000000000E+00  0.00000000000E+00 -0.23982572824E+04  0.23982572824E+04  0.50400001928E-02 0. -1.
    10030    2    1    2    0    0  0.00000000000E+00  0.00000000000E+00 -0.21001135235E+04  0.26964010413E+04  0.16911835394E+04 0.  0.
        4    1    3    3  502    0  0.42176513405E+03  0.91663817170E+02  0.10928926746E+03  0.44523459048E+03  0.12699999809E+01 0.  1.
       -4    1    3    3    0  502 -0.42176513405E+03 -0.91663817170E+02 -0.22094027910E+04  0.22511664508E+04  0.12699999809E+01 0. -1.
</event>
<event>
 5   0  0.7049044E-04  0.1687451E+04  0.7818609E-02  0.8768554E-01
       -2   -1    0    0    0  501  0.00000000000E+00  0.00000000000E+00  0.26652917512E+03  0.26652917513E+03  0.25500000920E-02 0. -1.
        2   -1    0    0  501    0  0.00000000000E+00  0.00000000000E+00 -0.26709001165E+04  0.26709001165E+04  0.25500000920E-02 0.  1.
    10030    2    1    2    0    0  0.00000000000E+00  0.00000000000E+00 -0.24043709414E+04  0.29374292917E+04  0.16874511014E+04 0.  0.
        4    1    3    3  502    0  0.40538125979E+03  0.39886877979E+03 -0.22871079632E+04  0.23567551246E+04  0.12699999809E+01 0.  1.
       -4    1    3    3    0  502 -0.40538125979E+03 -0.39886877979E+03 -0.11726297820E+03  0.58067416701E+03  0.12699999809E+01 0. -1.
</event>
<event>
 5   0  0.7025426E-04  0.1696558E+04  0.7818609E-02  0.8763330E-01
       -2   -1    0    0    0  501  0.00000000000E+00  0.00000000000E+00  0.37708220722E+03  0.37708220723E+03  0.25500000920E-02 0. -1.
        2   -1    0    0  501    0  0.00000000000E+00  0.00000000000E+00 -0.19082767013E+04  0.19082767013E+04  0.25500000920E-02 0.  1.
    10030    2    1    2    0    0  0.00000000000E+00  0.00000000000E+00 -0.15311944941E+04  0.22853589085E+04  0.16965579159E+04 0.  0.
        2    1    3    3  502    0 -0.60622955381E+03 -0.46155856947E+03 -0.12678642922E+04  0.14791992592E+04  0.25500000920E-02 0.  1.
       -2    1    3    3    0  502  0.60622955381E+03  0.46155856947E+03 -0.26333020184E+03  0.80615964931E+03  0.25500000920E-02 0. -1.
</event>
<event>
 5   0  0.3713516E-04  0.1691671E+04  0.7818609E-02  0.8766129E-01
       -1   -1    0    0    0  501  0.00000000000E+00  0.00000000000E+00  0.67991847350E+03  0.67991847352E+03  0.50400001928E-02 0.  1.
        1   -1    0    0  501    0  0.00000000000E+00  0.00000000000E+00 -0.10522405316E+04  0.10522405316E+04  0.50400001928E-02 0. -1.
    10030    2    1    2    0    0  0.00000000000E+00  0.00000000000E+00 -0.37232205813E+03  0.17321590052E+04  0.16916710981E+04 0.  0.
        5    1    3    3  502    0 -0.63647729028E+03  0.41523068044E+01  0.38421240252E+03  0.74347955112E+03  0.46999998093E+01 0.  1.
       -5    1    3    3    0  502  0.63647729028E+03 -0.41523068044E+01 -0.75653446064E+03  0.98867945404E+03  0.46999998093E+01 0. -1.
</event>
<event>
 5   0  0.7025426E-04  0.1690491E+04  0.7818609E-02  0.8766807E-01
       -2   -1    0    0    0  501  0.00000000000E+00  0.00000000000E+00  0.43482681967E+03  0.43482681967E+03  0.25500000920E-02 0.  1.
        2   -1    0    0  501    0  0.00000000000E+00  0.00000000000E+00 -0.16430440258E+04  0.16430440258E+04  0.25500000920E-02 0. -1.
    10030    2    1    2    0    0  0.00000000000E+00  0.00000000000E+00 -0.12082172062E+04  0.20778708455E+04  0.16904905896E+04 0.  0.
        2    1    3    3  502    0 -0.74698679451E+03 -0.17119181399E+03 -0.10423901793E+04  0.12937825143E+04  0.25500000920E-02 0. -1.
       -2    1    3    3    0  502  0.74698679451E+03  0.17119181399E+03 -0.16582702690E+03  0.78408833125E+03  0.25500000920E-02 0.  1.
</event>
<event>
 5   0  0.3713516E-04  0.1839500E+04  0.7818609E-02  0.8685572E-01
        1   -1    0    0  501    0  0.00000000000E+00  0.00000000000E+00  0.12133963844E+04  0.12133963844E+04  0.50400001928E-02 0. -1.
       -1   -1    0    0    0  501  0.00000000000E+00  0.00000000000E+00 -0.69716682609E+03  0.69716682611E+03  0.50400001928E-02 0.  1.
    10030    2    1    2    0    0  0.00000000000E+00  0.00000000000E+00  0.51622955830E+03  0.19105632105E+04  0.18394996125E+04 0.  0.
        5    1    3    3  502    0 -0.86910191445E+02  0.17634972330E+03 -0.67507457241E+03  0.70313609962E+03  0.46999998093E+01 0.  1.
       -5    1    3    3    0  502  0.86910191445E+02 -0.17634972330E+03  0.11913041307E+04  0.12074271109E+04  0.46999998093E+01 0. -1.
</event>
<event>
 5   0  0.7233728E-04  0.1699110E+04  0.7818609E-02  0.8761872E-01
       -2   -1    0    0    0  501  0.00000000000E+00  0.00000000000E+00  0.10964575325E+04  0.10964575325E+04  0.25500000920E-02 0.  1.
        2   -1    0    0  501    0  0.00000000000E+00  0.00000000000E+00 -0.65825025537E+03  0.65825025537E+03  0.25500000920E-02 0. -1.
    10030    2    1    2    0    0  0.00000000000E+00  0.00000000000E+00  0.43820727715E+03  0.17547077879E+04  0.16991097090E+04 0.  0.
        1    1    3    3  502    0 -0.55150704485E+03 -0.47987630966E+03 -0.22784207061E+03  0.76573709735E+03  0.50400001928E-02 0. -1.
       -1    1    3    3    0  502  0.55150704485E+03  0.47987630966E+03  0.66604934776E+03  0.98897069055E+03  0.50400001928E-02 0.  1.
</event>
<event>
 5   0  0.7049044E-04  0.1667773E+04  0.7818609E-02  0.8779961E-01
       -2   -1    0    0    0  501  0.00000000000E+00  0.00000000000E+00  0.48137275033E+03  0.48137275034E+03  0.25500000920E-02 0. -1.
        2   -1    0    0  501    0  0.00000000000E+00  0.00000000000E+00 -0.14445495374E+04  0.14445495375E+04  0.25500000920E-02 0.  1.
    10030    2    1    2    0    0  0.00000000000E+00  0.00000000000E+00 -0.96317678712E+03  0.19259222878E+04  0.16677731067E+04 0.  0.
        4    1    3    3  502    0 -0.64883247701E+03 -0.35869229466E+03 -0.92241063462E+03  0.11834216228E+04  0.12699999809E+01 0.  1.
       -4    1    3    3    0  502  0.64883247701E+03  0.35869229466E+03 -0.40766152499E+02  0.74250066502E+03  0.12699999809E+01 0. -1.
</event>
<event>
 5   0  0.3635143E-04  0.1700522E+04  0.7818609E-02  0.8761067E-01
       -1   -1    0    0    0  501  0.00000000000E+00  0.00000000000E+00  0.91145650628E+03  0.91145650629E+03  0.50400001928E-02 0. -1.
        1   -1    0    0  501    0  0.00000000000E+00  0.00000000000E+00 -0.79317375551E+03  0.79317375553E+03  0.50400001928E-02 0.  1.
    10030    2    1    2    0    0  0.00000000000E+00  0.00000000000E+00  0.11828275076E+03  0.17046302618E+04  0.17005215436E+04 0.  0.
        3    1    3    3  502    0  0.77238943510E+03  0.19960319709E+03 -0.23570616687E+03  0.83185592686E+03  0.10100000352E+00 0.  1.
       -3    1    3    3    0  502 -0.77238943510E+03 -0.19960319709E+03  0.35398891763E+03  0.87277433496E+03  0.10100000352E+00 0. -1.
</event>
<event>
 5   0  0.7049044E-04  0.1803676E+04  0.7818609E-02  0.8704347E-01
        2   -1    0    0  501    0  0.00000000000E+00  0.00000000000E+00  0.16019556839E+04  0.16019556839E+04  0.25500000920E-02 0. -1.
       -2   -1    0    0    0  501  0.00000000000E+00  0.00000000000E+00 -0.50769902789E+03  0.50769902789E+03  0.25500000920E-02 0.  1.
    10030    2    1    2    0    0  0.00000000000E+00  0.00000000000E+00  0.10942566560E+04  0.21096547118E+04  0.18036755179E+04 0.  0.
        4    1    3    3  502    0  0.76657898129E+03  0.43610359155E+03  0.32681280279E+03  0.94055191142E+03  0.12699999809E+01 0.  1.
       -4    1    3    3    0  502 -0.76657898129E+03 -0.43610359155E+03  0.76744385325E+03  0.11691028004E+04  0.12699999809E+01 0. -1.
</event>
<event>
 5   0  0.6746664E-04  0.1528700E+04  0.7818609E-02  0.8865589E-01
       -2   -1    0    0    0  501  0.00000000000E+00  0.00000000000E+00  0.30796549270E+03  0.30796549271E+03  0.25500000920E-02 0.  1.
        2   -1    0    0  501    0  0.00000000000E+00  0.00000000000E+00 -0.18970662406E+04  0.18970662406E+04  0.25500000920E-02 0. -1.
    10030    2    1    2    0    0  0.00000000000E+00  0.00000000000E+00 -0.15891007479E+04  0.22050317333E+04  0.15287000222E+04 0.  0.
        5    1    3    3  502    0 -0.21557345985E+03  0.52873175099E+03 -0.61635405666E+02  0.57432586075E+03  0.46999998093E+01 0.  1.
       -5    1    3    3    0  502  0.21557345985E+03 -0.52873175099E+03 -0.15274653422E+04  0.16307058725E+04  0.46999998093E+01 0. -1.
</event>
<event>
 5   0  0.7233728E-04  0.1742327E+04  0.7818609E-02  0.8737585E-01
        2   -1    0    0  501    0  0.00000000000E+00  0.00000000000E+00  0.18052401407E+04  0.18052401407E+04  0.25500000920E-02 0.  1.
       -2   -1    0    0    0  501  0.00000000000E+00  0.00000000000E+00 -0.42040149116E+03  0.42040149117E+03  0.25500000920E-02 0. -1.
    10030    2    1    2    0    0  0.00000000000E+00  0.00000000000E+00  0.13848386495E+04  0.22256416318E+04  0.17423267742E+04 0.  0.
        1    1    3    3  502    0  0.39261408224E+03 -0.51214239691E+02 -0.29882444533E+03  0.49604915590E+03  0.50400001928E-02 0. -1.
       -1    1    3    3    0  502 -0.39261408224E+03  0.51214239691E+02  0.16836630948E+04  0.17295924759E+04  0.50400001928E-02 0.  1.
</event>
<event>
 5   0  0.3803253E-04  0.1348112E+04  0.7818609E-02  0.8992258E-01
        1   -1    0    0  501    0  0.00000000000E+00  0.00000000000E+00  0.61985115116E+03  0.61985115118E+03  0.50400001928E-02 0.  1.
       -1   -1    0    0    0  501  0.00000000000E+00  0.00000000000E+00 -0.73300125006E+03  0.73300125008E+03  0.50400001928E-02 0. -1.
    10030    2    1    2    0    0  0.00000000000E+00  0.00000000000E+00 -0.11315009890E+03  0.13528524013E+04  0.13481122634E+04 0.  0.
        4    1    3    3  502    0 -0.61652073280E+03 -0.19761007262E+03  0.13170795389E+03  0.66067855481E+03  0.12699999809E+01 0.  1.
       -4    1    3    3    0  502  0.61652073280E+03  0.19761007262E+03 -0.24485805280E+03  0.69217384644E+03  0.12699999809E+01 0. -1.
</event>
<event>
 5   0  0.7233728E-04  0.1727021E+04  0.7818609E-02  0.8746102E-01
       -2   -1    0    0    0  501  0.00000000000E+00  0.00000000000E+00  0.59769419554E+03  0.59769419555E+03  0.25500000920E-02 0. -1.
        2   -1    0    0  501    0  0.00000000000E+00  0.00000000000E+00 -0.12475444505E+04  0.12475444505E+04  0.25500000920E-02 0.  1.
    10030    2    1    2    0    0  0.00000000000E+00  0.00000000000E+00 -0.64985025495E+03  0.18452386460E+04  0.17270206446E+04 0.  0.
        1    1    3    3  502    0  0.78510631035E+03  0.20374032623E+03 -0.84251240459E+01  0.81115536232E+03  0.50400001928E-02 0. -1.
       -1    1    3    3    0  502 -0.78510631035E+03 -0.20374032623E+03 -0.64142513090E+03  0.10340832837E+04  0.50400001928E-02 0.  1.
</event>
<event>
 5   0  0.3915701E-04  0.1665519E+04  0.7818609E-02  0.8781278E-01
        1   -1    0    0  501    0  0.00000000000E+00  0.00000000000E+00  0.73863002056E+03  0.73863002058E+03  0.50400001928E-02 0.  1.
       -1   -1    0    0    0  501  0.00000000000E+00  0.00000000000E+00 -0.93888456109E+03  0.93888456110E+03  0.50400001928E-02 0. -1.
    10030    2    1    2    0    0  0.00000000000E+00  0.00000000000E+00 -0.20025454053E+03  0.16775145817E+04  0.16655189254E+04 0.  0.
        2    1    3    3  502    0  0.15288154897E+03 -0.17556670739E+03 -0.90544327096E+03  0.93489248243E+03  0.25500000920E-02 0. -1.
       -2    1    3    3    0  502 -0.15288154897E+03  0.17556670739E+03  0.70518873044E+03  0.74262209925E+03  0.25500000920E-02 0.  1.
</event>
<event>
 5   0  0.7242144E-04  0.1753323E+04  0.7818609E-02  0.8731523E-01
       -2   -1    0    0    0  501  0.00000000000E+00  0.00000000000E+00  0.42807398742E+03  0.42807398743E+03  0.25500000920E-02 0.  1.
        2   -1    0    0  501    0  0.00000000000E+00  0.00000000000E+00 -0.17953328323E+04  0.17953328323E+04  0.25500000920E-02 0. -1.
    10030    2    1    2    0    0  0.00000000000E+00  0.00000000000E+00 -0.13672588449E+04  0.22234068198E+04  0.17533228845E+04 0.  0.
        3    1    3    3  502    0 -0.45920678832E+03 -0.36446953117E+03 -0.15101672999E+04  0.16199735175E+04  0.10100000352E+00 0. -1.
       -3    1    3    3    0  502  0.45920678832E+03  0.36446953117E+03  0.14290845496E+03  0.60343330227E+03  0.10100000352E+00 0.  1.
</event>
<event>
 5   0  0.3803253E-04  0.1698952E+04  0.7818609E-02  0.8761962E-01
       -1   -1    0    0    0  501  0.00000000000E+00  0.00000000000E+00  0.70500804855E+03  0.70500804857E+03  0.50400001928E-02 0.  1.
        1   -1    0    0  501    0  0.00000000000E+00  0.00000000000E+00 -0.10235479221E+04  0.10235479221E+04  0.50400001928E-02 0. -1.
    10030    2    1    2    0    0  0.00000000000E+00  0.00000000000E+00 -0.31853987352E+03  0.17285559707E+04  0.16989520572E+04 0.  0.
        4    1    3    3  502    0  0.75550712570E+03  0.24321777082E+03  0.14876289565E+03  0.80751341354E+03  0.12699999809E+01 0.  1.
       -4    1    3    3    0  502 -0.75550712570E+03 -0.24321777082E+03 -0.46730276917E+03  0.92104255711E+03  0.12699999809E+01 0. -1.
</event>
<event>
 5   0  0.3803253E-04  0.1694549E+04  0.7818609E-02  0.8764480E-01
       -1   -1    0    0    0  501  0.00000000000E+00  0.00000000000E+00  0.53805772179E+03  0.53805772181E+03  0.50400001928E-02 0.  1.
        1   -1    0    0  501    0  0.00000000000E+00  0.00000000000E+00 -0.13341949154E+04  0.13341949154E+04  0.50400001928E-02 0. -1.
    10030    2    1    2    0    0  0.00000000000E+00  0.00000000000E+00 -0.79613719363E+03  0.18722526372E+04  0.16945487619E+04 0.  0.
        4    1    3    3  502    0  0.81064635817E+03  0.38992277193E+02 -0.66690444645E+03  0.10504432728E+04  0.12699999809E+01 0. -1.
       -4    1    3    3    0  502 -0.81064635817E+03 -0.38992277193E+02 -0.12923274718E+03  0.82180936448E+03  0.12699999809E+01 0.  1.
</event>
<event>
 5   0  0.7233728E-04  0.1573467E+04  0.7818609E-02  0.8837016E-01
        2   -1    0    0  501    0  0.00000000000E+00  0.00000000000E+00  0.14297313260E+04  0.14297313260E+04  0.25500000920E-02 0.  1.
       -2   -1    0    0    0  501  0.00000000000E+00  0.00000000000E+00 -0.43291305141E+03  0.43291305141E+03  0.25500000920E-02 0. -1.
    10030    2    1    2    0    0  0.00000000000E+00  0.00000000000E+00  0.99681827459E+03  0.18626443774E+04  0.15734666835E+04 0.  0.
        1    1    3    3  502    0  0.11570000356E+02  0.78398159239E+03  0.42179766298E+03  0.89032256550E+03  0.50400001928E-02 0.  1.
       -1    1    3    3    0  502 -0.11570000356E+02 -0.78398159239E+03  0.57502061160E+03  0.97232181191E+03  0.50400001928E-02 0. -1.
</event>
<event>
 5   0  0.7049044E-04  0.1574735E+04  0.7818609E-02  0.8836221E-01
        2   -1    0    0  501    0  0.00000000000E+00  0.00000000000E+00  0.11593773257E+04  0.11593773257E+04  0.25500000920E-02 0.  1.
       -2   -1    0    0    0  501  0.00000000000E+00  0.00000000000E+00 -0.53472450563E+03  0.53472450564E+03  0.25500000920E-02 0. -1.
    10030    2    1    2    0    0  0.00000000000E+00  0.00000000000E+00  0.62465282006E+03  0.16941018313E+04  0.15747348568E+04 0.  0.
        4    1    3    3  502    0  0.66373153549E+03 -0.65571541327E+01 -0.14328949086E+03  0.67905525443E+03  0.12699999809E+01 0. -1.
       -4    1    3    3    0  502 -0.66373153549E+03  0.65571541327E+01  0.76794231092E+03  0.10150465769E+04  0.12699999809E+01 0.  1.
</event>
<event>
 5   0  0.3713516E-04  0.1785842E+04  0.7818609E-02  0.8713865E-01
       -1   -1    0    0    0  501  0.00000000000E+00  0.00000000000E+00  0.38145284482E+03  0.38145284485E+03  0.50400001928E-02 0. -1.
        1   -1    0    0  501    0  0.00000000000E+00  0.00000000000E+00 -0.20901873088E+04  0.20901873088E+04  0.50400001928E-02 0.  1.
    10030    2    1    2    0    0  0.00000000000E+00  0.00000000000E+00 -0.17087344640E+04  0.24716401537E+04  0.17858419809E+04 0.  0.
        5    1    3    3  502    0  0.77243300510E+03  0.39095429395E+03 -0.11569197162E+04  0.14449855802E+04  0.46999998093E+01 0.  1.
       -5    1    3    3    0  502 -0.77243300510E+03 -0.39095429395E+03 -0.55181474785E+03  0.10266545735E+04  0.46999998093E+01 0. -1.
</event>
<event>
 5   0  0.7233728E-04  0.1991415E+04  0.7818609E-02  0.8610645E-01
       -2   -1    0    0    0  501  0.00000000000E+00  0.00000000000E+00  0.88519124600E+03  0.88519124601E+03  0.25500000920E-02 0.  1.
        2   -1    0    0  501    0  0.00000000000E+00  0.00000000000E+00 -0.11200216658E+04  0.11200216658E+04  0.25500000920E-02 0. -1.
    10030    2    1    2    0    0  0.00000000000E+00  0.00000000000E+00 -0.23483041977E+03  0.20052129118E+04  0.19914149481E+04 0.  0.
        1    1    3    3  502    0 -0.69604211264E+03  0.18749223086E+02  0.59927985879E+03  0.91867431939E+03  0.50400001928E-02 0.  1.
       -1    1    3    3    0  502  0.69604211264E+03 -0.18749223086E+02 -0.83411027855E+03  0.10865385924E+04  0.50400001928E-02 0. -1.
</event>
<event>
 5   0  0.7242144E-04  0.1685730E+04  0.7818609E-02  0.8769545E-01
       -2   -1    0    0    0  501  0.00000000000E+00  0.00000000000E+00  0.28524692554E+03  0.28524692555E+03  0.25500000920E-02 0.  1.
        2   -1    0    0  501    0  0.00000000000E+00  0.00000000000E+00 -0.24905476127E+04  0.24905476127E+04  0.25500000920E-02 0. -1.
    10030    2    1    2    0    0  0.00000000000E+00  0.00000000000E+00 -0.22053006871E+04  0.27757945382E+04  0.16857295743E+04 0.  0.
        3    1    3    3  502    0 -0.47815105494E+03 -0.22096296275E+02  0.39726284874E+02  0.48030705341E+03  0.10100000352E+00 0.  1.
       -3    1    3    3    0  502  0.47815105494E+03  0.22096296275E+02 -0.22450269720E+04  0.22954874848E+04  0.10100000352E+00 0. -1.
</event>
<event>
 5   0  0.3723500E-04  0.1681986E+04  0.7818609E-02  0.8771706E-01
       -1   -1    0    0    0  501  0.00000000000E+00  0.00000000000E+00  0.80084807852E+03  0.80084807854E+03  0.50400001928E-02 0. -1.
        1   -1    0    0  501    0  0.00000000000E+00  0.00000000000E+00 -0.88315003617E+03  0.88315003618E+03  0.50400001928E-02 0.  1.
    10030    2    1    2    0    0  0.00000000000E+00  0.00000000000E+00 -0.82301957648E+02  0.16839981147E+04  0.16819857425E+04 0.  0.
        1    1    3    3  502    0 -0.68769051622E+02  0.50059419437E+03 -0.71422405441E+03  0.87489412492E+03  0.50400001928E-02 0.  1.
       -1    1    3    3    0  502  0.68769051622E+02 -0.50059419437E+03  0.63192209676E+03  0.80910398979E+03  0.50400001928E-02 0. -1.
</event>
<event>
 5   0  0.3803253E-04  0.1653643E+04  0.7818609E-02  0.8788254E-01
        1   -1    0    0  501    0  0.00000000000E+00  0.00000000000E+00  0.11166819945E+04  0.11166819945E+04  0.50400001928E-02 0. -1.
       -1   -1    0    0    0  501  0.00000000000E+00  0.00000000000E+00 -0.61220077414E+03  0.61220077416E+03  0.50400001928E-02 0.  1.
    10030    2    1    2    0    0  0.00000000000E+00  0.00000000000E+00  0.50448122037E+03  0.17288827687E+04  0.16536427444E+04 0.  0.
        4    1    3    3  502    0  0.34282578676E+02  0.64627112670E+03  0.79023146769E+03  0.10214250094E+04  0.12699999809E+01 0. -1.
       -4    1    3    3    0  502 -0.34282578676E+02 -0.64627112670E+03 -0.28575024732E+03  0.70745775927E+03  0.12699999809E+01 0.  1.
</event>
<event>
 5   0  0.3635143E-04  0.1719342E+04  0.7818609E-02  0.8750409E-01
        1   -1    0    0  501    0  0.00000000000E+00  0.00000000000E+00  0.39033937808E+03  0.39033937811E+03  0.50400001928E-02 0. -1.
       -1   -1    0    0    0  501  0.00000000000E+00  0.00000000000E+00 -0.18933123144E+04  0.18933123144E+04  0.50400001928E-02 0.  1.
    10030    2    1    2    0    0  0.00000000000E+00  0.00000000000E+00 -0.15029729363E+04  0.22836516925E+04  0.17193421432E+04 0.  0.
        3    1    3    3  502    0 -0.59259023778E+03 -0.57426384327E+03 -0.10716165087E+04  0.13525176906E+04  0.10100000352E+00 0.  1.
       -3    1    3    3    0  502  0.59259023778E+03  0.57426384327E+03 -0.43135642764E+03  0.93113400188E+03  0.10100000352E+00 0. -1.
</event>
<event>
 5   0  0.3713516E-04  0.1652823E+04  0.7818609E-02  0.8788738E-01
        1   -1    0    0  501    0  0.00000000000E+00  0.00000000000E+00  0.17527141073E+04  0.17527141073E+04  0.50400001928E-02 0.  1.
       -1   -1    0    0    0  501  0.00000000000E+00  0.00000000000E+00 -0.38965637616E+03  0.38965637619E+03  0.50400001928E-02 0. -1.
    10030    2    1    2    0    0  0.00000000000E+00  0.00000000000E+00  0.13630577311E+04  0.21423704835E+04  0.16528233148E+04 0.  0.
        5    1    3    3  502    0 -0.16751895548E+03  0.78183641561E+03  0.41086635507E+03  0.89897943966E+03  0.46999998093E+01 0. -1.
       -5    1    3    3    0  502  0.16751895548E+03 -0.78183641561E+03  0.95219137603E+03  0.12433910438E+04  0.46999998093E+01 0.  1.
</event>
<event>
 5   0  0.3635143E-04  0.1711808E+04  0.7818609E-02  0.8754658E-01
        1   -1    0    0  501    0  0.00000000000E+00  0.00000000000E+00  0.12621143650E+04  0.12621143650E+04  0.50400001928E-02 0.  1.
       -1   -1    0    0    0  501  0.00000000000E+00  0.00000000000E+00 -0.58043193416E+03  0.58043193418E+03  0.50400001928E-02 0. -1.
    10030    2    1    2    0    0  0.00000000000E+00  0.00000000000E+00  0.68168243082E+03  0.18425462992E+04  0.17118077953E+04 0.  0.
        3    1    3    3  502    0 -0.41402264637E+03  0.66433956029E+03  0.71341246938E+03  0.10591124420E+04  0.10100000352E+00 0.  1.
       -3    1    3    3    0  502  0.41402264637E+03 -0.66433956029E+03 -0.31730038555E+02  0.78343385721E+03  0.10100000352E+00 0. -1.
</event>
<event>
 5   0  0.7049044E-04  0.1723130E+04  0.7818609E-02  0.8748281E-01
       -2   -1    0    0    0  501  0.00000000000E+00  0.00000000000E+00  0.82883526477E+03  0.82883526477E+03  0.25500000920E-02 0.  1.
        2   -1    0    0  501    0  0.00000000000E+00  0.00000000000E+00 -0.89558732729E+03  0.89558732729E+03  0.25500000920E-02 0. -1.
    10030    2    1    2    0    0  0.00000000000E+00  0.00000000000E+00 -0.66752062524E+02  0.17244225921E+04  0.17231301280E+04 0.  0.
        4    1    3    3  502    0 -0.26432093192E+02 -0.79098347030E+03  0.30737788370E+03  0.84902077838E+03  0.12699999809E+01 0.  1.
       -4    1    3    3    0  502  0.26432093192E+02  0.79098347030E+03 -0.37412994622E+03  0.87540181368E+03  0.12699999809E+01 0. -1.
</event>
<event>
 5   0  0.7233728E-04  0.1630432E+04  0.7818609E-02  0.8802068E-01
        2   -1    0    0  501    0  0.00000000000E+00  0.00000000000E+00  0.14194451181E+04  0.14194451181E+04  0.25500000920E-02 0.  1.
       -2   -1    0    0    0  501  0.00000000000E+00  0.00000000000E+00 -0.46819473861E+03  0.46819473861E+03  0.25500000920E-02 0. -1.
    10030    2    1    2    0    0  0.00000000000E+00  0.00000000000E+00  0.95125037953E+03  0.18876398568E+04  0.16304315209E+04 0.  0.
        1    1    3    3  502    0 -0.29132579979E+03  0.71757186327E+03  0.18091659356E+03  0.79530554784E+03  0.50400001928E-02 0. -1.
       -1    1    3    3    0  502  0.29132579979E+03 -0.71757186327E+03  0.77033378597E+03  0.10923343089E+04  0.50400001928E-02 0.  1.
</event>
<event>
 5   0  0.3915701E-04  0.1566011E+04  0.7818609E-02  0.8841705E-01
        1   -1    0    0  501    0  0.00000000000E+00  0.00000000000E+00  0.48901838844E+03  0.48901838846E+03  0.50400001928E-02 0. -1.
       -1   -1    0    0    0  501  0.00000000000E+00  0.00000000000E+00 -0.12537307137E+04  0.12537307137E+04  0.50400001928E-02 0.  1.
    10030    2    1    2    0    0  0.00000000000E+00  0.00000000000E+00 -0.76471232525E+03  0.17427491022E+04  0.15660106937E+04 0.  0.
        2    1    3    3  502    0 -0.13108901150E+03 -0.25615887320E+02  0.47624674073E+03  0.49462254365E+03  0.25500000920E-02 0. -1.
       -2    1    3    3    0  502  0.13108901150E+03  0.25615887320E+02 -0.12409590660E+04  0.12481265585E+04  0.25500000920E-02 0.  1.
</event>
<event>
 5   0  0.6746664E-04  0.1697383E+04  0.7818609E-02  0.8762858E-01
        2   -1    0    0  501    0  0.00000000000E+00  0.00000000000E+00  0.18497958756E+04  0.18497958756E+04  0.25500000920E-02 0.  1.
       -2   -1    0    0    0  501  0.00000000000E+00  0.00000000000E+00 -0.38938204038E+03  0.38938204038E+03  0.25500000920E-02 0. -1.
    10030    2    1    2    0    0  0.00000000000E+00  0.00000000000E+00  0.14604138352E+04  0.22391779160E+04  0.16973830355E+04 0.  0.
        5    1    3    3  502    0 -0.82763770029E+03 -0.22851158416E+02  0.48429529792E+03  0.95920298372E+03  0.46999998093E+01 0.  1.
       -5    1    3    3    0  502  0.82763770029E+03  0.22851158416E+02  0.97611853732E+03  0.12799749323E+04  0.46999998093E+01 0. -1.
</event>
<event>
 5   0  0.3915701E-04  0.1708953E+04  0.7818609E-02  0.8756275E-01
       -1   -1    0    0    0  501  0.00000000000E+00  0.00000000000E+00  0.15849535385E+04  0.15849535385E+04  0.50400001928E-02 0. -1.
        1   -1    0    0  501    0  0.00000000000E+00  0.00000000000E+00 -0.46066341639E+03  0.46066341642E+03  0.50400001928E-02 0.  1.
    10030    2    1    2    0    0  0.00000000000E+00  0.00000000000E+00  0.11242901221E+04  0.20456169549E+04  0.17089530267E+04 0.  0.
        2    1    3    3  502    0  0.51979502811E+03 -0.85213166330E+02 -0.24321628480E+03  0.58017438427E+03  0.25500000920E-02 0.  1.
       -2    1    3    3    0  502 -0.51979502811E+03  0.85213166330E+02  0.13675064069E+04  0.14654425706E+04  0.25500000920E-02 0. -1.
</event>
<event>
 5   0  0.7025426E-04  0.1707829E+04  0.7818609E-02  0.8756912E-01
       -2   -1    0    0    0  501  0.00000000000E+00  0.00000000000E+00  0.93080208532E+03  0.93080208532E+03  0.25500000920E-02 0.  1.
        2   -1    0    0  501    0  0.00000000000E+00  0.00000000000E+00 -0.78337783271E+03  0.78337783272E+03  0.25500000920E-02 0. -1.
    10030    2    1    2    0    0  0.00000000000E+00  0.00000000000E+00  0.14742425260E+03  0.17141799180E+04  0.17078287037E+04 0.  0.
        2    1    3    3  502    0  0.10647288023E+03  0.19376680195E+03  0.90157497778E+03  0.92828847258E+03  0.25500000920E-02 0.  1.
       -2    1    3    3    0  502 -0.10647288023E+03 -0.19376680195E+03 -0.75415072517E+03  0.78589144546E+03  0.25500000920E-02 0. -1.
</event>
<event>
 5   0  0.7242144E-04  0.1682283E+04  0.7818609E-02  0.8771534E-01
        2   -1    0    0  501    0  0.00000000000E+00  0.00000000000E+00  0.12990646870E+04  0.12990646870E+04  0.25500000920E-02 0.  1.
       -2   -1    0    0    0  501  0.00000000000E+00  0.00000000000E+00 -0.54463726825E+03  0.54463726826E+03  0.25500000920E-02 0. -1.
    10030    2    1    2    0    0  0.00000000000E+00  0.00000000000E+00  0.75442741870E+03  0.18437019552E+04  0.16822830230E+04 0.  0.
        3    1    3    3  502    0 -0.54474712557E+03 -0.37294116667E+03  0.94846089716E+03  0.11556005487E+04  0.10100000352E+00 0.  1.
       -3    1    3    3    0  502  0.54474712557E+03  0.37294116667E+03 -0.19403347846E+03  0.68810140647E+03  0.10100000352E+00 0. -1.
</event>
<event>
 5   0  0.2639750E-04  0.1328203E+04  0.7818609E-02  0.9007494E-01
       -3   -1    0    0    0  501  0.00000000000E+00  0.00000000000E+00  0.14472234103E+04  0.14472234139E+04  0.10100000352E+00 0.  1.
        3   -1    0    0  501    0  0.00000000000E+00  0.00000000000E+00 -0.30474267025E+03  0.30474268699E+03  0.10100000352E+00 0. -1.
    10030    2    1    2    0    0  0.00000000000E+00  0.00000000000E+00  0.11424807401E+04  0.17519661009E+04  0.13282029126E+04 0.  0.
        3    1    3    3  502    0 -0.64710058298E+03  0.78081254862E+02  0.73910153560E+03  0.98544758206E+03  0.10100000352E+00 0.  1.
       -3    1    3    3    0  502  0.64710058298E+03 -0.78081254862E+02  0.40337920449E+03  0.76651851880E+03  0.10100000352E+00 0. -1.
</event>
<event>
 5   0  0.7233728E-04  0.1731510E+04  0.7818609E-02  0.8743595E-01
        2   -1    0    0  501    0  0.00000000000E+00  0.00000000000E+00  0.12979507985E+04  0.12979507985E+04  0.25500000920E-02 0. -1.
       -2   -1    0    0    0  501  0.00000000000E+00  0.00000000000E+00 -0.57747283792E+03  0.57747283792E+03  0.25500000920E-02 0.  1.
    10030    2    1    2    0    0  0.00000000000E+00  0.00000000000E+00  0.72047796055E+03  0.18754236364E+04  0.17315095507E+04 0.  0.
        1    1    3    3  502    0 -0.52476962928E+03 -0.41578533648E+02  0.11046938110E+04  0.12237076261E+04  0.50400001928E-02 0. -1.
       -1    1    3    3    0  502  0.52476962928E+03  0.41578533648E+02 -0.38421585042E+03  0.65171601025E+03  0.50400001928E-02 0.  1.
</event>
<event>
 5   0  0.7049044E-04  0.1719568E+04  0.7818609E-02  0.8750282E-01
        2   -1    0    0  501    0  0.00000000000E+00  0.00000000000E+00  0.12883574687E+04  0.12883574687E+04  0.25500000920E-02 0. -1.
       -2   -1    0    0    0  501  0.00000000000E+00  0.00000000000E+00 -0.57377579613E+03  0.57377579614E+03  0.25500000920E-02 0.  1.
    10030    2    1    2    0    0  0.00000000000E+00  0.00000000000E+00  0.71458167259E+03  0.18621332649E+04  0.17195677740E+04 0.  0.
        4    1    3    3  502    0 -0.28717030549E+03  0.36493538712E+03  0.11408717617E+04  0.12317607765E+04  0.12699999809E+01 0. -1.
       -4    1    3    3    0  502  0.28717030549E+03 -0.36493538712E+03 -0.42629008907E+03  0.63037248835E+03  0.12699999809E+01 0.  1.
</event>
<event>
 5   0  0.3713516E-04  0.1619537E+04  0.7818609E-02  0.8808635E-01
       -1   -1    0    0    0  501  0.00000000000E+00  0.00000000000E+00  0.61831077921E+03  0.61831077923E+03  0.50400001928E-02 0. -1.
        1   -1    0    0  501    0  0.00000000000E+00  0.00000000000E+00 -0.10605105002E+04  0.10605105002E+04  0.50400001928E-02 0.  1.
    10030    2    1    2    0    0  0.00000000000E+00  0.00000000000E+00 -0.44219972102E+03  0.16788212795E+04  0.16195370620E+04 0.  0.
        5    1    3    3  502    0 -0.73998142037E+03 -0.13102177066E+03  0.91542496769E+02  0.75706097878E+03  0.46999998093E+01 0. -1.
       -5    1    3    3    0  502  0.73998142037E+03  0.13102177066E+03 -0.53374221779E+03  0.92176030069E+03  0.46999998093E+01 0.  1.
</event>
<event>
 5   0  0.3803253E-04  0.1734321E+04  0.7818609E-02  0.8742029E-01
        1   -1    0    0  501    0  0.00000000000E+00  0.00000000000E+00  0.11635447913E+04  0.11635447913E+04  0.50400001928E-02 0.  1.
       -1   -1    0    0    0  501  0.00000000000E+00  0.00000000000E+00 -0.64627253807E+03  0.64627253809E+03  0.50400001928E-02 0. -1.
    10030    2    1    2    0    0  0.00000000000E+00  0.00000000000E+00  0.51727225325E+03  0.18098173294E+04  0.17343206687E+04 0.  0.
        4    1    3    3  502    0  0.19776145159E+03 -0.75550073989E+03  0.65197182983E+03  0.10173297595E+04  0.12699999809E+01 0.  1.
       -4    1    3    3    0  502 -0.19776145159E+03  0.75550073989E+03 -0.13469957658E+03  0.79248756995E+03  0.12699999809E+01 0. -1.
</event>
<event>
 5   0  0.3713516E-04  0.1643496E+04  0.7818609E-02  0.8794264E-01
       -1   -1    0    0    0  501  0.00000000000E+00  0.00000000000E+00  0.56490053074E+03  0.56490053076E+03  0.50400001928E-02 0.  1.
        1   -1    0    0  501    0  0.00000000000E+00  0.00000000000E+00 -0.11953776222E+04  0.11953776222E+04  0.50400001928E-02 0. -1.
    10030    2    1    2    0    0  0.00000000000E+00  0.00000000000E+00 -0.63047709144E+03  0.17602781530E+04  0.16434956078E+04 0.  0.
        5    1    3    3  502    0 -0.31400392127E+03 -0.20861106518E+02 -0.11282647562E+04  0.11713398731E+04  0.46999998093E+01 0. -1.
       -5    1    3    3    0  502  0.31400392127E+03  0.20861106518E+02  0.49778766472E+03  0.58893827985E+03  0.46999998093E+01 0.  1.
</event>
<event>
 5   0  0.7242144E-04  0.1712235E+04  0.7818609E-02  0.8754417E-01
       -2   -1    0    0    0  501  0.00000000000E+00  0.00000000000E+00  0.70042157465E+03  0.70042157465E+03  0.25500000920E-02 0.  1.
        2   -1    0    0  501    0  0.00000000000E+00  0.00000000000E+00 -0.10464226952E+04  0.10464226953E+04  0.25500000920E-02 0. -1.
    10030    2    1    2    0    0  0.00000000000E+00  0.00000000000E+00 -0.34600112060E+03  0.17468442699E+04  0.17122348343E+04 0.  0.
        3    1    3    3  502    0  0.85036146885E+03  0.77837564307E+02 -0.11041144658E+03  0.86102497748E+03  0.10100000352E+00 0.  1.
       -3    1    3    3    0  502 -0.85036146885E+03 -0.77837564307E+02 -0.23558967402E+03  0.88581929242E+03  0.10100000352E+00 0. -1.
</event>
<event>
 5   0  0.7025426E-04  0.1685679E+04  0.7818609E-02  0.8769575E-01
       -2   -1    0    0    0  501  0.00000000000E+00  0.00000000000E+00  0.98687829714E+03  0.98687829714E+03  0.25500000920E-02 0.  1.
        2   -1    0    0  501    0  0.00000000000E+00  0.00000000000E+00 -0.71982340628E+03  0.71982340629E+03  0.25500000920E-02 0. -1.
    10030    2    1    2    0    0  0.00000000000E+00  0.00000000000E+00  0.26705489085E+03  0.17067017034E+04  0.16856786140E+04 0.  0.
        2    1    3    3  502    0  0.62023675800E+02  0.57117914334E+03 -0.49083641206E+03  0.75565397740E+03  0.25500000920E-02 0. -1.
       -2    1    3    3    0  502 -0.62023675800E+02 -0.57117914334E+03  0.75789130292E+03  0.95104772603E+03  0.25500000920E-02 0.  1.
</event>
<event>
 5   0  0.6746664E-04  0.1721845E+04  0.7818609E-02  0.8749003E-01
        2   -1    0    0  501    0  0.00000000000E+00  0.00000000000E+00  0.12063718614E+04  0.12063718614E+04  0.25500000920E-02 0.  1.
       -2   -1    0    0    0  501  0.00000000000E+00  0.00000000000E+00 -0.61439392690E+03  0.61439392691E+03  0.25500000920E-02 0. -1.
    10030    2    1    2    0    0  0.00000000000E+00  0.00000000000E+00  0.59197793451E+03  0.18207657883E+04  0.17218449933E+04 0.  0.
        5    1    3    3  502    0  0.45361269628E+03  0.29360499208E+03 -0.41273724812E+03  0.67995771603E+03  0.46999998093E+01 0. -1.
       -5    1    3    3    0  502 -0.45361269628E+03 -0.29360499208E+03  0.10047151826E+04  0.11408080723E+04  0.46999998093E+01 0.  1.
</event>
<event>
 5   0  0.3803253E-04  0.1675932E+04  0.7818609E-02  0.8775212E-01
        1   -1    0    0  501    0  0.00000000000E+00  0.00000000000E+00  0.70919660037E+03  0.70919660039E+03  0.50400001928E-02 0.  1.
       -1   -1    0    0    0  501  0.00000000000E+00  0.00000000000E+00 -0.99011594520E+03  0.99011594521E+03  0.50400001928E-02 0. -1.
    10030    2    1    2    0    0  0.00000000000E+00  0.00000000000E+00 -0.28091934483E+03  0.16993125456E+04  0.16759318152E+04 0.  0.
        4    1    3    3  502    0 -0.12265160848E+03  0.58499965922E+03  0.45503017798E+03  0.75121374729E+03  0.12699999809E+01 0.  1.
       -4    1    3    3    0  502  0.12265160848E+03 -0.58499965922E+03 -0.73594952280E+03  0.94809879831E+03  0.12699999809E+01 0. -1.
</event>
<event>
 5   0  0.3723500E-04  0.1692475E+04  0.7818609E-02  0.8765668E-01
       -1   -1    0    0    0  501  0.00000000000E+00  0.00000000000E+00  0.68877858430E+03  0.68877858431E+03  0.50400001928E-02 0.  1.
        1   -1    0    0  501    0  0.00000000000E+00  0.00000000000E+00 -0.10396922309E+04  0.10396922310E+04  0.50400001928E-02 0. -1.
    10030    2    1    2    0    0  0.00000000000E+00  0.00000000000E+00 -0.35091364664E+03  0.17284708153E+04  0.16924748069E+04 0.  0.
        1    1    3    3  502    0 -0.71071580667E+03  0.28875008497E+03  0.18938642148E+03  0.79016503725E+03  0.50400001928E-02 0. -1.
       -1    1    3    3    0  502  0.71071580667E+03 -0.28875008497E+03 -0.54030006812E+03  0.93830577802E+03  0.50400001928E-02 0.  1.
</event>
<event>
 5   0  0.7025426E-04  0.1668042E+04  0.7818609E-02  0.8779804E-01
        2   -1    0    0  501    0  0.00000000000E+00  0.00000000000E+00  0.10093570369E+04  0.10093570369E+04  0.25500000920E-02 0. -1.
       -2   -1    0    0    0  501  0.00000000000E+00  0.00000000000E+00 -0.68914253380E+03  0.68914253381E+03  0.25500000920E-02 0.  1.
    10030    2    1    2    0    0  0.00000000000E+00  0.00000000000E+00  0.32021450309E+03  0.16984995707E+04  0.16680418051E+04 0.  0.
        2    1    3    3  502    0  0.72344991399E+03 -0.37818051112E+03 -0.13864981756E+02  0.81645117109E+03  0.25500000920E-02 0.  1.
       -2    1    3    3    0  502 -0.72344991399E+03  0.37818051112E+03  0.33407948484E+03  0.88204839961E+03  0.25500000920E-02 0. -1.
</event>
<event>
 5   0  0.2639750E-04  0.1651362E+04  0.7818609E-02  0.8789601E-01
       -3   -1    0    0    0  501  0.00000000000E+00  0.00000000000E+00  0.72410159794E+03  0.72410160499E+03  0.10100000352E+00 0.  1.
        3   -1    0    0  501    0  0.00000000000E+00  0.00000000000E+00 -0.94150977476E+03  0.94150978017E+03  0.10100000352E+00 0. -1.
    10030    2    1    2    0    0  0.00000000000E+00  0.00000000000E+00 -0.21740817682E+03  0.16656113852E+04  0.16513615507E+04 0.  0.
        1    1    3    3  502    0  0.81589219630E+03 -0.69906377041E+02 -0.20477434906E+01  0.81888410096E+03  0.50400001928E-02 0.  1.
       -1    1    3    3    0  502 -0.81589219630E+03  0.69906377041E+02 -0.21536043333E+03  0.84672728420E+03  0.50400001928E-02 0. -1.
</event>
<event>
 5   0  0.3803253E-04  0.1578883E+04  0.7818609E-02  0.8833627E-01
       -1   -1    0    0    0  501  0.00000000000E+00  0.00000000000E+00  0.14817983493E+04  0.14817983493E+04  0.50400001928E-02 0. -1.
        1   -1    0    0  501    0  0.00000000000E+00  0.00000000000E+00 -0.42058202012E+03  0.42058202015E+03  0.50400001928E-02 0.  1.
    10030    2    1    2    0    0  0.00000000000E+00  0.00000000000E+00  0.10612163291E+04  0.19023803694E+04  0.15788828242E+04 0.  0.
        4    1    3    3  502    0 -0.13441105950E+03  0.68300208293E+03  0.97927074134E+03  0.12014703392E+04  0.12699999809E+01 0. -1.
       -4    1    3    3    0  502  0.13441105950E+03 -0.68300208293E+03  0.81945587803E+02  0.70091003022E+03  0.12699999809E+01 0.  1.
</event>
<event>
 5   0  0.7049044E-04  0.1671729E+04  0.7818609E-02  0.8777654E-01
        2   -1    0    0  501    0  0.00000000000E+00  0.00000000000E+00  0.80038109306E+03  0.80038109306E+03  0.25500000920E-02 0. -1.
       -2   -1    0    0    0  501  0.00000000000E+00  0.00000000000E+00 -0.87292139790E+03  0.87292139790E+03  0.25500000920E-02 0.  1.
    10030    2    1    2    0    0  0.00000000000E+00  0.00000000000E+00 -0.72540304842E+02  0.16733024910E+04  0.16717293831E+04 0.  0.
        4    1    3    3  502    0 -0.68785221383E+03 -0.34851745784E+02 -0.51033261212E+03  0.85720260157E+03  0.12699999809E+01 0.  1.
       -4    1    3    3    0  502  0.68785221383E+03  0.34851745784E+02  0.43779230727E+03  0.81609988939E+03  0.12699999809E+01 0. -1.
</event>
<event>
 5   0  0.3713516E-04  0.1687419E+04  0.7818609E-02  0.8768573E-01
        1   -1    0    0  501    0  0.00000000000E+00  0.00000000000E+00  0.46697823291E+03  0.46697823294E+03  0.50400001928E-02 0. -1.
       -1   -1    0    0    0  501  0.00000000000E+00  0.00000000000E+00 -0.15243651992E+04  0.15243651992E+04  0.50400001928E-02 0.  1.
    10030    2    1    2    0    0  0.00000000000E+00  0.00000000000E+00 -0.10573869663E+04  0.19913434321E+04  0.16874185812E+04 0.  0.
        5    1    3    3  502    0  0.47579167107E+03  0.50420220535E+03  0.38774533907E+02  0.69435087140E+03  0.46999998093E+01 0. -1.
       -5    1    3    3    0  502 -0.47579167107E+03 -0.50420220535E+03 -0.10961615002E+04  0.12969925607E+04  0.46999998093E+01 0.  1.
</event>
<event>
 5   0  0.7242144E-04  0.1731768E+04  0.7818609E-02  0.8743450E-01
        2   -1    0    0  501    0  0.00000000000E+00  0.00000000000E+00  0.80360815456E+03  0.80360815456E+03  0.25500000920E-02 0. -1.
       -2   -1    0    0    0  501  0.00000000000E+00  0.00000000000E+00 -0.93298646306E+03  0.93298646306E+03  0.25500000920E-02 0.  1.
    10030    2    1    2    0    0  0.00000000000E+00  0.00000000000E+00 -0.12937830850E+03  0.17365946176E+04  0.17317684947E+04 0.  0.
        3    1    3    3  502    0  0.12278417933E+03  0.62776336225E+03 -0.64991877645E+03  0.91189759286E+03  0.10100000352E+00 0.  1.
       -3    1    3    3    0  502 -0.12278417933E+03 -0.62776336225E+03  0.52054046794E+03  0.82469702476E+03  0.10100000352E+00 0. -1.
</event>
<event>
 5   0  0.7233728E-04  0.1706386E+04  0.7818609E-02  0.8757731E-01
        2   -1    0    0  501    0  0.00000000000E+00  0.00000000000E+00  0.29702860734E+04  0.29702860734E+04  0.25500000920E-02 0.  1.
       -2   -1    0    0    0  501  0.00000000000E+00  0.00000000000E+00 -0.24507334162E+03  0.24507334163E+03  0.25500000920E-02 0. -1.
    10030    2    1    2    0    0  0.00000000000E+00  0.00000000000E+00  0.27252127317E+04  0.32153594150E+04  0.17063855761E+04 0.  0.
        1    1    3    3  502    0 -0.55117891894E+02  0.69161174357E+03  0.22982818357E+04  0.24007215962E+04  0.50400001928E-02 0.  1.
       -1    1    3    3    0  502  0.55117891894E+02 -0.69161174357E+03  0.42693089601E+03  0.81463781882E+03  0.50400001928E-02 0. -1.
</event>
<event>
 5   0  0.3635143E-04  0.1674239E+04  0.7818609E-02  0.8776195E-01
        1   -1    0    0  501    0  0.00000000000E+00  0.00000000000E+00  0.12265536570E+04  0.12265536571E+04  0.50400001928E-02 0. -1.
       -1   -1    0    0    0  501  0.00000000000E+00  0.00000000000E+00 -0.57133142616E+03  0.57133142618E+03  0.50400001928E-02 0.  1.
    10030    2    1    2    0    0  0.00000000000E+00  0.00000000000E+00  0.65522223089E+03  0.17978850832E+04  0.16742385137E+04 0.  0.
        3    1    3    3  502    0  0.49551560281E+03  0.42149907532E+02  0.10507343686E+04  0.11624779786E+04  0.10100000352E+00 0. -1.
       -3    1    3    3    0  502 -0.49551560281E+03 -0.42149907532E+02 -0.39551213767E+03  0.63540710460E+03  0.10100000352E+00 0.  1.
</event>
<event>
 5   0  0.3915701E-04  0.1704441E+04  0.7818609E-02  0.8758835E-01
        1   -1    0    0  501    0  0.00000000000E+00  0.00000000000E+00  0.63079651932E+03  0.63079651934E+03  0.50400001928E-02 0. -1.
       -1   -1    0    0    0  501  0.00000000000E+00  0.00000000000E+00 -0.11513696627E+04  0.11513696627E+04  0.50400001928E-02 0.  1.
    10030    2    1    2    0    0  0.00000000000E+00  0.00000000000E+00 -0.52057314335E+03  0.17821661820E+04  0.17044412289E+04 0.  0.
        2    1    3    3  502    0 -0.81803163371E+03 -0.23050534520E+03 -0.19439287455E+03  0.87183545329E+03  0.25500000920E-02 0. -1.
       -2    1    3    3    0  502  0.81803163371E+03  0.23050534520E+03 -0.32618026880E+03  0.91033072874E+03  0.25500000920E-02 0.  1.
</event>
<event>
 5   0  0.3803253E-04  0.1706127E+04  0.7818609E-02  0.8757878E-01
       -1   -1    0    0    0  501  0.00000000000E+00  0.00000000000E+00  0.12454206495E+04  0.12454206495E+04  0.50400001928E-02 0. -1.
        1   -1    0    0  501    0  0.00000000000E+00  0.00000000000E+00 -0.58431421824E+03  0.58431421826E+03  0.50400001928E-02 0.  1.
    10030    2    1    2    0    0  0.00000000000E+00  0.00000000000E+00  0.66110643123E+03  0.18297348677E+04  0.17061265993E+04 0.  0.
        4    1    3    3  502    0 -0.39477772543E+02  0.40789448102E+03 -0.47183622131E+03  0.62495394615E+03  0.12699999809E+01 0.  1.
       -4    1    3    3    0  502  0.39477772543E+02 -0.40789448102E+03  0.11329426525E+04  0.12047809216E+04  0.12699999809E+01 0. -1.
</event>
<event>
 5   0  0.3803253E-04  0.1698277E+04  0.7818609E-02  0.8762347E-01
        1   -1    0    0  501    0  0.00000000000E+00  0.00000000000E+00  0.79757415877E+03  0.79757415878E+03  0.50400001928E-02 0.  1.
       -1   -1    0    0    0  501  0.00000000000E+00  0.00000000000E+00 -0.90403700298E+03  0.90403700299E+03  0.50400001928E-02 0. -1.
    10030    2    1    2    0    0  0.00000000000E+00  0.00000000000E+00 -0.10646284421E+03  0.17016111618E+04  0.16982774239E+04 0.  0.
        4    1    3    3  502    0  0.26050986621E+03 -0.54505960426E+03  0.54466399123E+03  0.81339771258E+03  0.12699999809E+01 0.  1.
       -4    1    3    3    0  502 -0.26050986621E+03  0.54505960426E+03 -0.65112683545E+03  0.88821344919E+03  0.12699999809E+01 0. -1.
</event>
<event>
 5   0  0.3635143E-04  0.1696954E+04  0.7818609E-02  0.8763103E-01
        1   -1    0    0  501    0  0.00000000000E+00  0.00000000000E+00  0.56402681575E+03  0.56402681577E+03  0.50400001928E-02 0. -1.
       -1   -1    0    0    0  501  0.00000000000E+00  0.00000000000E+00 -0.12763813767E+04  0.12763813767E+04  0.50400001928E-02 0.  1.
    10030    2    1    2    0    0  0.00000000000E+00  0.00000000000E+00 -0.71235456097E+03  0.18404081925E+04  0.16969541227E+04 0.  0.
        3    1    3    3  502    0  0.33907509951E+02  0.41720997341E+03  0.44425117191E+03  0.61038757776E+03  0.10100000352E+00 0. -1.
       -3    1    3    3    0  502 -0.33907509951E+02 -0.41720997341E+03 -0.11566057329E+04  0.12300206147E+04  0.10100000352E+00 0.  1.
</event>
<event>
 5   0  0.6746664E-04  0.1699274E+04  0.7818609E-02  0.8761778E-01
       -2   -1    0    0    0  501  0.00000000000E+00  0.00000000000E+00  0.11264500257E+04  0.11264500258E+04  0.25500000920E-02 0.  1.
        2   -1    0    0  501    0  0.00000000000E+00  0.00000000000E+00 -0.64084807555E+03  0.64084807556E+03  0.25500000920E-02 0. -1.
    10030    2    1    2    0    0  0.00000000000E+00  0.00000000000E+00  0.48560195020E+03  0.17672981013E+04  0.16992743524E+04 0.  0.
        5    1    3    3  502    0 -0.63498691742E+03 -0.54979774859E+03  0.10971238350E+03  0.84708018908E+03  0.46999998093E+01 0. -1.
       -5    1    3    3    0  502  0.63498691742E+03  0.54979774859E+03  0.37588956669E+03  0.92021791223E+03  0.46999998093E+01 0.  1.
</event>
<event>
 5   0  0.7025426E-04  0.1672392E+04  0.7818609E-02  0.8777269E-01
        2   -1    0    0  501    0  0.00000000000E+00  0.00000000000E+00  0.64777434045E+03  0.64777434046E+03  0.25500000920E-02 0.  1.
       -2   -1    0    0    0  501  0.00000000000E+00  0.00000000000E+00 -0.10794250074E+04  0.10794250074E+04  0.25500000920E-02 0. -1.
    10030    2    1    2    0    0  0.00000000000E+00  0.00000000000E+00 -0.43165066697E+03  0.17271993479E+04  0.16723920859E+04 0.  0.
        2    1    3    3  502    0  0.58970231689E+01 -0.11695608037E+03 -0.10709144151E+04  0.10772980944E+04  0.25500000920E-02 0. -1.
       -2    1    3    3    0  502 -0.58970231689E+01  0.11695608037E+03  0.63926374815E+03  0.64990125351E+03  0.25500000920E-02 0.  1.
</event>
<event>
 5   0  0.3915701E-04  0.1700790E+04  0.7818609E-02  0.8760914E-01
        1   -1    0    0  501    0  0.00000000000E+00  0.00000000000E+00  0.24829783778E+04  0.24829783778E+04  0.50400001928E-02 0. -1.
       -1   -1    0    0    0  501  0.00000000000E+00  0.00000000000E+00 -0.29125174567E+03  0.29125174572E+03  0.50400001928E-02 0.  1.
    10030    2    1    2    0    0  0.00000000000E+00  0.00000000000E+00  0.21917266321E+04  0.27742301235E+04  0.17007901541E+04 0.  0.
        2    1    3    3  502    0  0.32207100140E+03  0.66316540912E+03  0.17872322003E+04  0.19333176220E+04  0.25500000920E-02 0. -1.
       -2    1    3    3    0  502 -0.32207100140E+03 -0.66316540912E+03  0.40449443183E+03  0.84091250151E+03  0.25500000920E-02 0.  1.
</event>
<event>
 5   0  0.3723500E-04  0.1696691E+04  0.7818609E-02  0.8763254E-01
        1   -1    0    0  501    0  0.00000000000E+00  0.00000000000E+00  0.13877966401E+04  0.13877966401E+04  0.50400001928E-02 0. -1.
       -1   -1    0    0    0  501  0.00000000000E+00  0.00000000000E+00 -0.51858447437E+03  0.51858447440E+03  0.50400001928E-02 0.  1.
    10030    2    1    2    0    0  0.00000000000E+00  0.00000000000E+00  0.86921216574E+03  0.19063811145E+04  0.16966906509E+04 0.  0.
        1    1    3    3  502    0 -0.22800398421E+03  0.81322401473E+03  0.34492521004E+03  0.91230067165E+03  0.50400001928E-02 0.  1.
       -1    1    3    3    0  502  0.22800398421E+03 -0.81322401473E+03  0.52428695570E+03  0.99408044287E+03  0.50400001928E-02 0. -1.
</event>
<event>
 5   0  0.3635143E-04  0.1720067E+04  0.7818609E-02  0.8750002E-01
        1   -1    0    0  501    0  0.00000000000E+00  0.00000000000E+00  0.21950074965E+04  0.21950074965E+04  0.50400001928E-02 0.  1.
       -1   -1    0    0    0  501  0.00000000000E+00  0.00000000000E+00 -0.33697262062E+03  0.33697262066E+03  0.50400001928E-02 0. -1.
    10030    2    1    2    0    0  0.00000000000E+00  0.00000000000E+00  0.18580348759E+04  0.25319801172E+04  0.17200667760E+04 0.  0.
        3    1    3    3  502    0 -0.32132582172E+03 -0.74218318835E+03  0.13596222912E+04  0.15819794417E+04  0.10100000352E+00 0.  1.
       -3    1    3    3    0  502  0.32132582172E+03  0.74218318835E+03  0.49841258465E+03  0.95000067553E+03  0.10100000352E+00 0. -1.
</event>
<event>
 5   0  0.3723500E-04  0.1555466E+04  0.7818609E-02  0.8848384E-01
       -1   -1    0    0    0  501  0.00000000000E+00  0.00000000000E+00  0.49069618235E+03  0.49069618238E+03  0.50400001928E-02 0.  1.
        1   -1    0    0  501    0  0.00000000000E+00  0.00000000000E+00 -0.12326747973E+04  0.12326747973E+04  0.50400001928E-02 0. -1.
    10030    2    1    2    0    0  0.00000000000E+00  0.00000000000E+00 -0.74197861491E+03  0.17233709796E+04  0.15554662544E+04 0.  0.
        1    1    3    3  502    0 -0.12061773965E+03  0.39512082694E+03 -0.11010566912E+04  0.11760080545E+04  0.50400001928E-02 0. -1.
       -1    1    3    3    0  502  0.12061773965E+03 -0.39512082694E+03  0.35907807624E+03  0.54736292518E+03  0.50400001928E-02 0.  1.
</event>
<event>
 5   0  0.3803253E-04  0.1670214E+04  0.7818609E-02  0.8778537E-01
        1   -1    0    0  501    0  0.00000000000E+00  0.00000000000E+00  0.68298535358E+03  0.68298535360E+03  0.50400001928E-02 0. -1.
       -1   -1    0    0    0  501  0.00000000000E+00  0.00000000000E+00 -0.10211110377E+04  0.10211110377E+04  0.50400001928E-02 0.  1.
    10030    2    1    2    0    0  0.00000000000E+00  0.00000000000E+00 -0.33812568408E+03  0.17040963913E+04  0.16702142175E+04 0.  0.
        4    1    3    3  502    0 -0.11869777007E+03  0.44073833819E+03 -0.88257981326E+03  0.99362376332E+03  0.12699999809E+01 0.  1.
       -4    1    3    3    0  502  0.11869777007E+03 -0.44073833819E+03  0.54445412918E+03  0.71047262794E+03  0.12699999809E+01 0. -1.
</event>
<event>
 5   0  0.3803253E-04  0.1671862E+04  0.7818609E-02  0.8777577E-01
       -1   -1    0    0    0  501  0.00000000000E+00  0.00000000000E+00  0.80889023921E+03  0.80889023923E+03  0.50400001928E-02 0.  1.
        1   -1    0    0  501    0  0.00000000000E+00  0.00000000000E+00 -0.86387553342E+03  0.86387553343E+03  0.50400001928E-02 0. -1.
    10030    2    1    2    0    0  0.00000000000E+00  0.00000000000E+00 -0.54985294208E+02  0.16727657727E+04  0.16718618207E+04 0.  0.
        4    1    3    3  502    0  0.14021191068E+03  0.12969025090E+03  0.78676549309E+03  0.80961749925E+03  0.12699999809E+01 0.  1.
       -4    1    3    3    0  502 -0.14021191068E+03 -0.12969025090E+03 -0.84175078730E+03  0.86314827341E+03  0.12699999809E+01 0. -1.
</event>
<event>
 5   0  0.3635143E-04  0.1597635E+04  0.7818609E-02  0.8822002E-01
        1   -1    0    0  501    0  0.00000000000E+00  0.00000000000E+00  0.11264480167E+04  0.11264480168E+04  0.50400001928E-02 0.  1.
       -1   -1    0    0    0  501  0.00000000000E+00  0.00000000000E+00 -0.56647922980E+03  0.56647922983E+03  0.50400001928E-02 0. -1.
    10030    2    1    2    0    0  0.00000000000E+00  0.00000000000E+00  0.55996878694E+03  0.16929272466E+04  0.15976350083E+04 0.  0.
        3    1    3    3  502    0 -0.66541188373E+03  0.43890233451E+03  0.33505703692E+03  0.86467997689E+03  0.10100000352E+00 0. -1.
       -3    1    3    3    0  502  0.66541188373E+03 -0.43890233451E+03  0.22491175002E+03  0.82824726969E+03  0.10100000352E+00 0.  1.
</event>
<event>
 5   0  0.7025426E-04  0.1679742E+04  0.7818609E-02  0.8773004E-01
        2   -1    0    0  501    0  0.00000000000E+00  0.00000000000E+00  0.65669545322E+03  0.65669545323E+03  0.25500000920E-02 0.  1.
       -2   -1    0    0    0  501  0.00000000000E+00  0.00000000000E+00 -0.10741401301E+04  0.10741401301E+04  0.25500000920E-02 0. -1.
    10030    2    1    2    0    0  0.00000000000E+00  0.00000000000E+00 -0.41744467688E+03  0.17308355833E+04  0.16797415749E+04 0.  0.
        2    1    3    3  502    0  0.12610162603E+03  0.60986171384E+03  0.37193431747E+03  0.72537443201E+03  0.25500000920E-02 0.  1.
       -2    1    3    3    0  502 -0.12610162603E+03 -0.60986171384E+03 -0.78937899436E+03  0.10054611513E+04  0.25500000920E-02 0. -1.
</event>
<event>
 5   0  0.3713516E-04  0.1482693E+04  0.7818609E-02  0.8896044E-01
       -1   -1    0    0    0  501  0.00000000000E+00  0.00000000000E+00  0.10887944395E+04  0.10887944395E+04  0.50400001928E-02 0.  1.
        1   -1    0    0  501    0  0.00000000000E+00  0.00000000000E+00 -0.50477335842E+03  0.50477335845E+03  0.50400001928E-02 0. -1.
    10030    2    1    2    0    0  0.00000000000E+00  0.00000000000E+00  0.58402108104E+03  0.15935677979E+04  0.14826927205E+04 0.  0.
        5    1    3    3  502    0 -0.13001639125E+03  0.18175995222E+03  0.10517142539E+04  0.10752050522E+04  0.46999998093E+01 0.  1.
       -5    1    3    3    0  502  0.13001639125E+03 -0.18175995222E+03 -0.46769317290E+03  0.51836274577E+03  0.46999998093E+01 0. -1.
</event>
<event>
 5   0  0.7233728E-04  0.1790973E+04  0.7818609E-02  0.8711115E-01
       -2   -1    0    0    0  501  0.00000000000E+00  0.00000000000E+00  0.14635041681E+04  0.14635041681E+04  0.25500000920E-02 0. -1.
        2   -1    0    0  501    0  0.00000000000E+00  0.00000000000E+00 -0.54792895579E+03  0.54792895579E+03  0.25500000920E-02 0.  1.
    10030    2    1    2    0    0  0.00000000000E+00  0.00000000000E+00  0.91557521234E+03  0.20114331239E+04  0.17909732668E+04 0.  0.
        1    1    3    3  502    0  0.62441474876E+03 -0.38017769499E+03 -0.12304630609E+03  0.74132938139E+03  0.50400001928E-02 0.  1.
       -1    1    3    3    0  502 -0.62441474876E+03  0.38017769499E+03  0.10386215184E+04  0.12701037425E+04  0.50400001928E-02 0. -1.
</event>
<event>
 5   0  0.3635143E-04  0.1694227E+04  0.7818609E-02  0.8764664E-01
        1   -1    0    0  501    0  0.00000000000E+00  0.00000000000E+00  0.45061834096E+03  0.45061834099E+03  0.50400001928E-02 0. -1.
       -1   -1    0    0    0  501  0.00000000000E+00  0.00000000000E+00 -0.15924821240E+04  0.15924821240E+04  0.50400001928E-02 0.  1.
    10030    2    1    2    0    0  0.00000000000E+00  0.00000000000E+00 -0.11418637830E+04  0.20431004650E+04  0.16942274378E+04 0.  0.
        3    1    3    3  502    0  0.26699723797E+03  0.40087250490E+03  0.26942587063E+03  0.55188458960E+03  0.10100000352E+00 0. -1.
       -3    1    3    3    0  502 -0.26699723797E+03 -0.40087250490E+03 -0.14112896536E+04  0.14912158754E+04  0.10100000352E+00 0.  1.
</event>
<event>
 5   0  0.7233728E-04  0.1667588E+04  0.7818609E-02  0.8780069E-01
       -2   -1    0    0    0  501  0.00000000000E+00  0.00000000000E+00  0.50778249086E+03  0.50778249087E+03  0.25500000920E-02 0.  1.
        2   -1    0    0  501    0  0.00000000000E+00  0.00000000000E+00 -0.13691150872E+04  0.13691150872E+04  0.25500000920E-02 0. -1.
    10030    2    1    2    0    0  0.00000000000E+00  0.00000000000E+00 -0.86133259638E+03  0.18768975781E+04  0.16675882817E+04 0.  0.
        1    1    3    3  502    0  0.35754241698E+03 -0.36909152968E+03 -0.11697007619E+04  0.12776012718E+04  0.50400001928E-02 0. -1.
       -1    1    3    3    0  502 -0.35754241698E+03  0.36909152968E+03  0.30836816554E+03  0.59929630632E+03  0.50400001928E-02 0.  1.
</event>
<event>
 5   0  0.3723500E-04  0.1689385E+04  0.7818609E-02  0.8767442E-01
       -1   -1    0    0    0  501  0.00000000000E+00  0.00000000000E+00  0.39607180034E+03  0.39607180038E+03  0.50400001928E-02 0.  1.
        1   -1    0    0  501    0  0.00000000000E+00  0.00000000000E+00 -0.18014538887E+04  0.18014538888E+04  0.50400001928E-02 0. -1.
    10030    2    1    2    0    0  0.00000000000E+00  0.00000000000E+00 -0.14053820884E+04  0.21975256891E+04  0.16893846039E+04 0.  0.
        1    1    3    3  502    0  0.82773412044E+03 -0.66878292123E+02 -0.50164255110E+03  0.97018644043E+03  0.50400001928E-02 0.  1.
       -1    1    3    3    0  502 -0.82773412044E+03  0.66878292123E+02 -0.90373953730E+03  0.12273392487E+04  0.50400001928E-02 0. -1.
</event>
<event>
 5   0  0.6746664E-04  0.1675735E+04  0.7818609E-02  0.8775326E-01
        2   -1    0    0  501    0  0.00000000000E+00  0.00000000000E+00  0.12414741691E+04  0.12414741691E+04  0.25500000920E-02 0. -1.
       -2   -1    0    0    0  501  0.00000000000E+00  0.00000000000E+00 -0.56547464772E+03  0.56547464773E+03  0.25500000920E-02 0.  1.
    10030    2    1    2    0    0  0.00000000000E+00  0.00000000000E+00  0.67599952143E+03  0.18069488169E+04  0.16757352636E+04 0.  0.
        5    1    3    3  502    0  0.71761789731E+03 -0.17435043979E+03 -0.88749857711E+02  0.74382266007E+03  0.46999998093E+01 0.  1.
       -5    1    3    3    0  502 -0.71761789731E+03  0.17435043979E+03  0.76474937914E+03  0.10631261568E+04  0.46999998093E+01 0. -1.
</event>
<event>
 5   0  0.3915701E-04  0.1706298E+04  0.7818609E-02  0.8757780E-01
        1   -1    0    0  501    0  0.00000000000E+00  0.00000000000E+00  0.59669626390E+03  0.59669626392E+03  0.50400001928E-02 0.  1.
       -1   -1    0    0    0  501  0.00000000000E+00  0.00000000000E+00 -0.12198220785E+04  0.12198220785E+04  0.50400001928E-02 0. -1.
    10030    2    1    2    0    0  0.00000000000E+00  0.00000000000E+00 -0.62312581458E+03  0.18165183424E+04  0.17062980711E+04 0.  0.
        2    1    3    3  502    0  0.28933668864E+03 -0.64699721290E+03 -0.81715323756E+03  0.10816933607E+04  0.25500000920E-02 0. -1.
       -2    1    3    3    0  502 -0.28933668864E+03  0.64699721290E+03  0.19402742298E+03  0.73482498173E+03  0.25500000920E-02 0.  1.
</event>
<event>
 5   0  0.7242144E-04  0.1710869E+04  0.7818609E-02  0.8755190E-01
        2   -1    0    0  501    0  0.00000000000E+00  0.00000000000E+00  0.12656765638E+04  0.12656765638E+04  0.25500000920E-02 0.  1.
       -2   -1    0    0    0  501  0.00000000000E+00  0.00000000000E+00 -0.57816350551E+03  0.57816350551E+03  0.25500000920E-02 0. -1.
    10030    2    1    2    0    0  0.00000000000E+00  0.00000000000E+00  0.68751305831E+03  0.18438400693E+04  0.17108687840E+04 0.  0.
        3    1    3    3  502    0  0.42612552089E+03  0.61541084660E+03 -0.10249633292E+03  0.75552563035E+03  0.10100000352E+00 0. -1.
       -3    1    3    3    0  502 -0.42612552089E+03 -0.61541084660E+03  0.79000939123E+03  0.10883144390E+04  0.10100000352E+00 0.  1.
</event>
<event>
 5   0  0.7025426E-04  0.1697860E+04  0.7818609E-02  0.8762586E-01
        2   -1    0    0  501    0  0.00000000000E+00  0.00000000000E+00  0.92475293500E+03  0.92475293500E+03  0.25500000920E-02 0.  1.
       -2   -1    0    0    0  501  0.00000000000E+00  0.00000000000E+00 -0.77932364209E+03  0.77932364210E+03  0.25500000920E-02 0. -1.
    10030    2    1    2    0    0  0.00000000000E+00  0.00000000000E+00  0.14542929290E+03  0.17040765771E+04  0.16978596236E+04 0.  0.
        2    1    3    3  502    0 -0.30802642492E+03 -0.70854817719E+03 -0.28037036299E+03  0.82190530982E+03  0.25500000920E-02 0. -1.
       -2    1    3    3    0  502  0.30802642492E+03  0.70854817719E+03  0.42579965589E+03  0.88217126728E+03  0.25500000920E-02 0.  1.
</event>
<event>
 5   0  0.2639750E-04  0.1690560E+04  0.7818609E-02  0.8766767E-01
       -4   -1    0    0    0  501  0.00000000000E+00  0.00000000000E+00  0.10719354207E+04  0.10719361731E+04  0.12699999809E+01 0. -1.
        4   -1    0    0  501    0  0.00000000000E+00  0.00000000000E+00 -0.66654778102E+03  0.66654899091E+03  0.12699999809E+01 0.  1.
    10030    2    1    2    0    0  0.00000000000E+00  0.00000000000E+00  0.40538763971E+03  0.17384851640E+04  0.16905595307E+04 0.  0.
        3    1    3    3  502    0 -0.36587277504E+01  0.40604334869E+03  0.96506967047E+03  0.10470167460E+04  0.10100000352E+00 0. -1.
       -3    1    3    3    0  502  0.36587277504E+01 -0.40604334869E+03 -0.55968203077E+03  0.69146841799E+03  0.10100000352E+00 0.  1.
</event>
<event>
 5   0  0.6746664E-04  0.1547096E+04  0.7818609E-02  0.8853725E-01
        2   -1    0    0  501    0  0.00000000000E+00  0.00000000000E+00  0.10556644824E+04  0.10556644824E+04  0.25500000920E-02 0. -1.
       -2   -1    0    0    0  501  0.00000000000E+00  0.00000000000E+00 -0.56682475488E+03  0.56682475488E+03  0.25500000920E-02 0.  1.
    10030    2    1    2    0    0  0.00000000000E+00  0.00000000000E+00  0.48883972756E+03  0.16224892373E+04  0.15470963273E+04 0.  0.
        5    1    3    3  502    0 -0.32498150205E+03  0.49341046437E+03 -0.27919864474E+03  0.65348361590E+03  0.46999998093E+01 0.  1.
       -5    1    3    3    0  502  0.32498150205E+03 -0.49341046437E+03  0.76803837231E+03  0.96900562143E+03  0.46999998093E+01 0. -1.
</event>
<event>
 5   0  0.6746664E-04  0.1717209E+04  0.7818609E-02  0.8751610E-01
        2   -1    0    0  501    0  0.00000000000E+00  0.00000000000E+00  0.18741720058E+04  0.18741720058E+04  0.25500000920E-02 0. -1.
       -2   -1    0    0    0  501  0.00000000000E+00  0.00000000000E+00 -0.39334786035E+03  0.39334786036E+03  0.25500000920E-02 0.  1.
    10030    2    1    2    0    0  0.00000000000E+00  0.00000000000E+00  0.14808241455E+04  0.22675198662E+04  0.17172088381E+04 0.  0.
        5    1    3    3  502    0  0.23746021151E+03  0.85188041381E+01  0.18298740884E+04  0.18452428544E+04  0.46999998093E+01 0. -1.
       -5    1    3    3    0  502 -0.23746021151E+03 -0.85188041381E+01 -0.34904994293E+03  0.42227701184E+03  0.46999998093E+01 0.  1.
</event>
<event>
 5   0  0.7242144E-04  0.1685500E+04  0.7818609E-02  0.8769678E-01
       -2   -1    0    0    0  501  0.00000000000E+00  0.00000000000E+00  0.40805071884E+03  0.40805071885E+03  0.25500000920E-02 0. -1.
        2   -1    0    0  501    0  0.00000000000E+00  0.00000000000E+00 -0.17405378953E+04  0.17405378953E+04  0.25500000920E-02 0.  1.
    10030    2    1    2    0    0  0.00000000000E+00  0.00000000000E+00 -0.13324871765E+04  0.21485886142E+04  0.16855002099E+04 0.  0.
        3    1    3    3  502    0 -0.25753473202E+03  0.39333404138E+03  0.22534417215E+03  0.52135958074E+03  0.10100000352E+00 0. -1.
       -3    1    3    3    0  502  0.25753473202E+03 -0.39333404138E+03 -0.15578313486E+04  0.16272290334E+04  0.10100000352E+00 0.  1.
</event>
<event>
 5   0  0.7233728E-04  0.1739104E+04  0.7818609E-02  0.8739371E-01
        2   -1    0    0  501    0  0.00000000000E+00  0.00000000000E+00  0.55015175185E+03  0.55015175186E+03  0.25500000920E-02 0. -1.
       -2   -1    0    0    0  501  0.00000000000E+00  0.00000000000E+00 -0.13743862357E+04  0.13743862357E+04  0.25500000920E-02 0.  1.
    10030    2    1    2    0    0  0.00000000000E+00  0.00000000000E+00 -0.82423448385E+03  0.19245379876E+04  0.17391043618E+04 0.  0.
        1    1    3    3  502    0  0.62770518242E+03 -0.22383149179E+03  0.20601696473E+03  0.69753661018E+03  0.50400001928E-02 0. -1.
       -1    1    3    3    0  502 -0.62770518242E+03  0.22383149179E+03 -0.10302514486E+04  0.12270013774E+04  0.50400001928E-02 0.  1.
</event>
<event>
 5   0  0.3713516E-04  0.1810115E+04  0.7818609E-02  0.8700939E-01
        1   -1    0    0  501    0  0.00000000000E+00  0.00000000000E+00  0.64961590679E+03  0.64961590681E+03  0.50400001928E-02 0. -1.
       -1   -1    0    0    0  501  0.00000000000E+00  0.00000000000E+00 -0.12609437382E+04  0.12609437382E+04  0.50400001928E-02 0.  1.
    10030    2    1    2    0    0  0.00000000000E+00  0.00000000000E+00 -0.61132783145E+03  0.19105596451E+04  0.18101150350E+04 0.  0.
        5    1    3    3  502    0 -0.28791196994E+03 -0.49671354425E+03 -0.10441223552E+04  0.11915667124E+04  0.46999998093E+01 0.  1.
       -5    1    3    3    0  502  0.28791196994E+03  0.49671354425E+03  0.43279452373E+03  0.71899293268E+03  0.46999998093E+01 0. -1.
</event>
<event>
 5   0  0.3723500E-04  0.1713271E+04  0.7818609E-02  0.8753832E-01
       -1   -1    0    0    0  501  0.00000000000E+00  0.00000000000E+00  0.99114824545E+03  0.99114824547E+03  0.50400001928E-02 0. -1.
        1   -1    0    0  501    0  0.00000000000E+00  0.00000000000E+00 -0.74037785592E+03  0.74037785593E+03  0.50400001928E-02 0.  1.
    10030    2    1    2    0    0  0.00000000000E+00  0.00000000000E+00  0.25077038954E+03  0.17315261014E+04  0.17132708051E+04 0.  0.
        1    1    3    3  502    0  0.56007151241E+03  0.57861224595E+03  0.42064874352E+03  0.90852495598E+03  0.50400001928E-02 0. -1.
       -1    1    3    3    0  502 -0.56007151241E+03 -0.57861224595E+03 -0.16987835399E+03  0.82300114542E+03  0.50400001928E-02 0.  1.
</event>
<event>
 5   0  0.7025426E-04  0.1641451E+04  0.7818609E-02  0.8795480E-01
       -2   -1    0    0    0  501  0.00000000000E+00  0.00000000000E+00  0.12427863581E+04  0.12427863581E+04  0.25500000920E-02 0.  1.
        2   -1    0    0  501    0  0.00000000000E+00  0.00000000000E+00 -0.54200039302E+03  0.54200039303E+03  0.25500000920E-02 0. -1.
    10030    2    1    2    0    0  0.00000000000E+00  0.00000000000E+00  0.70078596503E+03  0.17847867511E+04  0.16414514242E+04 0.  0.
        2    1    3    3  502    0 -0.39282264609E+03  0.66629678498E+03  0.51963796132E+02  0.77521692001E+03  0.25500000920E-02 0.  1.
       -2    1    3    3    0  502  0.39282264609E+03 -0.66629678498E+03  0.64882216890E+03  0.10095698311E+04  0.25500000920E-02 0. -1.
</event>
<event>
 5   0  0.3915701E-04  0.2348249E+04  0.7818609E-02  0.8459137E-01
       -1   -1    0    0    0  501  0.00000000000E+00  0.00000000000E+00  0.86311923139E+03  0.86311923141E+03  0.50400001928E-02 0.  1.
        1   -1    0    0  501    0  0.00000000000E+00  0.00000000000E+00 -0.15971932869E+04  0.15971932869E+04  0.50400001928E-02 0. -1.
    10030    2    1    2    0    0  0.00000000000E+00  0.00000000000E+00 -0.73407405549E+03  0.24603125183E+04  0.23482489154E+04 0.  0.
        2    1    3    3  502    0  0.11500133084E+04 -0.11213978919E+03 -0.58546210608E+03  0.12953269161E+04  0.25500000920E-02 0. -1.
       -2    1    3    3    0  502 -0.11500133084E+04  0.11213978919E+03 -0.14861194941E+03  0.11649856022E+04  0.25500000920E-02 0.  1.
</event>
<event>
 5   0  0.7233728E-04  0.1709104E+04  0.7818609E-02  0.8756189E-01
       -2   -1    0    0    0  501  0.00000000000E+00  0.00000000000E+00  0.37314112616E+03  0.37314112617E+03  0.25500000920E-02 0.  1.
        2   -1    0    0  501    0  0.00000000000E+00  0.00000000000E+00 -0.19570598794E+04  0.19570598794E+04  0.25500000920E-02 0. -1.
    10030    2    1    2    0    0  0.00000000000E+00  0.00000000000E+00 -0.15839187532E+04  0.23302010055E+04  0.17091044759E+04 0.  0.
        1    1    3    3  502    0 -0.54037332469E+02  0.66488652932E+03 -0.15201571073E+04  0.16600818537E+04  0.50400001928E-02 0. -1.
       -1    1    3    3    0  502  0.54037332469E+02 -0.66488652932E+03 -0.63761645952E+02  0.67011915186E+03  0.50400001928E-02 0.  1.
</event>
<event>
 5   0  0.6746664E-04  0.1760020E+04  0.7818609E-02  0.8727854E-01
       -2   -1    0    0    0  501  0.00000000000E+00  0.00000000000E+00  0.59172771716E+03  0.59172771717E+03  0.25500000920E-02 0. -1.
        2   -1    0    0  501    0  0.00000000000E+00  0.00000000000E+00 -0.13087401015E+04  0.13087401015E+04  0.25500000920E-02 0.  1.
    10030    2    1    2    0    0  0.00000000000E+00  0.00000000000E+00 -0.71701238435E+03  0.19004678187E+04  0.17600202188E+04 0.  0.
        5    1    3    3  502    0  0.10108166581E+03 -0.56108446455E+03 -0.10823439596E+04  0.12233249022E+04  0.46999998093E+01 0.  1.
       -5    1    3    3    0  502 -0.10108166581E+03  0.56108446455E+03  0.36533157520E+03  0.67714291650E+03  0.46999998093E+01 0. -1.
</event>
<event>
 5   0  0.3635143E-04  0.1721339E+04  0.7818609E-02  0.8749286E-01
       -1   -1    0    0    0  501  0.00000000000E+00  0.00000000000E+00  0.44911675299E+03  0.44911675302E+03  0.50400001928E-02 0. -1.
        1   -1    0    0  501    0  0.00000000000E+00  0.00000000000E+00 -0.16493534917E+04  0.16493534917E+04  0.50400001928E-02 0.  1.
    10030    2    1    2    0    0  0.00000000000E+00  0.00000000000E+00 -0.12002367387E+04  0.20984702448E+04  0.17213393446E+04 0.  0.
        3    1    3    3  502    0 -0.19429079504E+03  0.82220403114E+03 -0.39986094748E+03  0.93469629794E+03  0.10100000352E+00 0.  1.
       -3    1    3    3    0  502  0.19429079504E+03 -0.82220403114E+03 -0.80037579127E+03  0.11637739468E+04  0.10100000352E+00 0. -1.
</event>
<event>
 5   0  0.3713516E-04  0.1679166E+04  0.7818609E-02  0.8773337E-01
       -1   -1    0    0    0  501  0.00000000000E+00  0.00000000000E+00  0.11271198518E+04  0.11271198518E+04  0.50400001928E-02 0.  1.
        1   -1    0    0  501    0  0.00000000000E+00  0.00000000000E+00 -0.62539884910E+03  0.62539884912E+03  0.50400001928E-02 0. -1.
    10030    2    1    2    0    0  0.00000000000E+00  0.00000000000E+00  0.50172100271E+03  0.17525187009E+04  0.16791658145E+04 0.  0.
        5    1    3    3  502    0 -0.23729532198E+03 -0.50141203031E+03  0.90859208586E+03  0.10645584824E+04  0.46999998093E+01 0.  1.
       -5    1    3    3    0  502  0.23729532198E+03  0.50141203031E+03 -0.40687108315E+03  0.68796021853E+03  0.46999998093E+01 0. -1.
</event>
<event>
 5   0  0.7233728E-04  0.1674255E+04  0.7818609E-02  0.8776185E-01
       -2   -1    0    0    0  501  0.00000000000E+00  0.00000000000E+00  0.57948285297E+03  0.57948285297E+03  0.25500000920E-02 0.  1.
        2   -1    0    0  501    0  0.00000000000E+00  0.00000000000E+00 -0.12093237804E+04  0.12093237804E+04  0.25500000920E-02 0. -1.
    10030    2    1    2    0    0  0.00000000000E+00  0.00000000000E+00 -0.62984092744E+03  0.17888066334E+04  0.16742549321E+04 0.  0.
        1    1    3    3  502    0  0.32379785180E+03 -0.10287806591E+03  0.50251015389E+03  0.60658503119E+03  0.50400001928E-02 0.  1.
       -1    1    3    3    0  502 -0.32379785180E+03  0.10287806591E+03 -0.11323510813E+04  0.11822216022E+04  0.50400001928E-02 0. -1.
</event>
<event>
 5   0  0.7049044E-04  0.1461686E+04  0.7818609E-02  0.8910339E-01
        2   -1    0    0  501    0  0.00000000000E+00  0.00000000000E+00  0.16065467810E+04  0.16065467810E+04  0.25500000920E-02 0.  1.
       -2   -1    0    0    0  501  0.00000000000E+00  0.00000000000E+00 -0.33247184791E+03  0.33247184792E+03  0.25500000920E-02 0. -1.
    10030    2    1    2    0    0  0.00000000000E+00  0.00000000000E+00  0.12740749331E+04  0.19390186289E+04  0.14616861182E+04 0.  0.
        4    1    3    3  502    0 -0.16134364957E+03 -0.64860040256E+03  0.24482391013E+03  0.71179675142E+03  0.12699999809E+01 0.  1.
       -4    1    3    3    0  502  0.16134364957E+03  0.64860040256E+03  0.10292510230E+04  0.12272218775E+04  0.12699999809E+01 0. -1.
</event>
<event>
 5   0  0.2639750E-04  0.1582033E+04  0.7818609E-02  0.8831662E-01
       -4   -1    0    0    0  501  0.00000000000E+00  0.00000000000E+00  0.12979876113E+04  0.12979882326E+04  0.12699999809E+01 0. -1.
        4   -1    0    0  501    0  0.00000000000E+00  0.00000000000E+00 -0.48205785672E+03  0.48205952965E+03  0.12699999809E+01 0.  1.
    10030    2    1    2    0    0  0.00000000000E+00  0.00000000000E+00  0.81592975455E+03  0.17800477622E+04  0.15820330817E+04 0.  0.
        4    1    3    3  502    0  0.48202645871E+03  0.49631485826E+03 -0.23470290294E+02  0.69226469855E+03  0.12699999809E+01 0.  1.
       -4    1    3    3    0  502 -0.48202645871E+03 -0.49631485826E+03  0.83940004485E+03  0.10877830637E+04  0.12699999809E+01 0. -1.
</event>
<event>
 5   0  0.3803253E-04  0.1690821E+04  0.7818609E-02  0.8766617E-01
        1   -1    0    0  501    0  0.00000000000E+00  0.00000000000E+00  0.15958993986E+04  0.15958993987E+04  0.50400001928E-02 0.  1.
       -1   -1    0    0    0  501  0.00000000000E+00  0.00000000000E+00 -0.44784685665E+03  0.44784685668E+03  0.50400001928E-02 0. -1.
    10030    2    1    2    0    0  0.00000000000E+00  0.00000000000E+00  0.11480525420E+04  0.20437462553E+04  0.16908205455E+04 0.  0.
        4    1    3    3  502    0  0.81355797109E+03 -0.22986516331E+03  0.57587950322E+03  0.10229141610E+04  0.12699999809E+01 0.  1.
       -4    1    3    3    0  502 -0.81355797109E+03  0.22986516331E+03  0.57217303878E+03  0.10208320943E+04  0.12699999809E+01 0. -1.
</event>
<event>
 5   0  0.7242144E-04  0.1741342E+04  0.7818609E-02  0.8738130E-01
       -2   -1    0    0    0  501  0.00000000000E+00  0.00000000000E+00  0.41537394869E+03  0.41537394870E+03  0.25500000920E-02 0. -1.
        2   -1    0    0  501    0  0.00000000000E+00  0.00000000000E+00 -0.18250262851E+04  0.18250262851E+04  0.25500000920E-02 0.  1.
    10030    2    1    2    0    0  0.00000000000E+00  0.00000000000E+00 -0.14096523364E+04  0.22404002338E+04  0.17413424414E+04 0.  0.
        3    1    3    3  502    0  0.75168403215E+03 -0.21639876661E+03 -0.11967881338E+04  0.14297409408E+04  0.10100000352E+00 0.  1.
       -3    1    3    3    0  502 -0.75168403215E+03  0.21639876661E+03 -0.21286420260E+03  0.81065929300E+03  0.10100000352E+00 0. -1.
</event>
<event>
 5   0  0.3723500E-04  0.1692080E+04  0.7818609E-02  0.8765895E-01
       -1   -1    0    0    0  501  0.00000000000E+00  0.00000000000E+00  0.85278414363E+03  0.85278414364E+03  0.50400001928E-02 0. -1.
        1   -1    0    0  501    0  0.00000000000E+00  0.00000000000E+00 -0.83934878880E+03  0.83934878882E+03  0.50400001928E-02 0.  1.
    10030    2    1    2    0    0  0.00000000000E+00  0.00000000000E+00  0.13435354826E+02  0.16921329325E+04  0.16920795940E+04 0.  0.
        1    1    3    3  502    0  0.14295472473E+03  0.55501749842E+03 -0.61563855421E+03  0.84112502420E+03  0.50400001928E-02 0.  1.
       -1    1    3    3    0  502 -0.14295472473E+03 -0.55501749842E+03  0.62907390904E+03  0.85100790827E+03  0.50400001928E-02 0. -1.
</event>
<event>
 5   0  0.6746664E-04  0.1674708E+04  0.7818609E-02  0.8775922E-01
       -2   -1    0    0    0  501  0.00000000000E+00  0.00000000000E+00  0.42791986112E+03  0.42791986113E+03  0.25500000920E-02 0.  1.
        2   -1    0    0  501    0  0.00000000000E+00  0.00000000000E+00 -0.16385360955E+04  0.16385360955E+04  0.25500000920E-02 0. -1.
    10030    2    1    2    0    0  0.00000000000E+00  0.00000000000E+00 -0.12106162344E+04  0.20664559567E+04  0.16747084982E+04 0.  0.
        5    1    3    3  502    0  0.54677477213E+03  0.23190915271E+03  0.12301353935E+03  0.60654672319E+03  0.46999998093E+01 0. -1.
       -5    1    3    3    0  502 -0.54677477213E+03 -0.23190915271E+03 -0.13336297737E+04  0.14599092335E+04  0.46999998093E+01 0.  1.
</event>
<event>
 5   0  0.3915701E-04  0.1719036E+04  0.7818609E-02  0.8750581E-01
       -1   -1    0    0    0  501  0.00000000000E+00  0.00000000000E+00  0.12134415424E+04  0.12134415424E+04  0.50400001928E-02 0.  1.
        1   -1    0    0  501    0  0.00000000000E+00  0.00000000000E+00 -0.60882338119E+03  0.60882338121E+03  0.50400001928E-02 0. -1.
    10030    2    1    2    0    0  0.00000000000E+00  0.00000000000E+00  0.60461816119E+03  0.18222649236E+04  0.17190364542E+04 0.  0.
        2    1    3    3  502    0  0.60400333117E+03 -0.10231272209E+03  0.94140917046E+03  0.11231825958E+04  0.25500000920E-02 0.  1.
       -2    1    3    3    0  502 -0.60400333117E+03  0.10231272209E+03 -0.33679100927E+03  0.69908232784E+03  0.25500000920E-02 0. -1.
</event>
<event>
 5   0  0.7233728E-04  0.1725671E+04  0.7818609E-02  0.8746857E-01
        2   -1    0    0  501    0  0.00000000000E+00  0.00000000000E+00  0.11895816256E+04  0.11895816257E+04  0.25500000920E-02 0. -1.
       -2   -1    0    0    0  501  0.00000000000E+00  0.00000000000E+00 -0.62583768144E+03  0.62583768144E+03  0.25500000920E-02 0.  1.
    10030    2    1    2    0    0  0.00000000000E+00  0.00000000000E+00  0.56374394421E+03  0.18154193071E+04  0.17256708915E+04 0.  0.
        1    1    3    3  502    0  0.16157036180E+03  0.19217090257E+02 -0.60955227518E+03  0.63089480468E+03  0.50400001928E-02 0.  1.
       -1    1    3    3    0  502 -0.16157036180E+03 -0.19217090257E+02  0.11732962194E+04  0.11845245024E+04  0.50400001928E-02 0. -1.
</event>
<event>
 5   0  0.7025426E-04  0.1636977E+04  0.7818609E-02  0.8798148E-01
        2   -1    0    0  501    0  0.00000000000E+00  0.00000000000E+00  0.14337630882E+04  0.14337630882E+04  0.25500000920E-02 0. -1.
       -2   -1    0    0    0  501  0.00000000000E+00  0.00000000000E+00 -0.46724843015E+03  0.46724843016E+03  0.25500000920E-02 0.  1.
    10030    2    1    2    0    0  0.00000000000E+00  0.00000000000E+00  0.96651465801E+03  0.19010115183E+04  0.16369771558E+04 0.  0.
        2    1    3    3  502    0  0.12350722532E+03  0.80150163543E+03  0.61186581792E+03  0.10158930482E+04  0.25500000920E-02 0. -1.
       -2    1    3    3    0  502 -0.12350722532E+03 -0.80150163543E+03  0.35464884009E+03  0.88511847008E+03  0.25500000920E-02 0.  1.
</event>
<event>
 5   0  0.2639750E-04  0.1711604E+04  0.7818609E-02  0.8754774E-01
        3   -1    0    0  501    0  0.00000000000E+00  0.00000000000E+00  0.11530591722E+04  0.11530591766E+04  0.10100000352E+00 0. -1.
       -3   -1    0    0    0  501  0.00000000000E+00  0.00000000000E+00 -0.63517729506E+03  0.63517730309E+03  0.10100000352E+00 0.  1.
    10030    2    1    2    0    0  0.00000000000E+00  0.00000000000E+00  0.51788187715E+03  0.17882364797E+04  0.17116039462E+04 0.  0.
        4    1    3    3  502    0 -0.70695823867E+03  0.47001386737E+03  0.14596815516E+03  0.86140077894E+03  0.12699999809E+01 0.  1.
       -4    1    3    3    0  502  0.70695823867E+03 -0.47001386737E+03  0.37191372200E+03  0.92683570078E+03  0.12699999809E+01 0. -1.
</event>
<event>
 5   0  0.3803253E-04  0.1682469E+04  0.7818609E-02  0.8771426E-01
       -1   -1    0    0    0  501  0.00000000000E+00  0.00000000000E+00  0.78638952058E+03  0.78638952060E+03  0.50400001928E-02 0. -1.
        1   -1    0    0  501    0  0.00000000000E+00  0.00000000000E+00 -0.89990500344E+03  0.89990500345E+03  0.50400001928E-02 0.  1.
    10030    2    1    2    0    0  0.00000000000E+00  0.00000000000E+00 -0.11351548286E+03  0.16862945241E+04  0.16824694520E+04 0.  0.
        4    1    3    3  502    0 -0.69761668621E+03  0.29049602012E+03 -0.42721580117E+03  0.86808521025E+03  0.12699999809E+01 0.  1.
       -4    1    3    3    0  502  0.69761668621E+03 -0.29049602012E+03  0.31370031831E+03  0.81820931380E+03  0.12699999809E+01 0. -1.
</event>
<event>
 5   0  0.2639750E-04  0.1689543E+04  0.7818609E-02  0.8767351E-01
        3   -1    0    0  501    0  0.00000000000E+00  0.00000000000E+00  0.43562086567E+03  0.43562087738E+03  0.10100000352E+00 0.  1.
       -3   -1    0    0    0  501  0.00000000000E+00  0.00000000000E+00 -0.16382114929E+04  0.16382114960E+04  0.10100000352E+00 0. -1.
    10030    2    1    2    0    0  0.00000000000E+00  0.00000000000E+00 -0.12025906273E+04  0.20738323734E+04  0.16895432804E+04 0.  0.
        3    1    3    3  502    0  0.48441687777E+03 -0.67642996535E+03 -0.78094785555E+03  0.11410945503E+04  0.10100000352E+00 0.  1.
       -3    1    3    3    0  502 -0.48441687777E+03  0.67642996535E+03 -0.42164277170E+03  0.93273782308E+03  0.10100000352E+00 0. -1.
</event>
<event>
 5   0  0.7049044E-04  0.1697154E+04  0.7818609E-02  0.8762989E-01
        2   -1    0    0  501    0  0.00000000000E+00  0.00000000000E+00  0.26604374231E+04  0.26604374231E+04  0.25500000920E-02 0.  1.
       -2   -1    0    0    0  501  0.00000000000E+00  0.00000000000E+00 -0.27066325444E+03  0.27066325445E+03  0.25500000920E-02 0. -1.
    10030    2    1    2    0    0  0.00000000000E+00  0.00000000000E+00  0.23897741687E+04  0.29311006776E+04  0.16971536774E+04 0.  0.
        4    1    3    3  502    0 -0.80753775902E+03  0.20790476298E+03  0.14665336910E+04  0.16870282459E+04  0.12699999809E+01 0.  1.
       -4    1    3    3    0  502  0.80753775902E+03 -0.20790476298E+03  0.92324047768E+03  0.12440724317E+04  0.12699999809E+01 0. -1.
</event>
<event>
 5   0  0.6746664E-04  0.1710323E+04  0.7818609E-02  0.8755499E-01
       -2   -1    0    0    0  501  0.00000000000E+00  0.00000000000E+00  0.54219368292E+03  0.54219368292E+03  0.25500000920E-02 0.  1.
        2   -1    0    0  501    0  0.00000000000E+00  0.00000000000E+00 -0.13487816882E+04  0.13487816882E+04  0.25500000920E-02 0. -1.
    10030    2    1    2    0    0  0.00000000000E+00  0.00000000000E+00 -0.80658800529E+03  0.18909753711E+04  0.17103226725E+04 0.  0.
        5    1    3    3  502    0  0.59007929147E+03 -0.61842370059E+03 -0.37538102788E+03  0.93358151747E+03  0.46999998093E+01 0.  1.
       -5    1    3    3    0  502 -0.59007929147E+03  0.61842370059E+03 -0.43120697742E+03  0.95739385367E+03  0.46999998093E+01 0. -1.
</event>
<event>
 5   0  0.3723500E-04  0.1692224E+04  0.7818609E-02  0.8765812E-01
        1   -1    0    0  501    0  0.00000000000E+00  0.00000000000E+00  0.86892457225E+03  0.86892457226E+03  0.50400001928E-02 0.  1.
       -1   -1    0    0    0  501  0.00000000000E+00  0.00000000000E+00 -0.82389871295E+03  0.82389871296E+03  0.50400001928E-02 0. -1.
    10030    2    1    2    0    0  0.00000000000E+00  0.00000000000E+00  0.45025859299E+02  0.16928232852E+04  0.16922243784E+04 0.  0.
        1    1    3    3  502    0 -0.71940607521E+03 -0.32460225102E+03  0.32757021990E+03  0.85452558265E+03  0.50400001928E-02 0.  1.
       -1    1    3    3    0  502  0.71940607521E+03  0.32460225102E+03 -0.28254436060E+03  0.83829770257E+03  0.50400001928E-02 0. -1.
</event>
<event>
 5   0  0.7049044E-04  0.1632822E+04  0.7818609E-02  0.8800634E-01
       -2   -1    0    0    0  501  0.00000000000E+00  0.00000000000E+00  0.64739455934E+03  0.64739455934E+03  0.25500000920E-02 0.  1.
        2   -1    0    0  501    0  0.00000000000E+00  0.00000000000E+00 -0.10295530489E+04  0.10295530489E+04  0.25500000920E-02 0. -1.
    10030    2    1    2    0    0  0.00000000000E+00  0.00000000000E+00 -0.38215848958E+03  0.16769476083E+04  0.16328221488E+04 0.  0.
        4    1    3    3  502    0  0.14918794098E+03  0.64523164679E+03 -0.68141682530E+03  0.95021651347E+03  0.12699999809E+01 0. -1.
       -4    1    3    3    0  502 -0.14918794098E+03 -0.64523164679E+03  0.29925833572E+03  0.72673109480E+03  0.12699999809E+01 0.  1.
</event>
<event>
 5   0  0.2639750E-04  0.1748309E+04  0.7818609E-02  0.8734282E-01
        3   -1    0    0  501    0  0.00000000000E+00  0.00000000000E+00  0.74221853822E+03  0.74221854509E+03  0.10100000352E+00 0.  1.
       -3   -1    0    0    0  501  0.00000000000E+00  0.00000000000E+00 -0.10295428970E+04  0.10295429019E+04  0.10100000352E+00 0. -1.
    10030    2    1    2    0    0  0.00000000000E+00  0.00000000000E+00 -0.28732435877E+03  0.17717614470E+04  0.17483087079E+04 0.  0.
        3    1    3    3  502    0 -0.31936711863E+03 -0.44481783783E+03 -0.83418915633E+03  0.99786262785E+03  0.10100000352E+00 0. -1.
       -3    1    3    3    0  502  0.31936711863E+03  0.44481783783E+03  0.54686479756E+03  0.77389881918E+03  0.10100000352E+00 0.  1.
</event>
<event>
 5   0  0.3635143E-04  0.1342443E+04  0.7818609E-02  0.8996568E-01
       -1   -1    0    0    0  501  0.00000000000E+00  0.00000000000E+00  0.29391545472E+03  0.29391545477E+03  0.50400001928E-02 0. -1.
        1   -1    0    0  501    0  0.00000000000E+00  0.00000000000E+00 -0.15328848822E+04  0.15328848822E+04  0.50400001928E-02 0.  1.
    10030    2    1    2    0    0  0.00000000000E+00  0.00000000000E+00 -0.12389694275E+04  0.18268003370E+04  0.13424433802E+04 0.  0.
        3    1    3    3  502    0  0.37071632139E+03 -0.33604089351E+03 -0.12283347006E+04  0.13263333744E+04  0.10100000352E+00 0.  1.
       -3    1    3    3    0  502 -0.37071632139E+03  0.33604089351E+03 -0.10634726886E+02  0.50046696262E+03  0.10100000352E+00 0. -1.
</event>
<event>
 5   0  0.3915701E-04  0.1704646E+04  0.7818609E-02  0.8758719E-01
        1   -1    0    0  501    0  0.00000000000E+00  0.00000000000E+00  0.82724547107E+03  0.82724547108E+03  0.50400001928E-02 0. -1.
       -1   -1    0    0    0  501  0.00000000000E+00  0.00000000000E+00 -0.87816073016E+03  0.87816073017E+03  0.50400001928E-02 0.  1.
    10030    2    1    2    0    0  0.00000000000E+00  0.00000000000E+00 -0.50915259092E+02  0.17054062013E+04  0.17046459890E+04 0.  0.
        2    1    3    3  502    0  0.15967854971E+03  0.81639619478E+03 -0.21115964536E+03  0.85824727318E+03  0.25500000920E-02 0. -1.
       -2    1    3    3    0  502 -0.15967854971E+03 -0.81639619478E+03  0.16024438626E+03  0.84715892808E+03  0.25500000920E-02 0.  1.
</event>
<event>
 5   0  0.3915701E-04  0.1152897E+04  0.7818609E-02  0.9155115E-01
       -1   -1    0    0    0  501  0.00000000000E+00  0.00000000000E+00  0.23611042313E+03  0.23611042318E+03  0.50400001928E-02 0. -1.
        1   -1    0    0  501    0  0.00000000000E+00  0.00000000000E+00 -0.14073612739E+04  0.14073612739E+04  0.50400001928E-02 0.  1.
    10030    2    1    2    0    0  0.00000000000E+00  0.00000000000E+00 -0.11712508508E+04  0.16434716971E+04  0.11528966405E+04 0.  0.
        2    1    3    3  502    0 -0.24543810520E+03 -0.27940314216E+03 -0.12134782005E+04  0.12691868745E+04  0.25500000920E-02 0.  1.
       -2    1    3    3    0  502  0.24543810520E+03  0.27940314216E+03  0.42227349737E+02  0.37428482257E+03  0.25500000920E-02 0. -1.
</event>
<event>
 5   0  0.3723500E-04  0.1403707E+04  0.7818609E-02  0.8951139E-01
        1   -1    0    0  501    0  0.00000000000E+00  0.00000000000E+00  0.91405331223E+03  0.91405331224E+03  0.50400001928E-02 0. -1.
       -1   -1    0    0    0  501  0.00000000000E+00  0.00000000000E+00 -0.53891655090E+03  0.53891655092E+03  0.50400001928E-02 0.  1.
    10030    2    1    2    0    0  0.00000000000E+00  0.00000000000E+00  0.37513676133E+03  0.14529698632E+04  0.14037071751E+04 0.  0.
        1    1    3    3  502    0 -0.38974791323E+03  0.58096316243E+03  0.24590977822E+03  0.74154787507E+03  0.50400001928E-02 0. -1.
       -1    1    3    3    0  502  0.38974791323E+03 -0.58096316243E+03  0.12922698310E+03  0.71142198810E+03  0.50400001928E-02 0.  1.
</event>
<event>
 5   0  0.3713516E-04  0.1210164E+04  0.7818609E-02  0.9104006E-01
       -1   -1    0    0    0  501  0.00000000000E+00  0.00000000000E+00  0.27561769500E+03  0.27561769504E+03  0.50400001928E-02 0.  1.
        1   -1    0    0  501    0  0.00000000000E+00  0.00000000000E+00 -0.13283767077E+04  0.13283767077E+04  0.50400001928E-02 0. -1.
    10030    2    1    2    0    0  0.00000000000E+00  0.00000000000E+00 -0.10527590127E+04  0.16039944027E+04  0.12101638340E+04 0.  0.
        5    1    3    3  502    0 -0.39517436347E+03  0.36896401780E+03 -0.16629783252E+03  0.56566269373E+03  0.46999998093E+01 0.  1.
       -5    1    3    3    0  502  0.39517436347E+03 -0.36896401780E+03 -0.88646118014E+03  0.10383317090E+04  0.46999998093E+01 0. -1.
</event>
<event>
 5   0  0.3915701E-04  0.1593769E+04  0.7818609E-02  0.8824385E-01
       -1   -1    0    0    0  501  0.00000000000E+00  0.00000000000E+00  0.36541443144E+03  0.36541443148E+03  0.50400001928E-02 0. -1.
        1   -1    0    0  501    0  0.00000000000E+00  0.00000000000E+00 -0.17378207100E+04  0.17378207100E+04  0.50400001928E-02 0.  1.
    10030    2    1    2    0    0  0.00000000000E+00  0.00000000000E+00 -0.13724062785E+04  0.21032351415E+04  0.15937688248E+04 0.  0.
        2    1    3    3  502    0 -0.27206160171E+03 -0.74752462425E+03 -0.62410626750E+03  0.10110980230E+04  0.25500000920E-02 0. -1.
       -2    1    3    3    0  502  0.27206160171E+03  0.74752462425E+03 -0.74830001102E+03  0.10921371184E+04  0.25500000920E-02 0.  1.
</event>
<event>
 5   0  0.7049044E-04  0.1696235E+04  0.7818609E-02  0.8763515E-01
       -2   -1    0    0    0  501  0.00000000000E+00  0.00000000000E+00  0.68865199103E+03  0.68865199103E+03  0.25500000920E-02 0.  1.
        2   -1    0    0  501    0  0.00000000000E+00  0.00000000000E+00 -0.10445090703E+04  0.10445090703E+04  0.25500000920E-02 0. -1.
    10030    2    1    2    0    0  0.00000000000E+00  0.00000000000E+00 -0.35585707925E+03  0.17331610613E+04  0.16962349494E+04 0.  0.
        4    1    3    3  502    0 -0.20962489280E+03  0.81755201137E+03 -0.26321875835E+03  0.88409253736E+03  0.12699999809E+01 0. -1.
       -4    1    3    3    0  502  0.20962489280E+03 -0.81755201137E+03 -0.92638320900E+02  0.84906852395E+03  0.12699999809E+01 0.  1.
</event>
<event>
 5   0  0.7049044E-04  0.1678324E+04  0.7818609E-02  0.8773824E-01
        2   -1    0    0  501    0  0.00000000000E+00  0.00000000000E+00  0.17538046189E+04  0.17538046189E+04  0.25500000920E-02 0.  1.
       -2   -1    0    0    0  501  0.00000000000E+00  0.00000000000E+00 -0.40152308040E+03  0.40152308040E+03  0.25500000920E-02 0. -1.
    10030    2    1    2    0    0  0.00000000000E+00  0.00000000000E+00  0.13522815385E+04  0.21553276993E+04  0.16783242035E+04 0.  0.
        4    1    3    3  502    0 -0.42307224561E+03  0.63358664407E+03  0.11279382958E+04  0.13611276842E+04  0.12699999809E+01 0.  1.
       -4    1    3    3    0  502  0.42307224561E+03 -0.63358664407E+03  0.22434324265E+03  0.79420001509E+03  0.12699999809E+01 0. -1.
</event>
<event>
 5   0  0.7233728E-04  0.1694549E+04  0.7818609E-02  0.8764479E-01
       -2   -1    0    0    0  501  0.00000000000E+00  0.00000000000E+00  0.61803523092E+03  0.61803523092E+03  0.25500000920E-02 0. -1.
        2   -1    0    0  501    0  0.00000000000E+00  0.00000000000E+00 -0.11615425279E+04  0.11615425279E+04  0.25500000920E-02 0.  1.
    10030    2    1    2    0    0  0.00000000000E+00  0.00000000000E+00 -0.54350729702E+03  0.17795777589E+04  0.16945491489E+04 0.  0.
        1    1    3    3  502    0 -0.39724995281E+03  0.52767044268E+03 -0.82907118280E+03  0.10600012487E+04  0.50400001928E-02 0.  1.
       -1    1    3    3    0  502  0.39724995281E+03 -0.52767044268E+03  0.28556388578E+03  0.71957651016E+03  0.50400001928E-02 0. -1.
</event>
<event>
 5   0  0.3803253E-04  0.1679478E+04  0.7818609E-02  0.8773156E-01
       -1   -1    0    0    0  501  0.00000000000E+00  0.00000000000E+00  0.11130297532E+04  0.11130297532E+04  0.50400001928E-02 0.  1.
        1   -1    0    0  501    0  0.00000000000E+00  0.00000000000E+00 -0.63355105468E+03  0.63355105470E+03  0.50400001928E-02 0. -1.
    10030    2    1    2    0    0  0.00000000000E+00  0.00000000000E+00  0.47947869849E+03  0.17465808079E+04  0.16794775069E+04 0.  0.
        4    1    3    3  502    0 -0.83798017625E+02 -0.83219958456E+03  0.16204626476E+03  0.85196177210E+03  0.12699999809E+01 0. -1.
       -4    1    3    3    0  502  0.83798017625E+02  0.83219958456E+03  0.31743243373E+03  0.89461903578E+03  0.12699999809E+01 0.  1.
</event>
<event>
 5   0  0.3803253E-04  0.1206150E+04  0.7818609E-02  0.9107491E-01
        1   -1    0    0  501    0  0.00000000000E+00  0.00000000000E+00  0.57549982495E+03  0.57549982497E+03  0.50400001928E-02 0.  1.
       -1   -1    0    0    0  501  0.00000000000E+00  0.00000000000E+00 -0.63197117143E+03  0.63197117145E+03  0.50400001928E-02 0. -1.
    10030    2    1    2    0    0  0.00000000000E+00  0.00000000000E+00 -0.56471346479E+02  0.12074709964E+04  0.12061497396E+04 0.  0.
        4    1    3    3  502    0 -0.50625539803E+03  0.18384340688E+03  0.24336349085E+03  0.59103327137E+03  0.12699999809E+01 0.  1.
       -4    1    3    3    0  502  0.50625539803E+03 -0.18384340688E+03 -0.29983483733E+03  0.61643772505E+03  0.12699999809E+01 0. -1.
</event>
<event>
 5   0  0.6746664E-04  0.1708386E+04  0.7818609E-02  0.8756596E-01
        2   -1    0    0  501    0  0.00000000000E+00  0.00000000000E+00  0.14303769325E+04  0.14303769325E+04  0.25500000920E-02 0.  1.
       -2   -1    0    0    0  501  0.00000000000E+00  0.00000000000E+00 -0.51010702765E+03  0.51010702766E+03  0.25500000920E-02 0. -1.
    10030    2    1    2    0    0  0.00000000000E+00  0.00000000000E+00  0.92026990488E+03  0.19404839602E+04  0.17083855835E+04 0.  0.
        5    1    3    3  502    0 -0.50335961276E+03  0.68922472105E+03  0.49983510357E+03  0.98906968239E+03  0.46999998093E+01 0.  1.
       -5    1    3    3    0  502  0.50335961276E+03 -0.68922472105E+03  0.42043480131E+03  0.95141427781E+03  0.46999998093E+01 0. -1.
</event>
<event>
 5   0  0.3713516E-04  0.1701317E+04  0.7818609E-02  0.8760614E-01
        1   -1    0    0  501    0  0.00000000000E+00  0.00000000000E+00  0.16777871529E+04  0.16777871529E+04  0.50400001928E-02 0. -1.
       -1   -1    0    0    0  501  0.00000000000E+00  0.00000000000E+00 -0.43129407121E+03  0.43129407124E+03  0.50400001928E-02 0.  1.
    10030    2    1    2    0    0  0.00000000000E+00  0.00000000000E+00  0.12464930817E+04  0.21090812242E+04  0.17013167275E+04 0.  0.
        5    1    3    3  502    0  0.41403472009E+03 -0.92325390939E+02 -0.29079801037E+03  0.51432898040E+03  0.46999998093E+01 0.  1.
       -5    1    3    3    0  502 -0.41403472009E+03  0.92325390939E+02  0.15372910921E+04  0.15947522438E+04  0.46999998093E+01 0. -1.
</event>
<event>
 5   0  0.3713516E-04  0.1699594E+04  0.7818609E-02  0.8761596E-01
        1   -1    0    0  501    0  0.00000000000E+00  0.00000000000E+00  0.13640205304E+04  0.13640205304E+04  0.50400001928E-02 0.  1.
       -1   -1    0    0    0  501  0.00000000000E+00  0.00000000000E+00 -0.52943100943E+03  0.52943100946E+03  0.50400001928E-02 0. -1.
    10030    2    1    2    0    0  0.00000000000E+00  0.00000000000E+00  0.83458952095E+03  0.18934515399E+04  0.16995937942E+04 0.  0.
        5    1    3    3  502    0 -0.76183660172E+03  0.22927053137E+03  0.84616059717E+02  0.80008871498E+03  0.46999998093E+01 0.  1.
       -5    1    3    3    0  502  0.76183660172E+03 -0.22927053137E+03  0.74997346124E+03  0.10933628249E+04  0.46999998093E+01 0. -1.
</event>
<event>
 5   0  0.7025426E-04  0.1451717E+04  0.7818609E-02  0.8917211E-01
       -2   -1    0    0    0  501  0.00000000000E+00  0.00000000000E+00  0.72488238532E+03  0.72488238532E+03  0.25500000920E-02 0.  1.
        2   -1    0    0  501    0  0.00000000000E+00  0.00000000000E+00 -0.72683602337E+03  0.72683602337E+03  0.25500000920E-02 0. -1.
    10030    2    1    2    0    0  0.00000000000E+00  0.00000000000E+00 -0.19536380502E+01  0.14517184087E+04  0.14517170942E+04 0.  0.
        2    1    3    3  502    0 -0.22392732614E+01  0.16110186814E+03  0.70677505222E+03  0.72490675312E+03  0.25500000920E-02 0.  1.
       -2    1    3    3    0  502  0.22392732614E+01 -0.16110186814E+03 -0.70872869027E+03  0.72681165558E+03  0.25500000920E-02 0. -1.
</event>
<event>
 5   0  0.3635143E-04  0.1732970E+04  0.7818609E-02  0.8742781E-01
       -1   -1    0    0    0  501  0.00000000000E+00  0.00000000000E+00  0.97148052082E+03  0.97148052084E+03  0.50400001928E-02 0.  1.
        1   -1    0    0  501    0  0.00000000000E+00  0.00000000000E+00 -0.77283683254E+03  0.77283683256E+03  0.50400001928E-02 0. -1.
    10030    2    1    2    0    0  0.00000000000E+00  0.00000000000E+00  0.19864368828E+03  0.17443173534E+04  0.17329696231E+04 0.  0.
        3    1    3    3  502    0  0.25426171412E+03 -0.78926325837E+03 -0.15374127027E+03  0.84333972909E+03  0.10100000352E+00 0.  1.
       -3    1    3    3    0  502 -0.25426171412E+03  0.78926325837E+03  0.35238495855E+03  0.90097762430E+03  0.10100000352E+00 0. -1.
</event>
<event>
 5   0  0.7242144E-04  0.1709990E+04  0.7818609E-02  0.8755687E-01
       -2   -1    0    0    0  501  0.00000000000E+00  0.00000000000E+00  0.26789687488E+03  0.26789687489E+03  0.25500000920E-02 0. -1.
        2   -1    0    0  501    0  0.00000000000E+00  0.00000000000E+00 -0.27287237739E+04  0.27287237739E+04  0.25500000920E-02 0.  1.
    10030    2    1    2    0    0  0.00000000000E+00  0.00000000000E+00 -0.24608268990E+04  0.29966206488E+04  0.17099901420E+04 0.  0.
        3    1    3    3  502    0  0.56375731311E+03  0.37288003032E+03 -0.31285014343E+03  0.74480671824E+03  0.10100000352E+00 0.  1.
       -3    1    3    3    0  502 -0.56375731311E+03 -0.37288003032E+03 -0.21479767556E+04  0.22518139305E+04  0.10100000352E+00 0. -1.
</event>
<event>
 5   0  0.2639750E-04  0.1620513E+04  0.7818609E-02  0.8808044E-01
       -3   -1    0    0    0  501  0.00000000000E+00  0.00000000000E+00  0.32605345422E+03  0.32605346986E+03  0.10100000352E+00 0.  1.
        3   -1    0    0  501    0  0.00000000000E+00  0.00000000000E+00 -0.20135206039E+04  0.20135206064E+04  0.10100000352E+00 0. -1.
    10030    2    1    2    0    0  0.00000000000E+00  0.00000000000E+00 -0.16874671496E+04  0.23395740763E+04  0.16205127205E+04 0.  0.
        5    1    3    3  502    0  0.19884973100E+03 -0.65064471871E+03 -0.14789945683E+04  0.16279824289E+04  0.46999998093E+01 0. -1.
       -5    1    3    3    0  502 -0.19884973100E+03  0.65064471871E+03 -0.20847258132E+03  0.71159164741E+03  0.46999998093E+01 0.  1.
</event>
<event>
 5   0  0.7049044E-04  0.1755451E+04  0.7818609E-02  0.8730356E-01
        2   -1    0    0  501    0  0.00000000000E+00  0.00000000000E+00  0.12757942036E+04  0.12757942036E+04  0.25500000920E-02 0. -1.
       -2   -1    0    0    0  501  0.00000000000E+00  0.00000000000E+00 -0.60386073831E+03  0.60386073832E+03  0.25500000920E-02 0.  1.
    10030    2    1    2    0    0  0.00000000000E+00  0.00000000000E+00  0.67193346527E+03  0.18796549419E+04  0.17554509731E+04 0.  0.
        4    1    3    3  502    0  0.19152708914E+03  0.79084585940E+03  0.68830903524E+03  0.10657817507E+04  0.12699999809E+01 0. -1.
       -4    1    3    3    0  502 -0.19152708914E+03 -0.79084585940E+03 -0.16375569965E+02  0.81387319122E+03  0.12699999809E+01 0.  1.
</event>
<event>
 5   0  0.7049044E-04  0.1723815E+04  0.7818609E-02  0.8747897E-01
        2   -1    0    0  501    0  0.00000000000E+00  0.00000000000E+00  0.58236885688E+03  0.58236885688E+03  0.25500000920E-02 0.  1.
       -2   -1    0    0    0  501  0.00000000000E+00  0.00000000000E+00 -0.12756261699E+04  0.12756261699E+04  0.25500000920E-02 0. -1.
    10030    2    1    2    0    0  0.00000000000E+00  0.00000000000E+00 -0.69325731299E+03  0.18579950268E+04  0.17238154824E+04 0.  0.
        4    1    3    3  502    0  0.34645806391E+03  0.32479341868E+03  0.42863591308E+03  0.63972987561E+03  0.12699999809E+01 0.  1.
       -4    1    3    3    0  502 -0.34645806391E+03 -0.32479341868E+03 -0.11218932261E+04  0.12182651511E+04  0.12699999809E+01 0. -1.
</event>
<event>
 5   0  0.3915701E-04  0.1690331E+04  0.7818609E-02  0.8766898E-01
       -1   -1    0    0    0  501  0.00000000000E+00  0.00000000000E+00  0.58774679645E+03  0.58774679647E+03  0.50400001928E-02 0.  1.
        1   -1    0    0  501    0  0.00000000000E+00  0.00000000000E+00 -0.12153271829E+04  0.12153271829E+04  0.50400001928E-02 0. -1.
    10030    2    1    2    0    0  0.00000000000E+00  0.00000000000E+00 -0.62758038648E+03  0.18030739794E+04  0.16903309243E+04 0.  0.
        2    1    3    3  502    0 -0.45523615412E+03  0.37315611846E+03 -0.96072276110E+03  0.11267092209E+04  0.25500000920E-02 0. -1.
       -2    1    3    3    0  502  0.45523615412E+03 -0.37315611846E+03  0.33314237462E+03  0.67636475850E+03  0.25500000920E-02 0.  1.
</event>
<event>
 5   0  0.7233728E-04  0.1706349E+04  0.7818609E-02  0.8757752E-01
        2   -1    0    0  501    0  0.00000000000E+00  0.00000000000E+00  0.91352718923E+03  0.91352718923E+03  0.25500000920E-02 0. -1.
       -2   -1    0    0    0  501  0.00000000000E+00  0.00000000000E+00 -0.79680872851E+03  0.79680872851E+03  0.25500000920E-02 0.  1.
    10030    2    1    2    0    0  0.00000000000E+00  0.00000000000E+00  0.11671846072E+03  0.17103359177E+04  0.17063486609E+04 0.  0.
        1    1    3    3  502    0 -0.66753113993E+03  0.52182603075E+03  0.15862401470E+03  0.86201032894E+03  0.50400001928E-02 0. -1.
       -1    1    3    3    0  502  0.66753113993E+03 -0.52182603075E+03 -0.41905553976E+02  0.84832558880E+03  0.50400001928E-02 0.  1.
</event>
<event>
 5   0  0.3723500E-04  0.1698599E+04  0.7818609E-02  0.8762164E-01
       -1   -1    0    0    0  501  0.00000000000E+00  0.00000000000E+00  0.12196243789E+04  0.12196243789E+04  0.50400001928E-02 0. -1.
        1   -1    0    0  501    0  0.00000000000E+00  0.00000000000E+00 -0.59141964582E+03  0.59141964584E+03  0.50400001928E-02 0.  1.
    10030    2    1    2    0    0  0.00000000000E+00  0.00000000000E+00  0.62820473312E+03  0.18110440248E+04  0.16985992091E+04 0.  0.
        1    1    3    3  502    0 -0.55409370328E+03  0.16132078128E+01  0.10003627747E+04  0.11435681508E+04  0.50400001928E-02 0. -1.
       -1    1    3    3    0  502  0.55409370328E+03 -0.16132078128E+01 -0.37215804157E+03  0.66747587401E+03  0.50400001928E-02 0.  1.
</event>
<event>
 5   0  0.3713516E-04  0.1691053E+04  0.7818609E-02  0.8766484E-01
        1   -1    0    0  501    0  0.00000000000E+00  0.00000000000E+00  0.99747187516E+03  0.99747187518E+03  0.50400001928E-02 0.  1.
       -1   -1    0    0    0  501  0.00000000000E+00  0.00000000000E+00 -0.71672691253E+03  0.71672691255E+03  0.50400001928E-02 0. -1.
    10030    2    1    2    0    0  0.00000000000E+00  0.00000000000E+00  0.28074496263E+03  0.17141987877E+04  0.16910528525E+04 0.  0.
        5    1    3    3  502    0  0.60330748160E+03  0.31690257913E+03 -0.36696325928E+03  0.77400987440E+03  0.46999998093E+01 0. -1.
       -5    1    3    3    0  502 -0.60330748160E+03 -0.31690257913E+03  0.64770822191E+03  0.94018891333E+03  0.46999998093E+01 0.  1.
</event>
<event>
 5   0  0.7233728E-04  0.1620970E+04  0.7818609E-02  0.8807768E-01
        2   -1    0    0  501    0  0.00000000000E+00  0.00000000000E+00  0.50424179825E+03  0.50424179826E+03  0.25500000920E-02 0.  1.
       -2   -1    0    0    0  501  0.00000000000E+00  0.00000000000E+00 -0.13027193449E+04  0.13027193449E+04  0.25500000920E-02 0. -1.
    10030    2    1    2    0    0  0.00000000000E+00  0.00000000000E+00 -0.79847754666E+03  0.18069611432E+04  0.16209695186E+04 0.  0.
        1    1    3    3  502    0  0.29421283651E+03 -0.78762883117E+01 -0.12410433879E+04  0.12754653738E+04  0.50400001928E-02 0. -1.
       -1    1    3    3    0  502 -0.29421283651E+03  0.78762883117E+01  0.44256584120E+03  0.53149576941E+03  0.50400001928E-02 0.  1.
</event>
<event>
 5   0  0.3713516E-04  0.1687339E+04  0.7818609E-02  0.8768618E-01
       -1   -1    0    0    0  501  0.00000000000E+00  0.00000000000E+00  0.33529925010E+03  0.33529925014E+03  0.50400001928E-02 0. -1.
        1   -1    0    0  501    0  0.00000000000E+00  0.00000000000E+00 -0.21228149246E+04  0.21228149246E+04  0.50400001928E-02 0.  1.
    10030    2    1    2    0    0  0.00000000000E+00  0.00000000000E+00 -0.17875156745E+04  0.24581141747E+04  0.16873390322E+04 0.  0.
        5    1    3    3  502    0  0.22012889065E+03 -0.46034363134E+02 -0.20783248691E+04  0.20904622079E+04  0.46999998093E+01 0.  1.
       -5    1    3    3    0  502 -0.22012889065E+03  0.46034363134E+02  0.29080919459E+03  0.36765196687E+03  0.46999998093E+01 0. -1.
</event>
<event>
 5   0  0.3635143E-04  0.1729980E+04  0.7818609E-02  0.8744448E-01
        1   -1    0    0  501    0  0.00000000000E+00  0.00000000000E+00  0.10993094883E+04  0.10993094883E+04  0.50400001928E-02 0.  1.
       -1   -1    0    0    0  501  0.00000000000E+00  0.00000000000E+00 -0.68061576125E+03  0.68061576127E+03  0.50400001928E-02 0. -1.
    10030    2    1    2    0    0  0.00000000000E+00  0.00000000000E+00  0.41869372701E+03  0.17799252495E+04  0.17299796117E+04 0.  0.
        3    1    3    3  502    0 -0.90497421932E+02  0.49622235186E+03 -0.51363590027E+03  0.71989461320E+03  0.10100000352E+00 0. -1.
       -3    1    3    3    0  502  0.90497421932E+02 -0.49622235186E+03  0.93232962728E+03  0.10600306363E+04  0.10100000352E+00 0.  1.
</event>
<event>
 5   0  0.3803253E-04  0.1707371E+04  0.7818609E-02  0.8757171E-01
       -1   -1    0    0    0  501  0.00000000000E+00  0.00000000000E+00  0.95572662468E+03  0.95572662469E+03  0.50400001928E-02 0. -1.
        1   -1    0    0  501    0  0.00000000000E+00  0.00000000000E+00 -0.76253944760E+03  0.76253944761E+03  0.50400001928E-02 0.  1.
    10030    2    1    2    0    0  0.00000000000E+00  0.00000000000E+00  0.19318717708E+03  0.17182660723E+04  0.17073713743E+04 0.  0.
        4    1    3    3  502    0 -0.33613082176E+03  0.76449794348E+03  0.27474463931E+03  0.87916282033E+03  0.12699999809E+01 0.  1.
       -4    1    3    3    0  502  0.33613082176E+03 -0.76449794348E+03 -0.81557462230E+02  0.83910325197E+03  0.12699999809E+01 0. -1.
</event>
<event>
 5   0  0.6746664E-04  0.1684851E+04  0.7818609E-02  0.8770052E-01
        2   -1    0    0  501    0  0.00000000000E+00  0.00000000000E+00  0.17384395128E+04  0.17384395128E+04  0.25500000920E-02 0.  1.
       -2   -1    0    0    0  501  0.00000000000E+00  0.00000000000E+00 -0.40822853121E+03  0.40822853122E+03  0.25500000920E-02 0. -1.
    10030    2    1    2    0    0  0.00000000000E+00  0.00000000000E+00  0.13302109816E+04  0.21466680440E+04  0.16848508645E+04 0.  0.
        5    1    3    3  502    0 -0.58353502842E+03  0.11838660617E+02  0.14390675837E+04  0.15529297742E+04  0.46999998093E+01 0.  1.
       -5    1    3    3    0  502  0.58353502842E+03 -0.11838660617E+02 -0.10885660203E+03  0.59373826985E+03  0.46999998093E+01 0. -1.
</event>
<event>
 5   0  0.7233728E-04  0.1807943E+04  0.7818609E-02  0.8702087E-01
       -2   -1    0    0    0  501  0.00000000000E+00  0.00000000000E+00  0.19101642072E+04  0.19101642072E+04  0.25500000920E-02 0.  1.
        2   -1    0    0  501    0  0.00000000000E+00  0.00000000000E+00 -0.42779812035E+03  0.42779812036E+03  0.25500000920E-02 0. -1.
    10030    2    1    2    0    0  0.00000000000E+00  0.00000000000E+00  0.14823660869E+04  0.23379623276E+04  0.18079432042E+04 0.  0.
        1    1    3    3  502    0 -0.31515576364E+03 -0.79539459804E+03  0.11186199128E+04  0.14082919553E+04  0.50400001928E-02 0.  1.
       -1    1    3    3    0  502  0.31515576364E+03  0.79539459804E+03  0.36374617403E+03  0.92967037228E+03  0.50400001928E-02 0. -1.
</event>
<event>
 5   0  0.3915701E-04  0.1689692E+04  0.7818609E-02  0.8767265E-01
       -1   -1    0    0    0  501  0.00000000000E+00  0.00000000000E+00  0.33268650679E+03  0.33268650683E+03  0.50400001928E-02 0. -1.
        1   -1    0    0  501    0  0.00000000000E+00  0.00000000000E+00 -0.21454568014E+04  0.21454568014E+04  0.50400001928E-02 0.  1.
    10030    2    1    2    0    0  0.00000000000E+00  0.00000000000E+00 -0.18127702946E+04  0.24781433082E+04  0.16896917219E+04 0.  0.
        2    1    3    3  502    0  0.72091806405E+03 -0.37610775564E+03 -0.12427017844E+04  0.14850884229E+04  0.25500000920E-02 0.  1.
       -2    1    3    3    0  502 -0.72091806405E+03  0.37610775564E+03 -0.57006851019E+03  0.99305488531E+03  0.25500000920E-02 0. -1.
</event>
<event>
 5   0  0.3713516E-04  0.1696440E+04  0.7818609E-02  0.8763397E-01
        1   -1    0    0  501    0  0.00000000000E+00  0.00000000000E+00  0.91250596938E+03  0.91250596940E+03  0.50400001928E-02 0. -1.
       -1   -1    0    0    0  501  0.00000000000E+00  0.00000000000E+00 -0.78846290827E+03  0.78846290829E+03  0.50400001928E-02 0.  1.
    10030    2    1    2    0    0  0.00000000000E+00  0.00000000000E+00  0.12404306111E+03  0.17009688777E+04  0.16964399317E+04 0.  0.
        5    1    3    3  502    0 -0.38444489181E+03  0.71659957688E+03  0.30379218249E+03  0.86811555023E+03  0.46999998093E+01 0. -1.
       -5    1    3    3    0  502  0.38444489181E+03 -0.71659957688E+03 -0.17974912139E+03  0.83285332745E+03  0.46999998093E+01 0.  1.
</event>
<event>
 5   0  0.7242144E-04  0.1732200E+04  0.7818609E-02  0.8743210E-01
       -2   -1    0    0    0  501  0.00000000000E+00  0.00000000000E+00  0.83341816180E+03  0.83341816181E+03  0.25500000920E-02 0.  1.
        2   -1    0    0  501    0  0.00000000000E+00  0.00000000000E+00 -0.90006311091E+03  0.90006311091E+03  0.25500000920E-02 0. -1.
    10030    2    1    2    0    0  0.00000000000E+00  0.00000000000E+00 -0.66644949107E+02  0.17334812727E+04  0.17321996922E+04 0.  0.
        3    1    3    3  502    0 -0.22516942197E+03  0.48792560153E+03  0.64641217964E+03  0.84060774289E+03  0.10100000352E+00 0.  1.
       -3    1    3    3    0  502  0.22516942197E+03 -0.48792560153E+03 -0.71305712875E+03  0.89287352983E+03  0.10100000352E+00 0. -1.
</event>
<event>
 5   0  0.7233728E-04  0.1690213E+04  0.7818609E-02  0.8766966E-01
        2   -1    0    0  501    0  0.00000000000E+00  0.00000000000E+00  0.72019070598E+03  0.72019070598E+03  0.25500000920E-02 0.  1.
       -2   -1    0    0    0  501  0.00000000000E+00  0.00000000000E+00 -0.99168828197E+03  0.99168828198E+03  0.25500000920E-02 0. -1.
    10030    2    1    2    0    0  0.00000000000E+00  0.00000000000E+00 -0.27149757600E+03  0.17118789880E+04  0.16902126303E+04 0.  0.
        1    1    3    3  502    0  0.47454601131E+03 -0.69194923094E+03 -0.33373761251E+02  0.83970319936E+03  0.50400001928E-02 0.  1.
       -1    1    3    3    0  502 -0.47454601131E+03  0.69194923094E+03 -0.23812381475E+03  0.87217578860E+03  0.50400001928E-02 0. -1.
</event>
<event>
 5   0  0.3713516E-04  0.1717594E+04  0.7818609E-02  0.8751393E-01
        1   -1    0    0  501    0  0.00000000000E+00  0.00000000000E+00  0.92660550134E+03  0.92660550135E+03  0.50400001928E-02 0.  1.
       -1   -1    0    0    0  501  0.00000000000E+00  0.00000000000E+00 -0.79595110872E+03  0.79595110874E+03  0.50400001928E-02 0. -1.
    10030    2    1    2    0    0  0.00000000000E+00  0.00000000000E+00  0.13065439261E+03  0.17225566101E+04  0.17175944529E+04 0.  0.
        5    1    3    3  502    0  0.24673218209E+03 -0.26397799412E+03  0.84664753633E+03  0.92054076055E+03  0.46999998093E+01 0.  1.
       -5    1    3    3    0  502 -0.24673218209E+03  0.26397799412E+03 -0.71599314372E+03  0.80201584954E+03  0.46999998093E+01 0. -1.
</event>
<event>
 5   0  0.3915701E-04  0.1659239E+04  0.7818609E-02  0.8784960E-01
        1   -1    0    0  501    0  0.00000000000E+00  0.00000000000E+00  0.15542758311E+04  0.15542758311E+04  0.50400001928E-02 0. -1.
       -1   -1    0    0    0  501  0.00000000000E+00  0.00000000000E+00 -0.44282258338E+03  0.44282258341E+03  0.50400001928E-02 0.  1.
    10030    2    1    2    0    0  0.00000000000E+00  0.00000000000E+00  0.11114532477E+04  0.19970984145E+04  0.16592389084E+04 0.  0.
        2    1    3    3  502    0 -0.95701335036E+02  0.20099099196E+03  0.15176560015E+04  0.15338956494E+04  0.25500000920E-02 0. -1.
       -2    1    3    3    0  502  0.95701335036E+02 -0.20099099196E+03 -0.40620275380E+03  0.46320276508E+03  0.25500000920E-02 0.  1.
</event>
<event>
 5   0  0.3713516E-04  0.1696797E+04  0.7818609E-02  0.8763193E-01
       -1   -1    0    0    0  501  0.00000000000E+00  0.00000000000E+00  0.28657506376E+03  0.28657506380E+03  0.50400001928E-02 0.  1.
        1   -1    0    0  501    0  0.00000000000E+00  0.00000000000E+00 -0.25116642047E+04  0.25116642047E+04  0.50400001928E-02 0. -1.
    10030    2    1    2    0    0  0.00000000000E+00  0.00000000000E+00 -0.22250891410E+04  0.27982392685E+04  0.16967973711E+04 0.  0.
        5    1    3    3  502    0  0.42222524689E+03 -0.15288099804E+03  0.74498486741E+02  0.45521299762E+03  0.46999998093E+01 0.  1.
       -5    1    3    3    0  502 -0.42222524689E+03  0.15288099804E+03 -0.22995876277E+04  0.23430262709E+04  0.46999998093E+01 0. -1.
</event>
<event>
 5   0  0.3915701E-04  0.1708871E+04  0.7818609E-02  0.8756321E-01
       -1   -1    0    0    0  501  0.00000000000E+00  0.00000000000E+00  0.69732455433E+03  0.69732455434E+03  0.50400001928E-02 0. -1.
        1   -1    0    0  501    0  0.00000000000E+00  0.00000000000E+00 -0.10469439174E+04  0.10469439174E+04  0.50400001928E-02 0.  1.
    10030    2    1    2    0    0  0.00000000000E+00  0.00000000000E+00 -0.34961936308E+03  0.17442684718E+04  0.17088706219E+04 0.  0.
        2    1    3    3  502    0  0.82372719720E+03  0.14521762772E+03  0.32897212515E+01  0.83643617633E+03  0.25500000920E-02 0. -1.
       -2    1    3    3    0  502 -0.82372719720E+03 -0.14521762772E+03 -0.35290908433E+03  0.90783229543E+03  0.25500000920E-02 0.  1.
</event>
<event>
 5   0  0.3713516E-04  0.1695309E+04  0.7818609E-02  0.8764044E-01
        1   -1    0    0  501    0  0.00000000000E+00  0.00000000000E+00  0.47961784955E+03  0.47961784958E+03  0.50400001928E-02 0. -1.
       -1   -1    0    0    0  501  0.00000000000E+00  0.00000000000E+00 -0.14981057295E+04  0.14981057295E+04  0.50400001928E-02 0.  1.
    10030    2    1    2    0    0  0.00000000000E+00  0.00000000000E+00 -0.10184878800E+04  0.19777235791E+04  0.16953091145E+04 0.  0.
        5    1    3    3  502    0  0.42173689324E+03 -0.78809847619E+02 -0.13620677746E+04  0.14280489179E+04  0.46999998093E+01 0.  1.
       -5    1    3    3    0  502 -0.42173689324E+03  0.78809847619E+02  0.34357989464E+03  0.54967466123E+03  0.46999998093E+01 0. -1.
</event>
<event>
 5   0  0.2639750E-04  0.1661622E+04  0.7818609E-02  0.8783560E-01
       -4   -1    0    0    0  501  0.00000000000E+00  0.00000000000E+00  0.45435144922E+03  0.45435322416E+03  0.12699999809E+01 0. -1.
        4   -1    0    0  501    0  0.00000000000E+00  0.00000000000E+00 -0.15191873661E+04  0.15191878970E+04  0.12699999809E+01 0.  1.
    10030    2    1    2    0    0  0.00000000000E+00  0.00000000000E+00 -0.10648359169E+04  0.19735411211E+04  0.16616224080E+04 0.  0.
        3    1    3    3  502    0  0.34915711273E+03  0.72149847787E+03 -0.27280819505E+03  0.84669655982E+03  0.10100000352E+00 0. -1.
       -3    1    3    3    0  502 -0.34915711273E+03 -0.72149847787E+03 -0.79202772185E+03  0.11268445613E+04  0.10100000352E+00 0.  1.
</event>
<event>
 5   0  0.7242144E-04  0.1896638E+04  0.7818609E-02  0.8656532E-01
       -2   -1    0    0    0  501  0.00000000000E+00  0.00000000000E+00  0.13638828676E+04  0.13638828676E+04  0.25500000920E-02 0.  1.
        2   -1    0    0  501    0  0.00000000000E+00  0.00000000000E+00 -0.65937417809E+03  0.65937417810E+03  0.25500000920E-02 0. -1.
    10030    2    1    2    0    0  0.00000000000E+00  0.00000000000E+00  0.70450868954E+03  0.20232570457E+04  0.18966382310E+04 0.  0.
        3    1    3    3  502    0  0.16081050953E+03  0.78796902936E+03 -0.18384295628E+03  0.82495663763E+03  0.10100000352E+00 0. -1.
       -3    1    3    3    0  502 -0.16081050953E+03 -0.78796902936E+03  0.88835164582E+03  0.11983004081E+04  0.10100000352E+00 0.  1.
</event>
<event>
 5   0  0.7025426E-04  0.1689246E+04  0.7818609E-02  0.8767522E-01
        2   -1    0    0  501    0  0.00000000000E+00  0.00000000000E+00  0.74361507963E+03  0.74361507963E+03  0.25500000920E-02 0.  1.
       -2   -1    0    0    0  501  0.00000000000E+00  0.00000000000E+00 -0.95935087802E+03  0.95935087803E+03  0.25500000920E-02 0. -1.
    10030    2    1    2    0    0  0.00000000000E+00  0.00000000000E+00 -0.21573579839E+03  0.17029659577E+04  0.16892457247E+04 0.  0.
        2    1    3    3  502    0 -0.11623475660E+03 -0.72626567687E+03  0.31073400513E+03  0.79845348894E+03  0.25500000920E-02 0.  1.
       -2    1    3    3    0  502  0.11623475660E+03  0.72626567687E+03 -0.52646980353E+03  0.90451246872E+03  0.25500000920E-02 0. -1.
</event>
<event>
 5   0  0.7233728E-04  0.1712835E+04  0.7818609E-02  0.8754078E-01
       -2   -1    0    0    0  501  0.00000000000E+00  0.00000000000E+00  0.15233883459E+04  0.15233883459E+04  0.25500000920E-02 0.  1.
        2   -1    0    0  501    0  0.00000000000E+00  0.00000000000E+00 -0.48146045203E+03  0.48146045204E+03  0.25500000920E-02 0. -1.
    10030    2    1    2    0    0  0.00000000000E+00  0.00000000000E+00  0.10419278939E+04  0.20048487979E+04  0.17128353589E+04 0.  0.
        1    1    3    3  502    0 -0.12864334888E+03 -0.24016213403E+03 -0.42938391496E+03  0.50852483547E+03  0.50400001928E-02 0. -1.
       -1    1    3    3    0  502  0.12864334888E+03  0.24016213403E+03  0.14713118088E+04  0.14963239625E+04  0.50400001928E-02 0.  1.
</event>
<event>
 5   0  0.3915701E-04  0.1702750E+04  0.7818609E-02  0.8759797E-01
        1   -1    0    0  501    0  0.00000000000E+00  0.00000000000E+00  0.18115472912E+04  0.18115472912E+04  0.50400001928E-02 0. -1.
       -1   -1    0    0    0  501  0.00000000000E+00  0.00000000000E+00 -0.40012190922E+03  0.40012190925E+03  0.50400001928E-02 0.  1.
    10030    2    1    2    0    0  0.00000000000E+00  0.00000000000E+00  0.14114253820E+04  0.22116692005E+04  0.17027504348E+04 0.  0.
        2    1    3    3  502    0  0.16793859995E+03 -0.31656434458E+02 -0.37761451746E+03  0.41448549673E+03  0.25500000920E-02 0.  1.
       -2    1    3    3    0  502 -0.16793859995E+03  0.31656434458E+02  0.17890398994E+04  0.17971837037E+04  0.25500000920E-02 0. -1.
</event>
<event>
 5   0  0.7049044E-04  0.1715590E+04  0.7818609E-02  0.8752522E-01
       -2   -1    0    0    0  501  0.00000000000E+00  0.00000000000E+00  0.55381478082E+03  0.55381478082E+03  0.25500000920E-02 0.  1.
        2   -1    0    0  501    0  0.00000000000E+00  0.00000000000E+00 -0.13286256462E+04  0.13286256462E+04  0.25500000920E-02 0. -1.
    10030    2    1    2    0    0  0.00000000000E+00  0.00000000000E+00 -0.77481086537E+03  0.18824404270E+04  0.17155903020E+04 0.  0.
        4    1    3    3  502    0  0.10102654682E+03  0.48758975773E+03  0.37899476555E+03  0.62577054918E+03  0.12699999809E+01 0.  1.
       -4    1    3    3    0  502 -0.10102654682E+03 -0.48758975773E+03 -0.11538056309E+04  0.12566698778E+04  0.12699999809E+01 0. -1.
</event>
<event>
 5   0  0.3723500E-04  0.1687136E+04  0.7818609E-02  0.8768735E-01
        1   -1    0    0  501    0  0.00000000000E+00  0.00000000000E+00  0.19380030353E+04  0.19380030353E+04  0.50400001928E-02 0. -1.
       -1   -1    0    0    0  501  0.00000000000E+00  0.00000000000E+00 -0.36718587338E+03  0.36718587342E+03  0.50400001928E-02 0.  1.
    10030    2    1    2    0    0  0.00000000000E+00  0.00000000000E+00  0.15708171619E+04  0.23051889087E+04  0.16871364345E+04 0.  0.
        1    1    3    3  502    0 -0.22547156545E+03 -0.73309133664E+03  0.12652752849E+04  0.14795884161E+04  0.50400001928E-02 0. -1.
       -1    1    3    3    0  502  0.22547156545E+03  0.73309133664E+03  0.30554187706E+03  0.82560049258E+03  0.50400001928E-02 0.  1.
</event>
<event>
 5   0  0.3803253E-04  0.1610676E+04  0.7818609E-02  0.8814016E-01
       -1   -1    0    0    0  501  0.00000000000E+00  0.00000000000E+00  0.61008625857E+03  0.61008625859E+03  0.50400001928E-02 0. -1.
        1   -1    0    0  501    0  0.00000000000E+00  0.00000000000E+00 -0.10630781321E+04  0.10630781321E+04  0.50400001928E-02 0.  1.
    10030    2    1    2    0    0  0.00000000000E+00  0.00000000000E+00 -0.45299187353E+03  0.16731643907E+04  0.16106760819E+04 0.  0.
        4    1    3    3  502    0  0.17431403054E+03 -0.78483505773E+03 -0.27539995015E+03  0.84982244883E+03  0.12699999809E+01 0. -1.
       -4    1    3    3    0  502 -0.17431403054E+03  0.78483505773E+03 -0.17759192338E+03  0.82334194187E+03  0.12699999809E+01 0.  1.
</event>
<event>
 5   0  0.7242144E-04  0.1698415E+04  0.7818609E-02  0.8762269E-01
       -2   -1    0    0    0  501  0.00000000000E+00  0.00000000000E+00  0.76096451196E+03  0.76096451196E+03  0.25500000920E-02 0.  1.
        2   -1    0    0  501    0  0.00000000000E+00  0.00000000000E+00 -0.94768289781E+03  0.94768289782E+03  0.25500000920E-02 0. -1.
    10030    2    1    2    0    0  0.00000000000E+00  0.00000000000E+00 -0.18671838586E+03  0.17086474098E+04  0.16984146182E+04 0.  0.
        3    1    3    3  502    0  0.24765064359E+03  0.54660899048E+03  0.51112769259E+03  0.78826629896E+03  0.10100000352E+00 0.  1.
       -3    1    3    3    0  502 -0.24765064359E+03 -0.54660899048E+03 -0.69784607845E+03  0.92038111082E+03  0.10100000352E+00 0. -1.
</event>
<event>
 5   0  0.3713516E-04  0.1650451E+04  0.7818609E-02  0.8790140E-01
       -1   -1    0    0    0  501  0.00000000000E+00  0.00000000000E+00  0.79698030565E+03  0.79698030566E+03  0.50400001928E-02 0.  1.
        1   -1    0    0  501    0  0.00000000000E+00  0.00000000000E+00 -0.85447160660E+03  0.85447160661E+03  0.50400001928E-02 0. -1.
    10030    2    1    2    0    0  0.00000000000E+00  0.00000000000E+00 -0.57491300953E+02  0.16514519123E+04  0.16504508987E+04 0.  0.
        5    1    3    3  502    0  0.58161353685E+03  0.39898419741E+03 -0.45738877411E+03  0.84064812895E+03  0.46999998093E+01 0. -1.
       -5    1    3    3    0  502 -0.58161353685E+03 -0.39898419741E+03  0.39989747316E+03  0.81080378333E+03  0.46999998093E+01 0.  1.
</event>
<event>
 5   0  0.7242144E-04  0.1683516E+04  0.7818609E-02  0.8770822E-01
       -2   -1    0    0    0  501  0.00000000000E+00  0.00000000000E+00  0.12541975356E+04  0.12541975356E+04  0.25500000920E-02 0. -1.
        2   -1    0    0  501    0  0.00000000000E+00  0.00000000000E+00 -0.56494833912E+03  0.56494833913E+03  0.25500000920E-02 0.  1.
    10030    2    1    2    0    0  0.00000000000E+00  0.00000000000E+00  0.68924919650E+03  0.18191458747E+04  0.16835163375E+04 0.  0.
        3    1    3    3  502    0 -0.59481826194E+03  0.55735421534E+03  0.57155398940E+03  0.99555334317E+03  0.10100000352E+00 0.  1.
       -3    1    3    3    0  502  0.59481826194E+03 -0.55735421534E+03  0.11769520710E+03  0.82359253158E+03  0.10100000352E+00 0. -1.
</event>
<event>
 5   0  0.3803253E-04  0.1719926E+04  0.7818609E-02  0.8750081E-01
        1   -1    0    0  501    0  0.00000000000E+00  0.00000000000E+00  0.59806474095E+03  0.59806474097E+03  0.50400001928E-02 0.  1.
       -1   -1    0    0    0  501  0.00000000000E+00  0.00000000000E+00 -0.12365484409E+04  0.12365484409E+04  0.50400001928E-02 0. -1.
    10030    2    1    2    0    0  0.00000000000E+00  0.00000000000E+00 -0.63848369994E+03  0.18346131819E+04  0.17199256065E+04 0.  0.
        4    1    3    3  502    0  0.30010561776E+03 -0.59179237138E+03  0.26427576550E+03  0.71423027502E+03  0.12699999809E+01 0.  1.
       -4    1    3    3    0  502 -0.30010561776E+03  0.59179237138E+03 -0.90275946543E+03  0.11203829069E+04  0.12699999809E+01 0. -1.
</event>
<event>
 5   0  0.3713516E-04  0.1614088E+04  0.7818609E-02  0.8811940E-01
       -1   -1    0    0    0  501  0.00000000000E+00  0.00000000000E+00  0.71180191168E+03  0.71180191170E+03  0.50400001928E-02 0. -1.
        1   -1    0    0  501    0  0.00000000000E+00  0.00000000000E+00 -0.91502990576E+03  0.91502990578E+03  0.50400001928E-02 0.  1.
    10030    2    1    2    0    0  0.00000000000E+00  0.00000000000E+00 -0.20322799408E+03  0.16268318175E+04  0.16140880226E+04 0.  0.
        5    1    3    3  502    0  0.30374261859E+03 -0.58523190643E+03  0.36740074992E+03  0.75482538623E+03  0.46999998093E+01 0.  1.
       -5    1    3    3    0  502 -0.30374261859E+03  0.58523190643E+03 -0.57062874400E+03  0.87200643125E+03  0.46999998093E+01 0. -1.
</event>
<event>
 5   0  0.6746664E-04  0.1699924E+04  0.7818609E-02  0.8761408E-01
       -2   -1    0    0    0  501  0.00000000000E+00  0.00000000000E+00  0.19116900869E+04  0.19116900869E+04  0.25500000920E-02 0.  1.
        2   -1    0    0  501    0  0.00000000000E+00  0.00000000000E+00 -0.37790417378E+03  0.37790417379E+03  0.25500000920E-02 0. -1.
    10030    2    1    2    0    0  0.00000000000E+00  0.00000000000E+00  0.15337859131E+04  0.22895942607E+04  0.16999243075E+04 0.  0.
        5    1    3    3  502    0 -0.27118077870E+03 -0.30422812297E+03  0.17714884029E+04  0.18177697921E+04  0.46999998093E+01 0.  1.
       -5    1    3    3    0  502  0.27118077870E+03  0.30422812297E+03 -0.23770248975E+03  0.47182446860E+03  0.46999998093E+01 0. -1.
</event>
<event>
 5   0  0.3723500E-04  0.1121414E+04  0.7818609E-02  0.9184568E-01
       -1   -1    0    0    0  501  0.00000000000E+00  0.00000000000E+00  0.86689074547E+03  0.86689074548E+03  0.50400001928E-02 0.  1.
        1   -1    0    0  501    0  0.00000000000E+00  0.00000000000E+00 -0.36266682770E+03  0.36266682773E+03  0.50400001928E-02 0. -1.
    10030    2    1    2    0    0  0.00000000000E+00  0.00000000000E+00  0.50422391777E+03  0.12295575732E+04  0.11214143153E+04 0.  0.
        1    1    3    3  502    0  0.31286203329E+03 -0.36306910279E+03 -0.66968797154E+02  0.48392834707E+03  0.50400001928E-02 0. -1.
       -1    1    3    3    0  502 -0.31286203329E+03  0.36306910279E+03  0.57119271492E+03  0.74562922615E+03  0.50400001928E-02 0.  1.
</event>
<event>
 5   0  0.6746664E-04  0.1707903E+04  0.7818609E-02  0.8756870E-01
       -2   -1    0    0    0  501  0.00000000000E+00  0.00000000000E+00  0.51756618229E+03  0.51756618229E+03  0.25500000920E-02 0.  1.
        2   -1    0    0  501    0  0.00000000000E+00  0.00000000000E+00 -0.14089657039E+04  0.14089657039E+04  0.25500000920E-02 0. -1.
    10030    2    1    2    0    0  0.00000000000E+00  0.00000000000E+00 -0.89139952166E+03  0.19265318862E+04  0.17079028080E+04 0.  0.
        5    1    3    3  502    0 -0.61162222720E+03  0.32032215088E+03 -0.10125435818E+04  0.12255425836E+04  0.46999998093E+01 0. -1.
       -5    1    3    3    0  502  0.61162222720E+03 -0.32032215088E+03  0.12114406012E+03  0.70098930267E+03  0.46999998093E+01 0.  1.
</event>
<event>
 5   0  0.3915701E-04  0.1685666E+04  0.7818609E-02  0.8769582E-01
       -1   -1    0    0    0  501  0.00000000000E+00  0.00000000000E+00  0.22974588497E+04  0.22974588497E+04  0.50400001928E-02 0. -1.
        1   -1    0    0  501    0  0.00000000000E+00  0.00000000000E+00 -0.30919715507E+03  0.30919715511E+03  0.50400001928E-02 0.  1.
    10030    2    1    2    0    0  0.00000000000E+00  0.00000000000E+00  0.19882616946E+04  0.26066560048E+04  0.16856663255E+04 0.  0.
        2    1    3    3  502    0 -0.32595491792E+03 -0.50771049418E+03  0.19041917363E+04  0.19974891046E+04  0.25500000920E-02 0. -1.
       -2    1    3    3    0  502  0.32595491792E+03  0.50771049418E+03  0.84069958342E+02  0.60916690022E+03  0.25500000920E-02 0.  1.
</event>
<event>
 5   0  0.3635143E-04  0.1664068E+04  0.7818609E-02  0.8782127E-01
        1   -1    0    0  501    0  0.00000000000E+00  0.00000000000E+00  0.15935570614E+04  0.15935570614E+04  0.50400001928E-02 0. -1.
       -1   -1    0    0    0  501  0.00000000000E+00  0.00000000000E+00 -0.43442473217E+03  0.43442473220E+03  0.50400001928E-02 0.  1.
    10030    2    1    2    0    0  0.00000000000E+00  0.00000000000E+00  0.11591323292E+04  0.20279817936E+04  0.16640680270E+04 0.  0.
        3    1    3    3  502    0  0.31810938527E+03 -0.36378431238E+03 -0.24586347433E+03  0.54220057648E+03  0.10100000352E+00 0.  1.
       -3    1    3    3    0  502 -0.31810938527E+03  0.36378431238E+03  0.14049958035E+04  0.14857812171E+04  0.10100000352E+00 0. -1.
</event>
<event>
 5   0  0.3713516E-04  0.1711833E+04  0.7818609E-02  0.8754644E-01
        1   -1    0    0  501    0  0.00000000000E+00  0.00000000000E+00  0.96084033854E+03  0.96084033855E+03  0.50400001928E-02 0. -1.
       -1   -1    0    0    0  501  0.00000000000E+00  0.00000000000E+00 -0.76245050939E+03  0.76245050941E+03  0.50400001928E-02 0.  1.
    10030    2    1    2    0    0  0.00000000000E+00  0.00000000000E+00  0.19838982914E+03  0.17232908480E+04  0.17118331760E+04 0.  0.
        5    1    3    3  502    0 -0.31952857895E+02  0.70576140443E+03 -0.38720667382E+03  0.80564957852E+03  0.46999998093E+01 0.  1.
       -5    1    3    3    0  502  0.31952857895E+02 -0.70576140443E+03  0.58559650296E+03  0.91764126945E+03  0.46999998093E+01 0. -1.
</event>
<event>
 5   0  0.7025426E-04  0.1679339E+04  0.7818609E-02  0.8773237E-01
       -2   -1    0    0    0  501  0.00000000000E+00  0.00000000000E+00  0.87660608783E+03  0.87660608783E+03  0.25500000920E-02 0. -1.
        2   -1    0    0  501    0  0.00000000000E+00  0.00000000000E+00 -0.80428887633E+03  0.80428887633E+03  0.25500000920E-02 0.  1.
    10030    2    1    2    0    0  0.00000000000E+00  0.00000000000E+00  0.72317211504E+02  0.16808949642E+04  0.16793385905E+04 0.  0.
        2    1    3    3  502    0 -0.43599394791E+03  0.15048194982E+03 -0.66613900241E+03  0.81023250390E+03  0.25500000920E-02 0.  1.
       -2    1    3    3    0  502  0.43599394791E+03 -0.15048194982E+03  0.73845621391E+03  0.87066246026E+03  0.25500000920E-02 0. -1.
</event>
<event>
 5   0  0.7233728E-04  0.1677488E+04  0.7818609E-02  0.8774309E-01
        2   -1    0    0  501    0  0.00000000000E+00  0.00000000000E+00  0.62865394977E+03  0.62865394977E+03  0.25500000920E-02 0. -1.
       -2   -1    0    0    0  501  0.00000000000E+00  0.00000000000E+00 -0.11190439012E+04  0.11190439012E+04  0.25500000920E-02 0.  1.
    10030    2    1    2    0    0  0.00000000000E+00  0.00000000000E+00 -0.49038995141E+03  0.17476978510E+04  0.16774878461E+04 0.  0.
        1    1    3    3  502    0  0.10727406363E+03  0.31023661406E+03 -0.10493396977E+04  0.10994854627E+04  0.50400001928E-02 0.  1.
       -1    1    3    3    0  502 -0.10727406363E+03 -0.31023661406E+03  0.55894974629E+03  0.64821238829E+03  0.50400001928E-02 0. -1.
</event>
<event>
 5   0  0.3723500E-04  0.1692823E+04  0.7818609E-02  0.8765469E-01
        1   -1    0    0  501    0  0.00000000000E+00  0.00000000000E+00  0.50720154315E+03  0.50720154317E+03  0.50400001928E-02 0.  1.
       -1   -1    0    0    0  501  0.00000000000E+00  0.00000000000E+00 -0.14124800750E+04  0.14124800750E+04  0.50400001928E-02 0. -1.
    10030    2    1    2    0    0  0.00000000000E+00  0.00000000000E+00 -0.90527853185E+03  0.19196816182E+04  0.16928225822E+04 0.  0.
        1    1    3    3  502    0 -0.68964759275E+03 -0.30486782972E+03 -0.16591443189E+02  0.75421049568E+03  0.50400001928E-02 0.  1.
       -1    1    3    3    0  502  0.68964759275E+03  0.30486782972E+03 -0.88868708866E+03  0.11654711225E+04  0.50400001928E-02 0. -1.
</event>
<event>
 5   0  0.3635143E-04  0.1959364E+04  0.7818609E-02  0.8625859E-01
       -1   -1    0    0    0  501  0.00000000000E+00  0.00000000000E+00  0.89074504007E+03  0.89074504008E+03  0.50400001928E-02 0.  1.
        1   -1    0    0  501    0  0.00000000000E+00  0.00000000000E+00 -0.10774984919E+04  0.10774984919E+04  0.50400001928E-02 0. -1.
    10030    2    1    2    0    0  0.00000000000E+00  0.00000000000E+00 -0.18675345181E+03  0.19682435320E+04  0.19593636083E+04 0.  0.
        3    1    3    3  502    0 -0.76093548807E+03  0.40119993944E+03  0.37756801556E+03  0.93943697233E+03  0.10100000352E+00 0. -1.
       -3    1    3    3    0  502  0.76093548807E+03 -0.40119993944E+03 -0.56432146737E+03  0.10288065596E+04  0.10100000352E+00 0.  1.
</event>
<event>
 5   0  0.3635143E-04  0.1729716E+04  0.7818609E-02  0.8744596E-01
        1   -1    0    0  501    0  0.00000000000E+00  0.00000000000E+00  0.83951127135E+03  0.83951127136E+03  0.50400001928E-02 0.  1.
       -1   -1    0    0    0  501  0.00000000000E+00  0.00000000000E+00 -0.89096958532E+03  0.89096958533E+03  0.50400001928E-02 0. -1.
    10030    2    1    2    0    0  0.00000000000E+00  0.00000000000E+00 -0.51458313969E+02  0.17304808567E+04  0.17297155943E+04 0.  0.
        3    1    3    3  502    0 -0.65862015082E+03  0.27797156385E+03  0.46124106590E+03  0.85075967491E+03  0.10100000352E+00 0.  1.
       -3    1    3    3    0  502  0.65862015082E+03 -0.27797156385E+03 -0.51269937987E+03  0.87972118179E+03  0.10100000352E+00 0. -1.
</event>
<event>
 5   0  0.3915701E-04  0.1654552E+04  0.7818609E-02  0.8787718E-01
        1   -1    0    0  501    0  0.00000000000E+00  0.00000000000E+00  0.97368333106E+03  0.97368333108E+03  0.50400001928E-02 0.  1.
       -1   -1    0    0    0  501  0.00000000000E+00  0.00000000000E+00 -0.70288320825E+03  0.70288320827E+03  0.50400001928E-02 0. -1.
    10030    2    1    2    0    0  0.00000000000E+00  0.00000000000E+00  0.27080012281E+03  0.16765665393E+04  0.16545521008E+04 0.  0.
        2    1    3    3  502    0  0.38884115207E+03  0.66919917777E+03 -0.16065281595E+03  0.79046461550E+03  0.25500000920E-02 0. -1.
       -2    1    3    3    0  502 -0.38884115207E+03 -0.66919917777E+03  0.43145293876E+03  0.88610192385E+03  0.25500000920E-02 0.  1.
</event>
<event>
 5   0  0.7233728E-04  0.1705064E+04  0.7818609E-02  0.8758481E-01
       -2   -1    0    0    0  501  0.00000000000E+00  0.00000000000E+00  0.14714102426E+04  0.14714102426E+04  0.25500000920E-02 0. -1.
        2   -1    0    0  501    0  0.00000000000E+00  0.00000000000E+00 -0.49395543881E+03  0.49395543882E+03  0.25500000920E-02 0.  1.
    10030    2    1    2    0    0  0.00000000000E+00  0.00000000000E+00  0.97745480377E+03  0.19653656814E+04  0.17050643296E+04 0.  0.
        1    1    3    3  502    0 -0.57953124143E+03  0.24821904016E+03  0.11502217216E+04  0.13116703704E+04  0.50400001928E-02 0. -1.
       -1    1    3    3    0  502  0.57953124143E+03 -0.24821904016E+03 -0.17276691785E+03  0.65369531100E+03  0.50400001928E-02 0.  1.
</event>
<event>
 5   0  0.7242144E-04  0.1704084E+04  0.7818609E-02  0.8759039E-01
       -2   -1    0    0    0  501  0.00000000000E+00  0.00000000000E+00  0.69817224689E+03  0.69817224690E+03  0.25500000920E-02 0. -1.
        2   -1    0    0  501    0  0.00000000000E+00  0.00000000000E+00 -0.10398230226E+04  0.10398230226E+04  0.25500000920E-02 0.  1.
    10030    2    1    2    0    0  0.00000000000E+00  0.00000000000E+00 -0.34165077570E+03  0.17379952695E+04  0.17040840074E+04 0.  0.
        3    1    3    3  502    0 -0.47092663788E+03  0.37195723536E+03 -0.78771861062E+03  0.99026496601E+03  0.10100000352E+00 0.  1.
       -3    1    3    3    0  502  0.47092663788E+03 -0.37195723536E+03  0.44606783492E+03  0.74773030348E+03  0.10100000352E+00 0. -1.
</event>
<event>
 5   0  0.3635143E-04  0.1638010E+04  0.7818609E-02  0.8797531E-01
        1   -1    0    0  501    0  0.00000000000E+00  0.00000000000E+00  0.12529277323E+04  0.12529277323E+04  0.50400001928E-02 0. -1.
       -1   -1    0    0    0  501  0.00000000000E+00  0.00000000000E+00 -0.53536166996E+03  0.53536166999E+03  0.50400001928E-02 0.  1.
    10030    2    1    2    0    0  0.00000000000E+00  0.00000000000E+00  0.71756606235E+03  0.17882894023E+04  0.16380103579E+04 0.  0.
        3    1    3    3  502    0  0.63255362810E+03 -0.77196843578E+02  0.92046006616E+03  0.11195223038E+04  0.10100000352E+00 0. -1.
       -3    1    3    3    0  502 -0.63255362810E+03  0.77196843578E+02 -0.20289400381E+03  0.66876709852E+03  0.10100000352E+00 0.  1.
</event>
<event>
 5   0  0.7049044E-04  0.1719121E+04  0.7818609E-02  0.8750533E-01
        2   -1    0    0  501    0  0.00000000000E+00  0.00000000000E+00  0.22571500146E+04  0.22571500146E+04  0.25500000920E-02 0. -1.
       -2   -1    0    0    0  501  0.00000000000E+00  0.00000000000E+00 -0.32733514657E+03  0.32733514658E+03  0.25500000920E-02 0.  1.
    10030    2    1    2    0    0  0.00000000000E+00  0.00000000000E+00  0.19298148680E+04  0.25844851612E+04  0.17191213231E+04 0.  0.
        4    1    3    3  502    0  0.42955384722E+03  0.43363818759E+02  0.20823171119E+04  0.21266036528E+04  0.12699999809E+01 0. -1.
       -4    1    3    3    0  502 -0.42955384722E+03 -0.43363818759E+02 -0.15250224390E+03  0.45788150840E+03  0.12699999809E+01 0.  1.
</event>
<event>
 5   0  0.3635143E-04  0.1709578E+04  0.7818609E-02  0.8755921E-01
       -1   -1    0    0    0  501  0.00000000000E+00  0.00000000000E+00  0.55314517217E+03  0.55314517219E+03  0.50400001928E-02 0. -1.
        1   -1    0    0  501    0  0.00000000000E+00  0.00000000000E+00 -0.13209260696E+04  0.13209260696E+04  0.50400001928E-02 0.  1.
    10030    2    1    2    0    0  0.00000000000E+00  0.00000000000E+00 -0.76778089742E+03  0.18740712418E+04  0.17095775832E+04 0.  0.
        3    1    3    3  502    0  0.68280545325E+03  0.50537049993E+03 -0.27965600505E+03  0.89433222046E+03  0.10100000352E+00 0.  1.
       -3    1    3    3    0  502 -0.68280545325E+03 -0.50537049993E+03 -0.48812489237E+03  0.97973902134E+03  0.10100000352E+00 0. -1.
</event>
<event>
 5   0  0.3635143E-04  0.1619930E+04  0.7818609E-02  0.8808397E-01
       -1   -1    0    0    0  501  0.00000000000E+00  0.00000000000E+00  0.45000405830E+03  0.45000405833E+03  0.50400001928E-02 0. -1.
        1   -1    0    0  501    0  0.00000000000E+00  0.00000000000E+00 -0.14578609142E+04  0.14578609142E+04  0.50400001928E-02 0.  1.
    10030    2    1    2    0    0  0.00000000000E+00  0.00000000000E+00 -0.10078568559E+04  0.19078649725E+04  0.16199300329E+04 0.  0.
        3    1    3    3  502    0  0.42379099775E+03  0.85797175711E+02  0.30270531930E+03  0.52781671598E+03  0.10100000352E+00 0. -1.
       -3    1    3    3    0  502 -0.42379099775E+03 -0.85797175711E+02 -0.13105621752E+04  0.13800482565E+04  0.10100000352E+00 0.  1.
</event>
<event>
 5   0  0.7242144E-04  0.1736204E+04  0.7818609E-02  0.8740981E-01
       -2   -1    0    0    0  501  0.00000000000E+00  0.00000000000E+00  0.61741815679E+03  0.61741815680E+03  0.25500000920E-02 0.  1.
        2   -1    0    0  501    0  0.00000000000E+00  0.00000000000E+00 -0.12205682077E+04  0.12205682077E+04  0.25500000920E-02 0. -1.
    10030    2    1    2    0    0  0.00000000000E+00  0.00000000000E+00 -0.60315005090E+03  0.18379863645E+04  0.17362038740E+04 0.  0.
        3    1    3    3  502    0  0.12562094046E+03  0.98290479993E+02  0.60177231777E+03  0.62255246507E+03  0.10100000352E+00 0.  1.
       -3    1    3    3    0  502 -0.12562094046E+03 -0.98290479993E+02 -0.12049223687E+04  0.12154338994E+04  0.10100000352E+00 0. -1.
</event>
<event>
 5   0  0.3803253E-04  0.1722747E+04  0.7818609E-02  0.8748496E-01
        1   -1    0    0  501    0  0.00000000000E+00  0.00000000000E+00  0.12822738395E+04  0.12822738395E+04  0.50400001928E-02 0. -1.
       -1   -1    0    0    0  501  0.00000000000E+00  0.00000000000E+00 -0.57863161876E+03  0.57863161878E+03  0.50400001928E-02 0.  1.
    10030    2    1    2    0    0  0.00000000000E+00  0.00000000000E+00  0.70364222076E+03  0.18609054583E+04  0.17227468618E+04 0.  0.
        4    1    3    3  502    0 -0.31045149800E+03  0.25560341581E+03  0.11746512066E+04  0.12415797634E+04  0.12699999809E+01 0. -1.
       -4    1    3    3    0  502  0.31045149800E+03 -0.25560341581E+03 -0.47100898582E+03  0.61932569494E+03  0.12699999809E+01 0.  1.
</event>
<event>
 5   0  0.3635143E-04  0.1552272E+04  0.7818609E-02  0.8850418E-01
        1   -1    0    0  501    0  0.00000000000E+00  0.00000000000E+00  0.10626087485E+04  0.10626087485E+04  0.50400001928E-02 0. -1.
       -1   -1    0    0    0  501  0.00000000000E+00  0.00000000000E+00 -0.56689430338E+03  0.56689430340E+03  0.50400001928E-02 0.  1.
    10030    2    1    2    0    0  0.00000000000E+00  0.00000000000E+00  0.49571444513E+03  0.16295030519E+04  0.15522716853E+04 0.  0.
        3    1    3    3  502    0 -0.10631501827E+03  0.62273147598E+03  0.72116634558E+03  0.95873785911E+03  0.10100000352E+00 0. -1.
       -3    1    3    3    0  502  0.10631501827E+03 -0.62273147598E+03 -0.22545190045E+03  0.67076519282E+03  0.10100000352E+00 0.  1.
</event>
<event>
 5   0  0.7025426E-04  0.1686258E+04  0.7818609E-02  0.8769241E-01
       -2   -1    0    0    0  501  0.00000000000E+00  0.00000000000E+00  0.62392706253E+03  0.62392706253E+03  0.25500000920E-02 0. -1.
        2   -1    0    0  501    0  0.00000000000E+00  0.00000000000E+00 -0.11393418634E+04  0.11393418634E+04  0.25500000920E-02 0.  1.
    10030    2    1    2    0    0  0.00000000000E+00  0.00000000000E+00 -0.51541480084E+03  0.17632689259E+04  0.16862576577E+04 0.  0.
        2    1    3    3  502    0 -0.32936975677E+03  0.64341393087E+03 -0.71158151306E+03  0.10143047732E+04  0.25500000920E-02 0.  1.
       -2    1    3    3    0  502  0.32936975677E+03 -0.64341393087E+03  0.19616671222E+03  0.74896415275E+03  0.25500000920E-02 0. -1.
</event>
<event>
 5   0  0.3803253E-04  0.1737896E+04  0.7818609E-02  0.8740041E-01
        1   -1    0    0  501    0  0.00000000000E+00  0.00000000000E+00  0.14593506006E+04  0.14593506006E+04  0.50400001928E-02 0. -1.
       -1   -1    0    0    0  501  0.00000000000E+00  0.00000000000E+00 -0.51740190870E+03  0.51740190872E+03  0.50400001928E-02 0.  1.
    10030    2    1    2    0    0  0.00000000000E+00  0.00000000000E+00  0.94194869188E+03  0.19767525093E+04  0.17378961836E+04 0.  0.
        4    1    3    3  502    0  0.40411679815E+03 -0.32304282787E+03  0.12650688227E+04  0.13667727662E+04  0.12699999809E+01 0. -1.
       -4    1    3    3    0  502 -0.40411679815E+03  0.32304282787E+03 -0.32312013085E+03  0.60997974314E+03  0.12699999809E+01 0.  1.
</event>
<event>
 5   0  0.7233728E-04  0.1593041E+04  0.7818609E-02  0.8824835E-01
        2   -1    0    0  501    0  0.00000000000E+00  0.00000000000E+00  0.10744611198E+04  0.10744611198E+04  0.25500000920E-02 0. -1.
       -2   -1    0    0    0  501  0.00000000000E+00  0.00000000000E+00 -0.59047724562E+03  0.59047724563E+03  0.25500000920E-02 0.  1.
    10030    2    1    2    0    0  0.00000000000E+00  0.00000000000E+00  0.48398387416E+03  0.16649383654E+04  0.15930409192E+04 0.  0.
        1    1    3    3  502    0 -0.49447107117E+03  0.47516059886E+03 -0.18146799039E+03  0.70937286845E+03  0.50400001928E-02 0.  1.
       -1    1    3    3    0  502  0.49447107117E+03 -0.47516059886E+03  0.66545186455E+03  0.95556549696E+03  0.50400001928E-02 0. -1.
</event>
<event>
 5   0  0.2639750E-04  0.1511161E+04  0.7818609E-02  0.8877065E-01
       -4   -1    0    0    0  501  0.00000000000E+00  0.00000000000E+00  0.51032504842E+03  0.51032662869E+03  0.12699999809E+01 0.  1.
        4   -1    0    0  501    0  0.00000000000E+00  0.00000000000E+00 -0.11186987763E+04  0.11186994972E+04  0.12699999809E+01 0. -1.
    10030    2    1    2    0    0  0.00000000000E+00  0.00000000000E+00 -0.60837372788E+03  0.16290261259E+04  0.15111609861E+04 0.  0.
        5    1    3    3  502    0  0.21566697542E+03 -0.71573516880E+03 -0.42272096634E+03  0.85878063644E+03  0.46999998093E+01 0. -1.
       -5    1    3    3    0  502 -0.21566697542E+03  0.71573516880E+03 -0.18565276155E+03  0.77024548944E+03  0.46999998093E+01 0.  1.
</event>
<event>
 5   0  0.3803253E-04  0.1709547E+04  0.7818609E-02  0.8755938E-01
        1   -1    0    0  501    0  0.00000000000E+00  0.00000000000E+00  0.76634291429E+03  0.76634291431E+03  0.50400001928E-02 0.  1.
       -1   -1    0    0    0  501  0.00000000000E+00  0.00000000000E+00 -0.95340877770E+03  0.95340877771E+03  0.50400001928E-02 0. -1.
    10030    2    1    2    0    0  0.00000000000E+00  0.00000000000E+00 -0.18706586341E+03  0.17197516920E+04  0.17095473801E+04 0.  0.
        4    1    3    3  502    0  0.55229948620E+03 -0.34714804992E+02 -0.74887878504E+03  0.93116104285E+03  0.12699999809E+01 0. -1.
       -4    1    3    3    0  502 -0.55229948620E+03  0.34714804992E+02  0.56181292163E+03  0.78859064917E+03  0.12699999809E+01 0.  1.
</event>
<event>
 5   0  0.7242144E-04  0.1689512E+04  0.7818609E-02  0.8767369E-01
       -2   -1    0    0    0  501  0.00000000000E+00  0.00000000000E+00  0.13587906256E+04  0.13587906256E+04  0.25500000920E-02 0.  1.
        2   -1    0    0  501    0  0.00000000000E+00  0.00000000000E+00 -0.52518215071E+03  0.52518215071E+03  0.25500000920E-02 0. -1.
    10030    2    1    2    0    0  0.00000000000E+00  0.00000000000E+00  0.83360847485E+03  0.18839727763E+04  0.16895118622E+04 0.  0.
        3    1    3    3  502    0  0.68312044748E+02 -0.11938408713E+03  0.13462199024E+04  0.13532284107E+04  0.10100000352E+00 0.  1.
       -3    1    3    3    0  502 -0.68312044748E+02  0.11938408713E+03 -0.51261142755E+03  0.53074436556E+03  0.10100000352E+00 0. -1.
</event>
<event>
 5   0  0.3635143E-04  0.1713318E+04  0.7818609E-02  0.8753805E-01
       -1   -1    0    0    0  501  0.00000000000E+00  0.00000000000E+00  0.37213266623E+03  0.37213266627E+03  0.50400001928E-02 0. -1.
        1   -1    0    0  501    0  0.00000000000E+00  0.00000000000E+00 -0.19720504154E+04  0.19720504154E+04  0.50400001928E-02 0.  1.
    10030    2    1    2    0    0  0.00000000000E+00  0.00000000000E+00 -0.15999177492E+04  0.23441830817E+04  0.17133176928E+04 0.  0.
        3    1    3    3  502    0  0.43619521634E+03  0.21049710945E+03 -0.17667433248E+04  0.18319272054E+04  0.10100000352E+00 0.  1.
       -3    1    3    3    0  502 -0.43619521634E+03 -0.21049710945E+03  0.16682557569E+03  0.51225587625E+03  0.10100000352E+00 0. -1.
</event>
<event>
 5   0  0.7025426E-04  0.1708067E+04  0.7818609E-02  0.8756777E-01
       -2   -1    0    0    0  501  0.00000000000E+00  0.00000000000E+00  0.37431530954E+03  0.37431530955E+03  0.25500000920E-02 0. -1.
        2   -1    0    0  501    0  0.00000000000E+00  0.00000000000E+00 -0.19485540384E+04  0.19485540384E+04  0.25500000920E-02 0.  1.
    10030    2    1    2    0    0  0.00000000000E+00  0.00000000000E+00 -0.15742387289E+04  0.23228693480E+04  0.17080674554E+04 0.  0.
        2    1    3    3  502    0 -0.68605753666E+03  0.29204942485E+03 -0.13534258982E+04  0.15452279676E+04  0.25500000920E-02 0.  1.
       -2    1    3    3    0  502  0.68605753666E+03 -0.29204942485E+03 -0.22081283070E+03  0.77764138031E+03  0.25500000920E-02 0. -1.
</event>
<event>
 5   0  0.7242144E-04  0.1535663E+04  0.7818609E-02  0.8861078E-01
       -2   -1    0    0    0  501  0.00000000000E+00  0.00000000000E+00  0.11514937028E+04  0.11514937028E+04  0.25500000920E-02 0. -1.
        2   -1    0    0  501    0  0.00000000000E+00  0.00000000000E+00 -0.51200049767E+03  0.51200049768E+03  0.25500000920E-02 0.  1.
    10030    2    1    2    0    0  0.00000000000E+00  0.00000000000E+00  0.63949320510E+03  0.16634942005E+04  0.15356631778E+04 0.  0.
        3    1    3    3  502    0  0.16085589848E+03  0.40386208709E+03  0.10053504973E+04  0.10953122103E+04  0.10100000352E+00 0. -1.
       -3    1    3    3    0  502 -0.16085589848E+03 -0.40386208709E+03 -0.36585729220E+03  0.56818199014E+03  0.10100000352E+00 0.  1.
</event>
<event>
 5   0  0.7025426E-04  0.1688005E+04  0.7818609E-02  0.8768235E-01
       -2   -1    0    0    0  501  0.00000000000E+00  0.00000000000E+00  0.49552187676E+03  0.49552187676E+03  0.25500000920E-02 0.  1.
        2   -1    0    0  501    0  0.00000000000E+00  0.00000000000E+00 -0.14375549486E+04  0.14375549486E+04  0.25500000920E-02 0. -1.
    10030    2    1    2    0    0  0.00000000000E+00  0.00000000000E+00 -0.94203307189E+03  0.19330768254E+04  0.16880046518E+04 0.  0.
        2    1    3    3  502    0  0.69884334935E+03  0.44926066162E+03 -0.30068498510E+03  0.88353190620E+03  0.25500000920E-02 0.  1.
       -2    1    3    3    0  502 -0.69884334935E+03 -0.44926066162E+03 -0.64134808679E+03  0.10495449192E+04  0.25500000920E-02 0. -1.
</event>
<event>
 5   0  0.7025426E-04  0.1630819E+04  0.7818609E-02  0.8801835E-01
       -2   -1    0    0    0  501  0.00000000000E+00  0.00000000000E+00  0.25686894412E+03  0.25686894413E+03  0.25500000920E-02 0. -1.
        2   -1    0    0  501    0  0.00000000000E+00  0.00000000000E+00 -0.25884497501E+04  0.25884497501E+04  0.25500000920E-02 0.  1.
    10030    2    1    2    0    0  0.00000000000E+00  0.00000000000E+00 -0.23315808060E+04  0.28453186943E+04  0.16308186340E+04 0.  0.
        2    1    3    3  502    0 -0.41718322145E+03  0.69319304908E+03 -0.98842961732E+03  0.12773220236E+04  0.25500000920E-02 0.  1.
       -2    1    3    3    0  502  0.41718322145E+03 -0.69319304908E+03 -0.13431511887E+04  0.15679966707E+04  0.25500000920E-02 0. -1.
</event>
<event>
 5   0  0.3713516E-04  0.1628923E+04  0.7818609E-02  0.8802974E-01
       -1   -1    0    0    0  501  0.00000000000E+00  0.00000000000E+00  0.36208797428E+03  0.36208797432E+03  0.50400001928E-02 0.  1.
        1   -1    0    0  501    0  0.00000000000E+00  0.00000000000E+00 -0.18320064823E+04  0.18320064823E+04  0.50400001928E-02 0. -1.
    10030    2    1    2    0    0  0.00000000000E+00  0.00000000000E+00 -0.14699185080E+04  0.21940944566E+04  0.16289229768E+04 0.  0.
        5    1    3    3  502    0 -0.41303343712E+03  0.67524502610E+03 -0.47666242810E+03  0.92400304426E+03  0.46999998093E+01 0.  1.
       -5    1    3    3    0  502  0.41303343712E+03 -0.67524502610E+03 -0.99325607988E+03  0.12700914123E+04  0.46999998093E+01 0. -1.
</event>
<event>
 5   0  0.3803253E-04  0.1673224E+04  0.7818609E-02  0.8776785E-01
       -1   -1    0    0    0  501  0.00000000000E+00  0.00000000000E+00  0.16335074901E+04  0.16335074901E+04  0.50400001928E-02 0. -1.
        1   -1    0    0  501    0  0.00000000000E+00  0.00000000000E+00 -0.42847661449E+03  0.42847661452E+03  0.50400001928E-02 0.  1.
    10030    2    1    2    0    0  0.00000000000E+00  0.00000000000E+00  0.12050308756E+04  0.20619841046E+04  0.16732241441E+04 0.  0.
        4    1    3    3  502    0 -0.27851824738E+03 -0.78870052429E+03  0.62376092118E+03  0.10434079887E+04  0.12699999809E+01 0. -1.
       -4    1    3    3    0  502  0.27851824738E+03  0.78870052429E+03  0.58126995440E+03  0.10185761159E+04  0.12699999809E+01 0.  1.
</event>
<event>
 5   0  0.7025426E-04  0.1602641E+04  0.7818609E-02  0.8818927E-01
       -2   -1    0    0    0  501  0.00000000000E+00  0.00000000000E+00  0.29697842778E+03  0.29697842779E+03  0.25500000920E-02 0. -1.
        2   -1    0    0  501    0  0.00000000000E+00  0.00000000000E+00 -0.21621587994E+04  0.21621587994E+04  0.25500000920E-02 0.  1.
    10030    2    1    2    0    0  0.00000000000E+00  0.00000000000E+00 -0.18651803717E+04  0.24591372272E+04  0.16026409715E+04 0.  0.
        2    1    3    3  502    0  0.32768852308E+03  0.51874019376E+03 -0.17234436272E+04  0.18294067599E+04  0.25500000920E-02 0.  1.
       -2    1    3    3    0  502 -0.32768852308E+03 -0.51874019376E+03 -0.14173674441E+03  0.62973046735E+03  0.25500000920E-02 0. -1.
</event>
<event>
 5   0  0.7025426E-04  0.1655385E+04  0.7818609E-02  0.8787227E-01
       -2   -1    0    0    0  501  0.00000000000E+00  0.00000000000E+00  0.62902779215E+03  0.62902779216E+03  0.25500000920E-02 0.  1.
        2   -1    0    0  501    0  0.00000000000E+00  0.00000000000E+00 -0.10891013106E+04  0.10891013106E+04  0.25500000920E-02 0. -1.
    10030    2    1    2    0    0  0.00000000000E+00  0.00000000000E+00 -0.46007351842E+03  0.17181291027E+04  0.16553851429E+04 0.  0.
        2    1    3    3  502    0  0.40594393098E+02 -0.64000477262E+03 -0.77314963721E+03  0.10044970758E+04  0.25500000920E-02 0. -1.
       -2    1    3    3    0  502 -0.40594393098E+02  0.64000477262E+03  0.31307611879E+03  0.71363202695E+03  0.25500000920E-02 0.  1.
</event>
<event>
 5   0  0.2639750E-04  0.1760388E+04  0.7818609E-02  0.8727653E-01
        3   -1    0    0  501    0  0.00000000000E+00  0.00000000000E+00  0.16834536460E+04  0.16834536490E+04  0.10100000352E+00 0. -1.
       -3   -1    0    0    0  501  0.00000000000E+00  0.00000000000E+00 -0.46020964159E+03  0.46020965268E+03  0.10100000352E+00 0.  1.
    10030    2    1    2    0    0  0.00000000000E+00  0.00000000000E+00  0.12232440044E+04  0.21436633017E+04  0.17603881551E+04 0.  0.
        1    1    3    3  502    0  0.77739553120E+03 -0.48899012201E+02  0.11107494140E+04  0.13566499866E+04  0.50400001928E-02 0. -1.
       -1    1    3    3    0  502 -0.77739553120E+03  0.48899012201E+02  0.11249459041E+03  0.78701331514E+03  0.50400001928E-02 0.  1.
</event>
<event>
 5   0  0.7242144E-04  0.1702522E+04  0.7818609E-02  0.8759927E-01
        2   -1    0    0  501    0  0.00000000000E+00  0.00000000000E+00  0.12412361883E+04  0.12412361883E+04  0.25500000920E-02 0. -1.
       -2   -1    0    0    0  501  0.00000000000E+00  0.00000000000E+00 -0.58380968203E+03  0.58380968203E+03  0.25500000920E-02 0.  1.
    10030    2    1    2    0    0  0.00000000000E+00  0.00000000000E+00  0.65742650630E+03  0.18250458704E+04  0.17025224867E+04 0.  0.
        3    1    3    3  502    0 -0.36505951545E+02  0.52505449559E+03  0.10459142784E+04  0.11708764221E+04  0.10100000352E+00 0. -1.
       -3    1    3    3    0  502  0.36505951545E+02 -0.52505449559E+03 -0.38848777207E+03  0.65416944830E+03  0.10100000352E+00 0.  1.
</event>
<event>
 5   0  0.2639750E-04  0.1305421E+04  0.7818609E-02  0.9025278E-01
        4   -1    0    0  501    0  0.00000000000E+00  0.00000000000E+00  0.76174122124E+03  0.76174227993E+03  0.12699999809E+01 0.  1.
       -4   -1    0    0    0  501  0.00000000000E+00  0.00000000000E+00 -0.55928322959E+03  0.55928467153E+03  0.12699999809E+01 0. -1.
    10030    2    1    2    0    0  0.00000000000E+00  0.00000000000E+00  0.20245799165E+03  0.13210269515E+04  0.13054206097E+04 0.  0.
        4    1    3    3  502    0  0.53922217602E+03 -0.30902752247E+03 -0.10058072898E+03  0.62958451434E+03  0.12699999809E+01 0.  1.
       -4    1    3    3    0  502 -0.53922217602E+03  0.30902752247E+03  0.30303872063E+03  0.69144243712E+03  0.12699999809E+01 0. -1.
</event>
<event>
 5   0  0.3723500E-04  0.1697081E+04  0.7818609E-02  0.8763031E-01
       -1   -1    0    0    0  501  0.00000000000E+00  0.00000000000E+00  0.50463727063E+03  0.50463727066E+03  0.50400001928E-02 0.  1.
        1   -1    0    0  501    0  0.00000000000E+00  0.00000000000E+00 -0.14268087330E+04  0.14268087330E+04  0.50400001928E-02 0. -1.
    10030    2    1    2    0    0  0.00000000000E+00  0.00000000000E+00 -0.92217146240E+03  0.19314460037E+04  0.16970808641E+04 0.  0.
        1    1    3    3  502    0 -0.84285827415E+02 -0.74374940725E+03 -0.91597463063E+03  0.11829103117E+04  0.50400001928E-02 0. -1.
       -1    1    3    3    0  502  0.84285827415E+02  0.74374940725E+03 -0.61968317727E+01  0.74853569203E+03  0.50400001928E-02 0.  1.
</event>
<event>
 5   0  0.7025426E-04  0.1634505E+04  0.7818609E-02  0.8799626E-01
        2   -1    0    0  501    0  0.00000000000E+00  0.00000000000E+00  0.19968494789E+04  0.19968494789E+04  0.25500000920E-02 0.  1.
       -2   -1    0    0    0  501  0.00000000000E+00  0.00000000000E+00 -0.33447760052E+03  0.33447760053E+03  0.25500000920E-02 0. -1.
    10030    2    1    2    0    0  0.00000000000E+00  0.00000000000E+00  0.16623718784E+04  0.23313270795E+04  0.16345047229E+04 0.  0.
        2    1    3    3  502    0  0.56391362823E+03 -0.29399100419E+01  0.16748807921E+04  0.17672670684E+04  0.25500000920E-02 0.  1.
       -2    1    3    3    0  502 -0.56391362823E+03  0.29399100419E+01 -0.12508913702E+02  0.56406001108E+03  0.25500000920E-02 0. -1.
</event>
<event>
 5   0  0.6746664E-04  0.1746626E+04  0.7818609E-02  0.8735210E-01
       -2   -1    0    0    0  501  0.00000000000E+00  0.00000000000E+00  0.12938384829E+04  0.12938384829E+04  0.25500000920E-02 0. -1.
        2   -1    0    0  501    0  0.00000000000E+00  0.00000000000E+00 -0.58946705542E+03  0.58946705543E+03  0.25500000920E-02 0.  1.
    10030    2    1    2    0    0  0.00000000000E+00  0.00000000000E+00  0.70437142747E+03  0.18833055383E+04  0.17466255016E+04 0.  0.
        5    1    3    3  502    0 -0.47937798679E+03 -0.52260650930E+02 -0.43288273667E+03  0.64803085078E+03  0.46999998093E+01 0.  1.
       -5    1    3    3    0  502  0.47937798679E+03  0.52260650930E+02  0.11372541641E+04  0.12352746876E+04  0.46999998093E+01 0. -1.
</event>
<event>
 5   0  0.2639750E-04  0.1747199E+04  0.7818609E-02  0.8734893E-01
        4   -1    0    0  501    0  0.00000000000E+00  0.00000000000E+00  0.14469633103E+04  0.14469638677E+04  0.12699999809E+01 0.  1.
       -4   -1    0    0    0  501  0.00000000000E+00  0.00000000000E+00 -0.52743169875E+03  0.52743322776E+03  0.12699999809E+01 0. -1.
    10030    2    1    2    0    0  0.00000000000E+00  0.00000000000E+00  0.91953161158E+03  0.19743970954E+04  0.17471993320E+04 0.  0.
        4    1    3    3  502    0 -0.85235423806E+03  0.19139315406E+03  0.46651553008E+03  0.99034208195E+03  0.12699999809E+01 0. -1.
       -4    1    3    3    0  502  0.85235423806E+03 -0.19139315406E+03  0.45301608150E+03  0.98405501349E+03  0.12699999809E+01 0.  1.
</event>
<event>
 5   0  0.3713516E-04  0.1771178E+04  0.7818609E-02  0.8721779E-01
        1   -1    0    0  501    0  0.00000000000E+00  0.00000000000E+00  0.11079958627E+04  0.11079958627E+04  0.50400001928E-02 0. -1.
       -1   -1    0    0    0  501  0.00000000000E+00  0.00000000000E+00 -0.70782524336E+03  0.70782524338E+03  0.50400001928E-02 0.  1.
    10030    2    1    2    0    0  0.00000000000E+00  0.00000000000E+00  0.40017061932E+03  0.18158211061E+04  0.17711775079E+04 0.  0.
        5    1    3    3  502    0 -0.33923523440E+03 -0.81064903694E+03  0.87719100335E+02  0.88314729005E+03  0.46999998093E+01 0.  1.
       -5    1    3    3    0  502  0.33923523440E+03  0.81064903694E+03  0.31245151898E+03  0.93267381601E+03  0.46999998093E+01 0. -1.
</event>
<event>
 5   0  0.7049044E-04  0.1753325E+04  0.7818609E-02  0.8731522E-01
        2   -1    0    0  501    0  0.00000000000E+00  0.00000000000E+00  0.12564976350E+04  0.12564976350E+04  0.25500000920E-02 0.  1.
       -2   -1    0    0    0  501  0.00000000000E+00  0.00000000000E+00 -0.61165027672E+03  0.61165027672E+03  0.25500000920E-02 0. -1.
    10030    2    1    2    0    0  0.00000000000E+00  0.00000000000E+00  0.64484735829E+03  0.18681479117E+04  0.17533249855E+04 0.  0.
        4    1    3    3  502    0  0.32134783695E+03  0.61782361475E+03 -0.24495785509E+03  0.73822517901E+03  0.12699999809E+01 0. -1.
       -4    1    3    3    0  502 -0.32134783695E+03 -0.61782361475E+03  0.88980521338E+03  0.11299227327E+04  0.12699999809E+01 0.  1.
</event>
<event>
 5   0  0.3635143E-04  0.1282565E+04  0.7818609E-02  0.9043507E-01
       -1   -1    0    0    0  501  0.00000000000E+00  0.00000000000E+00  0.31464705271E+03  0.31464705275E+03  0.50400001928E-02 0. -1.
        1   -1    0    0  501    0  0.00000000000E+00  0.00000000000E+00 -0.13069984406E+04  0.13069984406E+04  0.50400001928E-02 0.  1.
    10030    2    1    2    0    0  0.00000000000E+00  0.00000000000E+00 -0.99235138788E+03  0.16216454934E+04  0.12825649415E+04 0.  0.
        3    1    3    3  502    0 -0.57782425355E+03  0.61028885225E+02 -0.15307075467E+03  0.60086276217E+03  0.10100000352E+00 0. -1.
       -3    1    3    3    0  502  0.57782425355E+03 -0.61028885225E+02 -0.83928063320E+03  0.10207827312E+04  0.10100000352E+00 0.  1.
</event>
<event>
 5   0  0.3915701E-04  0.1724667E+04  0.7818609E-02  0.8747420E-01
       -1   -1    0    0    0  501  0.00000000000E+00  0.00000000000E+00  0.12923532849E+04  0.12923532849E+04  0.50400001928E-02 0.  1.
        1   -1    0    0  501    0  0.00000000000E+00  0.00000000000E+00 -0.57539930034E+03  0.57539930037E+03  0.50400001928E-02 0. -1.
    10030    2    1    2    0    0  0.00000000000E+00  0.00000000000E+00  0.71695398458E+03  0.18677525853E+04  0.17246671284E+04 0.  0.
        2    1    3    3  502    0 -0.36807336545E+03 -0.63315730606E+03  0.85149691867E+03  0.11231265196E+04  0.25500000920E-02 0.  1.
       -2    1    3    3    0  502  0.36807336545E+03  0.63315730606E+03 -0.13454293409E+03  0.74462606568E+03  0.25500000920E-02 0. -1.
</event>
<event>
 5   0  0.7025426E-04  0.1714080E+04  0.7818609E-02  0.8753375E-01
        2   -1    0    0  501    0  0.00000000000E+00  0.00000000000E+00  0.13292655153E+04  0.13292655153E+04  0.25500000920E-02 0.  1.
       -2   -1    0    0    0  501  0.00000000000E+00  0.00000000000E+00 -0.55257387255E+03  0.55257387255E+03  0.25500000920E-02 0. -1.
    10030    2    1    2    0    0  0.00000000000E+00  0.00000000000E+00  0.77669164277E+03  0.18818393879E+04  0.17140798038E+04 0.  0.
        2    1    3    3  502    0  0.10602801493E+03  0.82641102177E+03  0.60879742777E+03  0.10319066939E+04  0.25500000920E-02 0.  1.
       -2    1    3    3    0  502 -0.10602801493E+03 -0.82641102177E+03  0.16789421501E+03  0.84993269398E+03  0.25500000920E-02 0. -1.
</event>
<event>
 5   0  0.7242144E-04  0.1696162E+04  0.7818609E-02  0.8763556E-01
        2   -1    0    0  501    0  0.00000000000E+00  0.00000000000E+00  0.11342478150E+04  0.11342478150E+04  0.25500000920E-02 0.  1.
       -2   -1    0    0    0  501  0.00000000000E+00  0.00000000000E+00 -0.63411291666E+03  0.63411291667E+03  0.25500000920E-02 0. -1.
    10030    2    1    2    0    0  0.00000000000E+00  0.00000000000E+00  0.50013489829E+03  0.17683607316E+04  0.16961617731E+04 0.  0.
        3    1    3    3  502    0  0.32332045322E+03  0.22267696597E+03 -0.53367603416E+03  0.66251887995E+03  0.10100000352E+00 0. -1.
       -3    1    3    3    0  502 -0.32332045322E+03 -0.22267696597E+03  0.10338109325E+04  0.11058418517E+04  0.10100000352E+00 0.  1.
</event>
<event>
 5   0  0.3803253E-04  0.1669315E+04  0.7818609E-02  0.8779061E-01
       -1   -1    0    0    0  501  0.00000000000E+00  0.00000000000E+00  0.42836474248E+03  0.42836474251E+03  0.50400001928E-02 0.  1.
        1   -1    0    0  501    0  0.00000000000E+00  0.00000000000E+00 -0.16263075342E+04  0.16263075342E+04  0.50400001928E-02 0. -1.
    10030    2    1    2    0    0  0.00000000000E+00  0.00000000000E+00 -0.11979427917E+04  0.20546722767E+04  0.16693145996E+04 0.  0.
        4    1    3    3  502    0 -0.36075586230E+03 -0.76989158392E+02  0.32258689320E+03  0.49003677338E+03  0.12699999809E+01 0.  1.
       -4    1    3    3    0  502  0.36075586230E+03  0.76989158392E+02 -0.15205296849E+04  0.15646355034E+04  0.12699999809E+01 0. -1.
</event>
<event>
 5   0  0.7242144E-04  0.1687685E+04  0.7818609E-02  0.8768419E-01
        2   -1    0    0  501    0  0.00000000000E+00  0.00000000000E+00  0.23838812932E+04  0.23838812932E+04  0.25500000920E-02 0. -1.
       -2   -1    0    0    0  501  0.00000000000E+00  0.00000000000E+00 -0.29870195614E+03  0.29870195615E+03  0.25500000920E-02 0.  1.
    10030    2    1    2    0    0  0.00000000000E+00  0.00000000000E+00  0.20851793371E+04  0.26825832494E+04  0.16876848112E+04 0.  0.
        3    1    3    3  502    0  0.63113554056E+03  0.42810584497E+03  0.46846519071E+03  0.89502308918E+03  0.10100000352E+00 0. -1.
       -3    1    3    3    0  502 -0.63113554056E+03 -0.42810584497E+03  0.16167141464E+04  0.17875601602E+04  0.10100000352E+00 0.  1.
</event>
<event>
 5   0  0.3635143E-04  0.1712877E+04  0.7818609E-02  0.8754054E-01
       -1   -1    0    0    0  501  0.00000000000E+00  0.00000000000E+00  0.79708362107E+03  0.79708362109E+03  0.50400001928E-02 0. -1.
        1   -1    0    0  501    0  0.00000000000E+00  0.00000000000E+00 -0.92021349739E+03  0.92021349740E+03  0.50400001928E-02 0.  1.
    10030    2    1    2    0    0  0.00000000000E+00  0.00000000000E+00 -0.12312987631E+03  0.17172971185E+04  0.17128772363E+04 0.  0.
        3    1    3    3  502    0 -0.51695519862E+03 -0.61534210992E+02  0.62023244968E+03  0.80976381639E+03  0.10100000352E+00 0. -1.
       -3    1    3    3    0  502  0.51695519862E+03  0.61534210992E+02 -0.74336232599E+03  0.90753330209E+03  0.10100000352E+00 0.  1.
</event>
<event>
 5   0  0.7025426E-04  0.1680851E+04  0.7818609E-02  0.8772362E-01
       -2   -1    0    0    0  501  0.00000000000E+00  0.00000000000E+00  0.63196434704E+03  0.63196434705E+03  0.25500000920E-02 0. -1.
        2   -1    0    0  501    0  0.00000000000E+00  0.00000000000E+00 -0.11176501771E+04  0.11176501771E+04  0.25500000920E-02 0.  1.
    10030    2    1    2    0    0  0.00000000000E+00  0.00000000000E+00 -0.48568583007E+03  0.17496145242E+04  0.16808510516E+04 0.  0.
        2    1    3    3  502    0  0.54130262504E+03  0.44894297257E+02  0.42471318145E+03  0.68949642226E+03  0.25500000920E-02 0. -1.
       -2    1    3    3    0  502 -0.54130262504E+03 -0.44894297257E+02 -0.91039901152E+03  0.10601181019E+04  0.25500000920E-02 0.  1.
</event>
<event>
 5   0  0.7242144E-04  0.1700871E+04  0.7818609E-02  0.8760868E-01
       -2   -1    0    0    0  501  0.00000000000E+00  0.00000000000E+00  0.47002878779E+03  0.47002878780E+03  0.25500000920E-02 0. -1.
        2   -1    0    0  501    0  0.00000000000E+00  0.00000000000E+00 -0.15387160974E+04  0.15387160974E+04  0.25500000920E-02 0.  1.
    10030    2    1    2    0    0  0.00000000000E+00  0.00000000000E+00 -0.10686873096E+04  0.20087448852E+04  0.17008713790E+04 0.  0.
        3    1    3    3  502    0 -0.12007523792E+03 -0.57340338045E+03 -0.12623967026E+04  0.13917093606E+04  0.10100000352E+00 0.  1.
       -3    1    3    3    0  502  0.12007523792E+03  0.57340338045E+03  0.19370939299E+03  0.61703552459E+03  0.10100000352E+00 0. -1.
</event>
<event>
 5   0  0.7233728E-04  0.1205122E+04  0.7818609E-02  0.9108385E-01
        2   -1    0    0  501    0  0.00000000000E+00  0.00000000000E+00  0.12321647529E+04  0.12321647529E+04  0.25500000920E-02 0. -1.
       -2   -1    0    0    0  501  0.00000000000E+00  0.00000000000E+00 -0.29466811214E+03  0.29466811215E+03  0.25500000920E-02 0.  1.
    10030    2    1    2    0    0  0.00000000000E+00  0.00000000000E+00  0.93749664077E+03  0.15268328651E+04  0.12051218388E+04 0.  0.
        1    1    3    3  502    0 -0.46559268606E+03  0.85831806628E+02 -0.34973220200E+01  0.47345103193E+03  0.50400001928E-02 0.  1.
       -1    1    3    3    0  502  0.46559268606E+03 -0.85831806628E+02  0.94099396279E+03  0.10533818331E+04  0.50400001928E-02 0. -1.
</event>
<event>
 5   0  0.3723500E-04  0.1704171E+04  0.7818609E-02  0.8758989E-01
        1   -1    0    0  501    0  0.00000000000E+00  0.00000000000E+00  0.13175520693E+04  0.13175520693E+04  0.50400001928E-02 0. -1.
       -1   -1    0    0    0  501  0.00000000000E+00  0.00000000000E+00 -0.55105940867E+03  0.55105940870E+03  0.50400001928E-02 0.  1.
    10030    2    1    2    0    0  0.00000000000E+00  0.00000000000E+00  0.76649266062E+03  0.18686114780E+04  0.17041707241E+04 0.  0.
        1    1    3    3  502    0 -0.82523587993E+03  0.20948935936E+03  0.34607189845E+03  0.91905702116E+03  0.50400001928E-02 0. -1.
       -1    1    3    3    0  502  0.82523587993E+03 -0.20948935936E+03  0.42042076217E+03  0.94955445684E+03  0.50400001928E-02 0.  1.
</event>
<event>
 5   0  0.7242144E-04  0.1745727E+04  0.7818609E-02  0.8735706E-01
       -2   -1    0    0    0  501  0.00000000000E+00  0.00000000000E+00  0.57709384257E+03  0.57709384258E+03  0.25500000920E-02 0. -1.
        2   -1    0    0  501    0  0.00000000000E+00  0.00000000000E+00 -0.13202196338E+04  0.13202196338E+04  0.25500000920E-02 0.  1.
    10030    2    1    2    0    0  0.00000000000E+00  0.00000000000E+00 -0.74312579120E+03  0.18973134764E+04  0.17457269219E+04 0.  0.
        3    1    3    3  502    0 -0.61392869594E+03  0.87198088269E+02 -0.10392168899E+04  0.12101585453E+04  0.10100000352E+00 0.  1.
       -3    1    3    3    0  502  0.61392869594E+03 -0.87198088269E+02  0.29609109873E+03  0.68715493103E+03  0.10100000352E+00 0. -1.
</event>
<event>
 5   0  0.3803253E-04  0.1663361E+04  0.7818609E-02  0.8782541E-01
        1   -1    0    0  501    0  0.00000000000E+00  0.00000000000E+00  0.18737605512E+04  0.18737605512E+04  0.50400001928E-02 0. -1.
       -1   -1    0    0    0  501  0.00000000000E+00  0.00000000000E+00 -0.36914673879E+03  0.36914673882E+03  0.50400001928E-02 0.  1.
    10030    2    1    2    0    0  0.00000000000E+00  0.00000000000E+00  0.15046138124E+04  0.22429072901E+04  0.16633611716E+04 0.  0.
        4    1    3    3  502    0 -0.73087053299E+03  0.24723865157E+03  0.11709519249E+04  0.14022940883E+04  0.12699999809E+01 0.  1.
       -4    1    3    3    0  502  0.73087053299E+03 -0.24723865157E+03  0.33366188754E+03  0.84061320173E+03  0.12699999809E+01 0. -1.
</event>
<event>
 5   0  0.6746664E-04  0.1596860E+04  0.7818609E-02  0.8822480E-01
       -2   -1    0    0    0  501  0.00000000000E+00  0.00000000000E+00  0.10741587566E+04  0.10741587566E+04  0.25500000920E-02 0. -1.
        2   -1    0    0  501    0  0.00000000000E+00  0.00000000000E+00 -0.59347858457E+03  0.59347858458E+03  0.25500000920E-02 0.  1.
    10030    2    1    2    0    0  0.00000000000E+00  0.00000000000E+00  0.48068017204E+03  0.16676373412E+04  0.15968596914E+04 0.  0.
        5    1    3    3  502    0 -0.12181833689E+03  0.28974321442E+03 -0.52613701833E+03  0.61288913317E+03  0.46999998093E+01 0.  1.
       -5    1    3    3    0  502  0.12181833689E+03 -0.28974321442E+03  0.10068171904E+04  0.10547482080E+04  0.46999998093E+01 0. -1.
</event>
<event>
 5   0  0.3803253E-04  0.1362011E+04  0.7818609E-02  0.8981785E-01
       -1   -1    0    0    0  501  0.00000000000E+00  0.00000000000E+00  0.34476541184E+03  0.34476541187E+03  0.50400001928E-02 0.  1.
        1   -1    0    0  501    0  0.00000000000E+00  0.00000000000E+00 -0.13451711230E+04  0.13451711230E+04  0.50400001928E-02 0. -1.
    10030    2    1    2    0    0  0.00000000000E+00  0.00000000000E+00 -0.10004057112E+04  0.16899365349E+04  0.13620109783E+04 0.  0.
        4    1    3    3  502    0  0.27920649500E+03 -0.91725386307E+02 -0.12624381204E+04  0.12961949830E+04  0.12699999809E+01 0. -1.
       -4    1    3    3    0  502 -0.27920649500E+03  0.91725386307E+02  0.26203240916E+03  0.39374155191E+03  0.12699999809E+01 0.  1.
</event>
<event>
 5   0  0.3635143E-04  0.1603345E+04  0.7818609E-02  0.8818495E-01
       -1   -1    0    0    0  501  0.00000000000E+00  0.00000000000E+00  0.70675764484E+03  0.70675764486E+03  0.50400001928E-02 0. -1.
        1   -1    0    0  501    0  0.00000000000E+00  0.00000000000E+00 -0.90933457629E+03  0.90933457630E+03  0.50400001928E-02 0.  1.
    10030    2    1    2    0    0  0.00000000000E+00  0.00000000000E+00 -0.20257693145E+03  0.16160922212E+04  0.16033454569E+04 0.  0.
        3    1    3    3  502    0  0.66647782274E+03 -0.15290286530E+03 -0.52307334838E+03  0.86091678599E+03  0.10100000352E+00 0.  1.
       -3    1    3    3    0  502 -0.66647782274E+03  0.15290286530E+03  0.32049641694E+03  0.75517543517E+03  0.10100000352E+00 0. -1.
</event>
<event>
 5   0  0.7233728E-04  0.1676988E+04  0.7818609E-02  0.8774599E-01
       -2   -1    0    0    0  501  0.00000000000E+00  0.00000000000E+00  0.10307879422E+04  0.10307879422E+04  0.25500000920E-02 0. -1.
        2   -1    0    0  501    0  0.00000000000E+00  0.00000000000E+00 -0.68207254937E+03  0.68207254938E+03  0.25500000920E-02 0.  1.
    10030    2    1    2    0    0  0.00000000000E+00  0.00000000000E+00  0.34871539284E+03  0.17128604916E+04  0.16769879661E+04 0.  0.
        1    1    3    3  502    0 -0.36403116718E+03 -0.39246163116E+03 -0.48483714615E+03  0.72222702866E+03  0.50400001928E-02 0.  1.
       -1    1    3    3    0  502  0.36403116718E+03  0.39246163116E+03  0.83355253899E+03  0.99063346293E+03  0.50400001928E-02 0. -1.
</event>
<event>
 5   0  0.7049044E-04  0.1690944E+04  0.7818609E-02  0.8766546E-01
       -2   -1    0    0    0  501  0.00000000000E+00  0.00000000000E+00  0.10888339558E+04  0.10888339558E+04  0.25500000920E-02 0.  1.
        2   -1    0    0  501    0  0.00000000000E+00  0.00000000000E+00 -0.65650334872E+03  0.65650334872E+03  0.25500000920E-02 0. -1.
    10030    2    1    2    0    0  0.00000000000E+00  0.00000000000E+00  0.43233060709E+03  0.17453373045E+04  0.16909442784E+04 0.  0.
        4    1    3    3  502    0  0.69805158635E+03  0.44094491311E+03  0.28341798602E+02  0.82614363403E+03  0.12699999809E+01 0.  1.
       -4    1    3    3    0  502 -0.69805158635E+03 -0.44094491311E+03  0.40398880849E+03  0.91919367050E+03  0.12699999809E+01 0. -1.
</event>
<event>
 5   0  0.7242144E-04  0.1723150E+04  0.7818609E-02  0.8748270E-01
       -2   -1    0    0    0  501  0.00000000000E+00  0.00000000000E+00  0.60073594463E+03  0.60073594463E+03  0.25500000920E-02 0.  1.
        2   -1    0    0  501    0  0.00000000000E+00  0.00000000000E+00 -0.12356700184E+04  0.12356700184E+04  0.25500000920E-02 0. -1.
    10030    2    1    2    0    0  0.00000000000E+00  0.00000000000E+00 -0.63493407382E+03  0.18364059631E+04  0.17231499015E+04 0.  0.
        3    1    3    3  502    0  0.45527959870E+03 -0.11887317143E+03  0.45170457593E+03  0.65226327353E+03  0.10100000352E+00 0.  1.
       -3    1    3    3    0  502 -0.45527959870E+03  0.11887317143E+03 -0.10866386497E+04  0.11841426895E+04  0.10100000352E+00 0. -1.
</event>
<event>
 5   0  0.3915701E-04  0.1576435E+04  0.7818609E-02  0.8835157E-01
       -1   -1    0    0    0  501  0.00000000000E+00  0.00000000000E+00  0.41946808062E+03  0.41946808065E+03  0.50400001928E-02 0. -1.
        1   -1    0    0  501    0  0.00000000000E+00  0.00000000000E+00 -0.14811304452E+04  0.14811304452E+04  0.50400001928E-02 0.  1.
    10030    2    1    2    0    0  0.00000000000E+00  0.00000000000E+00 -0.10616623646E+04  0.19005985258E+04  0.15764351493E+04 0.  0.
        2    1    3    3  502    0 -0.86662964576E+02  0.96184565194E+02 -0.14682235499E+04  0.14739207348E+04  0.25500000920E-02 0.  1.
       -2    1    3    3    0  502  0.86662964576E+02 -0.96184565194E+02  0.40656118529E+03  0.42667779108E+03  0.25500000920E-02 0. -1.
</event>
<event>
 5   0  0.3915701E-04  0.1692153E+04  0.7818609E-02  0.8765852E-01
        1   -1    0    0  501    0  0.00000000000E+00  0.00000000000E+00  0.16630341546E+04  0.16630341546E+04  0.50400001928E-02 0. -1.
       -1   -1    0    0    0  501  0.00000000000E+00  0.00000000000E+00 -0.43044549894E+03  0.43044549897E+03  0.50400001928E-02 0.  1.
    10030    2    1    2    0    0  0.00000000000E+00  0.00000000000E+00  0.12325886556E+04  0.20934796536E+04  0.16921531449E+04 0.  0.
        2    1    3    3  502    0 -0.58974414798E+03  0.33503117880E+03  0.12420151908E+04  0.14151486795E+04  0.25500000920E-02 0. -1.
       -2    1    3    3    0  502  0.58974414798E+03 -0.33503117880E+03 -0.94265351430E+01  0.67833097409E+03  0.25500000920E-02 0.  1.
</event>
<event>
 5   0  0.6746664E-04  0.1659222E+04  0.7818609E-02  0.8784969E-01
       -2   -1    0    0    0  501  0.00000000000E+00  0.00000000000E+00  0.10212719663E+04  0.10212719663E+04  0.25500000920E-02 0.  1.
        2   -1    0    0  501    0  0.00000000000E+00  0.00000000000E+00 -0.67391907701E+03  0.67391907701E+03  0.25500000920E-02 0. -1.
    10030    2    1    2    0    0  0.00000000000E+00  0.00000000000E+00  0.34735288928E+03  0.16951910433E+04  0.16592223008E+04 0.  0.
        5    1    3    3  502    0  0.58646551293E+03 -0.53289403965E+03 -0.77238029667E+02  0.79618192555E+03  0.46999998093E+01 0. -1.
       -5    1    3    3    0  502 -0.58646551293E+03  0.53289403965E+03  0.42459091895E+03  0.89900911775E+03  0.46999998093E+01 0.  1.
</event>
<event>
 5   0  0.3723500E-04  0.1695314E+04  0.7818609E-02  0.8764042E-01
       -1   -1    0    0    0  501  0.00000000000E+00  0.00000000000E+00  0.10929673353E+04  0.10929673353E+04  0.50400001928E-02 0. -1.
        1   -1    0    0  501    0  0.00000000000E+00  0.00000000000E+00 -0.65740481242E+03  0.65740481244E+03  0.50400001928E-02 0.  1.
    10030    2    1    2    0    0  0.00000000000E+00  0.00000000000E+00  0.43556252286E+03  0.17503721477E+04  0.16953135239E+04 0.  0.
        1    1    3    3  502    0 -0.17649973030E+03  0.65458387156E+03 -0.30755554080E+03  0.74446128872E+03  0.50400001928E-02 0.  1.
       -1    1    3    3    0  502  0.17649973030E+03 -0.65458387156E+03  0.74311806366E+03  0.10059108590E+04  0.50400001928E-02 0. -1.
</event>
<event>
 5   0  0.7242144E-04  0.1689427E+04  0.7818609E-02  0.8767418E-01
       -2   -1    0    0    0  501  0.00000000000E+00  0.00000000000E+00  0.65160280239E+03  0.65160280239E+03  0.25500000920E-02 0.  1.
        2   -1    0    0  501    0  0.00000000000E+00  0.00000000000E+00 -0.10950546982E+04  0.10950546982E+04  0.25500000920E-02 0. -1.
    10030    2    1    2    0    0  0.00000000000E+00  0.00000000000E+00 -0.44345189583E+03  0.17466575006E+04  0.16894267787E+04 0.  0.
        3    1    3    3  502    0 -0.29004567532E+03 -0.57603383424E+03 -0.78573266920E+03  0.10165221639E+04  0.10100000352E+00 0. -1.
       -3    1    3    3    0  502  0.29004567532E+03  0.57603383424E+03  0.34228077338E+03  0.73013533676E+03  0.10100000352E+00 0.  1.
</event>
<event>
 5   0  0.2639750E-04  0.1625013E+04  0.7818609E-02  0.8805327E-01
       -4   -1    0    0    0  501  0.00000000000E+00  0.00000000000E+00  0.73247697823E+03  0.73247807922E+03  0.12699999809E+01 0.  1.
        4   -1    0    0  501    0  0.00000000000E+00  0.00000000000E+00 -0.90127755911E+03  0.90127845390E+03  0.12699999809E+01 0. -1.
    10030    2    1    2    0    0  0.00000000000E+00  0.00000000000E+00 -0.16880058088E+03  0.16337565331E+04  0.16250128533E+04 0.  0.
        5    1    3    3  502    0 -0.26488182110E+03 -0.17172011497E+03  0.66828977845E+03  0.73910993433E+03  0.46999998093E+01 0.  1.
       -5    1    3    3    0  502  0.26488182110E+03  0.17172011497E+03 -0.83709035934E+03  0.89464659879E+03  0.46999998093E+01 0. -1.
</event>
<event>
 5   0  0.3803253E-04  0.1676118E+04  0.7818609E-02  0.8775104E-01
       -1   -1    0    0    0  501  0.00000000000E+00  0.00000000000E+00  0.63995426198E+03  0.63995426200E+03  0.50400001928E-02 0. -1.
        1   -1    0    0  501    0  0.00000000000E+00  0.00000000000E+00 -0.10974890986E+04  0.10974890986E+04  0.50400001928E-02 0.  1.
    10030    2    1    2    0    0  0.00000000000E+00  0.00000000000E+00 -0.45753483663E+03  0.17374433606E+04  0.16761179268E+04 0.  0.
        4    1    3    3  502    0 -0.39464335362E+03  0.99947654624E+02  0.53056996066E+03  0.66875930369E+03  0.12699999809E+01 0. -1.
       -4    1    3    3    0  502  0.39464335362E+03 -0.99947654624E+02 -0.98810479729E+03  0.10686840569E+04  0.12699999809E+01 0.  1.
</event>
<event>
 5   0  0.3713516E-04  0.1793836E+04  0.7818609E-02  0.8709584E-01
        1   -1    0    0  501    0  0.00000000000E+00  0.00000000000E+00  0.20043256482E+04  0.20043256482E+04  0.50400001928E-02 0.  1.
       -1   -1    0    0    0  501  0.00000000000E+00  0.00000000000E+00 -0.40136308257E+03  0.40136308260E+03  0.50400001928E-02 0. -1.
    10030    2    1    2    0    0  0.00000000000E+00  0.00000000000E+00  0.16029625656E+04  0.24056887308E+04  0.17938364704E+04 0.  0.
        5    1    3    3  502    0 -0.43214057902E+03 -0.19271298714E+03 -0.22034910435E+03  0.52197662135E+03  0.46999998093E+01 0. -1.
       -5    1    3    3    0  502  0.43214057902E+03  0.19271298714E+03  0.18233116699E+04  0.18837121094E+04  0.46999998093E+01 0.  1.
</event>
<event>
 5   0  0.7049044E-04  0.1531869E+04  0.7818609E-02  0.8863533E-01
        2   -1    0    0  501    0  0.00000000000E+00  0.00000000000E+00  0.75281799200E+03  0.75281799200E+03  0.25500000920E-02 0. -1.
       -2   -1    0    0    0  501  0.00000000000E+00  0.00000000000E+00 -0.77927924424E+03  0.77927924425E+03  0.25500000920E-02 0.  1.
    10030    2    1    2    0    0  0.00000000000E+00  0.00000000000E+00 -0.26461252243E+02  0.15320972362E+04  0.15318687096E+04 0.  0.
        4    1    3    3  502    0 -0.19427955020E+03  0.55082212809E+03  0.48232715805E+03  0.75748970997E+03  0.12699999809E+01 0. -1.
       -4    1    3    3    0  502  0.19427955020E+03 -0.55082212809E+03 -0.50878841029E+03  0.77460752628E+03  0.12699999809E+01 0.  1.
</event>
<event>
 5   0  0.3713516E-04  0.1632037E+04  0.7818609E-02  0.8801105E-01
       -1   -1    0    0    0  501  0.00000000000E+00  0.00000000000E+00  0.35439784635E+03  0.35439784639E+03  0.50400001928E-02 0. -1.
        1   -1    0    0  501    0  0.00000000000E+00  0.00000000000E+00 -0.18789219781E+04  0.18789219782E+04  0.50400001928E-02 0.  1.
    10030    2    1    2    0    0  0.00000000000E+00  0.00000000000E+00 -0.15245241318E+04  0.22333198245E+04  0.16320366449E+04 0.  0.
        5    1    3    3  502    0  0.49708127686E+03 -0.37807130827E+03 -0.14809602856E+04  0.16072626318E+04  0.46999998093E+01 0.  1.
       -5    1    3    3    0  502 -0.49708127686E+03  0.37807130827E+03 -0.43563846194E+02  0.62605719278E+03  0.46999998093E+01 0. -1.
</event>
<event>
 5   0  0.7025426E-04  0.1695534E+04  0.7818609E-02  0.8763916E-01
        2   -1    0    0  501    0  0.00000000000E+00  0.00000000000E+00  0.10808898961E+04  0.10808898961E+04  0.25500000920E-02 0. -1.
       -2   -1    0    0    0  501  0.00000000000E+00  0.00000000000E+00 -0.66492294596E+03  0.66492294597E+03  0.25500000920E-02 0.  1.
    10030    2    1    2    0    0  0.00000000000E+00  0.00000000000E+00  0.41596695014E+03  0.17458128421E+04  0.16955335373E+04 0.  0.
        2    1    3    3  502    0 -0.78618223541E+03  0.23402621611E+03  0.42847784956E+03  0.92544262095E+03  0.25500000920E-02 0. -1.
       -2    1    3    3    0  502  0.78618223541E+03 -0.23402621611E+03 -0.12510899414E+02  0.82037022113E+03  0.25500000920E-02 0.  1.
</event>
<event>
 5   0  0.3915701E-04  0.1708860E+04  0.7818609E-02  0.8756327E-01
       -1   -1    0    0    0  501  0.00000000000E+00  0.00000000000E+00  0.12401021624E+04  0.12401021624E+04  0.50400001928E-02 0. -1.
        1   -1    0    0  501    0  0.00000000000E+00  0.00000000000E+00 -0.58870188371E+03  0.58870188374E+03  0.50400001928E-02 0.  1.
    10030    2    1    2    0    0  0.00000000000E+00  0.00000000000E+00  0.65140027870E+03  0.18288040462E+04  0.17088598293E+04 0.  0.
        2    1    3    3  502    0 -0.58136706679E+03 -0.57685758694E+03  0.58630424770E+03  0.10072263960E+04  0.25500000920E-02 0. -1.
       -2    1    3    3    0  502  0.58136706679E+03  0.57685758694E+03  0.65096030998E+02  0.82157765014E+03  0.25500000920E-02 0.  1.
</event>
<event>
 5   0  0.3723500E-04  0.1502022E+04  0.7818609E-02  0.8883109E-01
        1   -1    0    0  501    0  0.00000000000E+00  0.00000000000E+00  0.18371797592E+04  0.18371797592E+04  0.50400001928E-02 0. -1.
       -1   -1    0    0    0  501  0.00000000000E+00  0.00000000000E+00 -0.30700200599E+03  0.30700200603E+03  0.50400001928E-02 0.  1.
    10030    2    1    2    0    0  0.00000000000E+00  0.00000000000E+00  0.15301777532E+04  0.21441817652E+04  0.15020224652E+04 0.  0.
        1    1    3    3  502    0 -0.73774605486E+03 -0.41872602582E+01  0.96561030251E+03  0.12151913557E+04  0.50400001928E-02 0.  1.
       -1    1    3    3    0  502  0.73774605486E+03  0.41872602582E+01  0.56456745070E+03  0.92899040955E+03  0.50400001928E-02 0. -1.
</event>
<event>
 5   0  0.7025426E-04  0.1707576E+04  0.7818609E-02  0.8757055E-01
        2   -1    0    0  501    0  0.00000000000E+00  0.00000000000E+00  0.13558295721E+04  0.13558295721E+04  0.25500000920E-02 0. -1.
       -2   -1    0    0    0  501  0.00000000000E+00  0.00000000000E+00 -0.53764442142E+03  0.53764442143E+03  0.25500000920E-02 0.  1.
    10030    2    1    2    0    0  0.00000000000E+00  0.00000000000E+00  0.81818515072E+03  0.18934739936E+04  0.17075763009E+04 0.  0.
        2    1    3    3  502    0  0.59033791832E+03 -0.60679125552E+03  0.53187027904E+03  0.99979021765E+03  0.25500000920E-02 0. -1.
       -2    1    3    3    0  502 -0.59033791832E+03  0.60679125552E+03  0.28631487168E+03  0.89368377592E+03  0.25500000920E-02 0.  1.
</event>
<event>
 5   0  0.7049044E-04  0.1771809E+04  0.7818609E-02  0.8721436E-01
       -2   -1    0    0    0  501  0.00000000000E+00  0.00000000000E+00  0.32067648414E+03  0.32067648415E+03  0.25500000920E-02 0.  1.
        2   -1    0    0  501    0  0.00000000000E+00  0.00000000000E+00 -0.24474102532E+04  0.24474102532E+04  0.25500000920E-02 0. -1.
    10030    2    1    2    0    0  0.00000000000E+00  0.00000000000E+00 -0.21267337691E+04  0.27680867374E+04  0.17718091492E+04 0.  0.
        4    1    3    3  502    0 -0.13153204398E+03  0.10916426698E+03  0.29466812788E+03  0.34065882385E+03  0.12699999809E+01 0.  1.
       -4    1    3    3    0  502  0.13153204398E+03 -0.10916426698E+03 -0.24214018970E+04  0.24274279135E+04  0.12699999809E+01 0. -1.
</event>
<event>
 5   0  0.3915701E-04  0.1690339E+04  0.7818609E-02  0.8766894E-01
        1   -1    0    0  501    0  0.00000000000E+00  0.00000000000E+00  0.10538989433E+04  0.10538989433E+04  0.50400001928E-02 0. -1.
       -1   -1    0    0    0  501  0.00000000000E+00  0.00000000000E+00 -0.67777981677E+03  0.67777981679E+03  0.50400001928E-02 0.  1.
    10030    2    1    2    0    0  0.00000000000E+00  0.00000000000E+00  0.37611912650E+03  0.17316787601E+04  0.16903389396E+04 0.  0.
        2    1    3    3  502    0  0.21027451438E+03  0.22085758301E+03 -0.61945525015E+03  0.69044786213E+03  0.25500000920E-02 0.  1.
       -2    1    3    3    0  502 -0.21027451438E+03 -0.22085758301E+03  0.99557437665E+03  0.10412308979E+04  0.25500000920E-02 0. -1.
</event>
<event>
 5   0  0.3723500E-04  0.1668100E+04  0.7818609E-02  0.8779770E-01
        1   -1    0    0  501    0  0.00000000000E+00  0.00000000000E+00  0.79815272721E+03  0.79815272722E+03  0.50400001928E-02 0.  1.
       -1   -1    0    0    0  501  0.00000000000E+00  0.00000000000E+00 -0.87156201565E+03  0.87156201566E+03  0.50400001928E-02 0. -1.
    10030    2    1    2    0    0  0.00000000000E+00  0.00000000000E+00 -0.73409288441E+02  0.16697147429E+04  0.16681002365E+04 0.  0.
        1    1    3    3  502    0  0.12954231566E+03  0.17617902190E+03 -0.84235590799E+03  0.87027796424E+03  0.50400001928E-02 0. -1.
       -1    1    3    3    0  502 -0.12954231566E+03 -0.17617902190E+03  0.76894661955E+03  0.79943677864E+03  0.50400001928E-02 0.  1.
</event>
<event>
 5   0  0.3803253E-04  0.1507087E+04  0.7818609E-02  0.8879754E-01
        1   -1    0    0  501    0  0.00000000000E+00  0.00000000000E+00  0.58490039493E+03  0.58490039495E+03  0.50400001928E-02 0. -1.
       -1   -1    0    0    0  501  0.00000000000E+00  0.00000000000E+00 -0.97081108412E+03  0.97081108414E+03  0.50400001928E-02 0.  1.
    10030    2    1    2    0    0  0.00000000000E+00  0.00000000000E+00 -0.38591068920E+03  0.15557114791E+04  0.15070869736E+04 0.  0.
        4    1    3    3  502    0  0.31497487248E+03  0.68342501288E+03 -0.23355961410E+03  0.78792805812E+03  0.12699999809E+01 0. -1.
       -4    1    3    3    0  502 -0.31497487248E+03 -0.68342501288E+03 -0.15235107510E+03  0.76778342097E+03  0.12699999809E+01 0.  1.
</event>
<event>
 5   0  0.7049044E-04  0.1654590E+04  0.7818609E-02  0.8787696E-01
        2   -1    0    0  501    0  0.00000000000E+00  0.00000000000E+00  0.20122189209E+04  0.20122189209E+04  0.25500000920E-02 0.  1.
       -2   -1    0    0    0  501  0.00000000000E+00  0.00000000000E+00 -0.34013029061E+03  0.34013029062E+03  0.25500000920E-02 0. -1.
    10030    2    1    2    0    0  0.00000000000E+00  0.00000000000E+00  0.16720886303E+04  0.23523492115E+04  0.16545895036E+04 0.  0.
        4    1    3    3  502    0  0.79789480084E+03 -0.17587742996E+03  0.10205713718E+04  0.13073394821E+04  0.12699999809E+01 0.  1.
       -4    1    3    3    0  502 -0.79789480084E+03  0.17587742996E+03  0.65151725847E+03  0.10450097294E+04  0.12699999809E+01 0. -1.
</event>
<event>
 5   0  0.3635143E-04  0.1695130E+04  0.7818609E-02  0.8764147E-01
        1   -1    0    0  501    0  0.00000000000E+00  0.00000000000E+00  0.62990440087E+03  0.62990440089E+03  0.50400001928E-02 0.  1.
       -1   -1    0    0    0  501  0.00000000000E+00  0.00000000000E+00 -0.11404378658E+04  0.11404378658E+04  0.50400001928E-02 0. -1.
    10030    2    1    2    0    0  0.00000000000E+00  0.00000000000E+00 -0.51053346490E+03  0.17703422667E+04  0.16951304736E+04 0.  0.
        3    1    3    3  502    0 -0.35943152972E+03  0.26349221042E+03 -0.10081894038E+04  0.11022998928E+04  0.10100000352E+00 0. -1.
       -3    1    3    3    0  502  0.35943152972E+03 -0.26349221042E+03  0.49765593893E+03  0.66804237385E+03  0.10100000352E+00 0.  1.
</event>
<event>
 5   0  0.3723500E-04  0.1683968E+04  0.7818609E-02  0.8770561E-01
        1   -1    0    0  501    0  0.00000000000E+00  0.00000000000E+00  0.13689502060E+04  0.13689502061E+04  0.50400001928E-02 0.  1.
       -1   -1    0    0    0  501  0.00000000000E+00  0.00000000000E+00 -0.51786892535E+03  0.51786892537E+03  0.50400001928E-02 0. -1.
    10030    2    1    2    0    0  0.00000000000E+00  0.00000000000E+00  0.85108128070E+03  0.18868191314E+04  0.16839676625E+04 0.  0.
        1    1    3    3  502    0  0.71697620524E+03  0.41434534927E+03  0.59620344385E+03  0.10203898734E+04  0.50400001928E-02 0.  1.
       -1    1    3    3    0  502 -0.71697620524E+03 -0.41434534927E+03  0.25487783685E+03  0.86642925799E+03  0.50400001928E-02 0. -1.
</event>
<event>
 5   0  0.3723500E-04  0.1686436E+04  0.7818609E-02  0.8769138E-01
        1   -1    0    0  501    0  0.00000000000E+00  0.00000000000E+00  0.13090692833E+04  0.13090692833E+04  0.50400001928E-02 0. -1.
       -1   -1    0    0    0  501  0.00000000000E+00  0.00000000000E+00 -0.54314658822E+03  0.54314658824E+03  0.50400001928E-02 0.  1.
    10030    2    1    2    0    0  0.00000000000E+00  0.00000000000E+00  0.76592269511E+03  0.18522158716E+04  0.16864359045E+04 0.  0.
        1    1    3    3  502    0 -0.35007066584E+03  0.37104563668E+03 -0.35445022349E+03  0.62117573725E+03  0.50400001928E-02 0.  1.
       -1    1    3    3    0  502  0.35007066584E+03 -0.37104563668E+03  0.11203729186E+04  0.12310401343E+04  0.50400001928E-02 0. -1.
</event>
<event>
 5   0  0.7049044E-04  0.1777968E+04  0.7818609E-02  0.8718104E-01
        2   -1    0    0  501    0  0.00000000000E+00  0.00000000000E+00  0.83082973934E+03  0.83082973934E+03  0.25500000920E-02 0. -1.
       -2   -1    0    0    0  501  0.00000000000E+00  0.00000000000E+00 -0.95120854860E+03  0.95120854861E+03  0.25500000920E-02 0.  1.
    10030    2    1    2    0    0  0.00000000000E+00  0.00000000000E+00 -0.12037880927E+03  0.17820382879E+04  0.17779677730E+04 0.  0.
        4    1    3    3  502    0  0.40484721994E+03  0.51644484151E+03  0.54091205730E+03  0.85041402414E+03  0.12699999809E+01 0. -1.
       -4    1    3    3    0  502 -0.40484721994E+03 -0.51644484151E+03 -0.66129086656E+03  0.93162426381E+03  0.12699999809E+01 0.  1.
</event>
<event>
 5   0  0.7242144E-04  0.1708147E+04  0.7818609E-02  0.8756732E-01
        2   -1    0    0  501    0  0.00000000000E+00  0.00000000000E+00  0.75827152439E+03  0.75827152439E+03  0.25500000920E-02 0. -1.
       -2   -1    0    0    0  501  0.00000000000E+00  0.00000000000E+00 -0.96197879634E+03  0.96197879634E+03  0.25500000920E-02 0.  1.
    10030    2    1    2    0    0  0.00000000000E+00  0.00000000000E+00 -0.20370727195E+03  0.17202503207E+04  0.17081465140E+04 0.  0.
        3    1    3    3  502    0 -0.16470564768E+03  0.44552475759E+03  0.61297937522E+03  0.77547661774E+03  0.10100000352E+00 0. -1.
       -3    1    3    3    0  502  0.16470564768E+03 -0.44552475759E+03 -0.81668664717E+03  0.94477370300E+03  0.10100000352E+00 0.  1.
</event>
<event>
 5   0  0.6746664E-04  0.1731265E+04  0.7818609E-02  0.8743731E-01
       -2   -1    0    0    0  501  0.00000000000E+00  0.00000000000E+00  0.42052427647E+03  0.42052427648E+03  0.25500000920E-02 0.  1.
        2   -1    0    0  501    0  0.00000000000E+00  0.00000000000E+00 -0.17818704117E+04  0.17818704117E+04  0.25500000920E-02 0. -1.
    10030    2    1    2    0    0  0.00000000000E+00  0.00000000000E+00 -0.13613461352E+04  0.22023946881E+04  0.17312651624E+04 0.  0.
        5    1    3    3  502    0  0.83489307378E+03  0.18244593126E+03 -0.50548492817E+03  0.99290989777E+03  0.46999998093E+01 0.  1.
       -5    1    3    3    0  502 -0.83489307378E+03 -0.18244593126E+03 -0.85586120701E+03  0.12094847904E+04  0.46999998093E+01 0. -1.
</event>
<event>
 5   0  0.7242144E-04  0.1663211E+04  0.7818609E-02  0.8782629E-01
       -2   -1    0    0    0  501  0.00000000000E+00  0.00000000000E+00  0.33333833527E+03  0.33333833528E+03  0.25500000920E-02 0. -1.
        2   -1    0    0  501    0  0.00000000000E+00  0.00000000000E+00 -0.20746714256E+04  0.20746714256E+04  0.25500000920E-02 0.  1.
    10030    2    1    2    0    0  0.00000000000E+00  0.00000000000E+00 -0.17413330903E+04  0.24080097609E+04  0.16632107735E+04 0.  0.
        3    1    3    3  502    0 -0.15847736855E+03  0.47336396637E+03 -0.18336264374E+04  0.19003616612E+04  0.10100000352E+00 0.  1.
       -3    1    3    3    0  502  0.15847736855E+03 -0.47336396637E+03  0.92293347110E+02  0.50764809970E+03  0.10100000352E+00 0. -1.
</event>
<event>
 5   0  0.3713516E-04  0.1694425E+04  0.7818609E-02  0.8764551E-01
       -1   -1    0    0    0  501  0.00000000000E+00  0.00000000000E+00  0.36484902887E+03  0.36484902890E+03  0.50400001928E-02 0. -1.
        1   -1    0    0  501    0  0.00000000000E+00  0.00000000000E+00 -0.19673031021E+04  0.19673031021E+04  0.50400001928E-02 0.  1.
    10030    2    1    2    0    0  0.00000000000E+00  0.00000000000E+00 -0.16024540732E+04  0.23321521310E+04  0.16944245352E+04 0.  0.
        5    1    3    3  502    0  0.83449964733E+02 -0.52835276819E+03 -0.17054768761E+04  0.17873986710E+04  0.46999998093E+01 0.  1.
       -5    1    3    3    0  502 -0.83449964733E+02  0.52835276819E+03  0.10302280285E+03  0.54475346000E+03  0.46999998093E+01 0. -1.
</event>
<event>
 5   0  0.6746664E-04  0.1645417E+04  0.7818609E-02  0.8793122E-01
       -2   -1    0    0    0  501  0.00000000000E+00  0.00000000000E+00  0.58134780845E+03  0.58134780845E+03  0.25500000920E-02 0. -1.
        2   -1    0    0  501    0  0.00000000000E+00  0.00000000000E+00 -0.11642757751E+04  0.11642757751E+04  0.25500000920E-02 0.  1.
    10030    2    1    2    0    0  0.00000000000E+00  0.00000000000E+00 -0.58292796666E+03  0.17456235836E+04  0.16454168715E+04 0.  0.
        5    1    3    3  502    0 -0.32709669317E+03  0.74900064572E+03 -0.19175702137E+03  0.83951596722E+03  0.46999998093E+01 0.  1.
       -5    1    3    3    0  502  0.32709669317E+03 -0.74900064572E+03 -0.39117094529E+03  0.90610761635E+03  0.46999998093E+01 0. -1.
</event>
<event>
 5   0  0.7025426E-04  0.1701939E+04  0.7818609E-02  0.8760260E-01
       -2   -1    0    0    0  501  0.00000000000E+00  0.00000000000E+00  0.31910430109E+03  0.31910430110E+03  0.25500000920E-02 0. -1.
        2   -1    0    0  501    0  0.00000000000E+00  0.00000000000E+00 -0.22693166017E+04  0.22693166017E+04  0.25500000920E-02 0.  1.
    10030    2    1    2    0    0  0.00000000000E+00  0.00000000000E+00 -0.19502123006E+04  0.25884209028E+04  0.17019385278E+04 0.  0.
        2    1    3    3  502    0  0.55209215613E+03 -0.64745378297E+03 -0.99351668642E+03  0.13080816321E+04  0.25500000920E-02 0. -1.
       -2    1    3    3    0  502 -0.55209215613E+03  0.64745378297E+03 -0.95669561418E+03  0.12803392707E+04  0.25500000920E-02 0.  1.
</event>
<event>
 5   0  0.6746664E-04  0.1718843E+04  0.7818609E-02  0.8750690E-01
       -2   -1    0    0    0  501  0.00000000000E+00  0.00000000000E+00  0.11039567847E+04  0.11039567847E+04  0.25500000920E-02 0.  1.
        2   -1    0    0  501    0  0.00000000000E+00  0.00000000000E+00 -0.66905237779E+03  0.66905237780E+03  0.25500000920E-02 0. -1.
    10030    2    1    2    0    0  0.00000000000E+00  0.00000000000E+00  0.43490440692E+03  0.17730091625E+04  0.17188425312E+04 0.  0.
        5    1    3    3  502    0 -0.35482268763E+03 -0.25928450600E+03  0.97927583908E+03  0.10733735853E+04  0.46999998093E+01 0.  1.
       -5    1    3    3    0  502  0.35482268763E+03  0.25928450600E+03 -0.54437143216E+03  0.69963557718E+03  0.46999998093E+01 0. -1.
</event>
<event>
 5   0  0.3723500E-04  0.1612449E+04  0.7818609E-02  0.8812937E-01
       -1   -1    0    0    0  501  0.00000000000E+00  0.00000000000E+00  0.64299530220E+03  0.64299530222E+03  0.50400001928E-02 0. -1.
        1   -1    0    0  501    0  0.00000000000E+00  0.00000000000E+00 -0.10108903111E+04  0.10108903112E+04  0.50400001928E-02 0.  1.
    10030    2    1    2    0    0  0.00000000000E+00  0.00000000000E+00 -0.36789500895E+03  0.16538856134E+04  0.16124487231E+04 0.  0.
        1    1    3    3  502    0  0.95729826261E+01  0.65674517927E+03  0.29560541380E+03  0.72026969476E+03  0.50400001928E-02 0. -1.
       -1    1    3    3    0  502 -0.95729826261E+01 -0.65674517927E+03 -0.66350042275E+03  0.93361591862E+03  0.50400001928E-02 0.  1.
</event>
<event>
 5   0  0.7025426E-04  0.1707164E+04  0.7818609E-02  0.8757289E-01
        2   -1    0    0  501    0  0.00000000000E+00  0.00000000000E+00  0.19532222487E+04  0.19532222487E+04  0.25500000920E-02 0.  1.
       -2   -1    0    0    0  501  0.00000000000E+00  0.00000000000E+00 -0.37302593417E+03  0.37302593418E+03  0.25500000920E-02 0. -1.
    10030    2    1    2    0    0  0.00000000000E+00  0.00000000000E+00  0.15801963146E+04  0.23262481829E+04  0.17071643787E+04 0.  0.
        2    1    3    3  502    0 -0.13232455346E+03 -0.73589850220E+03  0.22901828829E+03  0.78198834350E+03  0.25500000920E-02 0. -1.
       -2    1    3    3    0  502  0.13232455346E+03  0.73589850220E+03  0.13511780263E+04  0.15442598394E+04  0.25500000920E-02 0.  1.
</event>
<event>
 5   0  0.3713516E-04  0.1700393E+04  0.7818609E-02  0.8761140E-01
        1   -1    0    0  501    0  0.00000000000E+00  0.00000000000E+00  0.79998740498E+03  0.79998740499E+03  0.50400001928E-02 0.  1.
       -1   -1    0    0    0  501  0.00000000000E+00  0.00000000000E+00 -0.90355663689E+03  0.90355663690E+03  0.50400001928E-02 0. -1.
    10030    2    1    2    0    0  0.00000000000E+00  0.00000000000E+00 -0.10356923191E+03  0.17035440419E+04  0.17003928125E+04 0.  0.
        5    1    3    3  502    0  0.27551535789E+03 -0.38706256862E+03 -0.75813427181E+03  0.89471549028E+03  0.46999998093E+01 0. -1.
       -5    1    3    3    0  502 -0.27551535789E+03  0.38706256862E+03  0.65456503989E+03  0.80882855162E+03  0.46999998093E+01 0.  1.
</event>
<event>
 5   0  0.3635143E-04  0.1707889E+04  0.7818609E-02  0.8756878E-01
        1   -1    0    0  501    0  0.00000000000E+00  0.00000000000E+00  0.45562743342E+03  0.45562743344E+03  0.50400001928E-02 0. -1.
       -1   -1    0    0    0  501  0.00000000000E+00  0.00000000000E+00 -0.16004770242E+04  0.16004770242E+04  0.50400001928E-02 0.  1.
    10030    2    1    2    0    0  0.00000000000E+00  0.00000000000E+00 -0.11448495908E+04  0.20561044577E+04  0.17078890348E+04 0.  0.
        3    1    3    3  502    0  0.50027929615E+03  0.62399466187E+03 -0.21211761915E+03  0.82743133053E+03  0.10100000352E+00 0. -1.
       -3    1    3    3    0  502 -0.50027929615E+03 -0.62399466187E+03 -0.93273197164E+03  0.12286731271E+04  0.10100000352E+00 0.  1.
</event>
<event>
 5   0  0.7049044E-04  0.1698072E+04  0.7818609E-02  0.8762465E-01
        2   -1    0    0  501    0  0.00000000000E+00  0.00000000000E+00  0.69956668588E+03  0.69956668588E+03  0.25500000920E-02 0.  1.
       -2   -1    0    0    0  501  0.00000000000E+00  0.00000000000E+00 -0.10304413213E+04  0.10304413213E+04  0.25500000920E-02 0. -1.
    10030    2    1    2    0    0  0.00000000000E+00  0.00000000000E+00 -0.33087463540E+03  0.17300080072E+04  0.16980723425E+04 0.  0.
        4    1    3    3  502    0  0.76599795992E+02 -0.67947404209E+03 -0.67820026942E+03  0.96307306107E+03  0.12699999809E+01 0. -1.
       -4    1    3    3    0  502 -0.76599795992E+02  0.67947404209E+03  0.34732563401E+03  0.76693494610E+03  0.12699999809E+01 0.  1.
</event>
<event>
 5   0  0.3635143E-04  0.1702053E+04  0.7818609E-02  0.8760194E-01
       -1   -1    0    0    0  501  0.00000000000E+00  0.00000000000E+00  0.11611187366E+04  0.11611187366E+04  0.50400001928E-02 0. -1.
        1   -1    0    0  501    0  0.00000000000E+00  0.00000000000E+00 -0.62374845726E+03  0.62374845728E+03  0.50400001928E-02 0.  1.
    10030    2    1    2    0    0  0.00000000000E+00  0.00000000000E+00  0.53737027932E+03  0.17848671939E+04  0.17020529024E+04 0.  0.
        3    1    3    3  502    0 -0.59258813907E+03  0.14755709113E+03  0.89024001382E+03  0.10795652320E+04  0.10100000352E+00 0. -1.
       -3    1    3    3    0  502  0.59258813907E+03 -0.14755709113E+03 -0.35286973450E+03  0.70530196188E+03  0.10100000352E+00 0.  1.
</event>
<event>
 5   0  0.3803253E-04  0.1250743E+04  0.7818609E-02  0.9069565E-01
       -1   -1    0    0    0  501  0.00000000000E+00  0.00000000000E+00  0.40075849541E+03  0.40075849545E+03  0.50400001928E-02 0. -1.
        1   -1    0    0  501    0  0.00000000000E+00  0.00000000000E+00 -0.97587298746E+03  0.97587298747E+03  0.50400001928E-02 0.  1.
    10030    2    1    2    0    0  0.00000000000E+00  0.00000000000E+00 -0.57511449204E+03  0.13766314829E+04  0.12507428036E+04 0.  0.
        4    1    3    3  502    0 -0.49548844963E+03 -0.31400040418E+03 -0.52612885611E+03  0.78798365698E+03  0.12699999809E+01 0.  1.
       -4    1    3    3    0  502  0.49548844963E+03  0.31400040418E+03 -0.48985635935E+02  0.58864782593E+03  0.12699999809E+01 0. -1.
</event>
<event>
 5   0  0.3635143E-04  0.1085879E+04  0.7818609E-02  0.9219066E-01
       -1   -1    0    0    0  501  0.00000000000E+00  0.00000000000E+00  0.48612938487E+03  0.48612938489E+03  0.50400001928E-02 0.  1.
        1   -1    0    0  501    0  0.00000000000E+00  0.00000000000E+00 -0.60638807804E+03  0.60638807806E+03  0.50400001928E-02 0. -1.
    10030    2    1    2    0    0  0.00000000000E+00  0.00000000000E+00 -0.12025869317E+03  0.10925174630E+04  0.10858785630E+04 0.  0.
        3    1    3    3  502    0  0.25192769049E+03  0.59442612080E+02 -0.54031247152E+03  0.59911481575E+03  0.10100000352E+00 0. -1.
       -3    1    3    3    0  502 -0.25192769049E+03 -0.59442612080E+02  0.42005377834E+03  0.49340264721E+03  0.10100000352E+00 0.  1.
</event>
<event>
 5   0  0.6746664E-04  0.1121334E+04  0.7818609E-02  0.9184645E-01
        2   -1    0    0  501    0  0.00000000000E+00  0.00000000000E+00  0.13760729482E+04  0.13760729482E+04  0.25500000920E-02 0.  1.
       -2   -1    0    0    0  501  0.00000000000E+00  0.00000000000E+00 -0.22843790570E+03  0.22843790571E+03  0.25500000920E-02 0. -1.
    10030    2    1    2    0    0  0.00000000000E+00  0.00000000000E+00  0.11476350425E+04  0.16045108539E+04  0.11213335318E+04 0.  0.
        5    1    3    3  502    0 -0.48421484670E+03 -0.11541729389E+03  0.94292184039E+03  0.10662592821E+04  0.46999998093E+01 0.  1.
       -5    1    3    3    0  502  0.48421484670E+03  0.11541729389E+03  0.20471320213E+03  0.53825157187E+03  0.46999998093E+01 0. -1.
</event>
<event>
 5   0  0.3803253E-04  0.1723783E+04  0.7818609E-02  0.8747915E-01
        1   -1    0    0  501    0  0.00000000000E+00  0.00000000000E+00  0.61007652106E+03  0.61007652109E+03  0.50400001928E-02 0.  1.
       -1   -1    0    0    0  501  0.00000000000E+00  0.00000000000E+00 -0.12176451690E+04  0.12176451690E+04  0.50400001928E-02 0. -1.
    10030    2    1    2    0    0  0.00000000000E+00  0.00000000000E+00 -0.60756864794E+03  0.18277216901E+04  0.17237827341E+04 0.  0.
        4    1    3    3  502    0  0.67484239180E+03  0.26421463221E+03 -0.79842565566E+03  0.10782888139E+04  0.12699999809E+01 0.  1.
       -4    1    3    3    0  502 -0.67484239180E+03 -0.26421463221E+03  0.19085700772E+03  0.74943287621E+03  0.12699999809E+01 0. -1.
</event>
<event>
 5   0  0.3713516E-04  0.1726897E+04  0.7818609E-02  0.8746171E-01
        1   -1    0    0  501    0  0.00000000000E+00  0.00000000000E+00  0.21239703547E+04  0.21239703547E+04  0.50400001928E-02 0. -1.
       -1   -1    0    0    0  501  0.00000000000E+00  0.00000000000E+00 -0.35101408325E+03  0.35101408329E+03  0.50400001928E-02 0.  1.
    10030    2    1    2    0    0  0.00000000000E+00  0.00000000000E+00  0.17729562714E+04  0.24749844379E+04  0.17268972256E+04 0.  0.
        5    1    3    3  502    0  0.66224204713E+03 -0.10716847876E+03  0.10743051866E+03  0.67942109046E+03  0.46999998093E+01 0.  1.
       -5    1    3    3    0  502 -0.66224204713E+03  0.10716847876E+03  0.16655257527E+04  0.17955633475E+04  0.46999998093E+01 0. -1.
</event>
<event>
 5   0  0.6746664E-04  0.1614457E+04  0.7818609E-02  0.8811715E-01
        2   -1    0    0  501    0  0.00000000000E+00  0.00000000000E+00  0.11927195041E+04  0.11927195041E+04  0.25500000920E-02 0. -1.
       -2   -1    0    0    0  501  0.00000000000E+00  0.00000000000E+00 -0.54632956385E+03  0.54632956386E+03  0.25500000920E-02 0.  1.
    10030    2    1    2    0    0  0.00000000000E+00  0.00000000000E+00  0.64638994025E+03  0.17390490680E+04  0.16144570933E+04 0.  0.
        5    1    3    3  502    0  0.34714146527E+03 -0.23521286833E+03 -0.41979150774E+03  0.59336269710E+03  0.46999998093E+01 0.  1.
       -5    1    3    3    0  502 -0.34714146527E+03  0.23521286833E+03  0.10661814480E+04  0.11456863709E+04  0.46999998093E+01 0. -1.
</event>
<event>
 5   0  0.3713516E-04  0.1805957E+04  0.7818609E-02  0.8703138E-01
       -1   -1    0    0    0  501  0.00000000000E+00  0.00000000000E+00  0.81283670139E+03  0.81283670141E+03  0.50400001928E-02 0. -1.
        1   -1    0    0  501    0  0.00000000000E+00  0.00000000000E+00 -0.10031164075E+04  0.10031164075E+04  0.50400001928E-02 0.  1.
    10030    2    1    2    0    0  0.00000000000E+00  0.00000000000E+00 -0.19027970614E+03  0.18159531090E+04  0.18059566239E+04 0.  0.
        5    1    3    3  502    0 -0.79775339841E+03  0.48892314586E+02  0.32736065794E+03  0.86370598786E+03  0.46999998093E+01 0. -1.
       -5    1    3    3    0  502  0.79775339841E+03 -0.48892314586E+02 -0.51764036407E+03  0.95224712109E+03  0.46999998093E+01 0.  1.
</event>
<event>
 5   0  0.7049044E-04  0.1717717E+04  0.7818609E-02  0.8751324E-01
       -2   -1    0    0    0  501  0.00000000000E+00  0.00000000000E+00  0.10275932773E+04  0.10275932773E+04  0.25500000920E-02 0. -1.
        2   -1    0    0  501    0  0.00000000000E+00  0.00000000000E+00 -0.71783066637E+03  0.71783066637E+03  0.25500000920E-02 0.  1.
    10030    2    1    2    0    0  0.00000000000E+00  0.00000000000E+00  0.30976261093E+03  0.17454239437E+04  0.17177170512E+04 0.  0.
        4    1    3    3  502    0 -0.52955919352E+03 -0.42130075648E+02  0.84062116035E+03  0.99441109751E+03  0.12699999809E+01 0. -1.
       -4    1    3    3    0  502  0.52955919352E+03  0.42130075648E+02 -0.53085854942E+03  0.75101284617E+03  0.12699999809E+01 0.  1.
</event>
<event>
 5   0  0.3803253E-04  0.1697561E+04  0.7818609E-02  0.8762757E-01
        1   -1    0    0  501    0  0.00000000000E+00  0.00000000000E+00  0.19618823921E+04  0.19618823921E+04  0.50400001928E-02 0. -1.
       -1   -1    0    0    0  501  0.00000000000E+00  0.00000000000E+00 -0.36721279926E+03  0.36721279930E+03  0.50400001928E-02 0.  1.
    10030    2    1    2    0    0  0.00000000000E+00  0.00000000000E+00  0.15946695928E+04  0.23290951914E+04  0.16975609857E+04 0.  0.
        4    1    3    3  502    0 -0.13733277848E+03  0.98773062435E+02  0.19385179866E+04  0.19458854045E+04  0.12699999809E+01 0. -1.
       -4    1    3    3    0  502  0.13733277848E+03 -0.98773062435E+02 -0.34384839385E+03  0.38320978688E+03  0.12699999809E+01 0.  1.
</event>
<event>
 5   0  0.3915701E-04  0.1664855E+04  0.7818609E-02  0.8781666E-01
       -1   -1    0    0    0  501  0.00000000000E+00  0.00000000000E+00  0.86071797458E+03  0.86071797460E+03  0.50400001928E-02 0.  1.
        1   -1    0    0  501    0  0.00000000000E+00  0.00000000000E+00 -0.80506720270E+03  0.80506720271E+03  0.50400001928E-02 0. -1.
    10030    2    1    2    0    0  0.00000000000E+00  0.00000000000E+00  0.55650771885E+02  0.16657851773E+04  0.16648553236E+04 0.  0.
        2    1    3    3  502    0  0.80676025693E+03 -0.15097476122E+03  0.16675653551E+03  0.83753401891E+03  0.25500000920E-02 0.  1.
       -2    1    3    3    0  502 -0.80676025693E+03  0.15097476122E+03 -0.11110576363E+03  0.82825115841E+03  0.25500000920E-02 0. -1.
</event>
<event>
 5   0  0.3635143E-04  0.1641144E+04  0.7818609E-02  0.8795663E-01
       -1   -1    0    0    0  501  0.00000000000E+00  0.00000000000E+00  0.54782024364E+03  0.54782024366E+03  0.50400001928E-02 0.  1.
        1   -1    0    0  501    0  0.00000000000E+00  0.00000000000E+00 -0.12291235024E+04  0.12291235024E+04  0.50400001928E-02 0. -1.
    10030    2    1    2    0    0  0.00000000000E+00  0.00000000000E+00 -0.68130325872E+03  0.17769437460E+04  0.16411444014E+04 0.  0.
        3    1    3    3  502    0 -0.70402204659E+03 -0.29804956069E+03 -0.17894754464E+02  0.76472270474E+03  0.10100000352E+00 0.  1.
       -3    1    3    3    0  502  0.70402204659E+03  0.29804956069E+03 -0.66340850425E+03  0.10122210413E+04  0.10100000352E+00 0. -1.
</event>
<event>
 5   0  0.7242144E-04  0.1835496E+04  0.7818609E-02  0.8687648E-01
        2   -1    0    0  501    0  0.00000000000E+00  0.00000000000E+00  0.17556861237E+04  0.17556861237E+04  0.25500000920E-02 0.  1.
       -2   -1    0    0    0  501  0.00000000000E+00  0.00000000000E+00 -0.47973340528E+03  0.47973340528E+03  0.25500000920E-02 0. -1.
    10030    2    1    2    0    0  0.00000000000E+00  0.00000000000E+00  0.12759527185E+04  0.22354195290E+04  0.18354958815E+04 0.  0.
        3    1    3    3  502    0  0.81275780025E+03  0.31183161518E+03  0.28406220603E+03  0.91569948411E+03  0.10100000352E+00 0. -1.
       -3    1    3    3    0  502 -0.81275780025E+03 -0.31183161518E+03  0.99189051242E+03  0.13197200449E+04  0.10100000352E+00 0.  1.
</event>
<event>
 5   0  0.3915701E-04  0.1749097E+04  0.7818609E-02  0.8733848E-01
       -1   -1    0    0    0  501  0.00000000000E+00  0.00000000000E+00  0.88007003555E+03  0.88007003556E+03  0.50400001928E-02 0.  1.
        1   -1    0    0  501    0  0.00000000000E+00  0.00000000000E+00 -0.86906135135E+03  0.86906135136E+03  0.50400001928E-02 0. -1.
    10030    2    1    2    0    0  0.00000000000E+00  0.00000000000E+00  0.11008684199E+02  0.17491313869E+04  0.17490967434E+04 0.  0.
        2    1    3    3  502    0  0.58283938210E+03 -0.59434696484E+03  0.27362305100E+03  0.87625317916E+03  0.25500000920E-02 0. -1.
       -2    1    3    3    0  502 -0.58283938210E+03  0.59434696484E+03 -0.26261436680E+03  0.87287820777E+03  0.25500000920E-02 0.  1.
</event>
<event>
 5   0  0.3915701E-04  0.1690190E+04  0.7818609E-02  0.8766979E-01
        1   -1    0    0  501    0  0.00000000000E+00  0.00000000000E+00  0.87562449204E+03  0.87562449206E+03  0.50400001928E-02 0.  1.
       -1   -1    0    0    0  501  0.00000000000E+00  0.00000000000E+00 -0.81562985875E+03  0.81562985877E+03  0.50400001928E-02 0. -1.
    10030    2    1    2    0    0  0.00000000000E+00  0.00000000000E+00  0.59994633291E+02  0.16912543508E+04  0.16901899074E+04 0.  0.
        2    1    3    3  502    0  0.72854683058E+03 -0.33685816381E+03 -0.23461501167E+03  0.83624046217E+03  0.25500000920E-02 0.  1.
       -2    1    3    3    0  502 -0.72854683058E+03  0.33685816381E+03  0.29460964496E+03  0.85501388865E+03  0.25500000920E-02 0. -1.
</event>
<event>
 5   0  0.6746664E-04  0.1704600E+04  0.7818609E-02  0.8758745E-01
        2   -1    0    0  501    0  0.00000000000E+00  0.00000000000E+00  0.12039737138E+04  0.12039737138E+04  0.25500000920E-02 0.  1.
       -2   -1    0    0    0  501  0.00000000000E+00  0.00000000000E+00 -0.60334783361E+03  0.60334783362E+03  0.25500000920E-02 0. -1.
    10030    2    1    2    0    0  0.00000000000E+00  0.00000000000E+00  0.60062588020E+03  0.18073215474E+04  0.17045995799E+04 0.  0.
        5    1    3    3  502    0 -0.43599921881E+03  0.31169359399E+03 -0.40230111938E+03  0.67016154470E+03  0.46999998093E+01 0. -1.
       -5    1    3    3    0  502  0.43599921881E+03 -0.31169359399E+03  0.10029269996E+04  0.11371600027E+04  0.46999998093E+01 0.  1.
</event>
<event>
 5   0  0.7049044E-04  0.1693646E+04  0.7818609E-02  0.8764997E-01
       -2   -1    0    0    0  501  0.00000000000E+00  0.00000000000E+00  0.44084916686E+03  0.44084916687E+03  0.25500000920E-02 0.  1.
        2   -1    0    0  501    0  0.00000000000E+00  0.00000000000E+00 -0.16266533597E+04  0.16266533597E+04  0.25500000920E-02 0. -1.
    10030    2    1    2    0    0  0.00000000000E+00  0.00000000000E+00 -0.11858041929E+04  0.20675025266E+04  0.16936455100E+04 0.  0.
        4    1    3    3  502    0  0.32969968570E+03  0.39261134864E+03  0.22986431268E+03  0.56185831753E+03  0.12699999809E+01 0.  1.
       -4    1    3    3    0  502 -0.32969968570E+03 -0.39261134864E+03 -0.14156685055E+04  0.15056442091E+04  0.12699999809E+01 0. -1.
</event>
<event>
 5   0  0.3915701E-04  0.1869475E+04  0.7818609E-02  0.8670202E-01
       -1   -1    0    0    0  501  0.00000000000E+00  0.00000000000E+00  0.52135340161E+03  0.52135340163E+03  0.50400001928E-02 0.  1.
        1   -1    0    0  501    0  0.00000000000E+00  0.00000000000E+00 -0.16758957595E+04  0.16758957595E+04  0.50400001928E-02 0. -1.
    10030    2    1    2    0    0  0.00000000000E+00  0.00000000000E+00 -0.11545423579E+04  0.21972491611E+04  0.18694747444E+04 0.  0.
        2    1    3    3  502    0 -0.58221052108E+03 -0.21595457843E+03 -0.13984292776E+04  0.15301012762E+04  0.25500000920E-02 0. -1.
       -2    1    3    3    0  502  0.58221052108E+03  0.21595457843E+03  0.24388691974E+03  0.66714788497E+03  0.25500000920E-02 0.  1.
</event>
<event>
 5   0  0.3635143E-04  0.1723314E+04  0.7818609E-02  0.8748178E-01
        1   -1    0    0  501    0  0.00000000000E+00  0.00000000000E+00  0.12037954433E+04  0.12037954433E+04  0.50400001928E-02 0. -1.
       -1   -1    0    0    0  501  0.00000000000E+00  0.00000000000E+00 -0.61675982770E+03  0.61675982772E+03  0.50400001928E-02 0.  1.
    10030    2    1    2    0    0  0.00000000000E+00  0.00000000000E+00  0.58703561557E+03  0.18205552710E+04  0.17233138660E+04 0.  0.
        3    1    3    3  502    0  0.39990033426E+03  0.65835440707E+03  0.70144345638E+03  0.10418127161E+04  0.10100000352E+00 0. -1.
       -3    1    3    3    0  502 -0.39990033426E+03 -0.65835440707E+03 -0.11440784081E+03  0.77874255495E+03  0.10100000352E+00 0.  1.
</event>
<event>
 5   0  0.3635143E-04  0.1712696E+04  0.7818609E-02  0.8754156E-01
       -1   -1    0    0    0  501  0.00000000000E+00  0.00000000000E+00  0.69583552658E+03  0.69583552660E+03  0.50400001928E-02 0. -1.
        1   -1    0    0  501    0  0.00000000000E+00  0.00000000000E+00 -0.10538874190E+04  0.10538874190E+04  0.50400001928E-02 0.  1.
    10030    2    1    2    0    0  0.00000000000E+00  0.00000000000E+00 -0.35805189245E+03  0.17497229456E+04  0.17126964789E+04 0.  0.
        3    1    3    3  502    0 -0.24171821049E+03 -0.67995571889E+03 -0.65004077612E+03  0.97124687580E+03  0.10100000352E+00 0.  1.
       -3    1    3    3    0  502  0.24171821049E+03  0.67995571889E+03  0.29198888367E+03  0.77847606985E+03  0.10100000352E+00 0. -1.
</event>
<event>
 5   0  0.7025426E-04  0.1690237E+04  0.7818609E-02  0.8766952E-01
       -2   -1    0    0    0  501  0.00000000000E+00  0.00000000000E+00  0.71578548678E+03  0.71578548678E+03  0.25500000920E-02 0. -1.
        2   -1    0    0  501    0  0.00000000000E+00  0.00000000000E+00 -0.99782016765E+03  0.99782016765E+03  0.25500000920E-02 0.  1.
    10030    2    1    2    0    0  0.00000000000E+00  0.00000000000E+00 -0.28203468087E+03  0.17136056544E+04  0.16902368999E+04 0.  0.
        2    1    3    3  502    0 -0.16955029634E+03 -0.13214128743E+03  0.68760554932E+03  0.72042349649E+03  0.25500000920E-02 0. -1.
       -2    1    3    3    0  502  0.16955029634E+03  0.13214128743E+03 -0.96964023020E+03  0.99318215794E+03  0.25500000920E-02 0.  1.
</event>
<event>
 5   0  0.3723500E-04  0.1688621E+04  0.7818609E-02  0.8767881E-01
        1   -1    0    0  501    0  0.00000000000E+00  0.00000000000E+00  0.97187173154E+03  0.97187173155E+03  0.50400001928E-02 0.  1.
       -1   -1    0    0    0  501  0.00000000000E+00  0.00000000000E+00 -0.73349181752E+03  0.73349181754E+03  0.50400001928E-02 0. -1.
    10030    2    1    2    0    0  0.00000000000E+00  0.00000000000E+00  0.23837991402E+03  0.17053635491E+04  0.16886206949E+04 0.  0.
        1    1    3    3  502    0  0.47735252592E+03 -0.66182094356E+03  0.33810537497E+03  0.88328231045E+03  0.50400001928E-02 0.  1.
       -1    1    3    3    0  502 -0.47735252592E+03  0.66182094356E+03 -0.99725460955E+02  0.82208123864E+03  0.50400001928E-02 0. -1.
</event>
<event>
 5   0  0.6746664E-04  0.1714882E+04  0.7818609E-02  0.8752922E-01
       -2   -1    0    0    0  501  0.00000000000E+00  0.00000000000E+00  0.28589170308E+04  0.28589170308E+04  0.25500000920E-02 0. -1.
        2   -1    0    0  501    0  0.00000000000E+00  0.00000000000E+00 -0.25716200912E+03  0.25716200913E+03  0.25500000920E-02 0.  1.
    10030    2    1    2    0    0  0.00000000000E+00  0.00000000000E+00  0.26017550217E+04  0.31160790400E+04  0.17148817424E+04 0.  0.
        5    1    3    3  502    0 -0.27071725478E+03 -0.77201485742E+03  0.17672977669E+04  0.19474748417E+04  0.46999998093E+01 0. -1.
       -5    1    3    3    0  502  0.27071725478E+03  0.77201485742E+03  0.83445725476E+03  0.11686041982E+04  0.46999998093E+01 0.  1.
</event>
<event>
 5   0  0.3635143E-04  0.1707622E+04  0.7818609E-02  0.8757029E-01
       -1   -1    0    0    0  501  0.00000000000E+00  0.00000000000E+00  0.16359692444E+04  0.16359692444E+04  0.50400001928E-02 0.  1.
        1   -1    0    0  501    0  0.00000000000E+00  0.00000000000E+00 -0.44560325344E+03  0.44560325347E+03  0.50400001928E-02 0. -1.
    10030    2    1    2    0    0  0.00000000000E+00  0.00000000000E+00  0.11903659910E+04  0.20815724979E+04  0.17076219931E+04 0.  0.
        3    1    3    3  502    0 -0.30562882537E+03 -0.69136901848E+03  0.10790972480E+04  0.13175169750E+04  0.10100000352E+00 0.  1.
       -3    1    3    3    0  502  0.30562882537E+03  0.69136901848E+03  0.11126874292E+03  0.76405552283E+03  0.10100000352E+00 0. -1.
</event>
<event>
 5   0  0.7025426E-04  0.1696552E+04  0.7818609E-02  0.8763333E-01
        2   -1    0    0  501    0  0.00000000000E+00  0.00000000000E+00  0.23701857478E+04  0.23701857478E+04  0.25500000920E-02 0. -1.
       -2   -1    0    0    0  501  0.00000000000E+00  0.00000000000E+00 -0.30359319685E+03  0.30359319686E+03  0.25500000920E-02 0.  1.
    10030    2    1    2    0    0  0.00000000000E+00  0.00000000000E+00  0.20665925509E+04  0.26737789446E+04  0.16965521133E+04 0.  0.
        2    1    3    3  502    0 -0.41758028685E+03 -0.81410205771E+02  0.21898875676E+04  0.22308313420E+04  0.25500000920E-02 0. -1.
       -2    1    3    3    0  502  0.41758028685E+03  0.81410205771E+02 -0.12329501667E+03  0.44294760267E+03  0.25500000920E-02 0.  1.
</event>
<event>
 5   0  0.2639750E-04  0.1831683E+04  0.7818609E-02  0.8689630E-01
        3   -1    0    0  501    0  0.00000000000E+00  0.00000000000E+00  0.15586053546E+04  0.15586053579E+04  0.10100000352E+00 0.  1.
       -3   -1    0    0    0  501  0.00000000000E+00  0.00000000000E+00 -0.53815160476E+03  0.53815161424E+03  0.10100000352E+00 0. -1.
    10030    2    1    2    0    0  0.00000000000E+00  0.00000000000E+00  0.10204537498E+04  0.20967569721E+04  0.18316833636E+04 0.  0.
        1    1    3    3  502    0 -0.87309753314E+03 -0.14415008472E+03  0.78035904606E+03  0.11798469350E+04  0.50400001928E-02 0.  1.
       -1    1    3    3    0  502  0.87309753314E+03  0.14415008472E+03  0.24009470378E+03  0.91691003709E+03  0.50400001928E-02 0. -1.
</event>
<event>
 5   0  0.6746664E-04  0.1521704E+04  0.7818609E-02  0.8870147E-01
       -2   -1    0    0    0  501  0.00000000000E+00  0.00000000000E+00  0.47399324097E+03  0.47399324097E+03  0.25500000920E-02 0.  1.
        2   -1    0    0  501    0  0.00000000000E+00  0.00000000000E+00 -0.12213164611E+04  0.12213164611E+04  0.25500000920E-02 0. -1.
    10030    2    1    2    0    0  0.00000000000E+00  0.00000000000E+00 -0.74732322017E+03  0.16953097021E+04  0.15217039760E+04 0.  0.
        5    1    3    3  502    0 -0.41502820278E+03 -0.44301395669E+03  0.13731904781E+03  0.62240532277E+03  0.46999998093E+01 0.  1.
       -5    1    3    3    0  502  0.41502820278E+03  0.44301395669E+03 -0.88464226798E+03  0.10729043793E+04  0.46999998093E+01 0. -1.
</event>
<event>
 5   0  0.3723500E-04  0.1624828E+04  0.7818609E-02  0.8805439E-01
        1   -1    0    0  501    0  0.00000000000E+00  0.00000000000E+00  0.98530138757E+03  0.98530138758E+03  0.50400001928E-02 0.  1.
       -1   -1    0    0    0  501  0.00000000000E+00  0.00000000000E+00 -0.66986232873E+03  0.66986232875E+03  0.50400001928E-02 0. -1.
    10030    2    1    2    0    0  0.00000000000E+00  0.00000000000E+00  0.31543905884E+03  0.16551637163E+04  0.16248277226E+04 0.  0.
        1    1    3    3  502    0  0.52809447166E+03 -0.63306849394E+02 -0.46785082128E+03  0.70836143259E+03  0.50400001928E-02 0. -1.
       -1    1    3    3    0  502 -0.52809447166E+03  0.63306849394E+02  0.78328988012E+03  0.94680228374E+03  0.50400001928E-02 0.  1.
</event>
<event>
 5   0  0.3915701E-04  0.1761665E+04  0.7818609E-02  0.8726956E-01
       -1   -1    0    0    0  501  0.00000000000E+00  0.00000000000E+00  0.12118995691E+04  0.12118995691E+04  0.50400001928E-02 0. -1.
        1   -1    0    0  501    0  0.00000000000E+00  0.00000000000E+00 -0.64020620896E+03  0.64020620898E+03  0.50400001928E-02 0.  1.
    10030    2    1    2    0    0  0.00000000000E+00  0.00000000000E+00  0.57169336014E+03  0.18521057781E+04  0.17616647000E+04 0.  0.
        2    1    3    3  502    0 -0.16883579152E+03 -0.67858616807E+03  0.84895684183E+03  0.10998692792E+04  0.25500000920E-02 0. -1.
       -2    1    3    3    0  502  0.16883579152E+03  0.67858616807E+03 -0.27726348169E+03  0.75223649891E+03  0.25500000920E-02 0.  1.
</event>
<event>
 5   0  0.7242144E-04  0.1757727E+04  0.7818609E-02  0.8729109E-01
       -2   -1    0    0    0  501  0.00000000000E+00  0.00000000000E+00  0.10086418284E+04  0.10086418285E+04  0.25500000920E-02 0.  1.
        2   -1    0    0  501    0  0.00000000000E+00  0.00000000000E+00 -0.76578304446E+03  0.76578304446E+03  0.25500000920E-02 0. -1.
    10030    2    1    2    0    0  0.00000000000E+00  0.00000000000E+00  0.24285878399E+03  0.17744248729E+04  0.17577267252E+04 0.  0.
        3    1    3    3  502    0  0.65214756523E+03  0.35571394303E+03  0.59554188128E+03  0.95210240975E+03  0.10100000352E+00 0.  1.
       -3    1    3    3    0  502 -0.65214756523E+03 -0.35571394303E+03 -0.35268309729E+03  0.82232246316E+03  0.10100000352E+00 0. -1.
</event>
<event>
 5   0  0.3713516E-04  0.1738857E+04  0.7818609E-02  0.8739508E-01
        1   -1    0    0  501    0  0.00000000000E+00  0.00000000000E+00  0.12006851987E+04  0.12006851987E+04  0.50400001928E-02 0. -1.
       -1   -1    0    0    0  501  0.00000000000E+00  0.00000000000E+00 -0.62956227349E+03  0.62956227351E+03  0.50400001928E-02 0.  1.
    10030    2    1    2    0    0  0.00000000000E+00  0.00000000000E+00  0.57112292516E+03  0.18302474722E+04  0.17388572149E+04 0.  0.
        5    1    3    3  502    0  0.16479902754E+03  0.11672363953E+03 -0.60451958162E+03  0.63737676617E+03  0.46999998093E+01 0.  1.
       -5    1    3    3    0  502 -0.16479902754E+03 -0.11672363953E+03  0.11756425068E+04  0.11928707060E+04  0.46999998093E+01 0. -1.
</event>
<event>
 5   0  0.7233728E-04  0.1693235E+04  0.7818609E-02  0.8765232E-01
        2   -1    0    0  501    0  0.00000000000E+00  0.00000000000E+00  0.94817186643E+03  0.94817186644E+03  0.25500000920E-02 0. -1.
       -2   -1    0    0    0  501  0.00000000000E+00  0.00000000000E+00 -0.75594024190E+03  0.75594024190E+03  0.25500000920E-02 0.  1.
    10030    2    1    2    0    0  0.00000000000E+00  0.00000000000E+00  0.19223162453E+03  0.17041121083E+04  0.16932350930E+04 0.  0.
        1    1    3    3  502    0 -0.76152515495E+03  0.29683815000E+03 -0.12604599395E+03  0.82699518833E+03  0.50400001928E-02 0. -1.
       -1    1    3    3    0  502  0.76152515495E+03 -0.29683815000E+03  0.31827761848E+03  0.87711692001E+03  0.50400001928E-02 0.  1.
</event>
<event>
 5   0  0.3723500E-04  0.1512499E+04  0.7818609E-02  0.8876184E-01
       -1   -1    0    0    0  501  0.00000000000E+00  0.00000000000E+00  0.24607509550E+03  0.24607509555E+03  0.50400001928E-02 0. -1.
        1   -1    0    0  501    0  0.00000000000E+00  0.00000000000E+00 -0.23241401469E+04  0.23241401469E+04  0.50400001928E-02 0.  1.
    10030    2    1    2    0    0  0.00000000000E+00  0.00000000000E+00 -0.20780650514E+04  0.25702152424E+04  0.15124986065E+04 0.  0.
        1    1    3    3  502    0 -0.46774315635E+03 -0.12475576564E+03 -0.51722742348E+02  0.48684998046E+03  0.50400001928E-02 0. -1.
       -1    1    3    3    0  502  0.46774315635E+03  0.12475576564E+03 -0.20263423090E+04  0.20833652620E+04  0.50400001928E-02 0.  1.
</event>
<event>
 5   0  0.7025426E-04  0.1618583E+04  0.7818609E-02  0.8809213E-01
       -2   -1    0    0    0  501  0.00000000000E+00  0.00000000000E+00  0.87570341346E+03  0.87570341346E+03  0.25500000920E-02 0. -1.
        2   -1    0    0  501    0  0.00000000000E+00  0.00000000000E+00 -0.74791600239E+03  0.74791600240E+03  0.25500000920E-02 0.  1.
    10030    2    1    2    0    0  0.00000000000E+00  0.00000000000E+00  0.12778741107E+03  0.16236194159E+04  0.16185828323E+04 0.  0.
        2    1    3    3  502    0  0.15261861343E+03 -0.38871179961E+03 -0.63149014969E+03  0.75707933104E+03  0.25500000920E-02 0.  1.
       -2    1    3    3    0  502 -0.15261861343E+03  0.38871179961E+03  0.75927756076E+03  0.86654008482E+03  0.25500000920E-02 0. -1.
</event>
<event>
 5   0  0.3635143E-04  0.1757692E+04  0.7818609E-02  0.8729127E-01
       -1   -1    0    0    0  501  0.00000000000E+00  0.00000000000E+00  0.92461901996E+03  0.92461901998E+03  0.50400001928E-02 0.  1.
        1   -1    0    0  501    0  0.00000000000E+00  0.00000000000E+00 -0.83533931156E+03  0.83533931158E+03  0.50400001928E-02 0. -1.
    10030    2    1    2    0    0  0.00000000000E+00  0.00000000000E+00  0.89279708400E+02  0.17599583316E+04  0.17576923686E+04 0.  0.
        3    1    3    3  502    0 -0.80020823888E+03 -0.27598379590E+03 -0.19203390799E+03  0.86797310626E+03  0.10100000352E+00 0. -1.
       -3    1    3    3    0  502  0.80020823888E+03  0.27598379590E+03  0.28131361640E+03  0.89198522529E+03  0.10100000352E+00 0.  1.
</event>
<event>
 5   0  0.7049044E-04  0.1203093E+04  0.7818609E-02  0.9110154E-01
        2   -1    0    0  501    0  0.00000000000E+00  0.00000000000E+00  0.10958388700E+04  0.10958388700E+04  0.25500000920E-02 0.  1.
       -2   -1    0    0    0  501  0.00000000000E+00  0.00000000000E+00 -0.33021100572E+03  0.33021100573E+03  0.25500000920E-02 0. -1.
    10030    2    1    2    0    0  0.00000000000E+00  0.00000000000E+00  0.76562786426E+03  0.14260498757E+04  0.12030927734E+04 0.  0.
        4    1    3    3  502    0 -0.17433890245E+03  0.15184536233E+01  0.10652330970E+04  0.10794070235E+04  0.12699999809E+01 0.  1.
       -4    1    3    3    0  502  0.17433890245E+03 -0.15184536233E+01 -0.29960523272E+03  0.34664285220E+03  0.12699999809E+01 0. -1.
</event>
<event>
 5   0  0.7233728E-04  0.1610912E+04  0.7818609E-02  0.8813872E-01
        2   -1    0    0  501    0  0.00000000000E+00  0.00000000000E+00  0.13170694336E+04  0.13170694336E+04  0.25500000920E-02 0.  1.
       -2   -1    0    0    0  501  0.00000000000E+00  0.00000000000E+00 -0.49257808345E+03  0.49257808346E+03  0.25500000920E-02 0. -1.
    10030    2    1    2    0    0  0.00000000000E+00  0.00000000000E+00  0.82449135012E+03  0.18096475170E+04  0.16109122104E+04 0.  0.
        1    1    3    3  502    0  0.37568756256E+03  0.65747823803E+02  0.12092004770E+04  0.12679233867E+04  0.50400001928E-02 0.  1.
       -1    1    3    3    0  502 -0.37568756256E+03 -0.65747823803E+02 -0.38470912690E+03  0.54172413029E+03  0.50400001928E-02 0. -1.
</event>
<event>
 5   0  0.3635143E-04  0.1480091E+04  0.7818609E-02  0.8897801E-01
       -1   -1    0    0    0  501  0.00000000000E+00  0.00000000000E+00  0.49298212935E+03  0.49298212937E+03  0.50400001928E-02 0.  1.
        1   -1    0    0  501    0  0.00000000000E+00  0.00000000000E+00 -0.11109280352E+04  0.11109280352E+04  0.50400001928E-02 0. -1.
    10030    2    1    2    0    0  0.00000000000E+00  0.00000000000E+00 -0.61794590585E+03  0.16039101646E+04  0.14800914409E+04 0.  0.
        3    1    3    3  502    0  0.58372904370E+03  0.18386109835E+03 -0.75986136666E+03  0.97567095205E+03  0.10100000352E+00 0. -1.
       -3    1    3    3    0  502 -0.58372904370E+03 -0.18386109835E+03  0.14191546080E+03  0.62823921253E+03  0.10100000352E+00 0.  1.
</event>
<event>
 5   0  0.3713516E-04  0.1701153E+04  0.7818609E-02  0.8760707E-01
        1   -1    0    0  501    0  0.00000000000E+00  0.00000000000E+00  0.66271633345E+03  0.66271633347E+03  0.50400001928E-02 0.  1.
       -1   -1    0    0    0  501  0.00000000000E+00  0.00000000000E+00 -0.10916897048E+04  0.10916897048E+04  0.50400001928E-02 0. -1.
    10030    2    1    2    0    0  0.00000000000E+00  0.00000000000E+00 -0.42897337136E+03  0.17544060383E+04  0.17011532541E+04 0.  0.
        5    1    3    3  502    0  0.97516479318E+02 -0.41849642603E+03  0.54252818479E+03  0.69210378096E+03  0.46999998093E+01 0.  1.
       -5    1    3    3    0  502 -0.97516479318E+02  0.41849642603E+03 -0.97150155615E+03  0.10623022573E+04  0.46999998093E+01 0. -1.
</event>
<event>
 5   0  0.3635143E-04  0.1687659E+04  0.7818609E-02  0.8768435E-01
        1   -1    0    0  501    0  0.00000000000E+00  0.00000000000E+00  0.17950598396E+04  0.17950598396E+04  0.50400001928E-02 0.  1.
       -1   -1    0    0    0  501  0.00000000000E+00  0.00000000000E+00 -0.39667083741E+03  0.39667083745E+03  0.50400001928E-02 0. -1.
    10030    2    1    2    0    0  0.00000000000E+00  0.00000000000E+00  0.13983890022E+04  0.21917306770E+04  0.16876586027E+04 0.  0.
        3    1    3    3  502    0  0.12325326860E+03  0.81505260759E+03  0.46490664086E+03  0.94638275359E+03  0.10100000352E+00 0. -1.
       -3    1    3    3    0  502 -0.12325326860E+03 -0.81505260759E+03  0.93348236130E+03  0.12453479234E+04  0.10100000352E+00 0.  1.
</event>
<event>
 5   0  0.3713516E-04  0.1670878E+04  0.7818609E-02  0.8778150E-01
        1   -1    0    0  501    0  0.00000000000E+00  0.00000000000E+00  0.16034376948E+04  0.16034376948E+04  0.50400001928E-02 0.  1.
       -1   -1    0    0    0  501  0.00000000000E+00  0.00000000000E+00 -0.43528879536E+03  0.43528879539E+03  0.50400001928E-02 0. -1.
    10030    2    1    2    0    0  0.00000000000E+00  0.00000000000E+00  0.11681488994E+04  0.20387264902E+04  0.16708781675E+04 0.  0.
        5    1    3    3  502    0  0.34682034673E+03 -0.20067508657E+03  0.14785233802E+04  0.15318643279E+04  0.46999998093E+01 0.  1.
       -5    1    3    3    0  502 -0.34682034673E+03  0.20067508657E+03 -0.31037448075E+03  0.50686216231E+03  0.46999998093E+01 0. -1.
</event>
<event>
 5   0  0.7025426E-04  0.1700719E+04  0.7818609E-02  0.8760954E-01
        2   -1    0    0  501    0  0.00000000000E+00  0.00000000000E+00  0.14565238984E+04  0.14565238984E+04  0.25500000920E-02 0.  1.
       -2   -1    0    0    0  501  0.00000000000E+00  0.00000000000E+00 -0.49646369531E+03  0.49646369532E+03  0.25500000920E-02 0. -1.
    10030    2    1    2    0    0  0.00000000000E+00  0.00000000000E+00  0.96006020308E+03  0.19529875937E+04  0.17007189502E+04 0.  0.
        2    1    3    3  502    0 -0.31862934207E+03  0.29814353734E+03  0.13181517593E+04  0.13885021740E+04  0.25500000920E-02 0.  1.
       -2    1    3    3    0  502  0.31862934207E+03 -0.29814353734E+03 -0.35809155623E+03  0.56448541977E+03  0.25500000920E-02 0. -1.
</event>
<event>
 5   0  0.3635143E-04  0.1694017E+04  0.7818609E-02  0.8764784E-01
        1   -1    0    0  501    0  0.00000000000E+00  0.00000000000E+00  0.55035093095E+03  0.55035093098E+03  0.50400001928E-02 0. -1.
       -1   -1    0    0    0  501  0.00000000000E+00  0.00000000000E+00 -0.13035737438E+04  0.13035737438E+04  0.50400001928E-02 0.  1.
    10030    2    1    2    0    0  0.00000000000E+00  0.00000000000E+00 -0.75322281283E+03  0.18539246748E+04  0.16940165566E+04 0.  0.
        3    1    3    3  502    0 -0.47247495226E+01 -0.59495259424E+03  0.28314873745E+03  0.65891132209E+03  0.10100000352E+00 0. -1.
       -3    1    3    3    0  502  0.47247495226E+01  0.59495259424E+03 -0.10363715503E+04  0.11950133527E+04  0.10100000352E+00 0.  1.
</event>
<event>
 5   0  0.7233728E-04  0.1601316E+04  0.7818609E-02  0.8819740E-01
       -2   -1    0    0    0  501  0.00000000000E+00  0.00000000000E+00  0.38907518525E+03  0.38907518526E+03  0.25500000920E-02 0. -1.
        2   -1    0    0  501    0  0.00000000000E+00  0.00000000000E+00 -0.16476340026E+04  0.16476340026E+04  0.25500000920E-02 0.  1.
    10030    2    1    2    0    0  0.00000000000E+00  0.00000000000E+00 -0.12585588173E+04  0.20367091879E+04  0.16013163395E+04 0.  0.
        1    1    3    3  502    0 -0.26712224370E+03  0.40822410710E+03 -0.14367609140E+04  0.15173276306E+04  0.50400001928E-02 0.  1.
       -1    1    3    3    0  502  0.26712224370E+03 -0.40822410710E+03  0.17820209665E+03  0.51938155721E+03  0.50400001928E-02 0. -1.
</event>
<event>
 5   0  0.7049044E-04  0.1658337E+04  0.7818609E-02  0.8785489E-01
       -2   -1    0    0    0  501  0.00000000000E+00  0.00000000000E+00  0.89179959585E+03  0.89179959586E+03  0.25500000920E-02 0. -1.
        2   -1    0    0  501    0  0.00000000000E+00  0.00000000000E+00 -0.77093626654E+03  0.77093626655E+03  0.25500000920E-02 0.  1.
    10030    2    1    2    0    0  0.00000000000E+00  0.00000000000E+00  0.12086332931E+03  0.16627358624E+04  0.16583373010E+04 0.  0.
        4    1    3    3  502    0  0.19284250812E+03 -0.17747129804E+02 -0.74794238972E+03  0.77260767845E+03  0.12699999809E+01 0.  1.
       -4    1    3    3    0  502 -0.19284250812E+03  0.17747129804E+02  0.86880571903E+03  0.89012818396E+03  0.12699999809E+01 0. -1.
</event>
<event>
 5   0  0.3635143E-04  0.1707874E+04  0.7818609E-02  0.8756886E-01
       -1   -1    0    0    0  501  0.00000000000E+00  0.00000000000E+00  0.65208670409E+03  0.65208670411E+03  0.50400001928E-02 0.  1.
        1   -1    0    0  501    0  0.00000000000E+00  0.00000000000E+00 -0.11182686706E+04  0.11182686706E+04  0.50400001928E-02 0. -1.
    10030    2    1    2    0    0  0.00000000000E+00  0.00000000000E+00 -0.46618196649E+03  0.17703553747E+04  0.17078736859E+04 0.  0.
        3    1    3    3  502    0 -0.65855665478E+03 -0.34052167576E+03 -0.67233409608E+03  0.10008421585E+04  0.10100000352E+00 0.  1.
       -3    1    3    3    0  502  0.65855665478E+03  0.34052167576E+03  0.20615212959E+03  0.76951321623E+03  0.10100000352E+00 0. -1.
</event>
<event>
 5   0  0.7242144E-04  0.1696962E+04  0.7818609E-02  0.8763099E-01
       -2   -1    0    0    0  501  0.00000000000E+00  0.00000000000E+00  0.55370599319E+03  0.55370599320E+03  0.25500000920E-02 0.  1.
        2   -1    0    0  501    0  0.00000000000E+00  0.00000000000E+00 -0.13001852188E+04  0.13001852188E+04  0.25500000920E-02 0. -1.
    10030    2    1    2    0    0  0.00000000000E+00  0.00000000000E+00 -0.74647922562E+03  0.18538912120E+04  0.16969624014E+04 0.  0.
        3    1    3    3  502    0  0.58183741969E+02 -0.26405803962E+03  0.50537785220E+03  0.57316557800E+03  0.10100000352E+00 0.  1.
       -3    1    3    3    0  502 -0.58183741969E+02  0.26405803962E+03 -0.12518570778E+04  0.12807256340E+04  0.10100000352E+00 0. -1.
</event>
<event>
 5   0  0.7242144E-04  0.1703927E+04  0.7818609E-02  0.8759128E-01
       -2   -1    0    0    0  501  0.00000000000E+00  0.00000000000E+00  0.57179112762E+03  0.57179112762E+03  0.25500000920E-02 0. -1.
        2   -1    0    0  501    0  0.00000000000E+00  0.00000000000E+00 -0.12694177829E+04  0.12694177829E+04  0.25500000920E-02 0.  1.
    10030    2    1    2    0    0  0.00000000000E+00  0.00000000000E+00 -0.69762665532E+03  0.18412089106E+04  0.17039270237E+04 0.  0.
        3    1    3    3  502    0  0.80951032099E+03 -0.25326480873E+03 -0.43520331304E+03  0.95333727349E+03  0.10100000352E+00 0.  1.
       -3    1    3    3    0  502 -0.80951032099E+03  0.25326480873E+03 -0.26242334227E+03  0.88787163707E+03  0.10100000352E+00 0. -1.
</event>
<event>
 5   0  0.3915701E-04  0.1585320E+04  0.7818609E-02  0.8829617E-01
       -1   -1    0    0    0  501  0.00000000000E+00  0.00000000000E+00  0.81912402454E+03  0.81912402456E+03  0.50400001928E-02 0. -1.
        1   -1    0    0  501    0  0.00000000000E+00  0.00000000000E+00 -0.76705142705E+03  0.76705142706E+03  0.50400001928E-02 0.  1.
    10030    2    1    2    0    0  0.00000000000E+00  0.00000000000E+00  0.52072597496E+02  0.15861754516E+04  0.15853204748E+04 0.  0.
        2    1    3    3  502    0 -0.39901197355E+03 -0.24901498454E+03  0.66441741402E+03  0.81404515699E+03  0.25500000920E-02 0. -1.
       -2    1    3    3    0  502  0.39901197355E+03  0.24901498454E+03 -0.61234481652E+03  0.77213029463E+03  0.25500000920E-02 0.  1.
</event>
<event>
 5   0  0.3713516E-04  0.1714189E+04  0.7818609E-02  0.8753313E-01
       -1   -1    0    0    0  501  0.00000000000E+00  0.00000000000E+00  0.49082897052E+03  0.49082897054E+03  0.50400001928E-02 0. -1.
        1   -1    0    0  501    0  0.00000000000E+00  0.00000000000E+00 -0.14966735104E+04  0.14966735105E+04  0.50400001928E-02 0.  1.
    10030    2    1    2    0    0  0.00000000000E+00  0.00000000000E+00 -0.10058445399E+04  0.19875024810E+04  0.17141886925E+04 0.  0.
        5    1    3    3  502    0  0.82989436417E+03 -0.24522644850E+02 -0.74959370619E+03  0.11185878732E+04  0.46999998093E+01 0.  1.
       -5    1    3    3    0  502 -0.82989436417E+03  0.24522644850E+02 -0.25625083373E+03  0.86891460776E+03  0.46999998093E+01 0. -1.
</event>
<event>
 5   0  0.3723500E-04  0.1658309E+04  0.7818609E-02  0.8785506E-01
        1   -1    0    0  501    0  0.00000000000E+00  0.00000000000E+00  0.59457071591E+03  0.59457071593E+03  0.50400001928E-02 0.  1.
       -1   -1    0    0    0  501  0.00000000000E+00  0.00000000000E+00 -0.11562911167E+04  0.11562911167E+04  0.50400001928E-02 0. -1.
    10030    2    1    2    0    0  0.00000000000E+00  0.00000000000E+00 -0.56172040078E+03  0.17508618326E+04  0.16583085805E+04 0.  0.
        1    1    3    3  502    0  0.36406466820E+02  0.19199953019E+03 -0.11316294148E+04  0.11483790240E+04  0.50400001928E-02 0. -1.
       -1    1    3    3    0  502 -0.36406466820E+02 -0.19199953019E+03  0.56990901398E+03  0.60248280861E+03  0.50400001928E-02 0.  1.
</event>
<event>
 5   0  0.6746664E-04  0.1689434E+04  0.7818609E-02  0.8767414E-01
        2   -1    0    0  501    0  0.00000000000E+00  0.00000000000E+00  0.20677382325E+04  0.20677382325E+04  0.25500000920E-02 0.  1.
       -2   -1    0    0    0  501  0.00000000000E+00  0.00000000000E+00 -0.34508556706E+03  0.34508556707E+03  0.25500000920E-02 0. -1.
    10030    2    1    2    0    0  0.00000000000E+00  0.00000000000E+00  0.17226526654E+04  0.24128237995E+04  0.16894337755E+04 0.  0.
        5    1    3    3  502    0  0.75451172790E+02  0.26822777685E+03  0.20001956698E+04  0.20195157408E+04  0.46999998093E+01 0.  1.
       -5    1    3    3    0  502 -0.75451172790E+02 -0.26822777685E+03 -0.27754300443E+03  0.39330805872E+03  0.46999998093E+01 0. -1.
</event>
<event>
 5   0  0.7242144E-04  0.1690512E+04  0.7818609E-02  0.8766794E-01
       -2   -1    0    0    0  501  0.00000000000E+00  0.00000000000E+00  0.60314306436E+03  0.60314306437E+03  0.25500000920E-02 0.  1.
        2   -1    0    0  501    0  0.00000000000E+00  0.00000000000E+00 -0.11845582500E+04  0.11845582500E+04  0.25500000920E-02 0. -1.
    10030    2    1    2    0    0  0.00000000000E+00  0.00000000000E+00 -0.58141518561E+03  0.17877013143E+04  0.16905124582E+04 0.  0.
        3    1    3    3  502    0  0.68287228819E+03 -0.49136482624E+03 -0.20412158066E+03  0.86569023579E+03  0.10100000352E+00 0.  1.
       -3    1    3    3    0  502 -0.68287228819E+03  0.49136482624E+03 -0.37729360495E+03  0.92201107856E+03  0.10100000352E+00 0. -1.
</event>
<event>
 5   0  0.7049044E-04  0.1556053E+04  0.7818609E-02  0.8848011E-01
        2   -1    0    0  501    0  0.00000000000E+00  0.00000000000E+00  0.14221689841E+04  0.14221689841E+04  0.25500000920E-02 0. -1.
       -2   -1    0    0    0  501  0.00000000000E+00  0.00000000000E+00 -0.42563513570E+03  0.42563513571E+03  0.25500000920E-02 0.  1.
    10030    2    1    2    0    0  0.00000000000E+00  0.00000000000E+00  0.99653384838E+03  0.18478041198E+04  0.15560528121E+04 0.  0.
        4    1    3    3  502    0  0.53633110534E+02  0.38422806706E+03  0.12991135493E+04  0.13558043166E+04  0.12699999809E+01 0. -1.
       -4    1    3    3    0  502 -0.53633110534E+02 -0.38422806706E+03 -0.30257970090E+03  0.49199980321E+03  0.12699999809E+01 0.  1.
</event>
<event>
 5   0  0.7242144E-04  0.1690171E+04  0.7818609E-02  0.8766990E-01
       -2   -1    0    0    0  501  0.00000000000E+00  0.00000000000E+00  0.10674133447E+04  0.10674133447E+04  0.25500000920E-02 0. -1.
        2   -1    0    0  501    0  0.00000000000E+00  0.00000000000E+00 -0.66906553607E+03  0.66906553608E+03  0.25500000920E-02 0.  1.
    10030    2    1    2    0    0  0.00000000000E+00  0.00000000000E+00  0.39834780858E+03  0.17364788807E+04  0.16901709756E+04 0.  0.
        3    1    3    3  502    0  0.58308857126E+03  0.60401039404E+03  0.29851133693E+03  0.89102742186E+03  0.10100000352E+00 0.  1.
       -3    1    3    3    0  502 -0.58308857126E+03 -0.60401039404E+03  0.99836471650E+02  0.84545145887E+03  0.10100000352E+00 0. -1.
</event>
<event>
 5   0  0.3713516E-04  0.1675445E+04  0.7818609E-02  0.8775494E-01
       -1   -1    0    0    0  501  0.00000000000E+00  0.00000000000E+00  0.51513359143E+03  0.51513359145E+03  0.50400001928E-02 0. -1.
        1   -1    0    0  501    0  0.00000000000E+00  0.00000000000E+00 -0.13623245097E+04  0.13623245097E+04  0.50400001928E-02 0.  1.
    10030    2    1    2    0    0  0.00000000000E+00  0.00000000000E+00 -0.84719091830E+03  0.18774581012E+04  0.16754451557E+04 0.  0.
        5    1    3    3  502    0 -0.22984751337E+03 -0.48198950786E+03  0.29968475215E+03  0.61235349739E+03  0.46999998093E+01 0. -1.
       -5    1    3    3    0  502  0.22984751337E+03  0.48198950786E+03 -0.11468756705E+04  0.12651046038E+04  0.46999998093E+01 0.  1.
</event>
<event>
 5   0  0.3803253E-04  0.1710964E+04  0.7818609E-02  0.8755136E-01
       -1   -1    0    0    0  501  0.00000000000E+00  0.00000000000E+00  0.72479614701E+03  0.72479614703E+03  0.50400001928E-02 0. -1.
        1   -1    0    0  501    0  0.00000000000E+00  0.00000000000E+00 -0.10097310266E+04  0.10097310266E+04  0.50400001928E-02 0.  1.
    10030    2    1    2    0    0  0.00000000000E+00  0.00000000000E+00 -0.28493487960E+03  0.17345271737E+04  0.17109636555E+04 0.  0.
        4    1    3    3  502    0  0.57979749403E+02 -0.49207935196E+03 -0.84945539965E+03  0.98340217046E+03  0.12699999809E+01 0.  1.
       -4    1    3    3    0  502 -0.57979749403E+02  0.49207935196E+03  0.56452052005E+03  0.75112500320E+03  0.12699999809E+01 0. -1.
</event>
<event>
 5   0  0.3713516E-04  0.1690691E+04  0.7818609E-02  0.8766691E-01
       -1   -1    0    0    0  501  0.00000000000E+00  0.00000000000E+00  0.12179945930E+04  0.12179945930E+04  0.50400001928E-02 0. -1.
        1   -1    0    0  501    0  0.00000000000E+00  0.00000000000E+00 -0.58670978836E+03  0.58670978838E+03  0.50400001928E-02 0.  1.
    10030    2    1    2    0    0  0.00000000000E+00  0.00000000000E+00  0.63128480464E+03  0.18047043814E+04  0.16906913969E+04 0.  0.
        5    1    3    3  502    0  0.25856454639E+03 -0.67863721347E+03  0.77746494312E+03  0.10638975138E+04  0.46999998093E+01 0. -1.
       -5    1    3    3    0  502 -0.25856454639E+03  0.67863721347E+03 -0.14618013847E+03  0.74080686757E+03  0.46999998093E+01 0.  1.
</event>
<event>
 5   0  0.3803253E-04  0.1629248E+04  0.7818609E-02  0.8802779E-01
        1   -1    0    0  501    0  0.00000000000E+00  0.00000000000E+00  0.77415402137E+03  0.77415402139E+03  0.50400001928E-02 0.  1.
       -1   -1    0    0    0  501  0.00000000000E+00  0.00000000000E+00 -0.85720916922E+03  0.85720916924E+03  0.50400001928E-02 0. -1.
    10030    2    1    2    0    0  0.00000000000E+00  0.00000000000E+00 -0.83055147849E+02  0.16313631906E+04  0.16292475877E+04 0.  0.
        4    1    3    3  502    0  0.25897624188E+03  0.56826927659E+02  0.72974032357E+03  0.77641518939E+03  0.12699999809E+01 0.  1.
       -4    1    3    3    0  502 -0.25897624188E+03 -0.56826927659E+02 -0.81279547142E+03  0.85494800124E+03  0.12699999809E+01 0. -1.
</event>
<event>
 5   0  0.7242144E-04  0.1779748E+04  0.7818609E-02  0.8717144E-01
       -2   -1    0    0    0  501  0.00000000000E+00  0.00000000000E+00  0.10888824430E+04  0.10888824430E+04  0.25500000920E-02 0. -1.
        2   -1    0    0  501    0  0.00000000000E+00  0.00000000000E+00 -0.72723721378E+03  0.72723721378E+03  0.25500000920E-02 0.  1.
    10030    2    1    2    0    0  0.00000000000E+00  0.00000000000E+00  0.36164522919E+03  0.18161196567E+04  0.17797481102E+04 0.  0.
        3    1    3    3  502    0 -0.22272186785E+03  0.23234129877E+03  0.10274086816E+04  0.10766411281E+04  0.10100000352E+00 0. -1.
       -3    1    3    3    0  502  0.22272186785E+03 -0.23234129877E+03 -0.66576345241E+03  0.73947852863E+03  0.10100000352E+00 0.  1.
</event>
<event>
 5   0  0.3635143E-04  0.1684368E+04  0.7818609E-02  0.8770330E-01
       -1   -1    0    0    0  501  0.00000000000E+00  0.00000000000E+00  0.60464492845E+03  0.60464492847E+03  0.50400001928E-02 0. -1.
        1   -1    0    0  501    0  0.00000000000E+00  0.00000000000E+00 -0.11730421596E+04  0.11730421596E+04  0.50400001928E-02 0.  1.
    10030    2    1    2    0    0  0.00000000000E+00  0.00000000000E+00 -0.56839723110E+03  0.17776870880E+04  0.16843681221E+04 0.  0.
        3    1    3    3  502    0  0.64344513177E+03 -0.29025977393E+03 -0.76899702636E+03  0.10438528683E+04  0.10100000352E+00 0.  1.
       -3    1    3    3    0  502 -0.64344513177E+03  0.29025977393E+03  0.20059979526E+03  0.73383421971E+03  0.10100000352E+00 0. -1.
</event>
<event>
 5   0  0.6746664E-04  0.1720321E+04  0.7818609E-02  0.8749859E-01
       -2   -1    0    0    0  501  0.00000000000E+00  0.00000000000E+00  0.40961273582E+03  0.40961273583E+03  0.25500000920E-02 0.  1.
        2   -1    0    0  501    0  0.00000000000E+00  0.00000000000E+00 -0.18062821791E+04  0.18062821791E+04  0.25500000920E-02 0. -1.
    10030    2    1    2    0    0  0.00000000000E+00  0.00000000000E+00 -0.13966694432E+04  0.22158949149E+04  0.17203211154E+04 0.  0.
        5    1    3    3  502    0  0.12463787001E+03 -0.61167573427E+03 -0.14605550560E+04  0.15883717966E+04  0.46999998093E+01 0. -1.
       -5    1    3    3    0  502 -0.12463787001E+03  0.61167573427E+03  0.63885612750E+02  0.62752311834E+03  0.46999998093E+01 0.  1.
</event>
<event>
 5   0  0.7242144E-04  0.1653718E+04  0.7818609E-02  0.8788210E-01
       -2   -1    0    0    0  501  0.00000000000E+00  0.00000000000E+00  0.75659580139E+03  0.75659580139E+03  0.25500000920E-02 0.  1.
        2   -1    0    0  501    0  0.00000000000E+00  0.00000000000E+00 -0.90364780906E+03  0.90364780906E+03  0.25500000920E-02 0. -1.
    10030    2    1    2    0    0  0.00000000000E+00  0.00000000000E+00 -0.14705200767E+03  0.16602436105E+04  0.16537184020E+04 0.  0.
        3    1    3    3  502    0  0.18268901692E+03  0.46270392473E+03  0.58955409970E+03  0.77139111061E+03  0.10100000352E+00 0.  1.
       -3    1    3    3    0  502 -0.18268901692E+03 -0.46270392473E+03 -0.73660610737E+03  0.88885249984E+03  0.10100000352E+00 0. -1.
</event>
<event>
 5   0  0.3635143E-04  0.1833341E+04  0.7818609E-02  0.8688767E-01
        1   -1    0    0  501    0  0.00000000000E+00  0.00000000000E+00  0.82392595532E+03  0.82392595534E+03  0.50400001928E-02 0. -1.
       -1   -1    0    0    0  501  0.00000000000E+00  0.00000000000E+00 -0.10198549260E+04  0.10198549260E+04  0.50400001928E-02 0.  1.
    10030    2    1    2    0    0  0.00000000000E+00  0.00000000000E+00 -0.19592897068E+03  0.18437808814E+04  0.18333411513E+04 0.  0.
        3    1    3    3  502    0  0.85131129086E+03 -0.23914612466E+03  0.14499585471E+03  0.89607231347E+03  0.10100000352E+00 0. -1.
       -3    1    3    3    0  502 -0.85131129086E+03  0.23914612466E+03 -0.34092482539E+03  0.94770856789E+03  0.10100000352E+00 0.  1.
</event>
<event>
 5   0  0.7049044E-04  0.1747261E+04  0.7818609E-02  0.8734859E-01
        2   -1    0    0  501    0  0.00000000000E+00  0.00000000000E+00  0.61123861415E+03  0.61123861416E+03  0.25500000920E-02 0.  1.
       -2   -1    0    0    0  501  0.00000000000E+00  0.00000000000E+00 -0.12486615549E+04  0.12486615549E+04  0.25500000920E-02 0. -1.
    10030    2    1    2    0    0  0.00000000000E+00  0.00000000000E+00 -0.63742294076E+03  0.18599001691E+04  0.17472608945E+04 0.  0.
        4    1    3    3  502    0  0.21302006821E+03 -0.79734241129E+03 -0.62370671941E+03  0.10344777209E+04  0.12699999809E+01 0. -1.
       -4    1    3    3    0  502 -0.21302006821E+03  0.79734241129E+03 -0.13716221343E+02  0.82542244816E+03  0.12699999809E+01 0.  1.
</event>
<event>
 5   0  0.6746664E-04  0.1684686E+04  0.7818609E-02  0.8770147E-01
       -2   -1    0    0    0  501  0.00000000000E+00  0.00000000000E+00  0.59598882084E+03  0.59598882085E+03  0.25500000920E-02 0.  1.
        2   -1    0    0  501    0  0.00000000000E+00  0.00000000000E+00 -0.11905279167E+04  0.11905279167E+04  0.25500000920E-02 0. -1.
    10030    2    1    2    0    0  0.00000000000E+00  0.00000000000E+00 -0.59453909582E+03  0.17865167375E+04  0.16846855247E+04 0.  0.
        5    1    3    3  502    0 -0.21223878699E+03 -0.39099160409E+03 -0.10557655598E+04  0.11456800358E+04  0.46999998093E+01 0. -1.
       -5    1    3    3    0  502  0.21223878699E+03  0.39099160409E+03  0.46122646399E+03  0.64083670171E+03  0.46999998093E+01 0.  1.
</event>
<event>
 5   0  0.3915701E-04  0.1692537E+04  0.7818609E-02  0.8765632E-01
       -1   -1    0    0    0  501  0.00000000000E+00  0.00000000000E+00  0.57879385539E+03  0.57879385541E+03  0.50400001928E-02 0. -1.
        1   -1    0    0  501    0  0.00000000000E+00  0.00000000000E+00 -0.12373502312E+04  0.12373502312E+04  0.50400001928E-02 0.  1.
    10030    2    1    2    0    0  0.00000000000E+00  0.00000000000E+00 -0.65855637580E+03  0.18161440866E+04  0.16925373979E+04 0.  0.
        2    1    3    3  502    0  0.80762928456E+03 -0.22424157498E+03 -0.20404415921E+03  0.86266063092E+03  0.25500000920E-02 0.  1.
       -2    1    3    3    0  502 -0.80762928456E+03  0.22424157498E+03 -0.45451221659E+03  0.95348345569E+03  0.25500000920E-02 0. -1.
</event>
<event>
 5   0  0.3803253E-04  0.1691362E+04  0.7818609E-02  0.8766306E-01
        1   -1    0    0  501    0  0.00000000000E+00  0.00000000000E+00  0.43559725733E+03  0.43559725736E+03  0.50400001928E-02 0. -1.
       -1   -1    0    0    0  501  0.00000000000E+00  0.00000000000E+00 -0.16418287668E+04  0.16418287668E+04  0.50400001928E-02 0.  1.
    10030    2    1    2    0    0  0.00000000000E+00  0.00000000000E+00 -0.12062315095E+04  0.20774260242E+04  0.16913617092E+04 0.  0.
        4    1    3    3  502    0 -0.24792790332E+03 -0.27541002407E+03 -0.15367971923E+04  0.15808434931E+04  0.12699999809E+01 0.  1.
       -4    1    3    3    0  502  0.24792790332E+03  0.27541002407E+03  0.33056568282E+03  0.49658253106E+03  0.12699999809E+01 0. -1.
</event>
<event>
 5   0  0.3635143E-04  0.1706422E+04  0.7818609E-02  0.8757710E-01
       -1   -1    0    0    0  501  0.00000000000E+00  0.00000000000E+00  0.70532152435E+03  0.70532152437E+03  0.50400001928E-02 0. -1.
        1   -1    0    0  501    0  0.00000000000E+00  0.00000000000E+00 -0.10321091086E+04  0.10321091086E+04  0.50400001928E-02 0.  1.
    10030    2    1    2    0    0  0.00000000000E+00  0.00000000000E+00 -0.32678758428E+03  0.17374306330E+04  0.17064217179E+04 0.  0.
        3    1    3    3  502    0 -0.29686656055E+03 -0.79233692985E+03 -0.27512021377E+03  0.88972956981E+03  0.10100000352E+00 0.  1.
       -3    1    3    3    0  502  0.29686656055E+03  0.79233692985E+03 -0.51667370514E+02  0.84770106320E+03  0.10100000352E+00 0. -1.
</event>
<event>
 5   0  0.3713516E-04  0.1701783E+04  0.7818609E-02  0.8760348E-01
        1   -1    0    0  501    0  0.00000000000E+00  0.00000000000E+00  0.11137864973E+04  0.11137864974E+04  0.50400001928E-02 0.  1.
       -1   -1    0    0    0  501  0.00000000000E+00  0.00000000000E+00 -0.65004985193E+03  0.65004985194E+03  0.50400001928E-02 0. -1.
    10030    2    1    2    0    0  0.00000000000E+00  0.00000000000E+00  0.46373664542E+03  0.17638363493E+04  0.17017834735E+04 0.  0.
        5    1    3    3  502    0  0.39302253736E+03 -0.48085244440E+03  0.83472028451E+03  0.10404161819E+04  0.46999998093E+01 0.  1.
       -5    1    3    3    0  502 -0.39302253736E+03  0.48085244440E+03 -0.37098363909E+03  0.72342016742E+03  0.46999998093E+01 0. -1.
</event>
<event>
 5   0  0.7233728E-04  0.1721792E+04  0.7818609E-02  0.8749032E-01
       -2   -1    0    0    0  501  0.00000000000E+00  0.00000000000E+00  0.12398813155E+04  0.12398813156E+04  0.25500000920E-02 0.  1.
        2   -1    0    0  501    0  0.00000000000E+00  0.00000000000E+00 -0.59775241860E+03  0.59775241860E+03  0.25500000920E-02 0. -1.
    10030    2    1    2    0    0  0.00000000000E+00  0.00000000000E+00  0.64212889695E+03  0.18376337342E+04  0.17217921537E+04 0.  0.
        1    1    3    3  502    0 -0.16140700308E+03 -0.36288973958E+02 -0.58062766566E+03  0.60373636334E+03  0.50400001928E-02 0. -1.
       -1    1    3    3    0  502  0.16140700308E+03  0.36288973958E+02  0.12227565626E+04  0.12338973708E+04  0.50400001928E-02 0.  1.
</event>
<event>
 5   0  0.3723500E-04  0.1707358E+04  0.7818609E-02  0.8757179E-01
        1   -1    0    0  501    0  0.00000000000E+00  0.00000000000E+00  0.60064592737E+03  0.60064592739E+03  0.50400001928E-02 0.  1.
       -1   -1    0    0    0  501  0.00000000000E+00  0.00000000000E+00 -0.12133071921E+04  0.12133071921E+04  0.50400001928E-02 0. -1.
    10030    2    1    2    0    0  0.00000000000E+00  0.00000000000E+00 -0.61266126469E+03  0.18139531195E+04  0.17073582209E+04 0.  0.
        1    1    3    3  502    0 -0.45831574412E+03  0.58564900351E+03  0.13904279081E+03  0.75655203014E+03  0.50400001928E-02 0.  1.
       -1    1    3    3    0  502  0.45831574412E+03 -0.58564900351E+03 -0.75170405549E+03  0.10574010893E+04  0.50400001928E-02 0. -1.
</event>
<event>
 5   0  0.7233728E-04  0.1726077E+04  0.7818609E-02  0.8746630E-01
       -2   -1    0    0    0  501  0.00000000000E+00  0.00000000000E+00  0.53162432007E+03  0.53162432007E+03  0.25500000920E-02 0.  1.
        2   -1    0    0  501    0  0.00000000000E+00  0.00000000000E+00 -0.14010560605E+04  0.14010560605E+04  0.25500000920E-02 0. -1.
    10030    2    1    2    0    0  0.00000000000E+00  0.00000000000E+00 -0.86943174048E+03  0.19326803806E+04  0.17260770268E+04 0.  0.
        1    1    3    3  502    0  0.71468640402E+03 -0.22901905588E+03  0.42449215309E+02  0.75168365683E+03  0.50400001928E-02 0.  1.
       -1    1    3    3    0  502 -0.71468640402E+03  0.22901905588E+03 -0.91188095579E+03  0.11809967238E+04  0.50400001928E-02 0. -1.
</event>
<event>
 5   0  0.3635143E-04  0.1705367E+04  0.7818609E-02  0.8758309E-01
        1   -1    0    0  501    0  0.00000000000E+00  0.00000000000E+00  0.14538584339E+04  0.14538584339E+04  0.50400001928E-02 0.  1.
       -1   -1    0    0    0  501  0.00000000000E+00  0.00000000000E+00 -0.50009612620E+03  0.50009612622E+03  0.50400001928E-02 0. -1.
    10030    2    1    2    0    0  0.00000000000E+00  0.00000000000E+00  0.95376230768E+03  0.19539545601E+04  0.17053667885E+04 0.  0.
        3    1    3    3  502    0 -0.25317591372E+03 -0.65291677877E+03  0.10342835256E+04  0.12490559575E+04  0.10100000352E+00 0.  1.
       -3    1    3    3    0  502  0.25317591372E+03  0.65291677877E+03 -0.80521217929E+02  0.70489860266E+03  0.10100000352E+00 0. -1.
</event>
<event>
 5   0  0.3915701E-04  0.1708385E+04  0.7818609E-02  0.8756596E-01
        1   -1    0    0  501    0  0.00000000000E+00  0.00000000000E+00  0.75885649328E+03  0.75885649329E+03  0.50400001928E-02 0.  1.
       -1   -1    0    0    0  501  0.00000000000E+00  0.00000000000E+00 -0.96150613880E+03  0.96150613881E+03  0.50400001928E-02 0. -1.
    10030    2    1    2    0    0  0.00000000000E+00  0.00000000000E+00 -0.20264964552E+03  0.17203626321E+04  0.17083854094E+04 0.  0.
        2    1    3    3  502    0  0.56170913033E+03  0.58922523199E+03  0.15921995440E+03  0.82949051532E+03  0.25500000920E-02 0. -1.
       -2    1    3    3    0  502 -0.56170913033E+03 -0.58922523199E+03 -0.36186959992E+03  0.89087211679E+03  0.25500000920E-02 0.  1.
</event>
<event>
 5   0  0.3713516E-04  0.1323271E+04  0.7818609E-02  0.9011312E-01
        1   -1    0    0  501    0  0.00000000000E+00  0.00000000000E+00  0.11281210155E+04  0.11281210155E+04  0.50400001928E-02 0.  1.
       -1   -1    0    0    0  501  0.00000000000E+00  0.00000000000E+00 -0.38804480392E+03  0.38804480395E+03  0.50400001928E-02 0. -1.
    10030    2    1    2    0    0  0.00000000000E+00  0.00000000000E+00  0.74007621161E+03  0.15161658195E+04  0.13232709447E+04 0.  0.
        5    1    3    3  502    0 -0.44255885717E+03 -0.21154311685E+03  0.87875354725E+03  0.10063988867E+04  0.46999998093E+01 0.  1.
       -5    1    3    3    0  502  0.44255885717E+03  0.21154311685E+03 -0.13867733565E+03  0.50976693279E+03  0.46999998093E+01 0. -1.
</event>
<event>
 5   0  0.6746664E-04  0.1629060E+04  0.7818609E-02  0.8802891E-01
       -2   -1    0    0    0  501  0.00000000000E+00  0.00000000000E+00  0.32629122748E+03  0.32629122749E+03  0.25500000920E-02 0.  1.
        2   -1    0    0  501    0  0.00000000000E+00  0.00000000000E+00 -0.20333350446E+04  0.20333350446E+04  0.25500000920E-02 0. -1.
    10030    2    1    2    0    0  0.00000000000E+00  0.00000000000E+00 -0.17070438171E+04  0.23596262721E+04  0.16290603274E+04 0.  0.
        5    1    3    3  502    0 -0.34928702309E+03 -0.71789587597E+03 -0.61968944985E+03  0.10106497996E+04  0.46999998093E+01 0.  1.
       -5    1    3    3    0  502  0.34928702309E+03  0.71789587597E+03 -0.10873543672E+04  0.13489764724E+04  0.46999998093E+01 0. -1.
</event>
<event>
 5   0  0.6746664E-04  0.1765383E+04  0.7818609E-02  0.8724928E-01
       -2   -1    0    0    0  501  0.00000000000E+00  0.00000000000E+00  0.35497218979E+03  0.35497218980E+03  0.25500000920E-02 0. -1.
        2   -1    0    0  501    0  0.00000000000E+00  0.00000000000E+00 -0.21949447670E+04  0.21949447670E+04  0.25500000920E-02 0.  1.
    10030    2    1    2    0    0  0.00000000000E+00  0.00000000000E+00 -0.18399725772E+04  0.25499169568E+04  0.17653830751E+04 0.  0.
        5    1    3    3  502    0  0.29864761675E+03 -0.64666313376E+03 -0.16701438911E+03  0.73162798178E+03  0.46999998093E+01 0. -1.
       -5    1    3    3    0  502 -0.29864761675E+03  0.64666313376E+03 -0.16729581881E+04  0.18182889750E+04  0.46999998093E+01 0.  1.
</event>
<event>
 5   0  0.6746664E-04  0.1179367E+04  0.7818609E-02  0.9131110E-01
        2   -1    0    0  501    0  0.00000000000E+00  0.00000000000E+00  0.10255035580E+04  0.10255035580E+04  0.25500000920E-02 0.  1.
       -2   -1    0    0    0  501  0.00000000000E+00  0.00000000000E+00 -0.33907918897E+03  0.33907918898E+03  0.25500000920E-02 0. -1.
    10030    2    1    2    0    0  0.00000000000E+00  0.00000000000E+00  0.68642436904E+03  0.13645827470E+04  0.11793674826E+04 0.  0.
        5    1    3    3  502    0  0.40995408704E+03 -0.41191601607E+03  0.45872960600E+03  0.74039995894E+03  0.46999998093E+01 0.  1.
       -5    1    3    3    0  502 -0.40995408704E+03  0.41191601607E+03  0.22769476304E+03  0.62418278805E+03  0.46999998093E+01 0. -1.
</event>
<event>
 5   0  0.3803253E-04  0.1700293E+04  0.7818609E-02  0.8761197E-01
        1   -1    0    0  501    0  0.00000000000E+00  0.00000000000E+00  0.10022993292E+04  0.10022993292E+04  0.50400001928E-02 0. -1.
       -1   -1    0    0    0  501  0.00000000000E+00  0.00000000000E+00 -0.72109108899E+03  0.72109108901E+03  0.50400001928E-02 0.  1.
    10030    2    1    2    0    0  0.00000000000E+00  0.00000000000E+00  0.28120824018E+03  0.17233904182E+04  0.17002930510E+04 0.  0.
        4    1    3    3  502    0  0.81096033079E+03  0.23261630729E+03  0.24681546303E+03  0.87902587574E+03  0.12699999809E+01 0. -1.
       -4    1    3    3    0  502 -0.81096033079E+03 -0.23261630729E+03  0.34392777145E+02  0.84436454245E+03  0.12699999809E+01 0.  1.
</event>
<event>
 5   0  0.7025426E-04  0.1638638E+04  0.7818609E-02  0.8797156E-01
        2   -1    0    0  501    0  0.00000000000E+00  0.00000000000E+00  0.94864568800E+03  0.94864568801E+03  0.25500000920E-02 0.  1.
       -2   -1    0    0    0  501  0.00000000000E+00  0.00000000000E+00 -0.70762346077E+03  0.70762346077E+03  0.25500000920E-02 0. -1.
    10030    2    1    2    0    0  0.00000000000E+00  0.00000000000E+00  0.24102222724E+03  0.16562691488E+04  0.16386383918E+04 0.  0.
        2    1    3    3  502    0  0.22543029329E+03 -0.64132237350E+03 -0.34176159433E+03  0.76086410827E+03  0.25500000920E-02 0. -1.
       -2    1    3    3    0  502 -0.22543029329E+03  0.64132237350E+03  0.58278382157E+03  0.89540504051E+03  0.25500000920E-02 0.  1.
</event>
<event>
 5   0  0.7242144E-04  0.1693888E+04  0.7818609E-02  0.8764858E-01
        2   -1    0    0  501    0  0.00000000000E+00  0.00000000000E+00  0.17281071737E+04  0.17281071737E+04  0.25500000920E-02 0.  1.
       -2   -1    0    0    0  501  0.00000000000E+00  0.00000000000E+00 -0.41508641001E+03  0.41508641002E+03  0.25500000920E-02 0. -1.
    10030    2    1    2    0    0  0.00000000000E+00  0.00000000000E+00  0.13130207637E+04  0.21431935837E+04  0.16938876029E+04 0.  0.
        3    1    3    3  502    0 -0.33103874045E+03  0.27630703352E+02  0.16422408177E+04  0.16755014225E+04  0.10100000352E+00 0.  1.
       -3    1    3    3    0  502  0.33103874045E+03 -0.27630703352E+02 -0.32922005402E+03  0.46769216116E+03  0.10100000352E+00 0. -1.
</event>
<event>
 5   0  0.3723500E-04  0.1686002E+04  0.7818609E-02  0.8769388E-01
       -1   -1    0    0    0  501  0.00000000000E+00  0.00000000000E+00  0.77617612347E+03  0.77617612349E+03  0.50400001928E-02 0.  1.
        1   -1    0    0  501    0  0.00000000000E+00  0.00000000000E+00 -0.91557909369E+03  0.91557909371E+03  0.50400001928E-02 0. -1.
    10030    2    1    2    0    0  0.00000000000E+00  0.00000000000E+00 -0.13940297022E+03  0.16917552172E+04  0.16860019356E+04 0.  0.
        1    1    3    3  502    0 -0.62459509368E+02 -0.81416902100E+03 -0.27988763157E+03  0.86319723783E+03  0.50400001928E-02 0. -1.
       -1    1    3    3    0  502  0.62459509368E+02  0.81416902100E+03  0.14048466135E+03  0.82855797936E+03  0.50400001928E-02 0.  1.
</event>
<event>
 5   0  0.7242144E-04  0.1586769E+04  0.7818609E-02  0.8828718E-01
       -2   -1    0    0    0  501  0.00000000000E+00  0.00000000000E+00  0.48519361652E+03  0.48519361653E+03  0.25500000920E-02 0. -1.
        2   -1    0    0  501    0  0.00000000000E+00  0.00000000000E+00 -0.12973352564E+04  0.12973352564E+04  0.25500000920E-02 0.  1.
    10030    2    1    2    0    0  0.00000000000E+00  0.00000000000E+00 -0.81214163983E+03  0.17825288729E+04  0.15867687732E+04 0.  0.
        3    1    3    3  502    0  0.66414934786E+03  0.38756470463E+03 -0.62551083936E+03  0.99124395428E+03  0.10100000352E+00 0.  1.
       -3    1    3    3    0  502 -0.66414934786E+03 -0.38756470463E+03 -0.18663080047E+03  0.79128491861E+03  0.10100000352E+00 0. -1.
</event>
<event>
 5   0  0.3803253E-04  0.1692907E+04  0.7818609E-02  0.8765420E-01
        1   -1    0    0  501    0  0.00000000000E+00  0.00000000000E+00  0.89514061919E+03  0.89514061920E+03  0.50400001928E-02 0. -1.
       -1   -1    0    0    0  501  0.00000000000E+00  0.00000000000E+00 -0.80041451510E+03  0.80041451512E+03  0.50400001928E-02 0.  1.
    10030    2    1    2    0    0  0.00000000000E+00  0.00000000000E+00  0.94726104085E+02  0.16955551343E+04  0.16929070201E+04 0.  0.
        4    1    3    3  502    0 -0.33811943873E+02 -0.44742211202E+03 -0.67150066410E+03  0.80761658518E+03  0.12699999809E+01 0.  1.
       -4    1    3    3    0  502  0.33811943873E+02  0.44742211202E+03  0.76622676818E+03  0.88793854914E+03  0.12699999809E+01 0. -1.
</event>
<event>
 5   0  0.6746664E-04  0.1260236E+04  0.7818609E-02  0.9061707E-01
       -2   -1    0    0    0  501  0.00000000000E+00  0.00000000000E+00  0.25256711871E+03  0.25256711873E+03  0.25500000920E-02 0.  1.
        2   -1    0    0  501    0  0.00000000000E+00  0.00000000000E+00 -0.15720512186E+04  0.15720512186E+04  0.25500000920E-02 0. -1.
    10030    2    1    2    0    0  0.00000000000E+00  0.00000000000E+00 -0.13194840999E+04  0.18246183374E+04  0.12602356078E+04 0.  0.
        5    1    3    3  502    0 -0.33620459737E+03  0.27624200659E+02  0.11078822492E+03  0.35509540765E+03  0.46999998093E+01 0.  1.
       -5    1    3    3    0  502  0.33620459737E+03 -0.27624200659E+02 -0.14302723248E+04  0.14695229297E+04  0.46999998093E+01 0. -1.
</event>
<event>
 5   0  0.3635143E-04  0.1659378E+04  0.7818609E-02  0.8784878E-01
       -1   -1    0    0    0  501  0.00000000000E+00  0.00000000000E+00  0.43050786334E+03  0.43050786337E+03  0.50400001928E-02 0. -1.
        1   -1    0    0  501    0  0.00000000000E+00  0.00000000000E+00 -0.15990039200E+04  0.15990039200E+04  0.50400001928E-02 0.  1.
    10030    2    1    2    0    0  0.00000000000E+00  0.00000000000E+00 -0.11684960566E+04  0.20295117834E+04  0.16593779089E+04 0.  0.
        3    1    3    3  502    0 -0.72682907344E+03 -0.32169497235E+03 -0.29323374451E+03  0.84720375138E+03  0.10100000352E+00 0. -1.
       -3    1    3    3    0  502  0.72682907344E+03  0.32169497235E+03 -0.87526231213E+03  0.11823080320E+04  0.10100000352E+00 0.  1.
</event>
<event>
 5   0  0.7025426E-04  0.1547166E+04  0.7818609E-02  0.8853680E-01
       -2   -1    0    0    0  501  0.00000000000E+00  0.00000000000E+00  0.53104268194E+03  0.53104268195E+03  0.25500000920E-02 0. -1.
        2   -1    0    0  501    0  0.00000000000E+00  0.00000000000E+00 -0.11268969122E+04  0.11268969122E+04  0.25500000920E-02 0.  1.
    10030    2    1    2    0    0  0.00000000000E+00  0.00000000000E+00 -0.59585423028E+03  0.16579395942E+04  0.15471656130E+04 0.  0.
        2    1    3    3  502    0 -0.14289750364E+03 -0.75681048370E+03 -0.37556107230E+03  0.85687100769E+03  0.25500000920E-02 0.  1.
       -2    1    3    3    0  502  0.14289750364E+03  0.75681048370E+03 -0.22029315798E+03  0.80106858648E+03  0.25500000920E-02 0. -1.
</event>
<event>
 5   0  0.3713516E-04  0.1705783E+04  0.7818609E-02  0.8758073E-01
        1   -1    0    0  501    0  0.00000000000E+00  0.00000000000E+00  0.13966823787E+04  0.13966823787E+04  0.50400001928E-02 0. -1.
       -1   -1    0    0    0  501  0.00000000000E+00  0.00000000000E+00 -0.52082284371E+03  0.52082284374E+03  0.50400001928E-02 0.  1.
    10030    2    1    2    0    0  0.00000000000E+00  0.00000000000E+00  0.87585953495E+03  0.19175052224E+04  0.17057832081E+04 0.  0.
        5    1    3    3  502    0  0.45826199455E+02 -0.17570990582E+03  0.13746854327E+04  0.13866348259E+04  0.46999998093E+01 0. -1.
       -5    1    3    3    0  502 -0.45826199455E+02  0.17570990582E+03 -0.49882589778E+03  0.53087039647E+03  0.46999998093E+01 0.  1.
</event>
<event>
 5   0  0.3915701E-04  0.1627057E+04  0.7818609E-02  0.8804096E-01
       -1   -1    0    0    0  501  0.00000000000E+00  0.00000000000E+00  0.69106792433E+03  0.69106792434E+03  0.50400001928E-02 0. -1.
        1   -1    0    0  501    0  0.00000000000E+00  0.00000000000E+00 -0.95768946105E+03  0.95768946106E+03  0.50400001928E-02 0.  1.
    10030    2    1    2    0    0  0.00000000000E+00  0.00000000000E+00 -0.26662153672E+03  0.16487573854E+04  0.16270568128E+04 0.  0.
        2    1    3    3  502    0 -0.31299889595E+03  0.29667392252E+03 -0.83232605606E+03  0.93741687033E+03  0.25500000920E-02 0.  1.
       -2    1    3    3    0  502  0.31299889595E+03 -0.29667392252E+03  0.56570451934E+03  0.71134051507E+03  0.25500000920E-02 0. -1.
</event>
<event>
 5   0  0.3713516E-04  0.1681166E+04  0.7818609E-02  0.8772180E-01
       -1   -1    0    0    0  501  0.00000000000E+00  0.00000000000E+00  0.69904166644E+03  0.69904166646E+03  0.50400001928E-02 0.  1.
        1   -1    0    0  501    0  0.00000000000E+00  0.00000000000E+00 -0.10107833623E+04  0.10107833623E+04  0.50400001928E-02 0. -1.
    10030    2    1    2    0    0  0.00000000000E+00  0.00000000000E+00 -0.31174169589E+03  0.17098250288E+04  0.16811658884E+04 0.  0.
        5    1    3    3  502    0  0.54788788298E+03 -0.44944390867E+03  0.30391619101E+03  0.77108242135E+03  0.46999998093E+01 0.  1.
       -5    1    3    3    0  502 -0.54788788298E+03  0.44944390867E+03 -0.61565788690E+03  0.93874260746E+03  0.46999998093E+01 0. -1.
</event>
<event>
 5   0  0.6746664E-04  0.1708420E+04  0.7818609E-02  0.8756576E-01
       -2   -1    0    0    0  501  0.00000000000E+00  0.00000000000E+00  0.71771323253E+03  0.71771323254E+03  0.25500000920E-02 0.  1.
        2   -1    0    0  501    0  0.00000000000E+00  0.00000000000E+00 -0.10166664888E+04  0.10166664888E+04  0.25500000920E-02 0. -1.
    10030    2    1    2    0    0  0.00000000000E+00  0.00000000000E+00 -0.29895325631E+03  0.17343797214E+04  0.17084203138E+04 0.  0.
        5    1    3    3  502    0  0.75671813123E+03 -0.28629992285E+03  0.12866257466E+03  0.81924729116E+03  0.46999998093E+01 0.  1.
       -5    1    3    3    0  502 -0.75671813123E+03  0.28629992285E+03 -0.42761583097E+03  0.91513243022E+03  0.46999998093E+01 0. -1.
</event>
<event>
 5   0  0.3713516E-04  0.1659499E+04  0.7818609E-02  0.8784807E-01
        1   -1    0    0  501    0  0.00000000000E+00  0.00000000000E+00  0.21496034855E+04  0.21496034855E+04  0.50400001928E-02 0. -1.
       -1   -1    0    0    0  501  0.00000000000E+00  0.00000000000E+00 -0.32028411187E+03  0.32028411191E+03  0.50400001928E-02 0.  1.
    10030    2    1    2    0    0  0.00000000000E+00  0.00000000000E+00  0.18293193736E+04  0.24698875974E+04  0.16594985306E+04 0.  0.
        5    1    3    3  502    0 -0.72812646414E+03 -0.80055473820E+02  0.14946989190E+04  0.16645491808E+04  0.46999998093E+01 0. -1.
       -5    1    3    3    0  502  0.72812646414E+03  0.80055473820E+02  0.33462045460E+03  0.80533841663E+03  0.46999998093E+01 0.  1.
</event>
<event>
 5   0  0.7233728E-04  0.1684993E+04  0.7818609E-02  0.8769970E-01
       -2   -1    0    0    0  501  0.00000000000E+00  0.00000000000E+00  0.56638166623E+03  0.56638166624E+03  0.25500000920E-02 0.  1.
        2   -1    0    0  501    0  0.00000000000E+00  0.00000000000E+00 -0.12532197277E+04  0.12532197277E+04  0.25500000920E-02 0. -1.
    10030    2    1    2    0    0  0.00000000000E+00  0.00000000000E+00 -0.68683806151E+03  0.18196013940E+04  0.16849933858E+04 0.  0.
        1    1    3    3  502    0 -0.12515773635E+02 -0.14835476409E+03  0.55206328717E+03  0.57178637067E+03  0.50400001928E-02 0.  1.
       -1    1    3    3    0  502  0.12515773635E+02  0.14835476409E+03 -0.12389013487E+04  0.12478150233E+04  0.50400001928E-02 0. -1.
</event>
<event>
 5   0  0.6746664E-04  0.1714393E+04  0.7818609E-02  0.8753198E-01
       -2   -1    0    0    0  501  0.00000000000E+00  0.00000000000E+00  0.48465832396E+03  0.48465832397E+03  0.25500000920E-02 0.  1.
        2   -1    0    0  501    0  0.00000000000E+00  0.00000000000E+00 -0.15160897069E+04  0.15160897069E+04  0.25500000920E-02 0. -1.
    10030    2    1    2    0    0  0.00000000000E+00  0.00000000000E+00 -0.10314313829E+04  0.20007480309E+04  0.17143925995E+04 0.  0.
        5    1    3    3  502    0 -0.40711202250E+02  0.62404228791E+03  0.16844401480E+03  0.64767403468E+03  0.46999998093E+01 0.  1.
       -5    1    3    3    0  502  0.40711202250E+02 -0.62404228791E+03 -0.11998753977E+04  0.13530739962E+04  0.46999998093E+01 0. -1.
</event>
<event>
 5   0  0.6746664E-04  0.1699319E+04  0.7818609E-02  0.8761753E-01
        2   -1    0    0  501    0  0.00000000000E+00  0.00000000000E+00  0.16657553972E+04  0.16657553972E+04  0.25500000920E-02 0.  1.
       -2   -1    0    0    0  501  0.00000000000E+00  0.00000000000E+00 -0.43338997296E+03  0.43338997297E+03  0.25500000920E-02 0. -1.
    10030    2    1    2    0    0  0.00000000000E+00  0.00000000000E+00  0.12323654242E+04  0.20991453702E+04  0.16993194950E+04 0.  0.
        5    1    3    3  502    0  0.82018160244E+02  0.12719802409E+03  0.16489535732E+04  0.16558913891E+04  0.46999998093E+01 0.  1.
       -5    1    3    3    0  502 -0.82018160244E+02 -0.12719802409E+03 -0.41658814892E+03  0.44325398110E+03  0.46999998093E+01 0. -1.
</event>
<event>
 5   0  0.3713516E-04  0.1722414E+04  0.7818609E-02  0.8748683E-01
       -1   -1    0    0    0  501  0.00000000000E+00  0.00000000000E+00  0.56863974043E+03  0.56863974046E+03  0.50400001928E-02 0. -1.
        1   -1    0    0  501    0  0.00000000000E+00  0.00000000000E+00 -0.13043009662E+04  0.13043009662E+04  0.50400001928E-02 0.  1.
    10030    2    1    2    0    0  0.00000000000E+00  0.00000000000E+00 -0.73566122576E+03  0.18729407067E+04  0.17224138445E+04 0.  0.
        5    1    3    3  502    0 -0.23887135752E+03  0.79054830915E+03 -0.10229931685E+03  0.83217389695E+03  0.46999998093E+01 0.  1.
       -5    1    3    3    0  502  0.23887135752E+03 -0.79054830915E+03 -0.63336190891E+03  0.10407668097E+04  0.46999998093E+01 0. -1.
</event>
<event>
 5   0  0.3713516E-04  0.1669938E+04  0.7818609E-02  0.8778698E-01
       -1   -1    0    0    0  501  0.00000000000E+00  0.00000000000E+00  0.33353221091E+03  0.33353221094E+03  0.50400001928E-02 0. -1.
        1   -1    0    0  501    0  0.00000000000E+00  0.00000000000E+00 -0.20902731558E+04  0.20902731558E+04  0.50400001928E-02 0.  1.
    10030    2    1    2    0    0  0.00000000000E+00  0.00000000000E+00 -0.17567409449E+04  0.24238053667E+04  0.16699382349E+04 0.  0.
        5    1    3    3  502    0  0.66356370193E+03  0.32432712067E+03 -0.14435852215E+04  0.16215625950E+04  0.46999998093E+01 0.  1.
       -5    1    3    3    0  502 -0.66356370193E+03 -0.32432712067E+03 -0.31315572335E+03  0.80224277172E+03  0.46999998093E+01 0. -1.
</event>
<event>
 5   0  0.6746664E-04  0.1697012E+04  0.7818609E-02  0.8763070E-01
       -2   -1    0    0    0  501  0.00000000000E+00  0.00000000000E+00  0.11712383840E+04  0.11712383840E+04  0.25500000920E-02 0. -1.
        2   -1    0    0  501    0  0.00000000000E+00  0.00000000000E+00 -0.61470180083E+03  0.61470180084E+03  0.25500000920E-02 0.  1.
    10030    2    1    2    0    0  0.00000000000E+00  0.00000000000E+00  0.55653658316E+03  0.17859401848E+04  0.16970118961E+04 0.  0.
        5    1    3    3  502    0  0.50611195951E+03 -0.26559266382E+03  0.93822766692E+03  0.10986273361E+04  0.46999998093E+01 0. -1.
       -5    1    3    3    0  502 -0.50611195951E+03  0.26559266382E+03 -0.38169108376E+03  0.68731284874E+03  0.46999998093E+01 0.  1.
</event>
<event>
 5   0  0.3803253E-04  0.1795675E+04  0.7818609E-02  0.8708603E-01
       -1   -1    0    0    0  501  0.00000000000E+00  0.00000000000E+00  0.96878507081E+03  0.96878507083E+03  0.50400001928E-02 0. -1.
        1   -1    0    0  501    0  0.00000000000E+00  0.00000000000E+00 -0.83208608854E+03  0.83208608856E+03  0.50400001928E-02 0.  1.
    10030    2    1    2    0    0  0.00000000000E+00  0.00000000000E+00  0.13669898227E+03  0.18008711594E+04  0.17956754498E+04 0.  0.
        4    1    3    3  502    0 -0.69538403133E+03  0.18137878838E+03  0.60810163588E+03  0.94140662222E+03  0.12699999809E+01 0. -1.
       -4    1    3    3    0  502  0.69538403133E+03 -0.18137878838E+03 -0.47140265361E+03  0.85946453716E+03  0.12699999809E+01 0.  1.
</event>
<event>
 5   0  0.7233728E-04  0.1799609E+04  0.7818609E-02  0.8706508E-01
        2   -1    0    0  501    0  0.00000000000E+00  0.00000000000E+00  0.17834739299E+04  0.17834739299E+04  0.25500000920E-02 0.  1.
       -2   -1    0    0    0  501  0.00000000000E+00  0.00000000000E+00 -0.45397230130E+03  0.45397230130E+03  0.25500000920E-02 0. -1.
    10030    2    1    2    0    0  0.00000000000E+00  0.00000000000E+00  0.13295016286E+04  0.22374462312E+04  0.17996085844E+04 0.  0.
        1    1    3    3  502    0 -0.58955645562E+03 -0.54205580896E+03  0.15477743577E+03  0.81569440910E+03  0.50400001928E-02 0. -1.
       -1    1    3    3    0  502  0.58955645562E+03  0.54205580896E+03  0.11747241928E+04  0.14217518221E+04  0.50400001928E-02 0.  1.
</event>
<event>
 5   0  0.3713516E-04  0.1720963E+04  0.7818609E-02  0.8749498E-01
       -1   -1    0    0    0  501  0.00000000000E+00  0.00000000000E+00  0.10622050076E+04  0.10622050076E+04  0.50400001928E-02 0. -1.
        1   -1    0    0  501    0  0.00000000000E+00  0.00000000000E+00 -0.69706769471E+03  0.69706769473E+03  0.50400001928E-02 0.  1.
    10030    2    1    2    0    0  0.00000000000E+00  0.00000000000E+00  0.36513731287E+03  0.17592727023E+04  0.17209634464E+04 0.  0.
        5    1    3    3  502    0  0.80271857569E+03 -0.11216090575E+03 -0.11277353313E+03  0.81833803548E+03  0.46999998093E+01 0.  1.
       -5    1    3    3    0  502 -0.80271857569E+03  0.11216090575E+03  0.47791084599E+03  0.94093466684E+03  0.46999998093E+01 0. -1.
</event>
<event>
 5   0  0.3723500E-04  0.1625818E+04  0.7818609E-02  0.8804842E-01
       -1   -1    0    0    0  501  0.00000000000E+00  0.00000000000E+00  0.38711068774E+03  0.38711068777E+03  0.50400001928E-02 0.  1.
        1   -1    0    0  501    0  0.00000000000E+00  0.00000000000E+00 -0.17070589393E+04  0.17070589393E+04  0.50400001928E-02 0. -1.
    10030    2    1    2    0    0  0.00000000000E+00  0.00000000000E+00 -0.13199482515E+04  0.20941696270E+04  0.16258176528E+04 0.  0.
        1    1    3    3  502    0 -0.50382702742E+03  0.60675925172E+03 -0.91376770759E+03  0.12070500762E+04  0.50400001928E-02 0. -1.
       -1    1    3    3    0  502  0.50382702742E+03 -0.60675925172E+03 -0.40618054393E+03  0.88711955079E+03  0.50400001928E-02 0.  1.
</event>
<event>
 5   0  0.3723500E-04  0.1664242E+04  0.7818609E-02  0.8782025E-01
       -1   -1    0    0    0  501  0.00000000000E+00  0.00000000000E+00  0.79282521502E+03  0.79282521504E+03  0.50400001928E-02 0. -1.
        1   -1    0    0  501    0  0.00000000000E+00  0.00000000000E+00 -0.87336440437E+03  0.87336440438E+03  0.50400001928E-02 0.  1.
    10030    2    1    2    0    0  0.00000000000E+00  0.00000000000E+00 -0.80539189343E+02  0.16661896194E+04  0.16642419556E+04 0.  0.
        1    1    3    3  502    0 -0.76539001747E+03  0.62436761101E+02 -0.36112100280E+03  0.84860391624E+03  0.50400001928E-02 0.  1.
       -1    1    3    3    0  502  0.76539001747E+03 -0.62436761101E+02  0.28058181346E+03  0.81758570318E+03  0.50400001928E-02 0. -1.
</event>
<event>
 5   0  0.3803253E-04  0.1513981E+04  0.7818609E-02  0.8875208E-01
        1   -1    0    0  501    0  0.00000000000E+00  0.00000000000E+00  0.11273309860E+04  0.11273309860E+04  0.50400001928E-02 0. -1.
       -1   -1    0    0    0  501  0.00000000000E+00  0.00000000000E+00 -0.50831113937E+03  0.50831113940E+03  0.50400001928E-02 0.  1.
    10030    2    1    2    0    0  0.00000000000E+00  0.00000000000E+00  0.61901984663E+03  0.16356421254E+04  0.15139813711E+04 0.  0.
        4    1    3    3  502    0  0.52424284250E+03 -0.18265127601E+03  0.86549170491E+03  0.10282361357E+04  0.12699999809E+01 0. -1.
       -4    1    3    3    0  502 -0.52424284250E+03  0.18265127601E+03 -0.24647185828E+03  0.60740598973E+03  0.12699999809E+01 0.  1.
</event>
<event>
 5   0  0.7049044E-04  0.1662046E+04  0.7818609E-02  0.8783312E-01
       -2   -1    0    0    0  501  0.00000000000E+00  0.00000000000E+00  0.10054640437E+04  0.10054640437E+04  0.25500000920E-02 0. -1.
        2   -1    0    0  501    0  0.00000000000E+00  0.00000000000E+00 -0.68684626806E+03  0.68684626807E+03  0.25500000920E-02 0.  1.
    10030    2    1    2    0    0  0.00000000000E+00  0.00000000000E+00  0.31861777565E+03  0.16923103118E+04  0.16620459995E+04 0.  0.
        4    1    3    3  502    0  0.37178153819E+03  0.73968302411E+03  0.23305088220E+03  0.86003884499E+03  0.12699999809E+01 0. -1.
       -4    1    3    3    0  502 -0.37178153819E+03 -0.73968302411E+03  0.85566893450E+02  0.83227146680E+03  0.12699999809E+01 0.  1.
</event>
<event>
 5   0  0.7233728E-04  0.1691069E+04  0.7818609E-02  0.8766474E-01
       -2   -1    0    0    0  501  0.00000000000E+00  0.00000000000E+00  0.57326851153E+03  0.57326851153E+03  0.25500000920E-02 0.  1.
        2   -1    0    0  501    0  0.00000000000E+00  0.00000000000E+00 -0.12471101138E+04  0.12471101138E+04  0.25500000920E-02 0. -1.
    10030    2    1    2    0    0  0.00000000000E+00  0.00000000000E+00 -0.67384160228E+03  0.18203786253E+04  0.16910694352E+04 0.  0.
        1    1    3    3  502    0  0.81194036447E+03  0.23051828057E+03 -0.39120634386E+03  0.93028395484E+03  0.50400001928E-02 0.  1.
       -1    1    3    3    0  502 -0.81194036447E+03 -0.23051828057E+03 -0.28263525842E+03  0.89009467050E+03  0.50400001928E-02 0. -1.
</event>
<event>
 5   0  0.3803253E-04  0.1704699E+04  0.7818609E-02  0.8758689E-01
        1   -1    0    0  501    0  0.00000000000E+00  0.00000000000E+00  0.91427532359E+03  0.91427532360E+03  0.50400001928E-02 0.  1.
       -1   -1    0    0    0  501  0.00000000000E+00  0.00000000000E+00 -0.79461779462E+03  0.79461779463E+03  0.50400001928E-02 0. -1.
    10030    2    1    2    0    0  0.00000000000E+00  0.00000000000E+00  0.11965752897E+03  0.17088931182E+04  0.17046987315E+04 0.  0.
        4    1    3    3  502    0  0.14410149865E+03 -0.70987001676E+03  0.51017474702E+03  0.88598000429E+03  0.12699999809E+01 0.  1.
       -4    1    3    3    0  502 -0.14410149865E+03  0.70987001676E+03 -0.39051721805E+03  0.82291311394E+03  0.12699999809E+01 0. -1.
</event>
<event>
 5   0  0.6746664E-04  0.1704137E+04  0.7818609E-02  0.8759008E-01
        2   -1    0    0  501    0  0.00000000000E+00  0.00000000000E+00  0.13627482296E+04  0.13627482296E+04  0.25500000920E-02 0. -1.
       -2   -1    0    0    0  501  0.00000000000E+00  0.00000000000E+00 -0.53276244530E+03  0.53276244530E+03  0.25500000920E-02 0.  1.
    10030    2    1    2    0    0  0.00000000000E+00  0.00000000000E+00  0.82998578434E+03  0.18955106749E+04  0.17041374113E+04 0.  0.
        5    1    3    3  502    0 -0.57150987866E+03 -0.54360035528E+03  0.77348142148E+03  0.11047264309E+04  0.46999998093E+01 0. -1.
       -5    1    3    3    0  502  0.57150987866E+03  0.54360035528E+03  0.56504362862E+02  0.79078424409E+03  0.46999998093E+01 0.  1.
</event>
<event>
 5   0  0.7242144E-04  0.1675839E+04  0.7818609E-02  0.8775266E-01
       -2   -1    0    0    0  501  0.00000000000E+00  0.00000000000E+00  0.45801862818E+03  0.45801862819E+03  0.25500000920E-02 0.  1.
        2   -1    0    0  501    0  0.00000000000E+00  0.00000000000E+00 -0.15329267873E+04  0.15329267873E+04  0.25500000920E-02 0. -1.
    10030    2    1    2    0    0  0.00000000000E+00  0.00000000000E+00 -0.10749081591E+04  0.19909454155E+04  0.16758389233E+04 0.  0.
        3    1    3    3  502    0 -0.52692234648E+01  0.69260926350E+03  0.22779001434E+02  0.69300378766E+03  0.10100000352E+00 0.  1.
       -3    1    3    3    0  502  0.52692234648E+01 -0.69260926350E+03 -0.10976871605E+04  0.12979416278E+04  0.10100000352E+00 0. -1.
</event>
<event>
 5   0  0.7049044E-04  0.1574785E+04  0.7818609E-02  0.8836190E-01
        2   -1    0    0  501    0  0.00000000000E+00  0.00000000000E+00  0.11485112205E+04  0.11485112205E+04  0.25500000920E-02 0.  1.
       -2   -1    0    0    0  501  0.00000000000E+00  0.00000000000E+00 -0.53981808666E+03  0.53981808667E+03  0.25500000920E-02 0. -1.
    10030    2    1    2    0    0  0.00000000000E+00  0.00000000000E+00  0.60869313386E+03  0.16883293072E+04  0.15747852293E+04 0.  0.
        4    1    3    3  502    0 -0.36778160014E+03 -0.66055830540E+03  0.68520985358E+02  0.75914248898E+03  0.12699999809E+01 0. -1.
       -4    1    3    3    0  502  0.36778160014E+03  0.66055830540E+03  0.54017214850E+03  0.92918681822E+03  0.12699999809E+01 0.  1.
</event>
<event>
 5   0  0.7025426E-04  0.1655142E+04  0.7818609E-02  0.8787370E-01
       -2   -1    0    0    0  501  0.00000000000E+00  0.00000000000E+00  0.76767121433E+03  0.76767121433E+03  0.25500000920E-02 0.  1.
        2   -1    0    0  501    0  0.00000000000E+00  0.00000000000E+00 -0.89214473245E+03  0.89214473245E+03  0.25500000920E-02 0. -1.
    10030    2    1    2    0    0  0.00000000000E+00  0.00000000000E+00 -0.12447351812E+03  0.16598159468E+04  0.16551420847E+04 0.  0.
        2    1    3    3  502    0 -0.52050680234E+03 -0.55422648392E+03  0.26545732392E+03  0.80533342014E+03  0.25500000920E-02 0.  1.
       -2    1    3    3    0  502  0.52050680234E+03  0.55422648392E+03 -0.38993084204E+03  0.85448252664E+03  0.25500000920E-02 0. -1.
</event>
<event>
 5   0  0.7025426E-04  0.1710534E+04  0.7818609E-02  0.8755379E-01
        2   -1    0    0  501    0  0.00000000000E+00  0.00000000000E+00  0.14180029277E+04  0.14180029277E+04  0.25500000920E-02 0. -1.
       -2   -1    0    0    0  501  0.00000000000E+00  0.00000000000E+00 -0.51585318206E+03  0.51585318206E+03  0.25500000920E-02 0.  1.
    10030    2    1    2    0    0  0.00000000000E+00  0.00000000000E+00  0.90214974567E+03  0.19338561098E+04  0.17105336272E+04 0.  0.
        2    1    3    3  502    0 -0.19491330157E+03 -0.58359390535E+02 -0.48809384131E+03  0.52880299879E+03  0.25500000920E-02 0.  1.
       -2    1    3    3    0  502  0.19491330157E+03  0.58359390535E+02  0.13902435870E+04  0.14050531110E+04  0.25500000920E-02 0. -1.
</event>
<event>
 5   0  0.7025426E-04  0.1716374E+04  0.7818609E-02  0.8752080E-01
        2   -1    0    0  501    0  0.00000000000E+00  0.00000000000E+00  0.65083353191E+03  0.65083353191E+03  0.25500000920E-02 0.  1.
       -2   -1    0    0    0  501  0.00000000000E+00  0.00000000000E+00 -0.11316032184E+04  0.11316032184E+04  0.25500000920E-02 0. -1.
    10030    2    1    2    0    0  0.00000000000E+00  0.00000000000E+00 -0.48076968653E+03  0.17824367503E+04  0.17163744573E+04 0.  0.
        2    1    3    3  502    0  0.27487757728E+03 -0.71097349425E+03  0.16905445481E+03  0.78078191624E+03  0.25500000920E-02 0.  1.
       -2    1    3    3    0  502 -0.27487757728E+03  0.71097349425E+03 -0.64982414134E+03  0.10016548341E+04  0.25500000920E-02 0. -1.
</event>
<event>
 5   0  0.7242144E-04  0.1569711E+04  0.7818609E-02  0.8839375E-01
        2   -1    0    0  501    0  0.00000000000E+00  0.00000000000E+00  0.10183421277E+04  0.10183421277E+04  0.25500000920E-02 0. -1.
       -2   -1    0    0    0  501  0.00000000000E+00  0.00000000000E+00 -0.60490291216E+03  0.60490291217E+03  0.25500000920E-02 0.  1.
    10030    2    1    2    0    0  0.00000000000E+00  0.00000000000E+00  0.41343921553E+03  0.16232450399E+04  0.15697109525E+04 0.  0.
        3    1    3    3  502    0 -0.58880923064E+03 -0.33894472018E+03 -0.19964300525E+03  0.70812228687E+03  0.10100000352E+00 0. -1.
       -3    1    3    3    0  502  0.58880923064E+03  0.33894472018E+03  0.61308222078E+03  0.91512275300E+03  0.10100000352E+00 0.  1.
</event>
<event>
 5   0  0.7049044E-04  0.1701916E+04  0.7818609E-02  0.8760272E-01
        2   -1    0    0  501    0  0.00000000000E+00  0.00000000000E+00  0.10788665427E+04  0.10788665427E+04  0.25500000920E-02 0.  1.
       -2   -1    0    0    0  501  0.00000000000E+00  0.00000000000E+00 -0.67119454991E+03  0.67119454991E+03  0.25500000920E-02 0. -1.
    10030    2    1    2    0    0  0.00000000000E+00  0.00000000000E+00  0.40767199275E+03  0.17500610926E+04  0.17019157952E+04 0.  0.
        4    1    3    3  502    0 -0.68604397029E+03 -0.22792392950E+03 -0.25777533741E+03  0.76749943602E+03  0.12699999809E+01 0. -1.
       -4    1    3    3    0  502  0.68604397029E+03  0.22792392950E+03  0.66544733016E+03  0.98256165655E+03  0.12699999809E+01 0.  1.
</event>
<event>
 5   0  0.7233728E-04  0.1677842E+04  0.7818609E-02  0.8774104E-01
        2   -1    0    0  501    0  0.00000000000E+00  0.00000000000E+00  0.65457542202E+03  0.65457542202E+03  0.25500000920E-02 0.  1.
       -2   -1    0    0    0  501  0.00000000000E+00  0.00000000000E+00 -0.10751831841E+04  0.10751831841E+04  0.25500000920E-02 0. -1.
    10030    2    1    2    0    0  0.00000000000E+00  0.00000000000E+00 -0.42060776211E+03  0.17297586061E+04  0.16778420504E+04 0.  0.
        1    1    3    3  502    0  0.54724348801E+02  0.51956245416E+03  0.46639703230E+03  0.70033284222E+03  0.50400001928E-02 0.  1.
       -1    1    3    3    0  502 -0.54724348801E+02 -0.51956245416E+03 -0.88700479441E+03  0.10294257639E+04  0.50400001928E-02 0. -1.
</event>
<event>
 5   0  0.3723500E-04  0.1686125E+04  0.7818609E-02  0.8769318E-01
        1   -1    0    0  501    0  0.00000000000E+00  0.00000000000E+00  0.10659779822E+04  0.10659779822E+04  0.50400001928E-02 0. -1.
       -1   -1    0    0    0  501  0.00000000000E+00  0.00000000000E+00 -0.66676256365E+03  0.66676256367E+03  0.50400001928E-02 0.  1.
    10030    2    1    2    0    0  0.00000000000E+00  0.00000000000E+00  0.39921541851E+03  0.17327405458E+04  0.16861248023E+04 0.  0.
        1    1    3    3  502    0  0.35981431549E+03  0.66053766176E+03 -0.19167862065E+03  0.77621970980E+03  0.50400001928E-02 0.  1.
       -1    1    3    3    0  502 -0.35981431549E+03 -0.66053766176E+03  0.59089403916E+03  0.95652083604E+03  0.50400001928E-02 0. -1.
</event>
<event>
 5   0  0.3635143E-04  0.1680006E+04  0.7818609E-02  0.8772850E-01
        1   -1    0    0  501    0  0.00000000000E+00  0.00000000000E+00  0.88787224536E+03  0.88787224537E+03  0.50400001928E-02 0. -1.
       -1   -1    0    0    0  501  0.00000000000E+00  0.00000000000E+00 -0.79471484053E+03  0.79471484055E+03  0.50400001928E-02 0.  1.
    10030    2    1    2    0    0  0.00000000000E+00  0.00000000000E+00  0.93157404820E+02  0.16825870859E+04  0.16800062499E+04 0.  0.
        3    1    3    3  502    0 -0.18236210364E+03  0.81774782376E+03  0.10698553154E+03  0.84463800191E+03  0.10100000352E+00 0.  1.
       -3    1    3    3    0  502  0.18236210364E+03 -0.81774782376E+03 -0.13828126722E+02  0.83794908401E+03  0.10100000352E+00 0. -1.
</event>
<event>
 5   0  0.3723500E-04  0.1713332E+04  0.7818609E-02  0.8753797E-01
       -1   -1    0    0    0  501  0.00000000000E+00  0.00000000000E+00  0.63598088524E+03  0.63598088526E+03  0.50400001928E-02 0.  1.
        1   -1    0    0  501    0  0.00000000000E+00  0.00000000000E+00 -0.11539281057E+04  0.11539281057E+04  0.50400001928E-02 0. -1.
    10030    2    1    2    0    0  0.00000000000E+00  0.00000000000E+00 -0.51794722046E+03  0.17899089910E+04  0.17133315128E+04 0.  0.
        1    1    3    3  502    0 -0.37098794829E+03  0.36059944810E+03 -0.97228862068E+03  0.11013669605E+04  0.50400001928E-02 0. -1.
       -1    1    3    3    0  502  0.37098794829E+03 -0.36059944810E+03  0.45434140022E+03  0.68854203047E+03  0.50400001928E-02 0.  1.
</event>
<event>
 5   0  0.7049044E-04  0.1084120E+04  0.7818609E-02  0.9220809E-01
        2   -1    0    0  501    0  0.00000000000E+00  0.00000000000E+00  0.96794594705E+03  0.96794594705E+03  0.25500000920E-02 0.  1.
       -2   -1    0    0    0  501  0.00000000000E+00  0.00000000000E+00 -0.30355938799E+03  0.30355938800E+03  0.25500000920E-02 0. -1.
    10030    2    1    2    0    0  0.00000000000E+00  0.00000000000E+00  0.66438655906E+03  0.12715053350E+04  0.10841200659E+04 0.  0.
        4    1    3    3  502    0  0.30899577241E+03  0.23865554449E+03  0.77320909053E+03  0.86619210736E+03  0.12699999809E+01 0.  1.
       -4    1    3    3    0  502 -0.30899577241E+03 -0.23865554449E+03 -0.10882253147E+03  0.40531322769E+03  0.12699999809E+01 0. -1.
</event>
<event>
 5   0  0.7025426E-04  0.1718078E+04  0.7818609E-02  0.8751120E-01
        2   -1    0    0  501    0  0.00000000000E+00  0.00000000000E+00  0.13400520196E+04  0.13400520196E+04  0.25500000920E-02 0. -1.
       -2   -1    0    0    0  501  0.00000000000E+00  0.00000000000E+00 -0.55068611981E+03  0.55068611981E+03  0.25500000920E-02 0.  1.
    10030    2    1    2    0    0  0.00000000000E+00  0.00000000000E+00  0.78936589979E+03  0.18907381394E+04  0.17180780506E+04 0.  0.
        2    1    3    3  502    0 -0.79295042204E+03  0.23159700015E+03  0.65403722209E+03  0.10536471089E+04  0.25500000920E-02 0.  1.
       -2    1    3    3    0  502  0.79295042204E+03 -0.23159700015E+03  0.13532867770E+03  0.83709103048E+03  0.25500000920E-02 0. -1.
</event>
<event>
 5   0  0.7025426E-04  0.1689980E+04  0.7818609E-02  0.8767100E-01
        2   -1    0    0  501    0  0.00000000000E+00  0.00000000000E+00  0.16149691454E+04  0.16149691454E+04  0.25500000920E-02 0. -1.
       -2   -1    0    0    0  501  0.00000000000E+00  0.00000000000E+00 -0.44211861721E+03  0.44211861722E+03  0.25500000920E-02 0.  1.
    10030    2    1    2    0    0  0.00000000000E+00  0.00000000000E+00  0.11728505282E+04  0.20570877626E+04  0.16899797933E+04 0.  0.
        2    1    3    3  502    0  0.53461385077E+01  0.17347415321E+03 -0.42018924331E+03  0.45462167043E+03  0.25500000920E-02 0.  1.
       -2    1    3    3    0  502 -0.53461385077E+01 -0.17347415321E+03  0.15930397715E+04  0.16024660922E+04  0.25500000920E-02 0. -1.
</event>
<event>
 5   0  0.7233728E-04  0.1630362E+04  0.7818609E-02  0.8802110E-01
        2   -1    0    0  501    0  0.00000000000E+00  0.00000000000E+00  0.12133532803E+04  0.12133532804E+04  0.25500000920E-02 0.  1.
       -2   -1    0    0    0  501  0.00000000000E+00  0.00000000000E+00 -0.54767207624E+03  0.54767207625E+03  0.25500000920E-02 0. -1.
    10030    2    1    2    0    0  0.00000000000E+00  0.00000000000E+00  0.66568120411E+03  0.17610253566E+04  0.16303615676E+04 0.  0.
        1    1    3    3  502    0  0.51247433639E+03 -0.40771868939E+03 -0.19150813485E+03  0.68230480057E+03  0.50400001928E-02 0. -1.
       -1    1    3    3    0  502 -0.51247433639E+03  0.40771868939E+03  0.85718933896E+03  0.10787205560E+04  0.50400001928E-02 0.  1.
</event>
<event>
 5   0  0.6746664E-04  0.1714463E+04  0.7818609E-02  0.8753158E-01
        2   -1    0    0  501    0  0.00000000000E+00  0.00000000000E+00  0.89372512233E+03  0.89372512234E+03  0.25500000920E-02 0. -1.
       -2   -1    0    0    0  501  0.00000000000E+00  0.00000000000E+00 -0.82222833053E+03  0.82222833054E+03  0.25500000920E-02 0.  1.
    10030    2    1    2    0    0  0.00000000000E+00  0.00000000000E+00  0.71496791801E+02  0.17159534529E+04  0.17144633158E+04 0.  0.
        5    1    3    3  502    0 -0.40834986680E+03 -0.28344613066E+02  0.78957696903E+03  0.88938569295E+03  0.46999998093E+01 0. -1.
       -5    1    3    3    0  502  0.40834986680E+03  0.28344613066E+02 -0.71808017723E+03  0.82656775992E+03  0.46999998093E+01 0.  1.
</event>
<event>
 5   0  0.3915701E-04  0.1666659E+04  0.7818609E-02  0.8780612E-01
        1   -1    0    0  501    0  0.00000000000E+00  0.00000000000E+00  0.20081734627E+04  0.20081734627E+04  0.50400001928E-02 0.  1.
       -1   -1    0    0    0  501  0.00000000000E+00  0.00000000000E+00 -0.34580587410E+03  0.34580587414E+03  0.50400001928E-02 0. -1.
    10030    2    1    2    0    0  0.00000000000E+00  0.00000000000E+00  0.16623675886E+04  0.23539793368E+04  0.16666591489E+04 0.  0.
        2    1    3    3  502    0  0.17623567268E+03 -0.67607628741E+03  0.14726968387E+04  0.16300227414E+04  0.25500000920E-02 0.  1.
       -2    1    3    3    0  502 -0.17623567268E+03  0.67607628741E+03  0.18967074989E+03  0.72395659545E+03  0.25500000920E-02 0. -1.
</event>
<event>
 5   0  0.3635143E-04  0.1725828E+04  0.7818609E-02  0.8746769E-01
       -1   -1    0    0    0  501  0.00000000000E+00  0.00000000000E+00  0.14021818063E+04  0.14021818063E+04  0.50400001928E-02 0. -1.
        1   -1    0    0  501    0  0.00000000000E+00  0.00000000000E+00 -0.53104437970E+03  0.53104437973E+03  0.50400001928E-02 0.  1.
    10030    2    1    2    0    0  0.00000000000E+00  0.00000000000E+00  0.87113742662E+03  0.19332261861E+04  0.17258282274E+04 0.  0.
        3    1    3    3  502    0  0.39070357616E+03 -0.33925712172E+03 -0.33798035940E+03  0.61804159456E+03  0.10100000352E+00 0.  1.
       -3    1    3    3    0  502 -0.39070357616E+03  0.33925712172E+03  0.12091177860E+04  0.13151845915E+04  0.10100000352E+00 0. -1.
</event>
<event>
 5   0  0.3723500E-04  0.1665009E+04  0.7818609E-02  0.8781576E-01
        1   -1    0    0  501    0  0.00000000000E+00  0.00000000000E+00  0.12902320996E+04  0.12902320996E+04  0.50400001928E-02 0. -1.
       -1   -1    0    0    0  501  0.00000000000E+00  0.00000000000E+00 -0.53716227768E+03  0.53716227770E+03  0.50400001928E-02 0.  1.
    10030    2    1    2    0    0  0.00000000000E+00  0.00000000000E+00  0.75306982192E+03  0.18273943773E+04  0.16650093254E+04 0.  0.
        1    1    3    3  502    0 -0.59330548445E+03  0.29871649882E+03 -0.17422414330E+03  0.68672920186E+03  0.50400001928E-02 0.  1.
       -1    1    3    3    0  502  0.59330548445E+03 -0.29871649882E+03  0.92729396522E+03  0.11406651755E+04  0.50400001928E-02 0. -1.
</event>
<event>
 5   0  0.3915701E-04  0.1722031E+04  0.7818609E-02  0.8748898E-01
        1   -1    0    0  501    0  0.00000000000E+00  0.00000000000E+00  0.11721848780E+04  0.11721848780E+04  0.50400001928E-02 0. -1.
       -1   -1    0    0    0  501  0.00000000000E+00  0.00000000000E+00 -0.63244950767E+03  0.63244950769E+03  0.50400001928E-02 0.  1.
    10030    2    1    2    0    0  0.00000000000E+00  0.00000000000E+00  0.53973537032E+03  0.18046343857E+04  0.17220310671E+04 0.  0.
        2    1    3    3  502    0  0.63377549241E+03 -0.57138419788E+02 -0.33796452608E+03  0.72052494384E+03  0.25500000920E-02 0.  1.
       -2    1    3    3    0  502 -0.63377549241E+03  0.57138419788E+02  0.87769989640E+03  0.10841094419E+04  0.25500000920E-02 0. -1.
</event>
<event>
 5   0  0.7242144E-04  0.1674968E+04  0.7818609E-02  0.8775771E-01
       -2   -1    0    0    0  501  0.00000000000E+00  0.00000000000E+00  0.68320440957E+03  0.68320440957E+03  0.25500000920E-02 0.  1.
        2   -1    0    0  501    0  0.00000000000E+00  0.00000000000E+00 -0.10266021393E+04  0.10266021393E+04  0.25500000920E-02 0. -1.
    10030    2    1    2    0    0  0.00000000000E+00  0.00000000000E+00 -0.34339772969E+03  0.17098065488E+04  0.16749675918E+04 0.  0.
        3    1    3    3  502    0 -0.72150320903E+03 -0.51624303792E+02  0.25915501259E+03  0.76837053570E+03  0.10100000352E+00 0.  1.
       -3    1    3    3    0  502  0.72150320903E+03  0.51624303792E+02 -0.60255274228E+03  0.94143601313E+03  0.10100000352E+00 0. -1.
</event>
<event>
 5   0  0.3915701E-04  0.1626676E+04  0.7818609E-02  0.8804325E-01
       -1   -1    0    0    0  501  0.00000000000E+00  0.00000000000E+00  0.69913772348E+03  0.69913772350E+03  0.50400001928E-02 0.  1.
        1   -1    0    0  501    0  0.00000000000E+00  0.00000000000E+00 -0.94619222743E+03  0.94619222744E+03  0.50400001928E-02 0. -1.
    10030    2    1    2    0    0  0.00000000000E+00  0.00000000000E+00 -0.24705450395E+03  0.16453299509E+04  0.16266759725E+04 0.  0.
        2    1    3    3  502    0  0.44855384743E+03 -0.66177382452E+03  0.27765881192E+02  0.79994755642E+03  0.25500000920E-02 0.  1.
       -2    1    3    3    0  502 -0.44855384743E+03  0.66177382452E+03 -0.27482038514E+03  0.84538239452E+03  0.25500000920E-02 0. -1.
</event>
<event>
 5   0  0.6746664E-04  0.1688432E+04  0.7818609E-02  0.8767990E-01
        2   -1    0    0  501    0  0.00000000000E+00  0.00000000000E+00  0.25051731821E+04  0.25051731821E+04  0.25500000920E-02 0.  1.
       -2   -1    0    0    0  501  0.00000000000E+00  0.00000000000E+00 -0.28449141244E+03  0.28449141246E+03  0.25500000920E-02 0. -1.
    10030    2    1    2    0    0  0.00000000000E+00  0.00000000000E+00  0.22206817696E+04  0.27896645946E+04  0.16884315290E+04 0.  0.
        5    1    3    3  502    0 -0.76524215322E+03  0.34400866296E+03  0.95587218346E+03  0.12718691892E+04  0.46999998093E+01 0.  1.
       -5    1    3    3    0  502  0.76524215322E+03 -0.34400866296E+03  0.12648095862E+04  0.15177954054E+04  0.46999998093E+01 0. -1.
</event>
<event>
 5   0  0.7049044E-04  0.1626925E+04  0.7818609E-02  0.8804176E-01
       -2   -1    0    0    0  501  0.00000000000E+00  0.00000000000E+00  0.50851975562E+03  0.50851975563E+03  0.25500000920E-02 0. -1.
        2   -1    0    0  501    0  0.00000000000E+00  0.00000000000E+00 -0.13012693093E+04  0.13012693093E+04  0.25500000920E-02 0.  1.
    10030    2    1    2    0    0  0.00000000000E+00  0.00000000000E+00 -0.79274955365E+03  0.18097890649E+04  0.16269248921E+04 0.  0.
        4    1    3    3  502    0  0.26946487401E+02  0.57121200781E+02  0.50578711331E+03  0.50971674649E+03  0.12699999809E+01 0. -1.
       -4    1    3    3    0  502 -0.26946487401E+02 -0.57121200781E+02 -0.12985366670E+04  0.13000723184E+04  0.12699999809E+01 0.  1.
</event>
<event>
 5   0  0.3713516E-04  0.1699917E+04  0.7818609E-02  0.8761412E-01
       -1   -1    0    0    0  501  0.00000000000E+00  0.00000000000E+00  0.39383106266E+03  0.39383106269E+03  0.50400001928E-02 0. -1.
        1   -1    0    0  501    0  0.00000000000E+00  0.00000000000E+00 -0.18343638025E+04  0.18343638025E+04  0.50400001928E-02 0.  1.
    10030    2    1    2    0    0  0.00000000000E+00  0.00000000000E+00 -0.14405327398E+04  0.22281948652E+04  0.16999169929E+04 0.  0.
        5    1    3    3  502    0 -0.23572506974E+03 -0.69266322602E+03 -0.12871767548E+04  0.14806062073E+04  0.46999998093E+01 0.  1.
       -5    1    3    3    0  502  0.23572506974E+03  0.69266322602E+03 -0.15335598505E+03  0.74758865784E+03  0.46999998093E+01 0. -1.
</event>
<event>
 5   0  0.3635143E-04  0.1690412E+04  0.7818609E-02  0.8766851E-01
        1   -1    0    0  501    0  0.00000000000E+00  0.00000000000E+00  0.75114936112E+03  0.75114936114E+03  0.50400001928E-02 0.  1.
       -1   -1    0    0    0  501  0.00000000000E+00  0.00000000000E+00 -0.95104062848E+03  0.95104062849E+03  0.50400001928E-02 0. -1.
    10030    2    1    2    0    0  0.00000000000E+00  0.00000000000E+00 -0.19989126736E+03  0.17021899896E+04  0.16904124473E+04 0.  0.
        3    1    3    3  502    0  0.29328408255E+03 -0.41320794931E+03 -0.78113288936E+03  0.93108805357E+03  0.10100000352E+00 0. -1.
       -3    1    3    3    0  502 -0.29328408255E+03  0.41320794931E+03  0.58124162200E+03  0.77110193607E+03  0.10100000352E+00 0.  1.
</event>
<event>
 5   0  0.3803253E-04  0.1664246E+04  0.7818609E-02  0.8782023E-01
       -1   -1    0    0    0  501  0.00000000000E+00  0.00000000000E+00  0.14005311146E+04  0.14005311146E+04  0.50400001928E-02 0. -1.
        1   -1    0    0  501    0  0.00000000000E+00  0.00000000000E+00 -0.49440440760E+03  0.49440440762E+03  0.50400001928E-02 0.  1.
    10030    2    1    2    0    0  0.00000000000E+00  0.00000000000E+00  0.90612670701E+03  0.18949355222E+04  0.16642460828E+04 0.  0.
        4    1    3    3  502    0  0.62046735426E+03  0.21356227498E+03 -0.12956779054E+03  0.66886322088E+03  0.12699999809E+01 0. -1.
       -4    1    3    3    0  502 -0.62046735426E+03 -0.21356227498E+03  0.10356944976E+04  0.12260723014E+04  0.12699999809E+01 0.  1.
</event>
<event>
 5   0  0.3713516E-04  0.1704396E+04  0.7818609E-02  0.8758861E-01
       -1   -1    0    0    0  501  0.00000000000E+00  0.00000000000E+00  0.40833444237E+03  0.40833444241E+03  0.50400001928E-02 0. -1.
        1   -1    0    0  501    0  0.00000000000E+00  0.00000000000E+00 -0.17785447052E+04  0.17785447052E+04  0.50400001928E-02 0.  1.
    10030    2    1    2    0    0  0.00000000000E+00  0.00000000000E+00 -0.13702102628E+04  0.21868791476E+04  0.17043955650E+04 0.  0.
        5    1    3    3  502    0  0.29964668787E+03 -0.56640759414E+03 -0.14059337414E+04  0.15450817051E+04  0.46999998093E+01 0.  1.
       -5    1    3    3    0  502 -0.29964668787E+03  0.56640759414E+03  0.35723478600E+02  0.64179744248E+03  0.46999998093E+01 0. -1.
</event>
<event>
 5   0  0.7025426E-04  0.1686254E+04  0.7818609E-02  0.8769243E-01
       -2   -1    0    0    0  501  0.00000000000E+00  0.00000000000E+00  0.63182675501E+03  0.63182675502E+03  0.25500000920E-02 0.  1.
        2   -1    0    0  501    0  0.00000000000E+00  0.00000000000E+00 -0.11250913642E+04  0.11250913642E+04  0.25500000920E-02 0. -1.
    10030    2    1    2    0    0  0.00000000000E+00  0.00000000000E+00 -0.49326460916E+03  0.17569181192E+04  0.16862536295E+04 0.  0.
        2    1    3    3  502    0  0.39964916198E+03  0.73306817436E+03 -0.12443831610E+03  0.84415241245E+03  0.25500000920E-02 0. -1.
       -2    1    3    3    0  502 -0.39964916198E+03 -0.73306817436E+03 -0.36882629306E+03  0.91276570673E+03  0.25500000920E-02 0.  1.
</event>
<event>
 5   0  0.3915701E-04  0.1706672E+04  0.7818609E-02  0.8757568E-01
       -1   -1    0    0    0  501  0.00000000000E+00  0.00000000000E+00  0.76378838209E+03  0.76378838211E+03  0.50400001928E-02 0.  1.
        1   -1    0    0  501    0  0.00000000000E+00  0.00000000000E+00 -0.95338192601E+03  0.95338192603E+03  0.50400001928E-02 0. -1.
    10030    2    1    2    0    0  0.00000000000E+00  0.00000000000E+00 -0.18959354392E+03  0.17171703081E+04  0.17066716601E+04 0.  0.
        2    1    3    3  502    0  0.28894250810E+03 -0.78799534863E+03  0.60286388582E+02  0.84146235275E+03  0.25500000920E-02 0. -1.
       -2    1    3    3    0  502 -0.28894250810E+03  0.78799534863E+03 -0.24987993250E+03  0.87570795538E+03  0.25500000920E-02 0.  1.
</event>
<event>
 5   0  0.6746664E-04  0.1654380E+04  0.7818609E-02  0.8787819E-01
        2   -1    0    0  501    0  0.00000000000E+00  0.00000000000E+00  0.13952554695E+04  0.13952554695E+04  0.25500000920E-02 0. -1.
       -2   -1    0    0    0  501  0.00000000000E+00  0.00000000000E+00 -0.49040727172E+03  0.49040727172E+03  0.25500000920E-02 0.  1.
    10030    2    1    2    0    0  0.00000000000E+00  0.00000000000E+00  0.90484819777E+03  0.18856627412E+04  0.16543801596E+04 0.  0.
        5    1    3    3  502    0  0.52702753092E+03  0.58260918355E+03  0.15732841335E+03  0.80122768221E+03  0.46999998093E+01 0.  1.
       -5    1    3    3    0  502 -0.52702753092E+03 -0.58260918355E+03  0.74751978443E+03  0.10844350590E+04  0.46999998093E+01 0. -1.
</event>
<event>
 5   0  0.3723500E-04  0.1642275E+04  0.7818609E-02  0.8794989E-01
       -1   -1    0    0    0  501  0.00000000000E+00  0.00000000000E+00  0.68338049068E+03  0.68338049070E+03  0.50400001928E-02 0.  1.
        1   -1    0    0  501    0  0.00000000000E+00  0.00000000000E+00 -0.98666431785E+03  0.98666431786E+03  0.50400001928E-02 0. -1.
    10030    2    1    2    0    0  0.00000000000E+00  0.00000000000E+00 -0.30328382717E+03  0.16700448086E+04  0.16422754284E+04 0.  0.
        1    1    3    3  502    0 -0.41183390537E+03 -0.50606752374E+03  0.35534172163E+03  0.74295305595E+03  0.50400001928E-02 0.  1.
       -1    1    3    3    0  502  0.41183390537E+03  0.50606752374E+03 -0.65862554879E+03  0.92709175260E+03  0.50400001928E-02 0. -1.
</event>
<event>
 5   0  0.7242144E-04  0.1757740E+04  0.7818609E-02  0.8729101E-01
       -2   -1    0    0    0  501  0.00000000000E+00  0.00000000000E+00  0.94606121928E+03  0.94606121929E+03  0.25500000920E-02 0.  1.
        2   -1    0    0  501    0  0.00000000000E+00  0.00000000000E+00 -0.81645090349E+03  0.81645090350E+03  0.25500000920E-02 0. -1.
    10030    2    1    2    0    0  0.00000000000E+00  0.00000000000E+00  0.12961031579E+03  0.17625121228E+04  0.17577400687E+04 0.  0.
        3    1    3    3  502    0 -0.31325387304E+03  0.69632212196E+03  0.50121086616E+03  0.91334814231E+03  0.10100000352E+00 0.  1.
       -3    1    3    3    0  502  0.31325387304E+03 -0.69632212196E+03 -0.37160055037E+03  0.84916398047E+03  0.10100000352E+00 0. -1.
</event>
<event>
 5   0  0.6746664E-04  0.1718636E+04  0.7818609E-02  0.8750806E-01
        2   -1    0    0  501    0  0.00000000000E+00  0.00000000000E+00  0.14037261132E+04  0.14037261132E+04  0.25500000920E-02 0.  1.
       -2   -1    0    0    0  501  0.00000000000E+00  0.00000000000E+00 -0.52604806943E+03  0.52604806944E+03  0.25500000920E-02 0. -1.
    10030    2    1    2    0    0  0.00000000000E+00  0.00000000000E+00  0.87767804374E+03  0.19297741826E+04  0.17186359846E+04 0.  0.
        5    1    3    3  502    0 -0.65532077658E+03  0.24154637533E+03  0.10009556406E+04  0.12205426072E+04  0.46999998093E+01 0.  1.
       -5    1    3    3    0  502  0.65532077658E+03 -0.24154637533E+03 -0.12327759683E+03  0.70923157539E+03  0.46999998093E+01 0. -1.
</event>
<event>
 5   0  0.6746664E-04  0.1391132E+04  0.7818609E-02  0.8960263E-01
       -2   -1    0    0    0  501  0.00000000000E+00  0.00000000000E+00  0.25710769771E+03  0.25710769772E+03  0.25500000920E-02 0.  1.
        2   -1    0    0  501    0  0.00000000000E+00  0.00000000000E+00 -0.18817495212E+04  0.18817495212E+04  0.25500000920E-02 0. -1.
    10030    2    1    2    0    0  0.00000000000E+00  0.00000000000E+00 -0.16246418235E+04  0.21388572189E+04  0.13911323260E+04 0.  0.
        5    1    3    3  502    0 -0.22067908516E+03 -0.19736141450E+03  0.15537159217E+03  0.33438482055E+03  0.46999998093E+01 0.  1.
       -5    1    3    3    0  502  0.22067908516E+03  0.19736141450E+03 -0.17800134157E+04  0.18044723984E+04  0.46999998093E+01 0. -1.
</event>
<event>
 5   0  0.7242144E-04  0.1691809E+04  0.7818609E-02  0.8766050E-01
        2   -1    0    0  501    0  0.00000000000E+00  0.00000000000E+00  0.22982398423E+04  0.22982398423E+04  0.25500000920E-02 0. -1.
       -2   -1    0    0    0  501  0.00000000000E+00  0.00000000000E+00 -0.31134877253E+03  0.31134877254E+03  0.25500000920E-02 0.  1.
    10030    2    1    2    0    0  0.00000000000E+00  0.00000000000E+00  0.19868910698E+04  0.26095886149E+04  0.16918086817E+04 0.  0.
        3    1    3    3  502    0  0.76748332548E+02 -0.56826339640E+03  0.19526929877E+04  0.20351470484E+04  0.10100000352E+00 0. -1.
       -3    1    3    3    0  502 -0.76748332548E+02  0.56826339640E+03  0.34198082084E+02  0.57444156644E+03  0.10100000352E+00 0.  1.
</event>
<event>
 5   0  0.3723500E-04  0.1651093E+04  0.7818609E-02  0.8789760E-01
        1   -1    0    0  501    0  0.00000000000E+00  0.00000000000E+00  0.10573723433E+04  0.10573723433E+04  0.50400001928E-02 0. -1.
       -1   -1    0    0    0  501  0.00000000000E+00  0.00000000000E+00 -0.64454797161E+03  0.64454797163E+03  0.50400001928E-02 0.  1.
    10030    2    1    2    0    0  0.00000000000E+00  0.00000000000E+00  0.41282437166E+03  0.17019203149E+04  0.16510932125E+04 0.  0.
        1    1    3    3  502    0  0.52593762371E+03 -0.36295025852E+02  0.86126384547E+03  0.10098035079E+04  0.50400001928E-02 0. -1.
       -1    1    3    3    0  502 -0.52593762371E+03  0.36295025852E+02 -0.44843947381E+03  0.69211680707E+03  0.50400001928E-02 0.  1.
</event>
<event>
 5   0  0.3915701E-04  0.1725815E+04  0.7818609E-02  0.8746777E-01
       -1   -1    0    0    0  501  0.00000000000E+00  0.00000000000E+00  0.85993174706E+03  0.85993174707E+03  0.50400001928E-02 0. -1.
        1   -1    0    0  501    0  0.00000000000E+00  0.00000000000E+00 -0.86589346679E+03  0.86589346680E+03  0.50400001928E-02 0.  1.
    10030    2    1    2    0    0  0.00000000000E+00  0.00000000000E+00 -0.59617197297E+01  0.17258252139E+04  0.17258149167E+04 0.  0.
        2    1    3    3  502    0  0.77152561112E+03 -0.26848092738E+03 -0.28096723874E+03  0.86387288777E+03  0.25500000920E-02 0.  1.
       -2    1    3    3    0  502 -0.77152561112E+03  0.26848092738E+03  0.27500551901E+03  0.86195232610E+03  0.25500000920E-02 0. -1.
</event>
<event>
 5   0  0.3713516E-04  0.1677279E+04  0.7818609E-02  0.8774430E-01
       -1   -1    0    0    0  501  0.00000000000E+00  0.00000000000E+00  0.59644249076E+03  0.59644249079E+03  0.50400001928E-02 0.  1.
        1   -1    0    0  501    0  0.00000000000E+00  0.00000000000E+00 -0.11791853209E+04  0.11791853209E+04  0.50400001928E-02 0. -1.
    10030    2    1    2    0    0  0.00000000000E+00  0.00000000000E+00 -0.58274283013E+03  0.17756278117E+04  0.16772790226E+04 0.  0.
        5    1    3    3  502    0  0.91397636422E+02 -0.83169619968E+03 -0.23128001593E+03  0.86809252518E+03  0.46999998093E+01 0.  1.
       -5    1    3    3    0  502 -0.91397636422E+02  0.83169619968E+03 -0.35146281421E+03  0.90753528652E+03  0.46999998093E+01 0. -1.
</event>
<event>
 5   0  0.7025426E-04  0.1692628E+04  0.7818609E-02  0.8765580E-01
       -2   -1    0    0    0  501  0.00000000000E+00  0.00000000000E+00  0.80918386192E+03  0.80918386192E+03  0.25500000920E-02 0. -1.
        2   -1    0    0  501    0  0.00000000000E+00  0.00000000000E+00 -0.88514750613E+03  0.88514750613E+03  0.25500000920E-02 0.  1.
    10030    2    1    2    0    0  0.00000000000E+00  0.00000000000E+00 -0.75963644208E+02  0.16943313681E+04  0.16926276346E+04 0.  0.
        2    1    3    3  502    0 -0.55898541088E+03  0.60195813240E+02 -0.67119965674E+03  0.87555536931E+03  0.25500000920E-02 0.  1.
       -2    1    3    3    0  502  0.55898541088E+03 -0.60195813240E+02  0.59523601253E+03  0.81877599875E+03  0.25500000920E-02 0. -1.
</event>
<event>
 5   0  0.3635143E-04  0.1692997E+04  0.7818609E-02  0.8765368E-01
        1   -1    0    0  501    0  0.00000000000E+00  0.00000000000E+00  0.80650895198E+03  0.80650895199E+03  0.50400001928E-02 0. -1.
       -1   -1    0    0    0  501  0.00000000000E+00  0.00000000000E+00 -0.88847130187E+03  0.88847130189E+03  0.50400001928E-02 0.  1.
    10030    2    1    2    0    0  0.00000000000E+00  0.00000000000E+00 -0.81962349894E+02  0.16949802539E+04  0.16929974112E+04 0.  0.
        3    1    3    3  502    0  0.46990700212E+03 -0.33191002409E+03 -0.66266189244E+03  0.87755207744E+03  0.10100000352E+00 0.  1.
       -3    1    3    3    0  502 -0.46990700212E+03  0.33191002409E+03  0.58069954254E+03  0.81742817644E+03  0.10100000352E+00 0. -1.
</event>
<event>
 5   0  0.3803253E-04  0.1725262E+04  0.7818609E-02  0.8747086E-01
        1   -1    0    0  501    0  0.00000000000E+00  0.00000000000E+00  0.93482771100E+03  0.93482771101E+03  0.50400001928E-02 0.  1.
       -1   -1    0    0    0  501  0.00000000000E+00  0.00000000000E+00 -0.79600965620E+03  0.79600965622E+03  0.50400001928E-02 0. -1.
    10030    2    1    2    0    0  0.00000000000E+00  0.00000000000E+00  0.13881805479E+03  0.17308373672E+04  0.17252615858E+04 0.  0.
        4    1    3    3  502    0  0.94754816363E+02  0.41826349377E+03  0.82029803868E+03  0.92564210719E+03  0.12699999809E+01 0.  1.
       -4    1    3    3    0  502 -0.94754816363E+02 -0.41826349377E+03 -0.68147998389E+03  0.80519526004E+03  0.12699999809E+01 0. -1.
</event>
<event>
 5   0  0.7049044E-04  0.1704803E+04  0.7818609E-02  0.8758630E-01
       -2   -1    0    0    0  501  0.00000000000E+00  0.00000000000E+00  0.50997501497E+03  0.50997501498E+03  0.25500000920E-02 0. -1.
        2   -1    0    0  501    0  0.00000000000E+00  0.00000000000E+00 -0.14247530949E+04  0.14247530949E+04  0.25500000920E-02 0.  1.
    10030    2    1    2    0    0  0.00000000000E+00  0.00000000000E+00 -0.91477807990E+03  0.19347281099E+04  0.17048031920E+04 0.  0.
        4    1    3    3  502    0  0.12149439628E+03  0.16282097950E+03 -0.13968763282E+04  0.14115724030E+04  0.12699999809E+01 0.  1.
       -4    1    3    3    0  502 -0.12149439628E+03 -0.16282097950E+03  0.48209824831E+03  0.52315570686E+03  0.12699999809E+01 0. -1.
</event>
<event>
 5   0  0.3803253E-04  0.1705768E+04  0.7818609E-02  0.8758082E-01
       -1   -1    0    0    0  501  0.00000000000E+00  0.00000000000E+00  0.81462951901E+03  0.81462951903E+03  0.50400001928E-02 0. -1.
        1   -1    0    0  501    0  0.00000000000E+00  0.00000000000E+00 -0.89293467235E+03  0.89293467236E+03  0.50400001928E-02 0.  1.
    10030    2    1    2    0    0  0.00000000000E+00  0.00000000000E+00 -0.78305153332E+02  0.17075641914E+04  0.17057677951E+04 0.  0.
        4    1    3    3  502    0  0.13878796291E+03 -0.17507071495E+03 -0.86312175934E+03  0.89156751748E+03  0.12699999809E+01 0.  1.
       -4    1    3    3    0  502 -0.13878796291E+03  0.17507071495E+03  0.78481660600E+03  0.81599667391E+03  0.12699999809E+01 0. -1.
</event>
<event>
 5   0  0.3803253E-04  0.1606143E+04  0.7818609E-02  0.8816783E-01
        1   -1    0    0  501    0  0.00000000000E+00  0.00000000000E+00  0.14466018636E+04  0.14466018636E+04  0.50400001928E-02 0.  1.
       -1   -1    0    0    0  501  0.00000000000E+00  0.00000000000E+00 -0.44581969653E+03  0.44581969656E+03  0.50400001928E-02 0. -1.
    10030    2    1    2    0    0  0.00000000000E+00  0.00000000000E+00  0.10007821671E+04  0.18924215602E+04  0.16061427133E+04 0.  0.
        4    1    3    3  502    0 -0.34403983993E+03  0.30460193793E+03 -0.27561769634E+03  0.53582877814E+03  0.12699999809E+01 0. -1.
       -4    1    3    3    0  502  0.34403983993E+03 -0.30460193793E+03  0.12763998634E+04  0.13565927820E+04  0.12699999809E+01 0.  1.
</event>
<event>
 5   0  0.3723500E-04  0.1684196E+04  0.7818609E-02  0.8770430E-01
       -1   -1    0    0    0  501  0.00000000000E+00  0.00000000000E+00  0.67391380423E+03  0.67391380425E+03  0.50400001928E-02 0.  1.
        1   -1    0    0  501    0  0.00000000000E+00  0.00000000000E+00 -0.10522547081E+04  0.10522547081E+04  0.50400001928E-02 0. -1.
    10030    2    1    2    0    0  0.00000000000E+00  0.00000000000E+00 -0.37834090389E+03  0.17261685124E+04  0.16841959190E+04 0.  0.
        1    1    3    3  502    0  0.72560072988E+03  0.39435935517E+03 -0.20405836510E+02  0.82609449726E+03  0.50400001928E-02 0.  1.
       -1    1    3    3    0  502 -0.72560072988E+03 -0.39435935517E+03 -0.35793506738E+03  0.90007401512E+03  0.50400001928E-02 0. -1.
</event>
<event>
 5   0  0.7233728E-04  0.1676000E+04  0.7818609E-02  0.8775172E-01
        2   -1    0    0  501    0  0.00000000000E+00  0.00000000000E+00  0.16632426987E+04  0.16632426988E+04  0.25500000920E-02 0. -1.
       -2   -1    0    0    0  501  0.00000000000E+00  0.00000000000E+00 -0.42221400862E+03  0.42221400863E+03  0.25500000920E-02 0.  1.
    10030    2    1    2    0    0  0.00000000000E+00  0.00000000000E+00  0.12410286901E+04  0.20854567074E+04  0.16760004381E+04 0.  0.
        1    1    3    3  502    0  0.22902679438E+03  0.36337990556E+03 -0.27482049645E+03  0.50992600797E+03  0.50400001928E-02 0.  1.
       -1    1    3    3    0  502 -0.22902679438E+03 -0.36337990556E+03  0.15158491866E+04  0.15755306994E+04  0.50400001928E-02 0. -1.
</event>
<event>
 5   0  0.3635143E-04  0.1705394E+04  0.7818609E-02  0.8758294E-01
        1   -1    0    0  501    0  0.00000000000E+00  0.00000000000E+00  0.86743258674E+03  0.86743258676E+03  0.50400001928E-02 0.  1.
       -1   -1    0    0    0  501  0.00000000000E+00  0.00000000000E+00 -0.83821216404E+03  0.83821216406E+03  0.50400001928E-02 0. -1.
    10030    2    1    2    0    0  0.00000000000E+00  0.00000000000E+00  0.29220422701E+02  0.17056447508E+04  0.17053944362E+04 0.  0.
        3    1    3    3  502    0  0.72394238823E+03  0.20649924123E+03  0.41511625997E+03  0.85968368462E+03  0.10100000352E+00 0.  1.
       -3    1    3    3    0  502 -0.72394238823E+03 -0.20649924123E+03 -0.38589583727E+03  0.84596106620E+03  0.10100000352E+00 0. -1.
</event>
<event>
 5   0  0.7025426E-04  0.1688562E+04  0.7818609E-02  0.8767915E-01
        2   -1    0    0  501    0  0.00000000000E+00  0.00000000000E+00  0.12912881189E+04  0.12912881189E+04  0.25500000920E-02 0.  1.
       -2   -1    0    0    0  501  0.00000000000E+00  0.00000000000E+00 -0.55201470308E+03  0.55201470308E+03  0.25500000920E-02 0. -1.
    10030    2    1    2    0    0  0.00000000000E+00  0.00000000000E+00  0.73927341584E+03  0.18433028220E+04  0.16885615506E+04 0.  0.
        2    1    3    3  502    0  0.45211771843E+03 -0.55770703112E+03  0.85460357756E+03  0.11161517991E+04  0.25500000920E-02 0.  1.
       -2    1    3    3    0  502 -0.45211771843E+03  0.55770703112E+03 -0.11533016172E+03  0.72715102289E+03  0.25500000920E-02 0. -1.
</event>
<event>
 5   0  0.7242144E-04  0.1700608E+04  0.7818609E-02  0.8761018E-01
        2   -1    0    0  501    0  0.00000000000E+00  0.00000000000E+00  0.11400367415E+04  0.11400367415E+04  0.25500000920E-02 0.  1.
       -2   -1    0    0    0  501  0.00000000000E+00  0.00000000000E+00 -0.63420506764E+03  0.63420506765E+03  0.25500000920E-02 0. -1.
    10030    2    1    2    0    0  0.00000000000E+00  0.00000000000E+00  0.50583167385E+03  0.17742418091E+04  0.17006082192E+04 0.  0.
        3    1    3    3  502    0 -0.18934647084E+03 -0.56529829376E+03 -0.37963866848E+03  0.70678127858E+03  0.10100000352E+00 0. -1.
       -3    1    3    3    0  502  0.18934647084E+03  0.56529829376E+03  0.88547034234E+03  0.10674605306E+04  0.10100000352E+00 0.  1.
</event>
<event>
 5   0  0.2639750E-04  0.1713021E+04  0.7818609E-02  0.8753973E-01
        3   -1    0    0  501    0  0.00000000000E+00  0.00000000000E+00  0.45940279879E+03  0.45940280989E+03  0.10100000352E+00 0.  1.
       -3   -1    0    0    0  501  0.00000000000E+00  0.00000000000E+00 -0.15968784042E+04  0.15968784074E+04  0.10100000352E+00 0. -1.
    10030    2    1    2    0    0  0.00000000000E+00  0.00000000000E+00 -0.11374756054E+04  0.20562812173E+04  0.17130212175E+04 0.  0.
        3    1    3    3  502    0  0.62301374692E+03 -0.26860853699E+03 -0.11962909285E+04  0.13752849417E+04  0.10100000352E+00 0. -1.
       -3    1    3    3    0  502 -0.62301374692E+03  0.26860853699E+03  0.58815323069E+02  0.68099627563E+03  0.10100000352E+00 0.  1.
</event>
<event>
 5   0  0.3713516E-04  0.1704349E+04  0.7818609E-02  0.8758888E-01
       -1   -1    0    0    0  501  0.00000000000E+00  0.00000000000E+00  0.53026161410E+03  0.53026161412E+03  0.50400001928E-02 0. -1.
        1   -1    0    0  501    0  0.00000000000E+00  0.00000000000E+00 -0.13695150212E+04  0.13695150212E+04  0.50400001928E-02 0.  1.
    10030    2    1    2    0    0  0.00000000000E+00  0.00000000000E+00 -0.83925340708E+03  0.18997766353E+04  0.17043488442E+04 0.  0.
        5    1    3    3  502    0  0.13661209952E+03  0.24545173167E+03  0.47715492533E+03  0.55372225084E+03  0.46999998093E+01 0. -1.
       -5    1    3    3    0  502 -0.13661209952E+03 -0.24545173167E+03 -0.13164083324E+04  0.13460543845E+04  0.46999998093E+01 0.  1.
</event>
<event>
 5   0  0.7049044E-04  0.1703189E+04  0.7818609E-02  0.8759547E-01
        2   -1    0    0  501    0  0.00000000000E+00  0.00000000000E+00  0.15409043232E+04  0.15409043232E+04  0.25500000920E-02 0.  1.
       -2   -1    0    0    0  501  0.00000000000E+00  0.00000000000E+00 -0.47064145562E+03  0.47064145563E+03  0.25500000920E-02 0. -1.
    10030    2    1    2    0    0  0.00000000000E+00  0.00000000000E+00  0.10702628675E+04  0.20115457788E+04  0.17031893067E+04 0.  0.
        4    1    3    3  502    0 -0.27932401616E+03  0.77786454028E+03  0.77750995074E+03  0.11347327815E+04  0.12699999809E+01 0.  1.
       -4    1    3    3    0  502  0.27932401616E+03 -0.77786454028E+03  0.29275291680E+03  0.87681299729E+03  0.12699999809E+01 0. -1.
</event>
<event>
 5   0  0.7049044E-04  0.1630076E+04  0.7818609E-02  0.8802281E-01
        2   -1    0    0  501    0  0.00000000000E+00  0.00000000000E+00  0.12619829641E+04  0.12619829641E+04  0.25500000920E-02 0. -1.
       -2   -1    0    0    0  501  0.00000000000E+00  0.00000000000E+00 -0.52638349177E+03  0.52638349178E+03  0.25500000920E-02 0.  1.
    10030    2    1    2    0    0  0.00000000000E+00  0.00000000000E+00  0.73559947231E+03  0.17883664559E+04  0.16300760709E+04 0.  0.
        4    1    3    3  502    0 -0.54196946337E+03  0.40602820864E+03 -0.12977821086E+03  0.68951707908E+03  0.12699999809E+01 0.  1.
       -4    1    3    3    0  502  0.54196946337E+03 -0.40602820864E+03  0.86537768317E+03  0.10988493768E+04  0.12699999809E+01 0. -1.
</event>
<event>
 5   0  0.7025426E-04  0.1657030E+04  0.7818609E-02  0.8786259E-01
       -2   -1    0    0    0  501  0.00000000000E+00  0.00000000000E+00  0.40076511786E+03  0.40076511787E+03  0.25500000920E-02 0.  1.
        2   -1    0    0  501    0  0.00000000000E+00  0.00000000000E+00 -0.17128158372E+04  0.17128158372E+04  0.25500000920E-02 0. -1.
    10030    2    1    2    0    0  0.00000000000E+00  0.00000000000E+00 -0.13120507194E+04  0.21135809551E+04  0.16570296810E+04 0.  0.
        2    1    3    3  502    0  0.75387096197E+02  0.32157246269E+03 -0.16252093249E+04  0.16584322154E+04  0.25500000920E-02 0. -1.
       -2    1    3    3    0  502 -0.75387096197E+02 -0.32157246269E+03  0.31315860559E+03  0.45514873974E+03  0.25500000920E-02 0.  1.
</event>
<event>
 5   0  0.3713516E-04  0.1659196E+04  0.7818609E-02  0.8784985E-01
        1   -1    0    0  501    0  0.00000000000E+00  0.00000000000E+00  0.96456799046E+03  0.96456799047E+03  0.50400001928E-02 0.  1.
       -1   -1    0    0    0  501  0.00000000000E+00  0.00000000000E+00 -0.71351375010E+03  0.71351375012E+03  0.50400001928E-02 0. -1.
    10030    2    1    2    0    0  0.00000000000E+00  0.00000000000E+00  0.25105424036E+03  0.16780817406E+04  0.16591956173E+04 0.  0.
        5    1    3    3  502    0 -0.75010846722E+03  0.23349151580E+03  0.39507424001E+03  0.87936724163E+03  0.46999998093E+01 0. -1.
       -5    1    3    3    0  502  0.75010846722E+03 -0.23349151580E+03 -0.14401999965E+03  0.79871449895E+03  0.46999998093E+01 0.  1.
</event>
<event>
 5   0  0.7242144E-04  0.1717289E+04  0.7818609E-02  0.8751565E-01
       -2   -1    0    0    0  501  0.00000000000E+00  0.00000000000E+00  0.43090094493E+03  0.43090094493E+03  0.25500000920E-02 0.  1.
        2   -1    0    0  501    0  0.00000000000E+00  0.00000000000E+00 -0.17109964342E+04  0.17109964342E+04  0.25500000920E-02 0. -1.
    10030    2    1    2    0    0  0.00000000000E+00  0.00000000000E+00 -0.12800954893E+04  0.21418973792E+04  0.17172885375E+04 0.  0.
        3    1    3    3  502    0  0.54581705272E+03 -0.47409494544E+02 -0.14646581289E+04  0.15637734363E+04  0.10100000352E+00 0. -1.
       -3    1    3    3    0  502 -0.54581705272E+03  0.47409494544E+02  0.18456263960E+03  0.57812394290E+03  0.10100000352E+00 0.  1.
</event>
<event>
 5   0  0.2639750E-04  0.1714238E+04  0.7818609E-02  0.8753285E-01
       -3   -1    0    0    0  501  0.00000000000E+00  0.00000000000E+00  0.11037081149E+04  0.11037081195E+04  0.10100000352E+00 0. -1.
        3   -1    0    0  501    0  0.00000000000E+00  0.00000000000E+00 -0.66562275987E+03  0.66562276753E+03  0.10100000352E+00 0.  1.
    10030    2    1    2    0    0  0.00000000000E+00  0.00000000000E+00  0.43808535506E+03  0.17693308871E+04  0.17142383176E+04 0.  0.
        2    1    3    3  502    0 -0.34104943710E+03 -0.74165383336E+03  0.48876100364E+03  0.95144755282E+03  0.25500000920E-02 0.  1.
       -2    1    3    3    0  502  0.34104943710E+03  0.74165383336E+03 -0.50675648589E+02  0.81788333425E+03  0.25500000920E-02 0. -1.
</event>
<event>
 5   0  0.3635143E-04  0.1688619E+04  0.7818609E-02  0.8767882E-01
        1   -1    0    0  501    0  0.00000000000E+00  0.00000000000E+00  0.90104023447E+03  0.90104023449E+03  0.50400001928E-02 0.  1.
       -1   -1    0    0    0  501  0.00000000000E+00  0.00000000000E+00 -0.79115084128E+03  0.79115084130E+03  0.50400001928E-02 0. -1.
    10030    2    1    2    0    0  0.00000000000E+00  0.00000000000E+00  0.10988939319E+03  0.16921910758E+04  0.16886192461E+04 0.  0.
        3    1    3    3  502    0  0.32350910809E+03  0.14634504418E+03  0.82258309642E+03  0.89594529727E+03  0.10100000352E+00 0.  1.
       -3    1    3    3    0  502 -0.32350910809E+03 -0.14634504418E+03 -0.71269370324E+03  0.79624577852E+03  0.10100000352E+00 0. -1.
</event>
<event>
 5   0  0.2639750E-04  0.1725026E+04  0.7818609E-02  0.8747218E-01
        3   -1    0    0  501    0  0.00000000000E+00  0.00000000000E+00  0.68497536251E+03  0.68497536995E+03  0.10100000352E+00 0.  1.
       -3   -1    0    0    0  501  0.00000000000E+00  0.00000000000E+00 -0.10860669363E+04  0.10860669410E+04  0.10100000352E+00 0. -1.
    10030    2    1    2    0    0  0.00000000000E+00  0.00000000000E+00 -0.40109157376E+03  0.17710423109E+04  0.17250264973E+04 0.  0.
        4    1    3    3  502    0  0.71002365796E+03 -0.25402309062E+03  0.22926984805E+03  0.78817992968E+03  0.12699999809E+01 0.  1.
       -4    1    3    3    0  502 -0.71002365796E+03  0.25402309062E+03 -0.63036142181E+03  0.98286238123E+03  0.12699999809E+01 0. -1.
</event>
<event>
 5   0  0.7049044E-04  0.1719560E+04  0.7818609E-02  0.8750287E-01
       -2   -1    0    0    0  501  0.00000000000E+00  0.00000000000E+00  0.20777642395E+03  0.20777642396E+03  0.25500000920E-02 0. -1.
        2   -1    0    0  501    0  0.00000000000E+00  0.00000000000E+00 -0.35577741721E+04  0.35577741721E+04  0.25500000920E-02 0.  1.
    10030    2    1    2    0    0  0.00000000000E+00  0.00000000000E+00 -0.33499977482E+04  0.37655505961E+04  0.17195599376E+04 0.  0.
        4    1    3    3  502    0 -0.78429391880E+03 -0.18247575993E+03 -0.23348828033E+04  0.24698367704E+04  0.12699999809E+01 0.  1.
       -4    1    3    3    0  502  0.78429391880E+03  0.18247575993E+03 -0.10151149448E+04  0.12957138257E+04  0.12699999809E+01 0. -1.
</event>
<event>
 5   0  0.3803253E-04  0.1895803E+04  0.7818609E-02  0.8656948E-01
        1   -1    0    0  501    0  0.00000000000E+00  0.00000000000E+00  0.27659886745E+04  0.27659886745E+04  0.50400001928E-02 0. -1.
       -1   -1    0    0    0  501  0.00000000000E+00  0.00000000000E+00 -0.32484488765E+03  0.32484488769E+03  0.50400001928E-02 0.  1.
    10030    2    1    2    0    0  0.00000000000E+00  0.00000000000E+00  0.24411437869E+04  0.30908335622E+04  0.18958030281E+04 0.  0.
        4    1    3    3  502    0 -0.70015752568E+03 -0.44932843586E+03  0.19612615294E+04  0.21304142798E+04  0.12699999809E+01 0. -1.
       -4    1    3    3    0  502  0.70015752568E+03  0.44932843586E+03  0.47988225743E+03  0.96041928236E+03  0.12699999809E+01 0.  1.
</event>
<event>
 5   0  0.3635143E-04  0.1710347E+04  0.7818609E-02  0.8755485E-01
        1   -1    0    0  501    0  0.00000000000E+00  0.00000000000E+00  0.67891731206E+03  0.67891731208E+03  0.50400001928E-02 0. -1.
       -1   -1    0    0    0  501  0.00000000000E+00  0.00000000000E+00 -0.10771888120E+04  0.10771888121E+04  0.50400001928E-02 0.  1.
    10030    2    1    2    0    0  0.00000000000E+00  0.00000000000E+00 -0.39827149998E+03  0.17561061241E+04  0.17103474885E+04 0.  0.
        3    1    3    3  502    0 -0.26796593125E+02  0.78353734523E+03  0.15157746671E+03  0.79851397444E+03  0.10100000352E+00 0. -1.
       -3    1    3    3    0  502  0.26796593125E+02 -0.78353734523E+03 -0.54984896669E+03  0.95759214969E+03  0.10100000352E+00 0.  1.
</event>
<event>
 5   0  0.7025426E-04  0.1733155E+04  0.7818609E-02  0.8742677E-01
       -2   -1    0    0    0  501  0.00000000000E+00  0.00000000000E+00  0.13336452613E+04  0.13336452613E+04  0.25500000920E-02 0.  1.
        2   -1    0    0  501    0  0.00000000000E+00  0.00000000000E+00 -0.56308578734E+03  0.56308578735E+03  0.25500000920E-02 0. -1.
    10030    2    1    2    0    0  0.00000000000E+00  0.00000000000E+00  0.77055947399E+03  0.18967310487E+04  0.17331551483E+04 0.  0.
        2    1    3    3  502    0  0.61122238885E+03  0.59724651943E+03  0.54258327794E+03  0.10122711233E+04  0.25500000920E-02 0.  1.
       -2    1    3    3    0  502 -0.61122238885E+03 -0.59724651943E+03  0.22797619606E+03  0.88445992536E+03  0.25500000920E-02 0. -1.
</event>
<event>
 5   0  0.3635143E-04  0.1712100E+04  0.7818609E-02  0.8754493E-01
       -1   -1    0    0    0  501  0.00000000000E+00  0.00000000000E+00  0.75864771573E+03  0.75864771575E+03  0.50400001928E-02 0.  1.
        1   -1    0    0  501    0  0.00000000000E+00  0.00000000000E+00 -0.96595787632E+03  0.96595787633E+03  0.50400001928E-02 0. -1.
    10030    2    1    2    0    0  0.00000000000E+00  0.00000000000E+00 -0.20731016059E+03  0.17246055921E+04  0.17121001564E+04 0.  0.
        3    1    3    3  502    0  0.38741245184E+03 -0.28184131392E+03 -0.81827244837E+03  0.94820501161E+03  0.10100000352E+00 0.  1.
       -3    1    3    3    0  502 -0.38741245184E+03  0.28184131392E+03  0.61096228778E+03  0.77640058048E+03  0.10100000352E+00 0. -1.
</event>
<event>
 5   0  0.7049044E-04  0.1991849E+04  0.7818609E-02  0.8610441E-01
       -2   -1    0    0    0  501  0.00000000000E+00  0.00000000000E+00  0.15115330374E+04  0.15115330374E+04  0.25500000920E-02 0. -1.
        2   -1    0    0  501    0  0.00000000000E+00  0.00000000000E+00 -0.65619814042E+03  0.65619814042E+03  0.25500000920E-02 0.  1.
    10030    2    1    2    0    0  0.00000000000E+00  0.00000000000E+00  0.85533489699E+03  0.21677311778E+04  0.19918485568E+04 0.  0.
        4    1    3    3  502    0  0.94844056474E+03  0.39726297739E+02  0.99826990713E+02  0.95450758224E+03  0.12699999809E+01 0.  1.
       -4    1    3    3    0  502 -0.94844056474E+03 -0.39726297739E+02  0.75550790628E+03  0.12132235956E+04  0.12699999809E+01 0. -1.
</event>
<event>
 5   0  0.7233728E-04  0.1477060E+04  0.7818609E-02  0.8899853E-01
       -2   -1    0    0    0  501  0.00000000000E+00  0.00000000000E+00  0.46109166576E+03  0.46109166577E+03  0.25500000920E-02 0.  1.
        2   -1    0    0  501    0  0.00000000000E+00  0.00000000000E+00 -0.11829024241E+04  0.11829024241E+04  0.25500000920E-02 0. -1.
    10030    2    1    2    0    0  0.00000000000E+00  0.00000000000E+00 -0.72181075839E+03  0.16439940899E+04  0.14770598487E+04 0.  0.
        1    1    3    3  502    0 -0.39883041553E+03 -0.54113776299E+03 -0.70129725214E+03  0.97144923427E+03  0.50400001928E-02 0. -1.
       -1    1    3    3    0  502  0.39883041553E+03  0.54113776299E+03 -0.20513506251E+02  0.67254485564E+03  0.50400001928E-02 0.  1.
</event>
<event>
 5   0  0.7233728E-04  0.1657828E+04  0.7818609E-02  0.8785789E-01
       -2   -1    0    0    0  501  0.00000000000E+00  0.00000000000E+00  0.47541485043E+03  0.47541485044E+03  0.25500000920E-02 0. -1.
        2   -1    0    0  501    0  0.00000000000E+00  0.00000000000E+00 -0.14452606140E+04  0.14452606140E+04  0.25500000920E-02 0.  1.
    10030    2    1    2    0    0  0.00000000000E+00  0.00000000000E+00 -0.96984576359E+03  0.19206754645E+04  0.16578279267E+04 0.  0.
        1    1    3    3  502    0 -0.82196507150E+03 -0.34606905769E+02 -0.60235511447E+03  0.10196351802E+04  0.50400001928E-02 0. -1.
       -1    1    3    3    0  502  0.82196507150E+03  0.34606905769E+02 -0.36749064911E+03  0.90104028428E+03  0.50400001928E-02 0.  1.
</event>
<event>
 5   0  0.7242144E-04  0.1668540E+04  0.7818609E-02  0.8779514E-01
       -2   -1    0    0    0  501  0.00000000000E+00  0.00000000000E+00  0.11440723392E+04  0.11440723392E+04  0.25500000920E-02 0. -1.
        2   -1    0    0  501    0  0.00000000000E+00  0.00000000000E+00 -0.60835842191E+03  0.60835842192E+03  0.25500000920E-02 0.  1.
    10030    2    1    2    0    0  0.00000000000E+00  0.00000000000E+00  0.53571391728E+03  0.17524307611E+04  0.16685395324E+04 0.  0.
        3    1    3    3  502    0 -0.47140256156E+03 -0.53435236077E+03  0.72355332408E+03  0.10155206761E+04  0.10100000352E+00 0. -1.
       -3    1    3    3    0  502  0.47140256156E+03  0.53435236077E+03 -0.18783940681E+03  0.73691008505E+03  0.10100000352E+00 0.  1.
</event>
<event>
 5   0  0.6746664E-04  0.1679298E+04  0.7818609E-02  0.8773260E-01
        2   -1    0    0  501    0  0.00000000000E+00  0.00000000000E+00  0.56093327756E+03  0.56093327757E+03  0.25500000920E-02 0.  1.
       -2   -1    0    0    0  501  0.00000000000E+00  0.00000000000E+00 -0.12568532574E+04  0.12568532574E+04  0.25500000920E-02 0. -1.
    10030    2    1    2    0    0  0.00000000000E+00  0.00000000000E+00 -0.69591997982E+03  0.18177865350E+04  0.16792984453E+04 0.  0.
        5    1    3    3  502    0 -0.67024324831E+03  0.14306307682E+03  0.17711576441E+03  0.70787367506E+03  0.46999998093E+01 0.  1.
       -5    1    3    3    0  502  0.67024324831E+03 -0.14306307682E+03 -0.87303574423E+03  0.11099128599E+04  0.46999998093E+01 0. -1.
</event>
<event>
 5   0  0.3635143E-04  0.1775149E+04  0.7818609E-02  0.8719628E-01
        1   -1    0    0  501    0  0.00000000000E+00  0.00000000000E+00  0.10860010266E+04  0.10860010266E+04  0.50400001928E-02 0. -1.
       -1   -1    0    0    0  501  0.00000000000E+00  0.00000000000E+00 -0.72540321509E+03  0.72540321511E+03  0.50400001928E-02 0.  1.
    10030    2    1    2    0    0  0.00000000000E+00  0.00000000000E+00  0.36059781147E+03  0.18114042417E+04  0.17751491614E+04 0.  0.
        3    1    3    3  502    0 -0.46422078505E+03  0.49633044223E+03 -0.40227614045E+03  0.78972840175E+03  0.10100000352E+00 0.  1.
       -3    1    3    3    0  502  0.46422078505E+03 -0.49633044223E+03  0.76287395193E+03  0.10216758399E+04  0.10100000352E+00 0. -1.
</event>
<event>
 5   0  0.3803253E-04  0.1710021E+04  0.7818609E-02  0.8755670E-01
        1   -1    0    0  501    0  0.00000000000E+00  0.00000000000E+00  0.47151055399E+03  0.47151055402E+03  0.50400001928E-02 0.  1.
       -1   -1    0    0    0  501  0.00000000000E+00  0.00000000000E+00 -0.15504269576E+04  0.15504269576E+04  0.50400001928E-02 0. -1.
    10030    2    1    2    0    0  0.00000000000E+00  0.00000000000E+00 -0.10789164036E+04  0.20219375116E+04  0.17100206709E+04 0.  0.
        4    1    3    3  502    0 -0.54794690584E+02  0.17333992026E+03 -0.15273094498E+04  0.15380913348E+04  0.12699999809E+01 0. -1.
       -4    1    3    3    0  502  0.54794690584E+02 -0.17333992026E+03  0.44839304615E+03  0.48384617680E+03  0.12699999809E+01 0.  1.
</event>
<event>
 5   0  0.7049044E-04  0.1693678E+04  0.7818609E-02  0.8764978E-01
       -2   -1    0    0    0  501  0.00000000000E+00  0.00000000000E+00  0.80929024358E+03  0.80929024358E+03  0.25500000920E-02 0.  1.
        2   -1    0    0  501    0  0.00000000000E+00  0.00000000000E+00 -0.88613007045E+03  0.88613007045E+03  0.25500000920E-02 0. -1.
    10030    2    1    2    0    0  0.00000000000E+00  0.00000000000E+00 -0.76839826874E+02  0.16954203140E+04  0.16936781519E+04 0.  0.
        4    1    3    3  502    0 -0.67205224911E+03 -0.25361586418E+03  0.41054960059E+03  0.82736196404E+03  0.12699999809E+01 0.  1.
       -4    1    3    3    0  502  0.67205224911E+03  0.25361586418E+03 -0.48738942746E+03  0.86805835000E+03  0.12699999809E+01 0. -1.
</event>
<event>
 5   0  0.3635143E-04  0.1731947E+04  0.7818609E-02  0.8743351E-01
       -1   -1    0    0    0  501  0.00000000000E+00  0.00000000000E+00  0.92361356128E+03  0.92361356129E+03  0.50400001928E-02 0. -1.
        1   -1    0    0  501    0  0.00000000000E+00  0.00000000000E+00 -0.81193042207E+03  0.81193042209E+03  0.50400001928E-02 0.  1.
    10030    2    1    2    0    0  0.00000000000E+00  0.00000000000E+00  0.11168313920E+03  0.17355439834E+04  0.17319468221E+04 0.  0.
        3    1    3    3  502    0 -0.79042669669E+03 -0.27918695763E+03 -0.16184270870E+03  0.85376389752E+03  0.10100000352E+00 0.  1.
       -3    1    3    3    0  502  0.79042669669E+03  0.27918695763E+03  0.27352584790E+03  0.88178008586E+03  0.10100000352E+00 0. -1.
</event>
<event>
 5   0  0.3915701E-04  0.1640158E+04  0.7818609E-02  0.8796250E-01
        1   -1    0    0  501    0  0.00000000000E+00  0.00000000000E+00  0.92097165903E+03  0.92097165904E+03  0.50400001928E-02 0.  1.
       -1   -1    0    0    0  501  0.00000000000E+00  0.00000000000E+00 -0.73023936071E+03  0.73023936073E+03  0.50400001928E-02 0. -1.
    10030    2    1    2    0    0  0.00000000000E+00  0.00000000000E+00  0.19073229831E+03  0.16512110198E+04  0.16401582308E+04 0.  0.
        2    1    3    3  502    0 -0.41448741544E+03 -0.10228968142E+03  0.80027514796E+03  0.90702993828E+03  0.25500000920E-02 0.  1.
       -2    1    3    3    0  502  0.41448741544E+03  0.10228968142E+03 -0.60954284965E+03  0.74418108149E+03  0.25500000920E-02 0. -1.
</event>
<event>
 5   0  0.3635143E-04  0.1688629E+04  0.7818609E-02  0.8767876E-01
       -1   -1    0    0    0  501  0.00000000000E+00  0.00000000000E+00  0.73585034014E+03  0.73585034016E+03  0.50400001928E-02 0. -1.
        1   -1    0    0  501    0  0.00000000000E+00  0.00000000000E+00 -0.96876675457E+03  0.96876675458E+03  0.50400001928E-02 0.  1.
    10030    2    1    2    0    0  0.00000000000E+00  0.00000000000E+00 -0.23291641443E+03  0.17046170947E+04  0.16886294394E+04 0.  0.
        3    1    3    3  502    0  0.17592556242E+03  0.46095249900E+03 -0.80810231235E+03  0.94681379757E+03  0.10100000352E+00 0.  1.
       -3    1    3    3    0  502 -0.17592556242E+03 -0.46095249900E+03  0.57518589792E+03  0.75780329717E+03  0.10100000352E+00 0. -1.
</event>
<event>
 5   0  0.3635143E-04  0.1699319E+04  0.7818609E-02  0.8761753E-01
       -1   -1    0    0    0  501  0.00000000000E+00  0.00000000000E+00  0.41043026056E+03  0.41043026059E+03  0.50400001928E-02 0. -1.
        1   -1    0    0  501    0  0.00000000000E+00  0.00000000000E+00 -0.17589380172E+04  0.17589380172E+04  0.50400001928E-02 0.  1.
    10030    2    1    2    0    0  0.00000000000E+00  0.00000000000E+00 -0.13485077566E+04  0.21693682778E+04  0.16993191445E+04 0.  0.
        3    1    3    3  502    0  0.50971611898E+02  0.64191186221E+03 -0.13819065256E+04  0.15245703001E+04  0.10100000352E+00 0.  1.
       -3    1    3    3    0  502 -0.50971611898E+02 -0.64191186221E+03  0.33398769015E+02  0.64479797770E+03  0.10100000352E+00 0. -1.
</event>
<event>
 5   0  0.3713516E-04  0.1711815E+04  0.7818609E-02  0.8754654E-01
       -1   -1    0    0    0  501  0.00000000000E+00  0.00000000000E+00  0.38877299253E+03  0.38877299256E+03  0.50400001928E-02 0.  1.
        1   -1    0    0  501    0  0.00000000000E+00  0.00000000000E+00 -0.18843322944E+04  0.18843322944E+04  0.50400001928E-02 0. -1.
    10030    2    1    2    0    0  0.00000000000E+00  0.00000000000E+00 -0.14955593019E+04  0.22731052870E+04  0.17118148324E+04 0.  0.
        5    1    3    3  502    0 -0.48894204982E+02 -0.67792819007E+03 -0.57048374726E+02  0.68209521419E+03  0.46999998093E+01 0.  1.
       -5    1    3    3    0  502  0.48894204982E+02  0.67792819007E+03 -0.14385109272E+04  0.15910100728E+04  0.46999998093E+01 0. -1.
</event>
<event>
 5   0  0.3915701E-04  0.1693626E+04  0.7818609E-02  0.8765008E-01
        1   -1    0    0  501    0  0.00000000000E+00  0.00000000000E+00  0.81502758183E+03  0.81502758185E+03  0.50400001928E-02 0. -1.
       -1   -1    0    0    0  501  0.00000000000E+00  0.00000000000E+00 -0.87983837757E+03  0.87983837759E+03  0.50400001928E-02 0.  1.
    10030    2    1    2    0    0  0.00000000000E+00  0.00000000000E+00 -0.64810795742E+02  0.16948659594E+04  0.16936263405E+04 0.  0.
        2    1    3    3  502    0  0.40081244876E+03 -0.16247821480E+03  0.69616783123E+03  0.81957271710E+03  0.25500000920E-02 0. -1.
       -2    1    3    3    0  502 -0.40081244876E+03  0.16247821480E+03 -0.76097862697E+03  0.87529324234E+03  0.25500000920E-02 0.  1.
</event>
<event>
 5   0  0.2639750E-04  0.1670536E+04  0.7818609E-02  0.8778349E-01
       -3   -1    0    0    0  501  0.00000000000E+00  0.00000000000E+00  0.92000975164E+03  0.92000975718E+03  0.10100000352E+00 0. -1.
        3   -1    0    0  501    0  0.00000000000E+00  0.00000000000E+00 -0.75833192022E+03  0.75833192695E+03  0.10100000352E+00 0.  1.
    10030    2    1    2    0    0  0.00000000000E+00  0.00000000000E+00  0.16167783141E+03  0.16783416841E+04  0.16705361677E+04 0.  0.
        3    1    3    3  502    0  0.16891480597E+03  0.75908999668E+03 -0.22541802426E+03  0.80966853131E+03  0.10100000352E+00 0.  1.
       -3    1    3    3    0  502 -0.16891480597E+03 -0.75908999668E+03  0.38709585568E+03  0.86867315281E+03  0.10100000352E+00 0. -1.
</event>
<event>
 5   0  0.2639750E-04  0.1610414E+04  0.7818609E-02  0.8814176E-01
        4   -1    0    0  501    0  0.00000000000E+00  0.00000000000E+00  0.92392402112E+03  0.92392489398E+03  0.12699999809E+01 0. -1.
       -4   -1    0    0    0  501  0.00000000000E+00  0.00000000000E+00 -0.70174243239E+03  0.70174358160E+03  0.12699999809E+01 0.  1.
    10030    2    1    2    0    0  0.00000000000E+00  0.00000000000E+00  0.22218158873E+03  0.16256684756E+04  0.16104140257E+04 0.  0.
        3    1    3    3  502    0  0.37396414476E+02  0.55777685081E+03  0.69610143367E+03  0.89278817380E+03  0.10100000352E+00 0. -1.
       -3    1    3    3    0  502 -0.37396414476E+02 -0.55777685081E+03 -0.47391984494E+03  0.73288030178E+03  0.10100000352E+00 0.  1.
</event>
<event>
 5   0  0.6746664E-04  0.2084099E+04  0.7818609E-02  0.8568281E-01
       -2   -1    0    0    0  501  0.00000000000E+00  0.00000000000E+00  0.87913083143E+03  0.87913083144E+03  0.25500000920E-02 0. -1.
        2   -1    0    0  501    0  0.00000000000E+00  0.00000000000E+00 -0.12351595821E+04  0.12351595821E+04  0.25500000920E-02 0.  1.
    10030    2    1    2    0    0  0.00000000000E+00  0.00000000000E+00 -0.35602875068E+03  0.21142904136E+04  0.20840987216E+04 0.  0.
        5    1    3    3  502    0 -0.21645417380E+03  0.32124033035E+03 -0.11593943293E+04  0.12224013498E+04  0.46999998093E+01 0.  1.
       -5    1    3    3    0  502  0.21645417380E+03 -0.32124033035E+03  0.80336557860E+03  0.89188906377E+03  0.46999998093E+01 0. -1.
</event>
<event>
 5   0  0.3635143E-04  0.1667994E+04  0.7818609E-02  0.8779832E-01
       -1   -1    0    0    0  501  0.00000000000E+00  0.00000000000E+00  0.80353228948E+03  0.80353228949E+03  0.50400001928E-02 0. -1.
        1   -1    0    0  501    0  0.00000000000E+00  0.00000000000E+00 -0.86561632329E+03  0.86561632330E+03  0.50400001928E-02 0.  1.
    10030    2    1    2    0    0  0.00000000000E+00  0.00000000000E+00 -0.62084033808E+02  0.16691486128E+04  0.16679936044E+04 0.  0.
        3    1    3    3  502    0  0.68930538903E+03 -0.27659765368E+03 -0.41064949197E+03  0.84869381807E+03  0.10100000352E+00 0. -1.
       -3    1    3    3    0  502 -0.68930538903E+03  0.27659765368E+03  0.34856545816E+03  0.82045479473E+03  0.10100000352E+00 0.  1.
</event>
<event>
 5   0  0.6746664E-04  0.1726104E+04  0.7818609E-02  0.8746615E-01
       -2   -1    0    0    0  501  0.00000000000E+00  0.00000000000E+00  0.68600988448E+03  0.68600988448E+03  0.25500000920E-02 0.  1.
        2   -1    0    0  501    0  0.00000000000E+00  0.00000000000E+00 -0.10857840050E+04  0.10857840051E+04  0.25500000920E-02 0. -1.
    10030    2    1    2    0    0  0.00000000000E+00  0.00000000000E+00 -0.39977412057E+03  0.17717938895E+04  0.17261037743E+04 0.  0.
        5    1    3    3  502    0  0.33227633001E+02 -0.31654640878E+03  0.62355103362E+03  0.70010262536E+03  0.46999998093E+01 0.  1.
       -5    1    3    3    0  502 -0.33227633001E+02  0.31654640878E+03 -0.10233251542E+04  0.10716912642E+04  0.46999998093E+01 0. -1.
</event>
<event>
 5   0  0.3635143E-04  0.1526394E+04  0.7818609E-02  0.8867088E-01
       -1   -1    0    0    0  501  0.00000000000E+00  0.00000000000E+00  0.38822922277E+03  0.38822922281E+03  0.50400001928E-02 0. -1.
        1   -1    0    0  501    0  0.00000000000E+00  0.00000000000E+00 -0.15003243379E+04  0.15003243379E+04  0.50400001928E-02 0.  1.
    10030    2    1    2    0    0  0.00000000000E+00  0.00000000000E+00 -0.11120951151E+04  0.18885535607E+04  0.15263941190E+04 0.  0.
        3    1    3    3  502    0 -0.29232383195E+03 -0.38993798573E+03 -0.12827390359E+04  0.13721968882E+04  0.10100000352E+00 0.  1.
       -3    1    3    3    0  502  0.29232383195E+03  0.38993798573E+03  0.17064392075E+03  0.51635667259E+03  0.10100000352E+00 0. -1.
</event>
<event>
 5   0  0.7049044E-04  0.1616616E+04  0.7818609E-02  0.8810405E-01
        2   -1    0    0  501    0  0.00000000000E+00  0.00000000000E+00  0.70190139895E+03  0.70190139896E+03  0.25500000920E-02 0. -1.
       -2   -1    0    0    0  501  0.00000000000E+00  0.00000000000E+00 -0.93084563681E+03  0.93084563681E+03  0.25500000920E-02 0.  1.
    10030    2    1    2    0    0  0.00000000000E+00  0.00000000000E+00 -0.22894423785E+03  0.16327470358E+04  0.16166160394E+04 0.  0.
        4    1    3    3  502    0  0.67362559908E+03 -0.65242455393E+01  0.33669119945E+03  0.75311127345E+03  0.12699999809E+01 0. -1.
       -4    1    3    3    0  502 -0.67362559908E+03  0.65242455393E+01 -0.56563543730E+03  0.87963576232E+03  0.12699999809E+01 0.  1.
</event>
<event>
 5   0  0.3803253E-04  0.1698038E+04  0.7818609E-02  0.8762484E-01
        1   -1    0    0  501    0  0.00000000000E+00  0.00000000000E+00  0.46771704201E+03  0.46771704204E+03  0.50400001928E-02 0.  1.
       -1   -1    0    0    0  501  0.00000000000E+00  0.00000000000E+00 -0.15411731923E+04  0.15411731923E+04  0.50400001928E-02 0. -1.
    10030    2    1    2    0    0  0.00000000000E+00  0.00000000000E+00 -0.10734561503E+04  0.20088902344E+04  0.16980376519E+04 0.  0.
        4    1    3    3  502    0  0.62433570415E+03 -0.47084608194E+03 -0.92792814346E+03  0.12134839746E+04  0.12699999809E+01 0.  1.
       -4    1    3    3    0  502 -0.62433570415E+03  0.47084608194E+03 -0.14552800684E+03  0.79540625974E+03  0.12699999809E+01 0. -1.
</event>
<event>
 5   0  0.7049044E-04  0.1697218E+04  0.7818609E-02  0.8762953E-01
        2   -1    0    0  501    0  0.00000000000E+00  0.00000000000E+00  0.66000317974E+03  0.66000317974E+03  0.25500000920E-02 0.  1.
       -2   -1    0    0    0  501  0.00000000000E+00  0.00000000000E+00 -0.10911119534E+04  0.10911119534E+04  0.25500000920E-02 0. -1.
    10030    2    1    2    0    0  0.00000000000E+00  0.00000000000E+00 -0.43110877368E+03  0.17511151332E+04  0.16972181459E+04 0.  0.
        4    1    3    3  502    0  0.52980821458E+03  0.46566013075E+03  0.27123294514E+03  0.75571490989E+03  0.12699999809E+01 0.  1.
       -4    1    3    3    0  502 -0.52980821458E+03 -0.46566013075E+03 -0.70234171882E+03  0.99540022327E+03  0.12699999809E+01 0. -1.
</event>
<event>
 5   0  0.7025426E-04  0.1929761E+04  0.7818609E-02  0.8640182E-01
        2   -1    0    0  501    0  0.00000000000E+00  0.00000000000E+00  0.95434886261E+03  0.95434886261E+03  0.25500000920E-02 0. -1.
       -2   -1    0    0    0  501  0.00000000000E+00  0.00000000000E+00 -0.97552874487E+03  0.97552874488E+03  0.25500000920E-02 0.  1.
    10030    2    1    2    0    0  0.00000000000E+00  0.00000000000E+00 -0.21179882269E+02  0.19298776075E+04  0.19297613823E+04 0.  0.
        2    1    3    3  502    0  0.60598404855E+02  0.92153982099E+03 -0.29004717587E+03  0.96800577095E+03  0.25500000920E-02 0.  1.
       -2    1    3    3    0  502 -0.60598404855E+02 -0.92153982099E+03  0.26886729360E+03  0.96187183654E+03  0.25500000920E-02 0. -1.
</event>
<event>
 5   0  0.3723500E-04  0.1641449E+04  0.7818609E-02  0.8795481E-01
        1   -1    0    0  501    0  0.00000000000E+00  0.00000000000E+00  0.17348210683E+04  0.17348210683E+04  0.50400001928E-02 0.  1.
       -1   -1    0    0    0  501  0.00000000000E+00  0.00000000000E+00 -0.38827568175E+03  0.38827568179E+03  0.50400001928E-02 0. -1.
    10030    2    1    2    0    0  0.00000000000E+00  0.00000000000E+00  0.13465453865E+04  0.21230967501E+04  0.16414491561E+04 0.  0.
        1    1    3    3  502    0  0.39645580845E+03  0.71761912369E+03  0.72225962705E+03  0.10926176750E+04  0.50400001928E-02 0. -1.
       -1    1    3    3    0  502 -0.39645580845E+03 -0.71761912369E+03  0.62428575949E+03  0.10304790751E+04  0.50400001928E-02 0.  1.
</event>
<event>
 5   0  0.2639750E-04  0.1693337E+04  0.7818609E-02  0.8765174E-01
       -3   -1    0    0    0  501  0.00000000000E+00  0.00000000000E+00  0.91559087150E+03  0.91559087707E+03  0.10100000352E+00 0.  1.
        3   -1    0    0  501    0  0.00000000000E+00  0.00000000000E+00 -0.78293395043E+03  0.78293395694E+03  0.10100000352E+00 0. -1.
    10030    2    1    2    0    0  0.00000000000E+00  0.00000000000E+00  0.13265692108E+03  0.16985248340E+04  0.16933365741E+04 0.  0.
        4    1    3    3  502    0 -0.50204775602E+03 -0.30440001145E+03 -0.54556870163E+03  0.80147248075E+03  0.12699999809E+01 0. -1.
       -4    1    3    3    0  502  0.50204775602E+03  0.30440001145E+03  0.67822562271E+03  0.89705235326E+03  0.12699999809E+01 0.  1.
</event>
<event>
 5   0  0.3723500E-04  0.1634474E+04  0.7818609E-02  0.8799645E-01
       -1   -1    0    0    0  501  0.00000000000E+00  0.00000000000E+00  0.10320844097E+04  0.10320844097E+04  0.50400001928E-02 0.  1.
        1   -1    0    0  501    0  0.00000000000E+00  0.00000000000E+00 -0.64711401155E+03  0.64711401157E+03  0.50400001928E-02 0. -1.
    10030    2    1    2    0    0  0.00000000000E+00  0.00000000000E+00  0.38497039816E+03  0.16791984213E+04  0.16344739614E+04 0.  0.
        1    1    3    3  502    0 -0.53369603819E+03  0.20527321038E+03  0.79233488496E+03  0.97711980945E+03  0.50400001928E-02 0.  1.
       -1    1    3    3    0  502  0.53369603819E+03 -0.20527321038E+03 -0.40736448680E+03  0.70207861184E+03  0.50400001928E-02 0. -1.
</event>
<event>
 5   0  0.6746664E-04  0.1685753E+04  0.7818609E-02  0.8769532E-01
       -2   -1    0    0    0  501  0.00000000000E+00  0.00000000000E+00  0.70503843589E+03  0.70503843589E+03  0.25500000920E-02 0. -1.
        2   -1    0    0  501    0  0.00000000000E+00  0.00000000000E+00 -0.10076630044E+04  0.10076630044E+04  0.25500000920E-02 0.  1.
    10030    2    1    2    0    0  0.00000000000E+00  0.00000000000E+00 -0.30262456853E+03  0.17127014403E+04  0.16857534203E+04 0.  0.
        5    1    3    3  502    0  0.39221887250E+03  0.32524063117E+03 -0.83346326005E+03  0.97688290391E+03  0.46999998093E+01 0.  1.
       -5    1    3    3    0  502 -0.39221887250E+03 -0.32524063117E+03  0.53083869152E+03  0.73581853640E+03  0.46999998093E+01 0. -1.
</event>
<event>
 5   0  0.7242144E-04  0.1711663E+04  0.7818609E-02  0.8754740E-01
       -2   -1    0    0    0  501  0.00000000000E+00  0.00000000000E+00  0.80658514967E+03  0.80658514967E+03  0.25500000920E-02 0.  1.
        2   -1    0    0  501    0  0.00000000000E+00  0.00000000000E+00 -0.90808454359E+03  0.90808454359E+03  0.25500000920E-02 0. -1.
    10030    2    1    2    0    0  0.00000000000E+00  0.00000000000E+00 -0.10149939392E+03  0.17146696933E+04  0.17116629429E+04 0.  0.
        3    1    3    3  502    0  0.33174779678E+03 -0.78794611545E+03 -0.11542527079E+02  0.85501398916E+03  0.10100000352E+00 0.  1.
       -3    1    3    3    0  502 -0.33174779678E+03  0.78794611545E+03 -0.89956866842E+02  0.85965570411E+03  0.10100000352E+00 0. -1.
</event>
<event>
 5   0  0.6746664E-04  0.1694735E+04  0.7818609E-02  0.8764373E-01
       -2   -1    0    0    0  501  0.00000000000E+00  0.00000000000E+00  0.90683329326E+03  0.90683329326E+03  0.25500000920E-02 0.  1.
        2   -1    0    0  501    0  0.00000000000E+00  0.00000000000E+00 -0.79180130865E+03  0.79180130865E+03  0.25500000920E-02 0. -1.
    10030    2    1    2    0    0  0.00000000000E+00  0.00000000000E+00  0.11503198461E+03  0.16986346019E+04  0.16947351278E+04 0.  0.
        5    1    3    3  502    0 -0.16868699876E+03  0.49423234465E+03  0.72635102594E+03  0.89461098637E+03  0.46999998093E+01 0.  1.
       -5    1    3    3    0  502  0.16868699876E+03 -0.49423234465E+03 -0.61131904133E+03  0.80402361554E+03  0.46999998093E+01 0. -1.
</event>
<event>
 5   0  0.3915701E-04  0.1717960E+04  0.7818609E-02  0.8751187E-01
        1   -1    0    0  501    0  0.00000000000E+00  0.00000000000E+00  0.73722902933E+03  0.73722902934E+03  0.50400001928E-02 0. -1.
       -1   -1    0    0    0  501  0.00000000000E+00  0.00000000000E+00 -0.10008382234E+04  0.10008382234E+04  0.50400001928E-02 0.  1.
    10030    2    1    2    0    0  0.00000000000E+00  0.00000000000E+00 -0.26360919407E+03  0.17380672527E+04  0.17179604093E+04 0.  0.
        2    1    3    3  502    0 -0.47203750721E+03  0.49724292202E+03 -0.65533283376E+03  0.94843610999E+03  0.25500000920E-02 0.  1.
       -2    1    3    3    0  502  0.47203750721E+03 -0.49724292202E+03  0.39172363970E+03  0.78963114276E+03  0.25500000920E-02 0. -1.
</event>
<event>
 5   0  0.7049044E-04  0.1791479E+04  0.7818609E-02  0.8710844E-01
       -2   -1    0    0    0  501  0.00000000000E+00  0.00000000000E+00  0.83284781115E+03  0.83284781115E+03  0.25500000920E-02 0.  1.
        2   -1    0    0  501    0  0.00000000000E+00  0.00000000000E+00 -0.96338050486E+03  0.96338050487E+03  0.25500000920E-02 0. -1.
    10030    2    1    2    0    0  0.00000000000E+00  0.00000000000E+00 -0.13053269371E+03  0.17962283160E+04  0.17914791037E+04 0.  0.
        4    1    3    3  502    0  0.89256248029E+03 -0.29216474771E+02  0.43897475496E+01  0.89305221930E+03  0.12699999809E+01 0. -1.
       -4    1    3    3    0  502 -0.89256248029E+03  0.29216474771E+02 -0.13492244126E+03  0.90317609671E+03  0.12699999809E+01 0.  1.
</event>
<event>
 5   0  0.3723500E-04  0.1591409E+04  0.7818609E-02  0.8825843E-01
       -1   -1    0    0    0  501  0.00000000000E+00  0.00000000000E+00  0.66164061805E+03  0.66164061807E+03  0.50400001928E-02 0.  1.
        1   -1    0    0  501    0  0.00000000000E+00  0.00000000000E+00 -0.95693339641E+03  0.95693339642E+03  0.50400001928E-02 0. -1.
    10030    2    1    2    0    0  0.00000000000E+00  0.00000000000E+00 -0.29529277836E+03  0.16185740145E+04  0.15914094431E+04 0.  0.
        1    1    3    3  502    0  0.45320625156E+03 -0.59246992108E+03  0.13408276327E+03  0.75788831715E+03  0.50400001928E-02 0. -1.
       -1    1    3    3    0  502 -0.45320625156E+03  0.59246992108E+03 -0.42937554163E+03  0.86068569734E+03  0.50400001928E-02 0.  1.
</event>
<event>
 5   0  0.7242144E-04  0.1738073E+04  0.7818609E-02  0.8739943E-01
        2   -1    0    0  501    0  0.00000000000E+00  0.00000000000E+00  0.13917260225E+04  0.13917260225E+04  0.25500000920E-02 0.  1.
       -2   -1    0    0    0  501  0.00000000000E+00  0.00000000000E+00 -0.54265290154E+03  0.54265290154E+03  0.25500000920E-02 0. -1.
    10030    2    1    2    0    0  0.00000000000E+00  0.00000000000E+00  0.84907312097E+03  0.19343789241E+04  0.17380726846E+04 0.  0.
        3    1    3    3  502    0  0.71961506600E+03 -0.21632019819E+03  0.91040277710E+03  0.11804547844E+04  0.10100000352E+00 0.  1.
       -3    1    3    3    0  502 -0.71961506600E+03  0.21632019819E+03 -0.61329656138E+02  0.75392413961E+03  0.10100000352E+00 0. -1.
</event>
<event>
 5   0  0.3723500E-04  0.1703212E+04  0.7818609E-02  0.8759534E-01
       -1   -1    0    0    0  501  0.00000000000E+00  0.00000000000E+00  0.65647339497E+03  0.65647339498E+03  0.50400001928E-02 0. -1.
        1   -1    0    0  501    0  0.00000000000E+00  0.00000000000E+00 -0.11047408225E+04  0.11047408225E+04  0.50400001928E-02 0.  1.
    10030    2    1    2    0    0  0.00000000000E+00  0.00000000000E+00 -0.44826742754E+03  0.17612142175E+04  0.17032122103E+04 0.  0.
        1    1    3    3  502    0  0.43028059359E+03  0.60471470012E+03  0.20771460090E+03  0.77069229477E+03  0.50400001928E-02 0. -1.
       -1    1    3    3    0  502 -0.43028059359E+03 -0.60471470012E+03 -0.65598202843E+03  0.99052192273E+03  0.50400001928E-02 0.  1.
</event>
<event>
 5   0  0.6746664E-04  0.1626753E+04  0.7818609E-02  0.8804279E-01
        2   -1    0    0  501    0  0.00000000000E+00  0.00000000000E+00  0.59584518226E+03  0.59584518227E+03  0.25500000920E-02 0.  1.
       -2   -1    0    0    0  501  0.00000000000E+00  0.00000000000E+00 -0.11103236201E+04  0.11103236201E+04  0.25500000920E-02 0. -1.
    10030    2    1    2    0    0  0.00000000000E+00  0.00000000000E+00 -0.51447843785E+03  0.17061688024E+04  0.16267525685E+04 0.  0.
        5    1    3    3  502    0 -0.29420625643E+03 -0.46913156646E+03 -0.88207225459E+03  0.10414966636E+04  0.46999998093E+01 0. -1.
       -5    1    3    3    0  502  0.29420625643E+03  0.46913156646E+03  0.36759381674E+03  0.66467213879E+03  0.46999998093E+01 0.  1.
</event>
<event>
 5   0  0.2639750E-04  0.1715476E+04  0.7818609E-02  0.8752587E-01
       -3   -1    0    0    0  501  0.00000000000E+00  0.00000000000E+00  0.63309352552E+03  0.63309353358E+03  0.10100000352E+00 0. -1.
        3   -1    0    0  501    0  0.00000000000E+00  0.00000000000E+00 -0.11620943648E+04  0.11620943692E+04  0.10100000352E+00 0.  1.
    10030    2    1    2    0    0  0.00000000000E+00  0.00000000000E+00 -0.52900083931E+03  0.17951879028E+04  0.17154759451E+04 0.  0.
        1    1    3    3  502    0  0.55379451803E+03 -0.58070955607E+01  0.42090896838E+03  0.69561947230E+03  0.50400001928E-02 0. -1.
       -1    1    3    3    0  502 -0.55379451803E+03  0.58070955607E+01 -0.94990980768E+03  0.10995684305E+04  0.50400001928E-02 0.  1.
</event>
<event>
 5   0  0.3803253E-04  0.1725663E+04  0.7818609E-02  0.8746862E-01
        1   -1    0    0  501    0  0.00000000000E+00  0.00000000000E+00  0.17313390889E+04  0.17313390889E+04  0.50400001928E-02 0.  1.
       -1   -1    0    0    0  501  0.00000000000E+00  0.00000000000E+00 -0.43000130221E+03  0.43000130224E+03  0.50400001928E-02 0. -1.
    10030    2    1    2    0    0  0.00000000000E+00  0.00000000000E+00  0.13013377867E+04  0.21613403911E+04  0.17256628440E+04 0.  0.
        4    1    3    3  502    0 -0.16263995407E+03  0.64691540921E+03 -0.34793870223E+02  0.66795473472E+03  0.12699999809E+01 0. -1.
       -4    1    3    3    0  502  0.16263995407E+03 -0.64691540921E+03  0.13361316569E+04  0.14933856564E+04  0.12699999809E+01 0.  1.
</event>
<event>
 5   0  0.7025426E-04  0.1801025E+04  0.7818609E-02  0.8705755E-01
       -2   -1    0    0    0  501  0.00000000000E+00  0.00000000000E+00  0.10977664833E+04  0.10977664833E+04  0.25500000920E-02 0. -1.
        2   -1    0    0  501    0  0.00000000000E+00  0.00000000000E+00 -0.73870223857E+03  0.73870223857E+03  0.25500000920E-02 0.  1.
    10030    2    1    2    0    0  0.00000000000E+00  0.00000000000E+00  0.35906424469E+03  0.18364687218E+04  0.18010247734E+04 0.  0.
        2    1    3    3  502    0 -0.60423668241E+02 -0.74564379174E+03  0.69068257752E+03  0.10181739079E+04  0.25500000920E-02 0. -1.
       -2    1    3    3    0  502  0.60423668241E+02  0.74564379174E+03 -0.33161833282E+03  0.81829481393E+03  0.25500000920E-02 0.  1.
</event>
<event>
 5   0  0.7242144E-04  0.1493032E+04  0.7818609E-02  0.8889100E-01
        2   -1    0    0  501    0  0.00000000000E+00  0.00000000000E+00  0.25732967858E+04  0.25732967858E+04  0.25500000920E-02 0.  1.
       -2   -1    0    0    0  501  0.00000000000E+00  0.00000000000E+00 -0.21656508422E+03  0.21656508423E+03  0.25500000920E-02 0. -1.
    10030    2    1    2    0    0  0.00000000000E+00  0.00000000000E+00  0.23567317016E+04  0.27898618700E+04  0.14930321298E+04 0.  0.
        3    1    3    3  502    0  0.19928389166E+03 -0.29629872285E+03  0.24033663209E+04  0.24297482761E+04  0.10100000352E+00 0.  1.
       -3    1    3    3    0  502 -0.19928389166E+03  0.29629872285E+03 -0.46634619278E+02  0.36011359396E+03  0.10100000352E+00 0. -1.
</event>
<event>
 5   0  0.3713516E-04  0.1674241E+04  0.7818609E-02  0.8776194E-01
       -1   -1    0    0    0  501  0.00000000000E+00  0.00000000000E+00  0.27782175810E+04  0.27782175810E+04  0.50400001928E-02 0. -1.
        1   -1    0    0  501    0  0.00000000000E+00  0.00000000000E+00 -0.25223752253E+03  0.25223752258E+03  0.50400001928E-02 0.  1.
    10030    2    1    2    0    0  0.00000000000E+00  0.00000000000E+00  0.25259800584E+04  0.30304551036E+04  0.16742409859E+04 0.  0.
        5    1    3    3  502    0 -0.95884385889E+02  0.34373817486E+03  0.26336139454E+04  0.26576858828E+04  0.46999998093E+01 0. -1.
       -5    1    3    3    0  502  0.95884385889E+02 -0.34373817486E+03 -0.10763388695E+03  0.37276922074E+03  0.46999998093E+01 0.  1.
</event>
<event>
 5   0  0.6746664E-04  0.1738225E+04  0.7818609E-02  0.8739859E-01
        2   -1    0    0  501    0  0.00000000000E+00  0.00000000000E+00  0.12158545642E+04  0.12158545642E+04  0.25500000920E-02 0.  1.
       -2   -1    0    0    0  501  0.00000000000E+00  0.00000000000E+00 -0.62125561718E+03  0.62125561719E+03  0.25500000920E-02 0. -1.
    10030    2    1    2    0    0  0.00000000000E+00  0.00000000000E+00  0.59459894707E+03  0.18371101814E+04  0.17382249310E+04 0.  0.
        5    1    3    3  502    0 -0.31130731957E+03  0.40844566167E+03 -0.44372515236E+03  0.67871511446E+03  0.46999998093E+01 0. -1.
       -5    1    3    3    0  502  0.31130731957E+03 -0.40844566167E+03  0.10383240994E+04  0.11583950670E+04  0.46999998093E+01 0.  1.
</event>
<event>
 5   0  0.7049044E-04  0.1700676E+04  0.7818609E-02  0.8760979E-01
        2   -1    0    0  501    0  0.00000000000E+00  0.00000000000E+00  0.64326851993E+03  0.64326851993E+03  0.25500000920E-02 0.  1.
       -2   -1    0    0    0  501  0.00000000000E+00  0.00000000000E+00 -0.11240629416E+04  0.11240629416E+04  0.25500000920E-02 0. -1.
    10030    2    1    2    0    0  0.00000000000E+00  0.00000000000E+00 -0.48079442165E+03  0.17673314615E+04  0.17006755184E+04 0.  0.
        4    1    3    3  502    0 -0.28720090589E+03  0.20082727180E+03  0.56473104937E+03  0.66463427874E+03  0.12699999809E+01 0.  1.
       -4    1    3    3    0  502  0.28720090589E+03 -0.20082727180E+03 -0.10455254710E+04  0.11026971828E+04  0.12699999809E+01 0. -1.
</event>
<event>
 5   0  0.7025426E-04  0.1696953E+04  0.7818609E-02  0.8763104E-01
       -2   -1    0    0    0  501  0.00000000000E+00  0.00000000000E+00  0.62126851631E+03  0.62126851632E+03  0.25500000920E-02 0.  1.
        2   -1    0    0  501    0  0.00000000000E+00  0.00000000000E+00 -0.11587783939E+04  0.11587783939E+04  0.25500000920E-02 0. -1.
    10030    2    1    2    0    0  0.00000000000E+00  0.00000000000E+00 -0.53750987755E+03  0.17800469102E+04  0.16969531915E+04 0.  0.
        2    1    3    3  502    0  0.51654072862E+03  0.65600793522E+03 -0.42697787773E+03  0.93780106817E+03  0.25500000920E-02 0. -1.
       -2    1    3    3    0  502 -0.51654072862E+03 -0.65600793522E+03 -0.11053199982E+03  0.84224584201E+03  0.25500000920E-02 0.  1.
</event>
<event>
 5   0  0.3915701E-04  0.1691780E+04  0.7818609E-02  0.8766067E-01
       -1   -1    0    0    0  501  0.00000000000E+00  0.00000000000E+00  0.47810086906E+03  0.47810086908E+03  0.50400001928E-02 0.  1.
        1   -1    0    0  501    0  0.00000000000E+00  0.00000000000E+00 -0.14966078802E+04  0.14966078802E+04  0.50400001928E-02 0. -1.
    10030    2    1    2    0    0  0.00000000000E+00  0.00000000000E+00 -0.10185070112E+04  0.19747087493E+04  0.16917795698E+04 0.  0.
        2    1    3    3  502    0 -0.40104784453E+03 -0.54790523252E+03 -0.10980898996E+04  0.12910619447E+04  0.25500000920E-02 0. -1.
       -2    1    3    3    0  502  0.40104784453E+03  0.54790523252E+03  0.79582888370E+02  0.68364680468E+03  0.25500000920E-02 0.  1.
</event>
<event>
 5   0  0.7025426E-04  0.1586357E+04  0.7818609E-02  0.8828973E-01
        2   -1    0    0  501    0  0.00000000000E+00  0.00000000000E+00  0.10980798718E+04  0.10980798718E+04  0.25500000920E-02 0. -1.
       -2   -1    0    0    0  501  0.00000000000E+00  0.00000000000E+00 -0.57293873188E+03  0.57293873189E+03  0.25500000920E-02 0.  1.
    10030    2    1    2    0    0  0.00000000000E+00  0.00000000000E+00  0.52514113992E+03  0.16710186037E+04  0.15863574493E+04 0.  0.
        2    1    3    3  502    0  0.15481213161E+03  0.25734759982E+03  0.10358733972E+04  0.10785306107E+04  0.25500000920E-02 0. -1.
       -2    1    3    3    0  502 -0.15481213161E+03 -0.25734759982E+03 -0.51073225726E+03  0.59248799299E+03  0.25500000920E-02 0.  1.
</event>
<event>
 5   0  0.6746664E-04  0.1723319E+04  0.7818609E-02  0.8748175E-01
       -2   -1    0    0    0  501  0.00000000000E+00  0.00000000000E+00  0.17185094277E+04  0.17185094277E+04  0.25500000920E-02 0.  1.
        2   -1    0    0  501    0  0.00000000000E+00  0.00000000000E+00 -0.43203540046E+03  0.43203540047E+03  0.25500000920E-02 0. -1.
    10030    2    1    2    0    0  0.00000000000E+00  0.00000000000E+00  0.12864740273E+04  0.21505448282E+04  0.17233187851E+04 0.  0.
        5    1    3    3  502    0  0.38618911001E+03 -0.11605937219E+03  0.15934710924E+04  0.16437104425E+04  0.46999998093E+01 0.  1.
       -5    1    3    3    0  502 -0.38618911001E+03  0.11605937219E+03 -0.30699706509E+03  0.50683438571E+03  0.46999998093E+01 0. -1.
</event>
<event>
 5   0  0.7049044E-04  0.1780292E+04  0.7818609E-02  0.8716851E-01
        2   -1    0    0  501    0  0.00000000000E+00  0.00000000000E+00  0.80991581881E+03  0.80991581881E+03  0.25500000920E-02 0. -1.
       -2   -1    0    0    0  501  0.00000000000E+00  0.00000000000E+00 -0.97832371870E+03  0.97832371870E+03  0.25500000920E-02 0.  1.
    10030    2    1    2    0    0  0.00000000000E+00  0.00000000000E+00 -0.16840789989E+03  0.17882395375E+04  0.17802919487E+04 0.  0.
        4    1    3    3  502    0  0.60363951959E+03 -0.34044355156E+03 -0.64533523701E+03  0.94696444624E+03  0.12699999809E+01 0.  1.
       -4    1    3    3    0  502 -0.60363951959E+03  0.34044355156E+03  0.47692733712E+03  0.84127509128E+03  0.12699999809E+01 0. -1.
</event>
<event>
 5   0  0.7025426E-04  0.1679482E+04  0.7818609E-02  0.8773154E-01
        2   -1    0    0  501    0  0.00000000000E+00  0.00000000000E+00  0.23249424993E+04  0.23249424993E+04  0.25500000920E-02 0.  1.
       -2   -1    0    0    0  501  0.00000000000E+00  0.00000000000E+00 -0.30330440688E+03  0.30330440689E+03  0.25500000920E-02 0. -1.
    10030    2    1    2    0    0  0.00000000000E+00  0.00000000000E+00  0.20216380924E+04  0.26282469062E+04  0.16794824272E+04 0.  0.
        2    1    3    3  502    0 -0.48163794373E+03 -0.17146296550E+03  0.20533279457E+04  0.21160175590E+04  0.25500000920E-02 0.  1.
       -2    1    3    3    0  502  0.48163794373E+03  0.17146296550E+03 -0.31689853225E+02  0.51222934725E+03  0.25500000920E-02 0. -1.
</event>
<event>
 5   0  0.6746664E-04  0.1758974E+04  0.7818609E-02  0.8728426E-01
       -2   -1    0    0    0  501  0.00000000000E+00  0.00000000000E+00  0.40981189508E+03  0.40981189509E+03  0.25500000920E-02 0. -1.
        2   -1    0    0  501    0  0.00000000000E+00  0.00000000000E+00 -0.18874449184E+04  0.18874449184E+04  0.25500000920E-02 0.  1.
    10030    2    1    2    0    0  0.00000000000E+00  0.00000000000E+00 -0.14776330233E+04  0.22972568135E+04  0.17589739951E+04 0.  0.
        5    1    3    3  502    0 -0.37524661806E+03 -0.10386528138E+03 -0.17687340894E+04  0.18110881784E+04  0.46999998093E+01 0.  1.
       -5    1    3    3    0  502  0.37524661806E+03  0.10386528138E+03  0.29110106608E+03  0.48616863506E+03  0.46999998093E+01 0. -1.
</event>
<event>
 5   0  0.3723500E-04  0.1671520E+04  0.7818609E-02  0.8777776E-01
       -1   -1    0    0    0  501  0.00000000000E+00  0.00000000000E+00  0.81070962327E+03  0.81070962329E+03  0.50400001928E-02 0. -1.
        1   -1    0    0  501    0  0.00000000000E+00  0.00000000000E+00 -0.86158461249E+03  0.86158461250E+03  0.50400001928E-02 0.  1.
    10030    2    1    2    0    0  0.00000000000E+00  0.00000000000E+00 -0.50874989214E+02  0.16722942358E+04  0.16715201903E+04 0.  0.
        1    1    3    3  502    0 -0.27778035985E+03  0.74136537581E+03  0.24247446544E+03  0.82799662752E+03  0.50400001928E-02 0. -1.
       -1    1    3    3    0  502  0.27778035985E+03 -0.74136537581E+03 -0.29334945465E+03  0.84429760827E+03  0.50400001928E-02 0.  1.
</event>
<event>
 5   0  0.7242144E-04  0.1713091E+04  0.7818609E-02  0.8753933E-01
       -2   -1    0    0    0  501  0.00000000000E+00  0.00000000000E+00  0.15988051707E+04  0.15988051707E+04  0.25500000920E-02 0. -1.
        2   -1    0    0  501    0  0.00000000000E+00  0.00000000000E+00 -0.45888647197E+03  0.45888647198E+03  0.25500000920E-02 0.  1.
    10030    2    1    2    0    0  0.00000000000E+00  0.00000000000E+00  0.11399186988E+04  0.20576916427E+04  0.17130908489E+04 0.  0.
        3    1    3    3  502    0 -0.28726690275E+03  0.59407809703E+03  0.12259045365E+04  0.13922259161E+04  0.10100000352E+00 0.  1.
       -3    1    3    3    0  502  0.28726690275E+03 -0.59407809703E+03 -0.85985837699E+02  0.66546572659E+03  0.10100000352E+00 0. -1.
</event>
<event>
 5   0  0.3723500E-04  0.1688891E+04  0.7818609E-02  0.8767725E-01
       -1   -1    0    0    0  501  0.00000000000E+00  0.00000000000E+00  0.90880116594E+03  0.90880116596E+03  0.50400001928E-02 0. -1.
        1   -1    0    0  501    0  0.00000000000E+00  0.00000000000E+00 -0.78464752703E+03  0.78464752704E+03  0.50400001928E-02 0.  1.
    10030    2    1    2    0    0  0.00000000000E+00  0.00000000000E+00  0.12415363892E+03  0.16934486930E+04  0.16888914559E+04 0.  0.
        1    1    3    3  502    0 -0.39985999670E+03  0.73376247566E+03 -0.59878673390E+02  0.83778329131E+03  0.50400001928E-02 0.  1.
       -1    1    3    3    0  502  0.39985999670E+03 -0.73376247566E+03  0.18403231231E+03  0.85566540169E+03  0.50400001928E-02 0. -1.
</event>
<event>
 5   0  0.7025426E-04  0.1749277E+04  0.7818609E-02  0.8733748E-01
        2   -1    0    0  501    0  0.00000000000E+00  0.00000000000E+00  0.17626272965E+04  0.17626272965E+04  0.25500000920E-02 0. -1.
       -2   -1    0    0    0  501  0.00000000000E+00  0.00000000000E+00 -0.43400690722E+03  0.43400690722E+03  0.25500000920E-02 0.  1.
    10030    2    1    2    0    0  0.00000000000E+00  0.00000000000E+00  0.13286203893E+04  0.21966342037E+04  0.17492769038E+04 0.  0.
        2    1    3    3  502    0 -0.13925713036E+03  0.17261953652E+03  0.17267289901E+04  0.17409144315E+04  0.25500000920E-02 0. -1.
       -2    1    3    3    0  502  0.13925713036E+03 -0.17261953652E+03 -0.39810860079E+03  0.45571977220E+03  0.25500000920E-02 0.  1.
</event>
<event>
 5   0  0.6746664E-04  0.1716624E+04  0.7818609E-02  0.8751940E-01
       -2   -1    0    0    0  501  0.00000000000E+00  0.00000000000E+00  0.71897653582E+03  0.71897653582E+03  0.25500000920E-02 0.  1.
        2   -1    0    0  501    0  0.00000000000E+00  0.00000000000E+00 -0.10246496872E+04  0.10246496872E+04  0.25500000920E-02 0. -1.
    10030    2    1    2    0    0  0.00000000000E+00  0.00000000000E+00 -0.30567315141E+03  0.17436262230E+04  0.17166235261E+04 0.  0.
        5    1    3    3  502    0  0.58633930072E+03  0.39126287112E+03  0.34455660480E+03  0.78461567267E+03  0.46999998093E+01 0.  1.
       -5    1    3    3    0  502 -0.58633930072E+03 -0.39126287112E+03 -0.65022975621E+03  0.95901055038E+03  0.46999998093E+01 0. -1.
</event>
<event>
 5   0  0.3723500E-04  0.1709230E+04  0.7818609E-02  0.8756118E-01
        1   -1    0    0  501    0  0.00000000000E+00  0.00000000000E+00  0.88501802378E+03  0.88501802379E+03  0.50400001928E-02 0.  1.
       -1   -1    0    0    0  501  0.00000000000E+00  0.00000000000E+00 -0.82525619817E+03  0.82525619819E+03  0.50400001928E-02 0. -1.
    10030    2    1    2    0    0  0.00000000000E+00  0.00000000000E+00  0.59761825608E+02  0.17102742220E+04  0.17092297793E+04 0.  0.
        1    1    3    3  502    0  0.99262712197E+02  0.52643058064E+03  0.69615893448E+03  0.87841875228E+03  0.50400001928E-02 0.  1.
       -1    1    3    3    0  502 -0.99262712197E+02 -0.52643058064E+03 -0.63639710887E+03  0.83185546970E+03  0.50400001928E-02 0. -1.
</event>
<event>
 5   0  0.3803253E-04  0.1715991E+04  0.7818609E-02  0.8752296E-01
        1   -1    0    0  501    0  0.00000000000E+00  0.00000000000E+00  0.13928408879E+04  0.13928408879E+04  0.50400001928E-02 0. -1.
       -1   -1    0    0    0  501  0.00000000000E+00  0.00000000000E+00 -0.52852857389E+03  0.52852857392E+03  0.50400001928E-02 0.  1.
    10030    2    1    2    0    0  0.00000000000E+00  0.00000000000E+00  0.86431231403E+03  0.19213694619E+04  0.17159909186E+04 0.  0.
        4    1    3    3  502    0 -0.59041014533E+03 -0.13005853748E+03  0.11138368068E+04  0.12673331874E+04  0.12699999809E+01 0. -1.
       -4    1    3    3    0  502  0.59041014533E+03  0.13005853748E+03 -0.24952449276E+03  0.65403627443E+03  0.12699999809E+01 0.  1.
</event>
<event>
 5   0  0.3713516E-04  0.1649730E+04  0.7818609E-02  0.8790566E-01
        1   -1    0    0  501    0  0.00000000000E+00  0.00000000000E+00  0.71906960154E+03  0.71906960156E+03  0.50400001928E-02 0. -1.
       -1   -1    0    0    0  501  0.00000000000E+00  0.00000000000E+00 -0.94622605265E+03  0.94622605266E+03  0.50400001928E-02 0.  1.
    10030    2    1    2    0    0  0.00000000000E+00  0.00000000000E+00 -0.22715645111E+03  0.16652956542E+04  0.16497301484E+04 0.  0.
        5    1    3    3  502    0 -0.27057073354E+03 -0.72130990358E+03 -0.41111992950E+03  0.87323432438E+03  0.46999998093E+01 0. -1.
       -5    1    3    3    0  502  0.27057073354E+03  0.72130990358E+03  0.18396347839E+03  0.79206132984E+03  0.46999998093E+01 0.  1.
</event>
<event>
 5   0  0.2639750E-04  0.1696228E+04  0.7818609E-02  0.8763519E-01
        3   -1    0    0  501    0  0.00000000000E+00  0.00000000000E+00  0.10696375468E+04  0.10696375516E+04  0.10100000352E+00 0. -1.
       -3   -1    0    0    0  501  0.00000000000E+00  0.00000000000E+00 -0.67246827318E+03  0.67246828077E+03  0.10100000352E+00 0.  1.
    10030    2    1    2    0    0  0.00000000000E+00  0.00000000000E+00  0.39716927360E+03  0.17421058323E+04  0.16962279620E+04 0.  0.
        1    1    3    3  502    0  0.20481063054E+03  0.57226026013E+03 -0.40891007994E+03  0.73255488069E+03  0.50400001928E-02 0.  1.
       -1    1    3    3    0  502 -0.20481063054E+03 -0.57226026013E+03  0.80607935355E+03  0.10095509516E+04  0.50400001928E-02 0. -1.
</event>
<event>
 5   0  0.2639750E-04  0.1724347E+04  0.7818609E-02  0.8747599E-01
        3   -1    0    0  501    0  0.00000000000E+00  0.00000000000E+00  0.11540965299E+04  0.11540965343E+04  0.10100000352E+00 0.  1.
       -3   -1    0    0    0  501  0.00000000000E+00  0.00000000000E+00 -0.64409126678E+03  0.64409127470E+03  0.10100000352E+00 0. -1.
    10030    2    1    2    0    0  0.00000000000E+00  0.00000000000E+00  0.51000526315E+03  0.17981878090E+04  0.17243474210E+04 0.  0.
        2    1    3    3  502    0 -0.56685398125E+03 -0.56865534173E+03 -0.72535151074E+02  0.80619704904E+03  0.25500000920E-02 0. -1.
       -2    1    3    3    0  502  0.56685398125E+03  0.56865534173E+03  0.58254041422E+03  0.99199076001E+03  0.25500000920E-02 0.  1.
</event>
<event>
 5   0  0.3635143E-04  0.1735932E+04  0.7818609E-02  0.8741132E-01
        1   -1    0    0  501    0  0.00000000000E+00  0.00000000000E+00  0.94895237617E+03  0.94895237618E+03  0.50400001928E-02 0.  1.
       -1   -1    0    0    0  501  0.00000000000E+00  0.00000000000E+00 -0.79389108191E+03  0.79389108193E+03  0.50400001928E-02 0. -1.
    10030    2    1    2    0    0  0.00000000000E+00  0.00000000000E+00  0.15506129426E+03  0.17428434581E+04  0.17359318289E+04 0.  0.
        3    1    3    3  502    0 -0.21408659996E+03  0.29139607865E+03 -0.71467379435E+03  0.80093906726E+03  0.10100000352E+00 0. -1.
       -3    1    3    3    0  502  0.21408659996E+03 -0.29139607865E+03  0.86973508861E+03  0.94190439084E+03  0.10100000352E+00 0.  1.
</event>
<event>
 5   0  0.6746664E-04  0.1592320E+04  0.7818609E-02  0.8825280E-01
       -2   -1    0    0    0  501  0.00000000000E+00  0.00000000000E+00  0.85974578939E+03  0.85974578940E+03  0.25500000920E-02 0. -1.
        2   -1    0    0  501    0  0.00000000000E+00  0.00000000000E+00 -0.73727709160E+03  0.73727709160E+03  0.25500000920E-02 0.  1.
    10030    2    1    2    0    0  0.00000000000E+00  0.00000000000E+00  0.12246869780E+03  0.15970228810E+04  0.15923201627E+04 0.  0.
        5    1    3    3  502    0  0.50970789181E+03  0.11787764339E+03 -0.54066429503E+03  0.75235446679E+03  0.46999998093E+01 0.  1.
       -5    1    3    3    0  502 -0.50970789181E+03 -0.11787764339E+03  0.66313299283E+03  0.84466841421E+03  0.46999998093E+01 0. -1.
</event>
<event>
 5   0  0.2639750E-04  0.1713198E+04  0.7818609E-02  0.8753873E-01
       -3   -1    0    0    0  501  0.00000000000E+00  0.00000000000E+00  0.70412020875E+03  0.70412021600E+03  0.10100000352E+00 0. -1.
        3   -1    0    0  501    0  0.00000000000E+00  0.00000000000E+00 -0.10420973104E+04  0.10420973153E+04  0.10100000352E+00 0.  1.
    10030    2    1    2    0    0  0.00000000000E+00  0.00000000000E+00 -0.33797710166E+03  0.17462175313E+04  0.17131979294E+04 0.  0.
        2    1    3    3  502    0 -0.50767378341E+03  0.75886335286E+02 -0.86796833617E+03  0.10083949816E+04  0.25500000920E-02 0.  1.
       -2    1    3    3    0  502  0.50767378341E+03 -0.75886335286E+02  0.52999123450E+03  0.73782254974E+03  0.25500000920E-02 0. -1.
</event>
<event>
 5   0  0.6746664E-04  0.1682888E+04  0.7818609E-02  0.8771184E-01
       -2   -1    0    0    0  501  0.00000000000E+00  0.00000000000E+00  0.34162841121E+03  0.34162841122E+03  0.25500000920E-02 0. -1.
        2   -1    0    0  501    0  0.00000000000E+00  0.00000000000E+00 -0.20725098488E+04  0.20725098488E+04  0.25500000920E-02 0.  1.
    10030    2    1    2    0    0  0.00000000000E+00  0.00000000000E+00 -0.17308814376E+04  0.24141382600E+04  0.16828882873E+04 0.  0.
        5    1    3    3  502    0  0.45176968659E+03 -0.43321374493E+03 -0.16721417534E+04  0.17854551610E+04  0.46999998093E+01 0.  1.
       -5    1    3    3    0  502 -0.45176968659E+03  0.43321374493E+03 -0.58739684219E+02  0.62868309904E+03  0.46999998093E+01 0. -1.
</event>
<event>
 5   0  0.3803253E-04  0.1768333E+04  0.7818609E-02  0.8723323E-01
        1   -1    0    0  501    0  0.00000000000E+00  0.00000000000E+00  0.11229358240E+04  0.11229358240E+04  0.50400001928E-02 0. -1.
       -1   -1    0    0    0  501  0.00000000000E+00  0.00000000000E+00 -0.69616622274E+03  0.69616622276E+03  0.50400001928E-02 0.  1.
    10030    2    1    2    0    0  0.00000000000E+00  0.00000000000E+00  0.42676960128E+03  0.18191020468E+04  0.17683325378E+04 0.  0.
        4    1    3    3  502    0  0.15526827605E+03  0.16535092000E+03  0.10924954498E+04  0.11157943740E+04  0.12699999809E+01 0. -1.
       -4    1    3    3    0  502 -0.15526827605E+03 -0.16535092000E+03 -0.66572584854E+03  0.70330767279E+03  0.12699999809E+01 0.  1.
</event>
<event>
 5   0  0.3713516E-04  0.1620823E+04  0.7818609E-02  0.8807857E-01
       -1   -1    0    0    0  501  0.00000000000E+00  0.00000000000E+00  0.22746992945E+03  0.22746992950E+03  0.50400001928E-02 0. -1.
        1   -1    0    0  501    0  0.00000000000E+00  0.00000000000E+00 -0.28872695237E+04  0.28872695237E+04  0.50400001928E-02 0.  1.
    10030    2    1    2    0    0  0.00000000000E+00  0.00000000000E+00 -0.26597995942E+04  0.31147394532E+04  0.16208232414E+04 0.  0.
        5    1    3    3  502    0  0.26471117188E+03 -0.34605956370E+02 -0.28003162984E+04  0.28130167148E+04  0.46999998093E+01 0.  1.
       -5    1    3    3    0  502 -0.26471117188E+03  0.34605956370E+02  0.14051670413E+03  0.30172273841E+03  0.46999998093E+01 0. -1.
</event>
<event>
 5   0  0.7242144E-04  0.1530028E+04  0.7818609E-02  0.8864726E-01
        2   -1    0    0  501    0  0.00000000000E+00  0.00000000000E+00  0.10252966825E+04  0.10252966825E+04  0.25500000920E-02 0.  1.
       -2   -1    0    0    0  501  0.00000000000E+00  0.00000000000E+00 -0.57080704641E+03  0.57080704641E+03  0.25500000920E-02 0. -1.
    10030    2    1    2    0    0  0.00000000000E+00  0.00000000000E+00  0.45448963611E+03  0.15961037289E+04  0.15300281972E+04 0.  0.
        3    1    3    3  502    0  0.71246672772E+03  0.11302430999E+03 -0.38436463202E+02  0.72239926956E+03  0.10100000352E+00 0. -1.
       -3    1    3    3    0  502 -0.71246672772E+03 -0.11302430999E+03  0.49292609932E+03  0.87370445938E+03  0.10100000352E+00 0.  1.
</event>
<event>
 5   0  0.6746664E-04  0.1648731E+04  0.7818609E-02  0.8791158E-01
       -2   -1    0    0    0  501  0.00000000000E+00  0.00000000000E+00  0.31699115578E+03  0.31699115579E+03  0.25500000920E-02 0. -1.
        2   -1    0    0  501    0  0.00000000000E+00  0.00000000000E+00 -0.21438392121E+04  0.21438392121E+04  0.25500000920E-02 0.  1.
    10030    2    1    2    0    0  0.00000000000E+00  0.00000000000E+00 -0.18268480563E+04  0.24608303679E+04  0.16487305052E+04 0.  0.
        5    1    3    3  502    0 -0.44756031407E+03 -0.52692241020E+03 -0.15835796611E+04  0.17279190068E+04  0.46999998093E+01 0.  1.
       -5    1    3    3    0  502  0.44756031407E+03  0.52692241020E+03 -0.24326839526E+03  0.73291136109E+03  0.46999998093E+01 0. -1.
</event>
<event>
 5   0  0.2639750E-04  0.1669103E+04  0.7818609E-02  0.8779185E-01
        3   -1    0    0  501    0  0.00000000000E+00  0.00000000000E+00  0.29049603794E+04  0.29049603811E+04  0.10100000352E+00 0.  1.
       -3   -1    0    0    0  501  0.00000000000E+00  0.00000000000E+00 -0.23975418290E+03  0.23975420417E+03  0.10100000352E+00 0. -1.
    10030    2    1    2    0    0  0.00000000000E+00  0.00000000000E+00  0.26652061965E+04  0.31447145853E+04  0.16691032782E+04 0.  0.
        4    1    3    3  502    0  0.44775357598E+03 -0.38670450170E+03  0.22363500014E+03  0.63248546436E+03  0.12699999809E+01 0. -1.
       -4    1    3    3    0  502 -0.44775357598E+03  0.38670450170E+03  0.24415711963E+04  0.25122291209E+04  0.12699999809E+01 0.  1.
</event>
<event>
 5   0  0.7049044E-04  0.1727124E+04  0.7818609E-02  0.8746044E-01
       -2   -1    0    0    0  501  0.00000000000E+00  0.00000000000E+00  0.47595947513E+03  0.47595947514E+03  0.25500000920E-02 0. -1.
        2   -1    0    0  501    0  0.00000000000E+00  0.00000000000E+00 -0.15668126511E+04  0.15668126511E+04  0.25500000920E-02 0.  1.
    10030    2    1    2    0    0  0.00000000000E+00  0.00000000000E+00 -0.10908531760E+04  0.20427721263E+04  0.17271239991E+04 0.  0.
        4    1    3    3  502    0  0.81156812241E+02  0.28510005799E+03  0.41389936903E+03  0.50909996250E+03  0.12699999809E+01 0. -1.
       -4    1    3    3    0  502 -0.81156812241E+02 -0.28510005799E+03 -0.15047525450E+04  0.15336721637E+04  0.12699999809E+01 0.  1.
</event>
<event>
 5   0  0.3723500E-04  0.1672405E+04  0.7818609E-02  0.8777261E-01
        1   -1    0    0  501    0  0.00000000000E+00  0.00000000000E+00  0.74158886593E+03  0.74158886595E+03  0.50400001928E-02 0.  1.
       -1   -1    0    0    0  501  0.00000000000E+00  0.00000000000E+00 -0.94288713870E+03  0.94288713871E+03  0.50400001928E-02 0. -1.
    10030    2    1    2    0    0  0.00000000000E+00  0.00000000000E+00 -0.20129827277E+03  0.16844760047E+04  0.16724049796E+04 0.  0.
        1    1    3    3  502    0  0.27065524979E+03  0.75624915561E+03 -0.33485175107E+03  0.87022568615E+03  0.50400001928E-02 0. -1.
       -1    1    3    3    0  502 -0.27065524979E+03 -0.75624915561E+03  0.13355347831E+03  0.81425031851E+03  0.50400001928E-02 0.  1.
</event>
<event>
 5   0  0.3915701E-04  0.1669504E+04  0.7818609E-02  0.8778951E-01
       -1   -1    0    0    0  501  0.00000000000E+00  0.00000000000E+00  0.40698734466E+03  0.40698734469E+03  0.50400001928E-02 0.  1.
        1   -1    0    0  501    0  0.00000000000E+00  0.00000000000E+00 -0.17121195661E+04  0.17121195661E+04  0.50400001928E-02 0. -1.
    10030    2    1    2    0    0  0.00000000000E+00  0.00000000000E+00 -0.13051322215E+04  0.21191069108E+04  0.16695041132E+04 0.  0.
        2    1    3    3  502    0  0.94186207858E+02  0.54377453825E+03 -0.14475281866E+04  0.15491609475E+04  0.25500000920E-02 0. -1.
       -2    1    3    3    0  502 -0.94186207858E+02 -0.54377453825E+03  0.14239596515E+03  0.56994596332E+03  0.25500000920E-02 0.  1.
</event>
<event>
 5   0  0.3803253E-04  0.1706906E+04  0.7818609E-02  0.8757436E-01
        1   -1    0    0  501    0  0.00000000000E+00  0.00000000000E+00  0.23387379324E+04  0.23387379324E+04  0.50400001928E-02 0. -1.
       -1   -1    0    0    0  501  0.00000000000E+00  0.00000000000E+00 -0.31144222387E+03  0.31144222392E+03  0.50400001928E-02 0.  1.
    10030    2    1    2    0    0  0.00000000000E+00  0.00000000000E+00  0.20272957085E+04  0.26501801563E+04  0.17069056714E+04 0.  0.
        4    1    3    3  502    0 -0.36248831098E+03 -0.61643237622E+02  0.22094519286E+04  0.22398386330E+04  0.12699999809E+01 0. -1.
       -4    1    3    3    0  502  0.36248831098E+03  0.61643237622E+02 -0.18215622005E+03  0.41034152331E+03  0.12699999809E+01 0.  1.
</event>
<event>
 5   0  0.3803253E-04  0.1375724E+04  0.7818609E-02  0.8971581E-01
        1   -1    0    0  501    0  0.00000000000E+00  0.00000000000E+00  0.18478866757E+04  0.18478866758E+04  0.50400001928E-02 0.  1.
       -1   -1    0    0    0  501  0.00000000000E+00  0.00000000000E+00 -0.25605140646E+03  0.25605140650E+03  0.50400001928E-02 0. -1.
    10030    2    1    2    0    0  0.00000000000E+00  0.00000000000E+00  0.15918352693E+04  0.21039380823E+04  0.13757237838E+04 0.  0.
        4    1    3    3  502    0  0.28748743333E+03 -0.21494671459E+03  0.16932865301E+04  0.17309165203E+04  0.12699999809E+01 0.  1.
       -4    1    3    3    0  502 -0.28748743333E+03  0.21494671459E+03 -0.10145126082E+03  0.37302156192E+03  0.12699999809E+01 0. -1.
</event>
<event>
 5   0  0.3723500E-04  0.1713344E+04  0.7818609E-02  0.8753790E-01
       -1   -1    0    0    0  501  0.00000000000E+00  0.00000000000E+00  0.42664159805E+03  0.42664159808E+03  0.50400001928E-02 0. -1.
        1   -1    0    0  501    0  0.00000000000E+00  0.00000000000E+00 -0.17201479817E+04  0.17201479817E+04  0.50400001928E-02 0.  1.
    10030    2    1    2    0    0  0.00000000000E+00  0.00000000000E+00 -0.12935063837E+04  0.21467895798E+04  0.17133437295E+04 0.  0.
        1    1    3    3  502    0 -0.24920633907E+03 -0.22027454496E+03 -0.16359445346E+04  0.16694128294E+04  0.50400001928E-02 0.  1.
       -1    1    3    3    0  502  0.24920633907E+03  0.22027454496E+03  0.34243815094E+03  0.47737675041E+03  0.50400001928E-02 0. -1.
</event>
<event>
 5   0  0.3713516E-04  0.1600918E+04  0.7818609E-02  0.8819984E-01
        1   -1    0    0  501    0  0.00000000000E+00  0.00000000000E+00  0.18786580434E+04  0.18786580434E+04  0.50400001928E-02 0.  1.
       -1   -1    0    0    0  501  0.00000000000E+00  0.00000000000E+00 -0.34105993567E+03  0.34105993571E+03  0.50400001928E-02 0. -1.
    10030    2    1    2    0    0  0.00000000000E+00  0.00000000000E+00  0.15375981078E+04  0.22197179792E+04  0.16009184758E+04 0.  0.
        5    1    3    3  502    0 -0.72296139758E+03  0.79669766545E+02  0.30541563802E+03  0.78887340939E+03  0.46999998093E+01 0. -1.
       -5    1    3    3    0  502  0.72296139758E+03 -0.79669766545E+02  0.12321824697E+04  0.14308445698E+04  0.46999998093E+01 0.  1.
</event>
<event>
 5   0  0.7049044E-04  0.1703754E+04  0.7818609E-02  0.8759226E-01
       -2   -1    0    0    0  501  0.00000000000E+00  0.00000000000E+00  0.11653479658E+04  0.11653479658E+04  0.25500000920E-02 0.  1.
        2   -1    0    0  501    0  0.00000000000E+00  0.00000000000E+00 -0.62272773500E+03  0.62272773501E+03  0.25500000920E-02 0. -1.
    10030    2    1    2    0    0  0.00000000000E+00  0.00000000000E+00  0.54262023075E+03  0.17880757008E+04  0.17037540893E+04 0.  0.
        4    1    3    3  502    0  0.25604601510E+03  0.65043656193E+03 -0.23968089842E+03  0.73896943706E+03  0.12699999809E+01 0. -1.
       -4    1    3    3    0  502 -0.25604601510E+03 -0.65043656193E+03  0.78230112917E+03  0.10491062637E+04  0.12699999809E+01 0.  1.
</event>
<event>
 5   0  0.3713516E-04  0.1715000E+04  0.7818609E-02  0.8752855E-01
       -1   -1    0    0    0  501  0.00000000000E+00  0.00000000000E+00  0.79076926776E+03  0.79076926778E+03  0.50400001928E-02 0.  1.
        1   -1    0    0  501    0  0.00000000000E+00  0.00000000000E+00 -0.92986222856E+03  0.92986222857E+03  0.50400001928E-02 0. -1.
    10030    2    1    2    0    0  0.00000000000E+00  0.00000000000E+00 -0.13909296079E+03  0.17206314964E+04  0.17150002608E+04 0.  0.
        5    1    3    3  502    0 -0.71687072128E+03 -0.12721414373E+03  0.38492801287E+03  0.82357679332E+03  0.46999998093E+01 0.  1.
       -5    1    3    3    0  502  0.71687072128E+03  0.12721414373E+03 -0.52402097367E+03  0.89705470304E+03  0.46999998093E+01 0. -1.
</event>
<event>
 5   0  0.7049044E-04  0.1692948E+04  0.7818609E-02  0.8765396E-01
        2   -1    0    0  501    0  0.00000000000E+00  0.00000000000E+00  0.62576476497E+03  0.62576476498E+03  0.25500000920E-02 0.  1.
       -2   -1    0    0    0  501  0.00000000000E+00  0.00000000000E+00 -0.11450284072E+04  0.11450284072E+04  0.25500000920E-02 0. -1.
    10030    2    1    2    0    0  0.00000000000E+00  0.00000000000E+00 -0.51926364226E+03  0.17707931722E+04  0.16929482357E+04 0.  0.
        4    1    3    3  502    0 -0.10363710603E+03  0.71103862619E+03 -0.72764324950E+03  0.10226352669E+04  0.12699999809E+01 0. -1.
       -4    1    3    3    0  502  0.10363710603E+03 -0.71103862619E+03  0.20837960723E+03  0.74815790532E+03  0.12699999809E+01 0.  1.
</event>
<event>
 5   0  0.3723500E-04  0.1700308E+04  0.7818609E-02  0.8761189E-01
       -1   -1    0    0    0  501  0.00000000000E+00  0.00000000000E+00  0.39465310029E+03  0.39465310032E+03  0.50400001928E-02 0. -1.
        1   -1    0    0  501    0  0.00000000000E+00  0.00000000000E+00 -0.18313855095E+04  0.18313855095E+04  0.50400001928E-02 0.  1.
    10030    2    1    2    0    0  0.00000000000E+00  0.00000000000E+00 -0.14367324092E+04  0.22260386099E+04  0.17003081711E+04 0.  0.
        1    1    3    3  502    0  0.78811414746E+03 -0.21542195239E+03 -0.10260454789E+04  0.13116020173E+04  0.50400001928E-02 0. -1.
       -1    1    3    3    0  502 -0.78811414746E+03  0.21542195239E+03 -0.41068693033E+03  0.91443659254E+03  0.50400001928E-02 0.  1.
</event>
<event>
 5   0  0.7233728E-04  0.1718655E+04  0.7818609E-02  0.8750796E-01
       -2   -1    0    0    0  501  0.00000000000E+00  0.00000000000E+00  0.82703679754E+03  0.82703679754E+03  0.25500000920E-02 0. -1.
        2   -1    0    0  501    0  0.00000000000E+00  0.00000000000E+00 -0.89287924492E+03  0.89287924492E+03  0.25500000920E-02 0.  1.
    10030    2    1    2    0    0  0.00000000000E+00  0.00000000000E+00 -0.65842447383E+02  0.17199160425E+04  0.17186552782E+04 0.  0.
        1    1    3    3  502    0 -0.28377376862E+03  0.58696676846E+03  0.52729873887E+03  0.83851147820E+03  0.50400001928E-02 0. -1.
       -1    1    3    3    0  502  0.28377376862E+03 -0.58696676846E+03 -0.59314118626E+03  0.88140456426E+03  0.50400001928E-02 0.  1.
</event>
<event>
 5   0  0.3635143E-04  0.1664156E+04  0.7818609E-02  0.8782076E-01
       -1   -1    0    0    0  501  0.00000000000E+00  0.00000000000E+00  0.87082668196E+03  0.87082668198E+03  0.50400001928E-02 0.  1.
        1   -1    0    0  501    0  0.00000000000E+00  0.00000000000E+00 -0.79505350564E+03  0.79505350565E+03  0.50400001928E-02 0. -1.
    10030    2    1    2    0    0  0.00000000000E+00  0.00000000000E+00  0.75773176324E+02  0.16658801876E+04  0.16641560099E+04 0.  0.
        3    1    3    3  502    0  0.68636262778E+03  0.40923909979E+03  0.27003956122E+03  0.84349965764E+03  0.10100000352E+00 0.  1.
       -3    1    3    3    0  502 -0.68636262778E+03 -0.40923909979E+03 -0.19426638490E+03  0.82238052999E+03  0.10100000352E+00 0. -1.
</event>
<event>
 5   0  0.7025426E-04  0.1804873E+04  0.7818609E-02  0.8703712E-01
       -2   -1    0    0    0  501  0.00000000000E+00  0.00000000000E+00  0.46549357914E+03  0.46549357915E+03  0.25500000920E-02 0.  1.
        2   -1    0    0  501    0  0.00000000000E+00  0.00000000000E+00 -0.17495235560E+04  0.17495235560E+04  0.25500000920E-02 0. -1.
    10030    2    1    2    0    0  0.00000000000E+00  0.00000000000E+00 -0.12840299768E+04  0.22150171351E+04  0.18048733827E+04 0.  0.
        2    1    3    3  502    0 -0.39431856330E+02 -0.63255833336E+03  0.14639351907E+03  0.65047365729E+03  0.25500000920E-02 0.  1.
       -2    1    3    3    0  502  0.39431856330E+02  0.63255833336E+03 -0.14304234959E+04  0.15645434778E+04  0.25500000920E-02 0. -1.
</event>
<event>
 5   0  0.3723500E-04  0.1755054E+04  0.7818609E-02  0.8730573E-01
        1   -1    0    0  501    0  0.00000000000E+00  0.00000000000E+00  0.12174744480E+04  0.12174744480E+04  0.50400001928E-02 0.  1.
       -1   -1    0    0    0  501  0.00000000000E+00  0.00000000000E+00 -0.63250116457E+03  0.63250116459E+03  0.50400001928E-02 0. -1.
    10030    2    1    2    0    0  0.00000000000E+00  0.00000000000E+00  0.58497328339E+03  0.18499756126E+04  0.17550544222E+04 0.  0.
        1    1    3    3  502    0  0.66966816155E+03  0.31678626308E+03  0.78829308955E+03  0.10817647517E+04  0.50400001928E-02 0.  1.
       -1    1    3    3    0  502 -0.66966816155E+03 -0.31678626308E+03 -0.20331980616E+03  0.76821086081E+03  0.50400001928E-02 0. -1.
</event>
<event>
 5   0  0.3635143E-04  0.1506417E+04  0.7818609E-02  0.8880197E-01
       -1   -1    0    0    0  501  0.00000000000E+00  0.00000000000E+00  0.61853003212E+03  0.61853003214E+03  0.50400001928E-02 0.  1.
        1   -1    0    0  501    0  0.00000000000E+00  0.00000000000E+00 -0.91721150339E+03  0.91721150341E+03  0.50400001928E-02 0. -1.
    10030    2    1    2    0    0  0.00000000000E+00  0.00000000000E+00 -0.29868147127E+03  0.15357415355E+04  0.15064167560E+04 0.  0.
        3    1    3    3  502    0  0.63488378910E+03  0.40501567841E+03 -0.13464750011E+03  0.76501312728E+03  0.10100000352E+00 0. -1.
       -3    1    3    3    0  502 -0.63488378910E+03 -0.40501567841E+03 -0.16403397116E+03  0.77072840827E+03  0.10100000352E+00 0.  1.
</event>
<event>
 5   0  0.3723500E-04  0.1668717E+04  0.7818609E-02  0.8779410E-01
        1   -1    0    0  501    0  0.00000000000E+00  0.00000000000E+00  0.11307183034E+04  0.11307183034E+04  0.50400001928E-02 0.  1.
       -1   -1    0    0    0  501  0.00000000000E+00  0.00000000000E+00 -0.61567422582E+03  0.61567422584E+03  0.50400001928E-02 0. -1.
    10030    2    1    2    0    0  0.00000000000E+00  0.00000000000E+00  0.51504407757E+03  0.17463925293E+04  0.16687170115E+04 0.  0.
        1    1    3    3  502    0 -0.36724558880E+03 -0.27595492345E+03 -0.47141477123E+03  0.65821905839E+03  0.50400001928E-02 0. -1.
       -1    1    3    3    0  502  0.36724558880E+03  0.27595492345E+03  0.98645884880E+03  0.10881734709E+04  0.50400001928E-02 0.  1.
</event>
<event>
 5   0  0.6746664E-04  0.1708144E+04  0.7818609E-02  0.8756733E-01
       -2   -1    0    0    0  501  0.00000000000E+00  0.00000000000E+00  0.68529513569E+03  0.68529513569E+03  0.25500000920E-02 0.  1.
        2   -1    0    0  501    0  0.00000000000E+00  0.00000000000E+00 -0.10644159939E+04  0.10644159939E+04  0.25500000920E-02 0. -1.
    10030    2    1    2    0    0  0.00000000000E+00  0.00000000000E+00 -0.37912085823E+03  0.17497111296E+04  0.17081441426E+04 0.  0.
        5    1    3    3  502    0 -0.24554665674E+03 -0.79305523280E+03 -0.39490630404E+03  0.91934914036E+03  0.46999998093E+01 0. -1.
       -5    1    3    3    0  502  0.24554665674E+03  0.79305523280E+03  0.15785445809E+02  0.83036198926E+03  0.46999998093E+01 0.  1.
</event>
<event>
 5   0  0.7242144E-04  0.1692881E+04  0.7818609E-02  0.8765435E-01
        2   -1    0    0  501    0  0.00000000000E+00  0.00000000000E+00  0.86034474854E+03  0.86034474854E+03  0.25500000920E-02 0. -1.
       -2   -1    0    0    0  501  0.00000000000E+00  0.00000000000E+00 -0.83276089848E+03  0.83276089848E+03  0.25500000920E-02 0.  1.
    10030    2    1    2    0    0  0.00000000000E+00  0.00000000000E+00  0.27583850057E+02  0.16931056470E+04  0.16928809359E+04 0.  0.
        3    1    3    3  502    0  0.22928387122E+02 -0.31843868686E+03  0.79781724536E+03  0.85932605885E+03  0.10100000352E+00 0. -1.
       -3    1    3    3    0  502 -0.22928387122E+02  0.31843868686E+03 -0.77023339530E+03  0.83377958818E+03  0.10100000352E+00 0.  1.
</event>
<event>
 5   0  0.7233728E-04  0.1721403E+04  0.7818609E-02  0.8749251E-01
        2   -1    0    0  501    0  0.00000000000E+00  0.00000000000E+00  0.54238171808E+03  0.54238171808E+03  0.25500000920E-02 0. -1.
       -2   -1    0    0    0  501  0.00000000000E+00  0.00000000000E+00 -0.13658406894E+04  0.13658406894E+04  0.25500000920E-02 0.  1.
    10030    2    1    2    0    0  0.00000000000E+00  0.00000000000E+00 -0.82345897134E+03  0.19082224075E+04  0.17214029392E+04 0.  0.
        1    1    3    3  502    0  0.33243673347E+03 -0.22126183154E+03  0.43347165608E+03  0.58937989150E+03  0.50400001928E-02 0. -1.
       -1    1    3    3    0  502 -0.33243673347E+03  0.22126183154E+03 -0.12569306274E+04  0.13188425160E+04  0.50400001928E-02 0.  1.
</event>
<event>
 5   0  0.3915701E-04  0.1688399E+04  0.7818609E-02  0.8768008E-01
        1   -1    0    0  501    0  0.00000000000E+00  0.00000000000E+00  0.14935131645E+04  0.14935131645E+04  0.50400001928E-02 0.  1.
       -1   -1    0    0    0  501  0.00000000000E+00  0.00000000000E+00 -0.47717896571E+03  0.47717896574E+03  0.50400001928E-02 0. -1.
    10030    2    1    2    0    0  0.00000000000E+00  0.00000000000E+00  0.10163341987E+04  0.19706921302E+04  0.16883993214E+04 0.  0.
        2    1    3    3  502    0  0.38158721566E+03  0.32893943756E+03 -0.28248455803E+03  0.57758764034E+03  0.25500000920E-02 0. -1.
       -2    1    3    3    0  502 -0.38158721566E+03 -0.32893943756E+03  0.12988187568E+04  0.13931044899E+04  0.25500000920E-02 0.  1.
</event>
<event>
 5   0  0.3723500E-04  0.1725318E+04  0.7818609E-02  0.8747055E-01
       -1   -1    0    0    0  501  0.00000000000E+00  0.00000000000E+00  0.39847782342E+03  0.39847782345E+03  0.50400001928E-02 0. -1.
        1   -1    0    0  501    0  0.00000000000E+00  0.00000000000E+00 -0.18675586572E+04  0.18675586572E+04  0.50400001928E-02 0.  1.
    10030    2    1    2    0    0  0.00000000000E+00  0.00000000000E+00 -0.14690808338E+04  0.22660364807E+04  0.17253181838E+04 0.  0.
        1    1    3    3  502    0  0.84702354614E+02  0.44378239878E+03 -0.16997465477E+04  0.17587653717E+04  0.50400001928E-02 0.  1.
       -1    1    3    3    0  502 -0.84702354614E+02 -0.44378239878E+03  0.23066571392E+03  0.50727110892E+03  0.50400001928E-02 0. -1.
</event>
<event>
 5   0  0.6746664E-04  0.1553931E+04  0.7818609E-02  0.8849361E-01
        2   -1    0    0  501    0  0.00000000000E+00  0.00000000000E+00  0.18105795416E+04  0.18105795416E+04  0.25500000920E-02 0.  1.
       -2   -1    0    0    0  501  0.00000000000E+00  0.00000000000E+00 -0.33341542598E+03  0.33341542599E+03  0.25500000920E-02 0. -1.
    10030    2    1    2    0    0  0.00000000000E+00  0.00000000000E+00  0.14771641156E+04  0.21439949676E+04  0.15539306923E+04 0.  0.
        5    1    3    3  502    0 -0.57290758233E+02 -0.11715750319E+03  0.17953503750E+04  0.18000869897E+04  0.46999998093E+01 0.  1.
       -5    1    3    3    0  502  0.57290758233E+02  0.11715750319E+03 -0.31818625942E+03  0.34390797783E+03  0.46999998093E+01 0. -1.
</event>
<event>
 5   0  0.3635143E-04  0.1437247E+04  0.7818609E-02  0.8927290E-01
        1   -1    0    0  501    0  0.00000000000E+00  0.00000000000E+00  0.10668518111E+04  0.10668518111E+04  0.50400001928E-02 0. -1.
       -1   -1    0    0    0  501  0.00000000000E+00  0.00000000000E+00 -0.48405963325E+03  0.48405963328E+03  0.50400001928E-02 0.  1.
    10030    2    1    2    0    0  0.00000000000E+00  0.00000000000E+00  0.58279217783E+03  0.15509114444E+04  0.14372472250E+04 0.  0.
        3    1    3    3  502    0  0.36590746057E+03  0.59064604861E+03  0.48939816291E+03  0.84985975108E+03  0.10100000352E+00 0. -1.
       -3    1    3    3    0  502 -0.36590746057E+03 -0.59064604861E+03  0.93394014913E+02  0.70105169329E+03  0.10100000352E+00 0.  1.
</event>
<event>
 5   0  0.3803253E-04  0.1725607E+04  0.7818609E-02  0.8746893E-01
        1   -1    0    0  501    0  0.00000000000E+00  0.00000000000E+00  0.11460594684E+04  0.11460594684E+04  0.50400001928E-02 0. -1.
       -1   -1    0    0    0  501  0.00000000000E+00  0.00000000000E+00 -0.64955589566E+03  0.64955589568E+03  0.50400001928E-02 0.  1.
    10030    2    1    2    0    0  0.00000000000E+00  0.00000000000E+00  0.49650357276E+03  0.17956153641E+04  0.17256067739E+04 0.  0.
        4    1    3    3  502    0  0.77576861608E+03 -0.44049656974E+02 -0.14202559551E+03  0.78989252475E+03  0.12699999809E+01 0.  1.
       -4    1    3    3    0  502 -0.77576861608E+03  0.44049656974E+02  0.63852916827E+03  0.10057228394E+04  0.12699999809E+01 0. -1.
</event>
<event>
 5   0  0.6746664E-04  0.1691987E+04  0.7818609E-02  0.8765948E-01
       -2   -1    0    0    0  501  0.00000000000E+00  0.00000000000E+00  0.19165431091E+04  0.19165431091E+04  0.25500000920E-02 0. -1.
        2   -1    0    0  501    0  0.00000000000E+00  0.00000000000E+00 -0.37343537345E+03  0.37343537346E+03  0.25500000920E-02 0.  1.
    10030    2    1    2    0    0  0.00000000000E+00  0.00000000000E+00  0.15431077357E+04  0.22899784826E+04  0.16919869878E+04 0.  0.
        5    1    3    3  502    0  0.21537307050E+03 -0.43926393141E+03  0.17056573240E+04  0.17744371946E+04  0.46999998093E+01 0. -1.
       -5    1    3    3    0  502 -0.21537307050E+03  0.43926393141E+03 -0.16254958828E+03  0.51554128795E+03  0.46999998093E+01 0.  1.
</event>
<event>
 5   0  0.3713516E-04  0.1706765E+04  0.7818609E-02  0.8757515E-01
        1   -1    0    0  501    0  0.00000000000E+00  0.00000000000E+00  0.75306337494E+03  0.75306337495E+03  0.50400001928E-02 0.  1.
       -1   -1    0    0    0  501  0.00000000000E+00  0.00000000000E+00 -0.96706616393E+03  0.96706616394E+03  0.50400001928E-02 0. -1.
    10030    2    1    2    0    0  0.00000000000E+00  0.00000000000E+00 -0.21400278899E+03  0.17201295389E+04  0.17067654897E+04 0.  0.
        5    1    3    3  502    0 -0.42514105367E+03  0.61485743830E+03 -0.52186203782E+03  0.91167793735E+03  0.46999998093E+01 0.  1.
       -5    1    3    3    0  502  0.42514105367E+03 -0.61485743830E+03  0.30785924883E+03  0.80845160154E+03  0.46999998093E+01 0. -1.
</event>
<event>
 5   0  0.6746664E-04  0.1711041E+04  0.7818609E-02  0.8755092E-01
        2   -1    0    0  501    0  0.00000000000E+00  0.00000000000E+00  0.13858954855E+04  0.13858954855E+04  0.25500000920E-02 0.  1.
       -2   -1    0    0    0  501  0.00000000000E+00  0.00000000000E+00 -0.52811738655E+03  0.52811738655E+03  0.25500000920E-02 0. -1.
    10030    2    1    2    0    0  0.00000000000E+00  0.00000000000E+00  0.85777809898E+03  0.19140128721E+04  0.17110412056E+04 0.  0.
        5    1    3    3  502    0 -0.67432771665E+03 -0.37494508089E+03  0.15464190918E+02  0.77172722793E+03  0.46999998093E+01 0. -1.
       -5    1    3    3    0  502  0.67432771665E+03  0.37494508089E+03  0.84231390806E+03  0.11422856442E+04  0.46999998093E+01 0.  1.
</event>
<event>
 5   0  0.7049044E-04  0.1682195E+04  0.7818609E-02  0.8771585E-01
       -2   -1    0    0    0  501  0.00000000000E+00  0.00000000000E+00  0.66227393126E+03  0.66227393126E+03  0.25500000920E-02 0. -1.
        2   -1    0    0  501    0  0.00000000000E+00  0.00000000000E+00 -0.10682057075E+04  0.10682057075E+04  0.25500000920E-02 0.  1.
    10030    2    1    2    0    0  0.00000000000E+00  0.00000000000E+00 -0.40593177620E+03  0.17304796387E+04  0.16821947489E+04 0.  0.
        4    1    3    3  502    0  0.83801833383E+03 -0.44927916826E+02 -0.14523064411E+03  0.85169642387E+03  0.12699999809E+01 0.  1.
       -4    1    3    3    0  502 -0.83801833383E+03  0.44927916826E+02 -0.26070113209E+03  0.87878321486E+03  0.12699999809E+01 0. -1.
</event>
<event>
 5   0  0.7233728E-04  0.1686465E+04  0.7818609E-02  0.8769122E-01
        2   -1    0    0  501    0  0.00000000000E+00  0.00000000000E+00  0.19205519008E+04  0.19205519008E+04  0.25500000920E-02 0.  1.
       -2   -1    0    0    0  501  0.00000000000E+00  0.00000000000E+00 -0.37022744471E+03  0.37022744471E+03  0.25500000920E-02 0. -1.
    10030    2    1    2    0    0  0.00000000000E+00  0.00000000000E+00  0.15503244561E+04  0.22907793455E+04  0.16864649687E+04 0.  0.
        1    1    3    3  502    0 -0.59905093082E+03  0.57157136772E+03  0.99200740019E+03  0.12921433853E+04  0.50400001928E-02 0.  1.
       -1    1    3    3    0  502  0.59905093082E+03 -0.57157136772E+03  0.55831705593E+03  0.99863596024E+03  0.50400001928E-02 0. -1.
</event>
<event>
 5   0  0.7233728E-04  0.1703583E+04  0.7818609E-02  0.8759323E-01
       -2   -1    0    0    0  501  0.00000000000E+00  0.00000000000E+00  0.53982581556E+03  0.53982581557E+03  0.25500000920E-02 0.  1.
        2   -1    0    0  501    0  0.00000000000E+00  0.00000000000E+00 -0.13440424033E+04  0.13440424033E+04  0.25500000920E-02 0. -1.
    10030    2    1    2    0    0  0.00000000000E+00  0.00000000000E+00 -0.80421658778E+03  0.18838682189E+04  0.17035830318E+04 0.  0.
        1    1    3    3  502    0  0.46548829584E+03 -0.70989432644E+03 -0.32454669813E+03  0.90882334233E+03  0.50400001928E-02 0.  1.
       -1    1    3    3    0  502 -0.46548829584E+03  0.70989432644E+03 -0.47966988966E+03  0.97504487658E+03  0.50400001928E-02 0. -1.
</event>
<event>
 5   0  0.3915701E-04  0.1686871E+04  0.7818609E-02  0.8768888E-01
        1   -1    0    0  501    0  0.00000000000E+00  0.00000000000E+00  0.19777456649E+04  0.19777456649E+04  0.50400001928E-02 0. -1.
       -1   -1    0    0    0  501  0.00000000000E+00  0.00000000000E+00 -0.35969404266E+03  0.35969404270E+03  0.50400001928E-02 0.  1.
    10030    2    1    2    0    0  0.00000000000E+00  0.00000000000E+00  0.16180516223E+04  0.23374397076E+04  0.16868708707E+04 0.  0.
        2    1    3    3  502    0  0.44442399638E+03 -0.68686227143E+03  0.52474175401E+03  0.97192920364E+03  0.25500000920E-02 0.  1.
       -2    1    3    3    0  502 -0.44442399638E+03  0.68686227143E+03  0.10933098683E+04  0.13655105040E+04  0.25500000920E-02 0. -1.
</event>
<event>
 5   0  0.7233728E-04  0.1721795E+04  0.7818609E-02  0.8749031E-01
       -2   -1    0    0    0  501  0.00000000000E+00  0.00000000000E+00  0.60340643480E+03  0.60340643481E+03  0.25500000920E-02 0. -1.
        2   -1    0    0  501    0  0.00000000000E+00  0.00000000000E+00 -0.12282671419E+04  0.12282671419E+04  0.25500000920E-02 0.  1.
    10030    2    1    2    0    0  0.00000000000E+00  0.00000000000E+00 -0.62486070709E+03  0.18316735767E+04  0.17217947579E+04 0.  0.
        1    1    3    3  502    0  0.78663784933E+03  0.14193909482E+03  0.27655781732E+02  0.79981913888E+03  0.50400001928E-02 0.  1.
       -1    1    3    3    0  502 -0.78663784933E+03 -0.14193909482E+03 -0.65251648882E+03  0.10318544378E+04  0.50400001928E-02 0. -1.
</event>
<event>
 5   0  0.3713516E-04  0.1684181E+04  0.7818609E-02  0.8770438E-01
       -1   -1    0    0    0  501  0.00000000000E+00  0.00000000000E+00  0.55626832804E+03  0.55626832806E+03  0.50400001928E-02 0. -1.
        1   -1    0    0  501    0  0.00000000000E+00  0.00000000000E+00 -0.12747736411E+04  0.12747736411E+04  0.50400001928E-02 0.  1.
    10030    2    1    2    0    0  0.00000000000E+00  0.00000000000E+00 -0.71850531305E+03  0.18310419692E+04  0.16841807528E+04 0.  0.
        5    1    3    3  502    0 -0.78413493974E+03 -0.21006632790E+03 -0.60259774992E+03  0.10110101899E+04  0.46999998093E+01 0.  1.
       -5    1    3    3    0  502  0.78413493974E+03  0.21006632790E+03 -0.11590756313E+03  0.82003177928E+03  0.46999998093E+01 0. -1.
</event>
<event>
 5   0  0.3635143E-04  0.1682472E+04  0.7818609E-02  0.8771425E-01
        1   -1    0    0  501    0  0.00000000000E+00  0.00000000000E+00  0.16177906120E+04  0.16177906120E+04  0.50400001928E-02 0.  1.
       -1   -1    0    0    0  501  0.00000000000E+00  0.00000000000E+00 -0.43743491649E+03  0.43743491652E+03  0.50400001928E-02 0. -1.
    10030    2    1    2    0    0  0.00000000000E+00  0.00000000000E+00  0.11803556955E+04  0.20552255285E+04  0.16824721112E+04 0.  0.
        3    1    3    3  502    0  0.76716195302E+03 -0.57105523018E+02  0.17434855152E+03  0.78879397218E+03  0.10100000352E+00 0. -1.
       -3    1    3    3    0  502 -0.76716195302E+03  0.57105523018E+02  0.10060071440E+04  0.12664315563E+04  0.10100000352E+00 0.  1.
</event>
<event>
 5   0  0.7049044E-04  0.1741573E+04  0.7818609E-02  0.8738003E-01
       -2   -1    0    0    0  501  0.00000000000E+00  0.00000000000E+00  0.13234521018E+04  0.13234521018E+04  0.25500000920E-02 0.  1.
        2   -1    0    0  501    0  0.00000000000E+00  0.00000000000E+00 -0.57294782752E+03  0.57294782753E+03  0.25500000920E-02 0. -1.
    10030    2    1    2    0    0  0.00000000000E+00  0.00000000000E+00  0.75050427432E+03  0.18963999294E+04  0.17415728599E+04 0.  0.
        4    1    3    3  502    0 -0.29931293925E+03  0.77994204339E+03  0.64279742905E+03  0.10540815786E+04  0.12699999809E+01 0. -1.
       -4    1    3    3    0  502  0.29931293925E+03 -0.77994204339E+03  0.10770684528E+03  0.84231835078E+03  0.12699999809E+01 0.  1.
</event>
<event>
 5   0  0.3803253E-04  0.1706596E+04  0.7818609E-02  0.8757611E-01
       -1   -1    0    0    0  501  0.00000000000E+00  0.00000000000E+00  0.70241497494E+03  0.70241497496E+03  0.50400001928E-02 0.  1.
        1   -1    0    0  501    0  0.00000000000E+00  0.00000000000E+00 -0.10365917108E+04  0.10365917108E+04  0.50400001928E-02 0. -1.
    10030    2    1    2    0    0  0.00000000000E+00  0.00000000000E+00 -0.33417673588E+03  0.17390066858E+04  0.17065960748E+04 0.  0.
        4    1    3    3  502    0  0.82257241111E+03  0.38345859422E+02 -0.39498767759E+03  0.91329768137E+03  0.12699999809E+01 0. -1.
       -4    1    3    3    0  502 -0.82257241111E+03 -0.38345859422E+02  0.60810941713E+02  0.82570900442E+03  0.12699999809E+01 0.  1.
</event>
<event>
 5   0  0.7242144E-04  0.1720273E+04  0.7818609E-02  0.8749886E-01
        2   -1    0    0  501    0  0.00000000000E+00  0.00000000000E+00  0.98260748974E+03  0.98260748974E+03  0.25500000920E-02 0. -1.
       -2   -1    0    0    0  501  0.00000000000E+00  0.00000000000E+00 -0.75293002126E+03  0.75293002127E+03  0.25500000920E-02 0.  1.
    10030    2    1    2    0    0  0.00000000000E+00  0.00000000000E+00  0.22967746848E+03  0.17355375110E+04  0.17202728599E+04 0.  0.
        3    1    3    3  502    0 -0.74268013741E+03 -0.32860818312E+03  0.40068577738E+03  0.90559716591E+03  0.10100000352E+00 0. -1.
       -3    1    3    3    0  502  0.74268013741E+03  0.32860818312E+03 -0.17100830891E+03  0.82994034510E+03  0.10100000352E+00 0.  1.
</event>
<event>
 5   0  0.7242144E-04  0.1810193E+04  0.7818609E-02  0.8700898E-01
       -2   -1    0    0    0  501  0.00000000000E+00  0.00000000000E+00  0.44362342046E+03  0.44362342046E+03  0.25500000920E-02 0.  1.
        2   -1    0    0  501    0  0.00000000000E+00  0.00000000000E+00 -0.18466097851E+04  0.18466097851E+04  0.25500000920E-02 0. -1.
    10030    2    1    2    0    0  0.00000000000E+00  0.00000000000E+00 -0.14029863647E+04  0.22902332056E+04  0.18101926407E+04 0.  0.
        3    1    3    3  502    0  0.21354291895E+03 -0.41449883702E+03 -0.16829635817E+04  0.17463608710E+04  0.10100000352E+00 0. -1.
       -3    1    3    3    0  502 -0.21354291895E+03  0.41449883702E+03  0.27997721702E+03  0.54387233463E+03  0.10100000352E+00 0.  1.
</event>
<event>
 5   0  0.7242144E-04  0.1699201E+04  0.7818609E-02  0.8761820E-01
       -2   -1    0    0    0  501  0.00000000000E+00  0.00000000000E+00  0.48904762077E+03  0.48904762078E+03  0.25500000920E-02 0. -1.
        2   -1    0    0  501    0  0.00000000000E+00  0.00000000000E+00 -0.14759734746E+04  0.14759734746E+04  0.25500000920E-02 0.  1.
    10030    2    1    2    0    0  0.00000000000E+00  0.00000000000E+00 -0.98692585381E+03  0.19650210954E+04  0.16992013607E+04 0.  0.
        3    1    3    3  502    0 -0.31006608235E+03 -0.60720734934E+03  0.92771967056E+02  0.68807585962E+03  0.10100000352E+00 0.  1.
       -3    1    3    3    0  502  0.31006608235E+03  0.60720734934E+03 -0.10796978209E+04  0.12769452357E+04  0.10100000352E+00 0. -1.
</event>
<event>
 5   0  0.3915701E-04  0.1765251E+04  0.7818609E-02  0.8725000E-01
       -1   -1    0    0    0  501  0.00000000000E+00  0.00000000000E+00  0.11171055758E+04  0.11171055758E+04  0.50400001928E-02 0.  1.
        1   -1    0    0  501    0  0.00000000000E+00  0.00000000000E+00 -0.69736246945E+03  0.69736246947E+03  0.50400001928E-02 0. -1.
    10030    2    1    2    0    0  0.00000000000E+00  0.00000000000E+00  0.41974310634E+03  0.18144680453E+04  0.17652506938E+04 0.  0.
        2    1    3    3  502    0  0.48296646941E+03  0.50366715828E+00 -0.54948897270E+03  0.73157022586E+03  0.25500000920E-02 0. -1.
       -2    1    3    3    0  502 -0.48296646941E+03 -0.50366715828E+00  0.96923207904E+03  0.10828978194E+04  0.25500000920E-02 0.  1.
</event>
<event>
 5   0  0.6746664E-04  0.1689663E+04  0.7818609E-02  0.8767282E-01
        2   -1    0    0  501    0  0.00000000000E+00  0.00000000000E+00  0.11485751703E+04  0.11485751703E+04  0.25500000920E-02 0. -1.
       -2   -1    0    0    0  501  0.00000000000E+00  0.00000000000E+00 -0.62141376933E+03  0.62141376933E+03  0.25500000920E-02 0.  1.
    10030    2    1    2    0    0  0.00000000000E+00  0.00000000000E+00  0.52716140102E+03  0.17699889397E+04  0.16896631924E+04 0.  0.
        5    1    3    3  502    0  0.35815938333E+03  0.71266856169E+03 -0.28124187141E+02  0.79811508104E+03  0.46999998093E+01 0.  1.
       -5    1    3    3    0  502 -0.35815938333E+03 -0.71266856169E+03  0.55528558816E+03  0.97187385864E+03  0.46999998093E+01 0. -1.
</event>
<event>
 5   0  0.6746664E-04  0.1739426E+04  0.7818609E-02  0.8739192E-01
        2   -1    0    0  501    0  0.00000000000E+00  0.00000000000E+00  0.67831124370E+03  0.67831124370E+03  0.25500000920E-02 0.  1.
       -2   -1    0    0    0  501  0.00000000000E+00  0.00000000000E+00 -0.11151230567E+04  0.11151230567E+04  0.25500000920E-02 0. -1.
    10030    2    1    2    0    0  0.00000000000E+00  0.00000000000E+00 -0.43681181299E+03  0.17934343004E+04  0.17394257759E+04 0.  0.
        5    1    3    3  502    0 -0.14063757633E+03  0.81465805788E+03 -0.49684989925E+03  0.96453542782E+03  0.46999998093E+01 0. -1.
       -5    1    3    3    0  502  0.14063757633E+03 -0.81465805788E+03  0.60038086258E+02  0.82889887257E+03  0.46999998093E+01 0.  1.
</event>
<event>
 5   0  0.7049044E-04  0.1709601E+04  0.7818609E-02  0.8755907E-01
        2   -1    0    0  501    0  0.00000000000E+00  0.00000000000E+00  0.69149566753E+03  0.69149566754E+03  0.25500000920E-02 0.  1.
       -2   -1    0    0    0  501  0.00000000000E+00  0.00000000000E+00 -0.10566721802E+04  0.10566721802E+04  0.25500000920E-02 0. -1.
    10030    2    1    2    0    0  0.00000000000E+00  0.00000000000E+00 -0.36517651269E+03  0.17481678478E+04  0.17096013976E+04 0.  0.
        4    1    3    3  502    0  0.49801885830E+03  0.20624530402E+03 -0.86097156695E+03  0.10157920853E+04  0.12699999809E+01 0. -1.
       -4    1    3    3    0  502 -0.49801885830E+03 -0.20624530402E+03  0.49579505426E+03  0.73237576242E+03  0.12699999809E+01 0.  1.
</event>
<event>
 5   0  0.7049044E-04  0.1628140E+04  0.7818609E-02  0.8803445E-01
        2   -1    0    0  501    0  0.00000000000E+00  0.00000000000E+00  0.87845287755E+03  0.87845287755E+03  0.25500000920E-02 0. -1.
       -2   -1    0    0    0  501  0.00000000000E+00  0.00000000000E+00 -0.75440554180E+03  0.75440554180E+03  0.25500000920E-02 0.  1.
    10030    2    1    2    0    0  0.00000000000E+00  0.00000000000E+00  0.12404733575E+03  0.16328584194E+04  0.16281396980E+04 0.  0.
        4    1    3    3  502    0 -0.64079069371E+03  0.27028989954E+03  0.48637971847E+03  0.84866730017E+03  0.12699999809E+01 0. -1.
       -4    1    3    3    0  502  0.64079069371E+03 -0.27028989954E+03 -0.36233238272E+03  0.78419111918E+03  0.12699999809E+01 0.  1.
</event>
<event>
 5   0  0.3915701E-04  0.1711916E+04  0.7818609E-02  0.8754597E-01
        1   -1    0    0  501    0  0.00000000000E+00  0.00000000000E+00  0.18136251169E+04  0.18136251169E+04  0.50400001928E-02 0.  1.
       -1   -1    0    0    0  501  0.00000000000E+00  0.00000000000E+00 -0.40397771455E+03  0.40397771458E+03  0.50400001928E-02 0. -1.
    10030    2    1    2    0    0  0.00000000000E+00  0.00000000000E+00  0.14096474024E+04  0.22176028315E+04  0.17119160375E+04 0.  0.
        2    1    3    3  502    0 -0.71634891474E+03 -0.45438206111E+03  0.85277828374E+03  0.12028506251E+04  0.25500000920E-02 0.  1.
       -2    1    3    3    0  502  0.71634891474E+03  0.45438206111E+03  0.55686911864E+03  0.10147522064E+04  0.25500000920E-02 0. -1.
</event>
<event>
 5   0  0.7242144E-04  0.1703423E+04  0.7818609E-02  0.8759414E-01
        2   -1    0    0  501    0  0.00000000000E+00  0.00000000000E+00  0.98880200934E+03  0.98880200934E+03  0.25500000920E-02 0. -1.
       -2   -1    0    0    0  501  0.00000000000E+00  0.00000000000E+00 -0.73362799191E+03  0.73362799191E+03  0.25500000920E-02 0.  1.
    10030    2    1    2    0    0  0.00000000000E+00  0.00000000000E+00  0.25517401743E+03  0.17224300013E+04  0.17034234148E+04 0.  0.
        3    1    3    3  502    0 -0.35458987162E+03 -0.77222100873E+03  0.18614308130E+03  0.86988994723E+03  0.10100000352E+00 0.  1.
       -3    1    3    3    0  502  0.35458987162E+03  0.77222100873E+03  0.69030936130E+02  0.85254005402E+03  0.10100000352E+00 0. -1.
</event>
<event>
 5   0  0.3803253E-04  0.1529957E+04  0.7818609E-02  0.8864773E-01
       -1   -1    0    0    0  501  0.00000000000E+00  0.00000000000E+00  0.37755836302E+03  0.37755836305E+03  0.50400001928E-02 0. -1.
        1   -1    0    0  501    0  0.00000000000E+00  0.00000000000E+00 -0.15499373482E+04  0.15499373482E+04  0.50400001928E-02 0.  1.
    10030    2    1    2    0    0  0.00000000000E+00  0.00000000000E+00 -0.11723789852E+04  0.19274957112E+04  0.15299566112E+04 0.  0.
        4    1    3    3  502    0  0.69498787151E+03  0.20490200611E+03 -0.27708698470E+03  0.77573950759E+03  0.12699999809E+01 0. -1.
       -4    1    3    3    0  502 -0.69498787151E+03 -0.20490200611E+03 -0.89529200047E+03  0.11517562037E+04  0.12699999809E+01 0.  1.
</event>
<event>
 5   0  0.7233728E-04  0.1391416E+04  0.7818609E-02  0.8960056E-01
        2   -1    0    0  501    0  0.00000000000E+00  0.00000000000E+00  0.22941355949E+04  0.22941355950E+04  0.25500000920E-02 0.  1.
       -2   -1    0    0    0  501  0.00000000000E+00  0.00000000000E+00 -0.21097683529E+03  0.21097683531E+03  0.25500000920E-02 0. -1.
    10030    2    1    2    0    0  0.00000000000E+00  0.00000000000E+00  0.20831587597E+04  0.25051124303E+04  0.13914157791E+04 0.  0.
        1    1    3    3  502    0 -0.42299204139E+03  0.32037400491E+03  0.18516571576E+04  0.19261869066E+04  0.50400001928E-02 0.  1.
       -1    1    3    3    0  502  0.42299204139E+03 -0.32037400491E+03  0.23150160209E+03  0.57892552362E+03  0.50400001928E-02 0. -1.
</event>
<event>
 5   0  0.7025426E-04  0.1588787E+04  0.7818609E-02  0.8827466E-01
        2   -1    0    0  501    0  0.00000000000E+00  0.00000000000E+00  0.13885205592E+04  0.13885205592E+04  0.25500000920E-02 0. -1.
       -2   -1    0    0    0  501  0.00000000000E+00  0.00000000000E+00 -0.45448458274E+03  0.45448458274E+03  0.25500000920E-02 0.  1.
    10030    2    1    2    0    0  0.00000000000E+00  0.00000000000E+00  0.93403597647E+03  0.18430051420E+04  0.15887871940E+04 0.  0.
        2    1    3    3  502    0 -0.65361770766E+03  0.33028839481E+03  0.82409434467E+03  0.11024690565E+04  0.25500000920E-02 0. -1.
       -2    1    3    3    0  502  0.65361770766E+03 -0.33028839481E+03  0.10994163180E+03  0.74053608550E+03  0.25500000920E-02 0.  1.
</event>
<event>
 5   0  0.3803253E-04  0.1688624E+04  0.7818609E-02  0.8767879E-01
       -1   -1    0    0    0  501  0.00000000000E+00  0.00000000000E+00  0.13901136767E+04  0.13901136767E+04  0.50400001928E-02 0.  1.
        1   -1    0    0  501    0  0.00000000000E+00  0.00000000000E+00 -0.51280889504E+03  0.51280889506E+03  0.50400001928E-02 0. -1.
    10030    2    1    2    0    0  0.00000000000E+00  0.00000000000E+00  0.87730478165E+03  0.19029225718E+04  0.16886238877E+04 0.  0.
        4    1    3    3  502    0 -0.24552747742E+03 -0.47586699966E+03  0.11742802615E+04  0.12906079532E+04  0.12699999809E+01 0.  1.
       -4    1    3    3    0  502  0.24552747742E+03  0.47586699966E+03 -0.29697547984E+03  0.61231461852E+03  0.12699999809E+01 0. -1.
</event>
<event>
 5   0  0.3915701E-04  0.1642286E+04  0.7818609E-02  0.8794983E-01
        1   -1    0    0  501    0  0.00000000000E+00  0.00000000000E+00  0.15820995592E+04  0.15820995592E+04  0.50400001928E-02 0. -1.
       -1   -1    0    0    0  501  0.00000000000E+00  0.00000000000E+00 -0.42619042899E+03  0.42619042902E+03  0.50400001928E-02 0.  1.
    10030    2    1    2    0    0  0.00000000000E+00  0.00000000000E+00  0.11559091302E+04  0.20082899882E+04  0.16422858337E+04 0.  0.
        2    1    3    3  502    0 -0.16857162323E+03  0.71494474996E+03  0.12912349036E+03  0.74581181502E+03  0.25500000920E-02 0.  1.
       -2    1    3    3    0  502  0.16857162323E+03 -0.71494474996E+03  0.10267856398E+04  0.12624781732E+04  0.25500000920E-02 0. -1.
</event>
<event>
 5   0  0.7049044E-04  0.1668514E+04  0.7818609E-02  0.8779528E-01
        2   -1    0    0  501    0  0.00000000000E+00  0.00000000000E+00  0.75479878517E+03  0.75479878518E+03  0.25500000920E-02 0.  1.
       -2   -1    0    0    0  501  0.00000000000E+00  0.00000000000E+00 -0.92207998179E+03  0.92207998180E+03  0.25500000920E-02 0. -1.
    10030    2    1    2    0    0  0.00000000000E+00  0.00000000000E+00 -0.16728119662E+03  0.16768787670E+04  0.16685141295E+04 0.  0.
        4    1    3    3  502    0  0.78255335452E+02  0.38955740284E+03 -0.82087405553E+03  0.91198393384E+03  0.12699999809E+01 0. -1.
       -4    1    3    3    0  502 -0.78255335452E+02 -0.38955740284E+03  0.65359285891E+03  0.76489483314E+03  0.12699999809E+01 0.  1.
</event>
<event>
 5   0  0.7049044E-04  0.1695120E+04  0.7818609E-02  0.8764153E-01
        2   -1    0    0  501    0  0.00000000000E+00  0.00000000000E+00  0.78054440821E+03  0.78054440822E+03  0.25500000920E-02 0. -1.
       -2   -1    0    0    0  501  0.00000000000E+00  0.00000000000E+00 -0.92032920294E+03  0.92032920294E+03  0.25500000920E-02 0.  1.
    10030    2    1    2    0    0  0.00000000000E+00  0.00000000000E+00 -0.13978479473E+03  0.17008736112E+04  0.16951198342E+04 0.  0.
        4    1    3    3  502    0 -0.83243668061E+03  0.11402229639E+03 -0.18164498130E+03  0.85962109294E+03  0.12699999809E+01 0.  1.
       -4    1    3    3    0  502  0.83243668061E+03 -0.11402229639E+03  0.41860186570E+02  0.84125251822E+03  0.12699999809E+01 0. -1.
</event>
<event>
 5   0  0.3803253E-04  0.1756572E+04  0.7818609E-02  0.8729741E-01
       -1   -1    0    0    0  501  0.00000000000E+00  0.00000000000E+00  0.35360409173E+03  0.35360409177E+03  0.50400001928E-02 0.  1.
        1   -1    0    0  501    0  0.00000000000E+00  0.00000000000E+00 -0.21814961905E+04  0.21814961905E+04  0.50400001928E-02 0. -1.
    10030    2    1    2    0    0  0.00000000000E+00  0.00000000000E+00 -0.18278920988E+04  0.25351002823E+04  0.17565716372E+04 0.  0.
        4    1    3    3  502    0 -0.72213163974E+02 -0.71503982406E+03 -0.18532167465E+03  0.74218759558E+03  0.12699999809E+01 0.  1.
       -4    1    3    3    0  502  0.72213163974E+02  0.71503982406E+03 -0.16425704241E+04  0.17929126867E+04  0.12699999809E+01 0. -1.
</event>
<event>
 5   0  0.3915701E-04  0.1625823E+04  0.7818609E-02  0.8804839E-01
       -1   -1    0    0    0  501  0.00000000000E+00  0.00000000000E+00  0.41031699904E+03  0.41031699907E+03  0.50400001928E-02 0. -1.
        1   -1    0    0  501    0  0.00000000000E+00  0.00000000000E+00 -0.16105240558E+04  0.16105240558E+04  0.50400001928E-02 0.  1.
    10030    2    1    2    0    0  0.00000000000E+00  0.00000000000E+00 -0.12002070568E+04  0.20208410549E+04  0.16258233576E+04 0.  0.
        2    1    3    3  502    0 -0.70227455019E+03 -0.12037908767E+03 -0.10865217375E+04  0.12993114155E+04  0.25500000920E-02 0.  1.
       -2    1    3    3    0  502  0.70227455019E+03  0.12037908767E+03 -0.11368531930E+03  0.72152963932E+03  0.25500000920E-02 0. -1.
</event>
<event>
 5   0  0.6746664E-04  0.1607831E+04  0.7818609E-02  0.8815752E-01
        2   -1    0    0  501    0  0.00000000000E+00  0.00000000000E+00  0.12016188855E+04  0.12016188856E+04  0.25500000920E-02 0.  1.
       -2   -1    0    0    0  501  0.00000000000E+00  0.00000000000E+00 -0.53784105577E+03  0.53784105578E+03  0.25500000920E-02 0. -1.
    10030    2    1    2    0    0  0.00000000000E+00  0.00000000000E+00  0.66377782978E+03  0.17394599413E+04  0.16078307996E+04 0.  0.
        5    1    3    3  502    0 -0.37629323205E+03  0.26247097137E+03 -0.38228319850E+03  0.59720192662E+03  0.46999998093E+01 0. -1.
       -5    1    3    3    0  502  0.37629323205E+03 -0.26247097137E+03  0.10460610283E+04  0.11422580147E+04  0.46999998093E+01 0.  1.
</event>
<event>
 5   0  0.6746664E-04  0.1807547E+04  0.7818609E-02  0.8702296E-01
       -2   -1    0    0    0  501  0.00000000000E+00  0.00000000000E+00  0.50629727872E+03  0.50629727873E+03  0.25500000920E-02 0. -1.
        2   -1    0    0  501    0  0.00000000000E+00  0.00000000000E+00 -0.16132941275E+04  0.16132941276E+04  0.25500000920E-02 0.  1.
    10030    2    1    2    0    0  0.00000000000E+00  0.00000000000E+00 -0.11069968488E+04  0.21195914063E+04  0.18075468753E+04 0.  0.
        5    1    3    3  502    0 -0.79084336036E+03  0.28846313818E+03 -0.93911530110E+03  0.12611914373E+04  0.46999998093E+01 0. -1.
       -5    1    3    3    0  502  0.79084336036E+03 -0.28846313818E+03 -0.16788154773E+03  0.85839996900E+03  0.46999998093E+01 0.  1.
</event>
<event>
 5   0  0.3713516E-04  0.1638982E+04  0.7818609E-02  0.8796952E-01
        1   -1    0    0  501    0  0.00000000000E+00  0.00000000000E+00  0.94265396713E+03  0.94265396714E+03  0.50400001928E-02 0.  1.
       -1   -1    0    0    0  501  0.00000000000E+00  0.00000000000E+00 -0.71241954584E+03  0.71241954585E+03  0.50400001928E-02 0. -1.
    10030    2    1    2    0    0  0.00000000000E+00  0.00000000000E+00  0.23023442129E+03  0.16550735130E+04  0.16389815266E+04 0.  0.
        5    1    3    3  502    0 -0.72357390965E+02 -0.81208845782E+03  0.31724524922E+02  0.81593614384E+03  0.46999998093E+01 0. -1.
       -5    1    3    3    0  502  0.72357390965E+02  0.81208845782E+03  0.19850989637E+03  0.83913736915E+03  0.46999998093E+01 0.  1.
</event>
<event>
 5   0  0.7025426E-04  0.1753966E+04  0.7818609E-02  0.8731170E-01
       -2   -1    0    0    0  501  0.00000000000E+00  0.00000000000E+00  0.52825335516E+03  0.52825335517E+03  0.25500000920E-02 0. -1.
        2   -1    0    0  501    0  0.00000000000E+00  0.00000000000E+00 -0.14559290492E+04  0.14559290492E+04  0.25500000920E-02 0.  1.
    10030    2    1    2    0    0  0.00000000000E+00  0.00000000000E+00 -0.92767569406E+03  0.19841824044E+04  0.17539662541E+04 0.  0.
        2    1    3    3  502    0  0.82834696493E+03 -0.22051301917E+03 -0.67339408116E+03  0.10900661789E+04  0.25500000920E-02 0.  1.
       -2    1    3    3    0  502 -0.82834696493E+03  0.22051301917E+03 -0.25428161291E+03  0.89411622545E+03  0.25500000920E-02 0. -1.
</event>
<event>
 5   0  0.3803253E-04  0.1658330E+04  0.7818609E-02  0.8785494E-01
        1   -1    0    0  501    0  0.00000000000E+00  0.00000000000E+00  0.15427414604E+04  0.15427414604E+04  0.50400001928E-02 0. -1.
       -1   -1    0    0    0  501  0.00000000000E+00  0.00000000000E+00 -0.44564451362E+03  0.44564451365E+03  0.50400001928E-02 0.  1.
    10030    2    1    2    0    0  0.00000000000E+00  0.00000000000E+00  0.10970969468E+04  0.19883859741E+04  0.16583296027E+04 0.  0.
        4    1    3    3  502    0  0.60483392926E+03  0.39303229958E+03  0.10388535558E+04  0.12647200456E+04  0.12699999809E+01 0. -1.
       -4    1    3    3    0  502 -0.60483392926E+03 -0.39303229958E+03  0.58243390997E+02  0.72366592845E+03  0.12699999809E+01 0.  1.
</event>
<event>
 5   0  0.7242144E-04  0.1689343E+04  0.7818609E-02  0.8767466E-01
       -2   -1    0    0    0  501  0.00000000000E+00  0.00000000000E+00  0.86902538217E+03  0.86902538217E+03  0.25500000920E-02 0. -1.
        2   -1    0    0  501    0  0.00000000000E+00  0.00000000000E+00 -0.82100031041E+03  0.82100031041E+03  0.25500000920E-02 0.  1.
    10030    2    1    2    0    0  0.00000000000E+00  0.00000000000E+00  0.48025071759E+02  0.16900256926E+04  0.16893431961E+04 0.  0.
        3    1    3    3  502    0 -0.16538919413E+03 -0.33771269151E+03 -0.73264390880E+03  0.82351111398E+03  0.10100000352E+00 0.  1.
       -3    1    3    3    0  502  0.16538919413E+03  0.33771269151E+03  0.78066898056E+03  0.86651457861E+03  0.10100000352E+00 0. -1.
</event>
<event>
 5   0  0.6746664E-04  0.1657647E+04  0.7818609E-02  0.8785895E-01
       -2   -1    0    0    0  501  0.00000000000E+00  0.00000000000E+00  0.66273156382E+03  0.66273156382E+03  0.25500000920E-02 0. -1.
        2   -1    0    0  501    0  0.00000000000E+00  0.00000000000E+00 -0.10365414098E+04  0.10365414098E+04  0.25500000920E-02 0.  1.
    10030    2    1    2    0    0  0.00000000000E+00  0.00000000000E+00 -0.37380984596E+03  0.16992729736E+04  0.16576473804E+04 0.  0.
        5    1    3    3  502    0  0.18237187485E+02 -0.77825312635E+03 -0.47850555330E+03  0.91378344164E+03  0.46999998093E+01 0.  1.
       -5    1    3    3    0  502 -0.18237187485E+02  0.77825312635E+03  0.10469570734E+03  0.78548953196E+03  0.46999998093E+01 0. -1.
</event>
<event>
 5   0  0.7025426E-04  0.1721841E+04  0.7818609E-02  0.8749005E-01
        2   -1    0    0  501    0  0.00000000000E+00  0.00000000000E+00  0.29056741280E+04  0.29056741280E+04  0.25500000920E-02 0.  1.
       -2   -1    0    0    0  501  0.00000000000E+00  0.00000000000E+00 -0.25508152012E+03  0.25508152013E+03  0.25500000920E-02 0. -1.
    10030    2    1    2    0    0  0.00000000000E+00  0.00000000000E+00  0.26505926079E+04  0.31607556482E+04  0.17218406123E+04 0.  0.
        2    1    3    3  502    0 -0.50731282953E+01 -0.60317191183E+02 -0.25117053312E+03  0.25836125270E+03  0.25500000920E-02 0. -1.
       -2    1    3    3    0  502  0.50731282953E+01  0.60317191183E+02  0.29017631410E+04  0.29023943955E+04  0.25500000920E-02 0.  1.
</event>
<event>
 5   0  0.3635143E-04  0.1701697E+04  0.7818609E-02  0.8760397E-01
       -1   -1    0    0    0  501  0.00000000000E+00  0.00000000000E+00  0.10451504730E+04  0.10451504730E+04  0.50400001928E-02 0. -1.
        1   -1    0    0  501    0  0.00000000000E+00  0.00000000000E+00 -0.69266878220E+03  0.69266878222E+03  0.50400001928E-02 0.  1.
    10030    2    1    2    0    0  0.00000000000E+00  0.00000000000E+00  0.35248169083E+03  0.17378192553E+04  0.17016969241E+04 0.  0.
        3    1    3    3  502    0  0.47876115498E+03 -0.19609124038E+03  0.86606384201E+03  0.10088263511E+04  0.10100000352E+00 0. -1.
       -3    1    3    3    0  502 -0.47876115498E+03  0.19609124038E+03 -0.51358215118E+03  0.72899290414E+03  0.10100000352E+00 0.  1.
</event>
<event>
 5   0  0.7025426E-04  0.1683111E+04  0.7818609E-02  0.8771056E-01
       -2   -1    0    0    0  501  0.00000000000E+00  0.00000000000E+00  0.15606352632E+04  0.15606352632E+04  0.25500000920E-02 0. -1.
        2   -1    0    0  501    0  0.00000000000E+00  0.00000000000E+00 -0.45379982637E+03  0.45379982638E+03  0.25500000920E-02 0.  1.
    10030    2    1    2    0    0  0.00000000000E+00  0.00000000000E+00  0.11068354369E+04  0.20144350896E+04  0.16831114182E+04 0.  0.
        2    1    3    3  502    0  0.12289087722E+03 -0.21209587314E+03 -0.41012550283E+03  0.47779677184E+03  0.25500000920E-02 0.  1.
       -2    1    3    3    0  502 -0.12289087722E+03  0.21209587314E+03  0.15169609397E+04  0.15366383178E+04  0.25500000920E-02 0. -1.
</event>
<event>
 5   0  0.3713516E-04  0.1714097E+04  0.7818609E-02  0.8753365E-01
       -1   -1    0    0    0  501  0.00000000000E+00  0.00000000000E+00  0.70800825643E+03  0.70800825644E+03  0.50400001928E-02 0. -1.
        1   -1    0    0  501    0  0.00000000000E+00  0.00000000000E+00 -0.10374628034E+04  0.10374628034E+04  0.50400001928E-02 0.  1.
    10030    2    1    2    0    0  0.00000000000E+00  0.00000000000E+00 -0.32945454700E+03  0.17454710599E+04  0.17140971158E+04 0.  0.
        5    1    3    3  502    0  0.53030377551E+03  0.37614759106E+02 -0.84924627674E+03  0.10019372700E+04  0.46999998093E+01 0.  1.
       -5    1    3    3    0  502 -0.53030377551E+03 -0.37614759106E+02  0.51979172974E+03  0.74353378990E+03  0.46999998093E+01 0. -1.
</event>
<event>
 5   0  0.3803253E-04  0.1711310E+04  0.7818609E-02  0.8754940E-01
        1   -1    0    0  501    0  0.00000000000E+00  0.00000000000E+00  0.10044471339E+04  0.10044471339E+04  0.50400001928E-02 0. -1.
       -1   -1    0    0    0  501  0.00000000000E+00  0.00000000000E+00 -0.72890379926E+03  0.72890379928E+03  0.50400001928E-02 0.  1.
    10030    2    1    2    0    0  0.00000000000E+00  0.00000000000E+00  0.27554333463E+03  0.17333509332E+04  0.17113098283E+04 0.  0.
        4    1    3    3  502    0 -0.53719184540E+03 -0.46852541628E+03 -0.34166674175E+03  0.79046120700E+03  0.12699999809E+01 0.  1.
       -4    1    3    3    0  502  0.53719184540E+03  0.46852541628E+03  0.61721007638E+03  0.94288972618E+03  0.12699999809E+01 0. -1.
</event>
<event>
 5   0  0.7242144E-04  0.1793773E+04  0.7818609E-02  0.8709618E-01
       -2   -1    0    0    0  501  0.00000000000E+00  0.00000000000E+00  0.83540492250E+03  0.83540492251E+03  0.25500000920E-02 0. -1.
        2   -1    0    0  501    0  0.00000000000E+00  0.00000000000E+00 -0.96289301676E+03  0.96289301676E+03  0.25500000920E-02 0.  1.
    10030    2    1    2    0    0  0.00000000000E+00  0.00000000000E+00 -0.12748809425E+03  0.17982979393E+04  0.17937731920E+04 0.  0.
        3    1    3    3  502    0 -0.32491986484E+03 -0.90796697333E+02 -0.89685686995E+03  0.95821146632E+03  0.10100000352E+00 0.  1.
       -3    1    3    3    0  502  0.32491986484E+03  0.90796697333E+02  0.76936877569E+03  0.84008647295E+03  0.10100000352E+00 0. -1.
</event>
<event>
 5   0  0.3635143E-04  0.1706061E+04  0.7818609E-02  0.8757915E-01
        1   -1    0    0  501    0  0.00000000000E+00  0.00000000000E+00  0.15913712493E+04  0.15913712493E+04  0.50400001928E-02 0. -1.
       -1   -1    0    0    0  501  0.00000000000E+00  0.00000000000E+00 -0.45725433074E+03  0.45725433076E+03  0.50400001928E-02 0.  1.
    10030    2    1    2    0    0  0.00000000000E+00  0.00000000000E+00  0.11341169186E+04  0.20486255801E+04  0.17060614240E+04 0.  0.
        3    1    3    3  502    0 -0.55522765697E+02 -0.22776119697E+03  0.15519303762E+04  0.15695368244E+04  0.10100000352E+00 0. -1.
       -3    1    3    3    0  502  0.55522765697E+02  0.22776119697E+03 -0.41781345757E+03  0.47908875575E+03  0.10100000352E+00 0.  1.
</event>
<event>
 5   0  0.3915701E-04  0.1694140E+04  0.7818609E-02  0.8764714E-01
       -1   -1    0    0    0  501  0.00000000000E+00  0.00000000000E+00  0.13095769156E+04  0.13095769156E+04  0.50400001928E-02 0. -1.
        1   -1    0    0  501    0  0.00000000000E+00  0.00000000000E+00 -0.54790803908E+03  0.54790803910E+03  0.50400001928E-02 0.  1.
    10030    2    1    2    0    0  0.00000000000E+00  0.00000000000E+00  0.76166887654E+03  0.18574849547E+04  0.16941401594E+04 0.  0.
        2    1    3    3  502    0 -0.77509397234E+03  0.30671431088E+03  0.21570294684E+03  0.86102967181E+03  0.25500000920E-02 0.  1.
       -2    1    3    3    0  502  0.77509397234E+03 -0.30671431088E+03  0.54596592970E+03  0.99645528292E+03  0.25500000920E-02 0. -1.
</event>
<event>
 5   0  0.3915701E-04  0.1706893E+04  0.7818609E-02  0.8757443E-01
       -1   -1    0    0    0  501  0.00000000000E+00  0.00000000000E+00  0.65959548440E+03  0.65959548442E+03  0.50400001928E-02 0. -1.
        1   -1    0    0  501    0  0.00000000000E+00  0.00000000000E+00 -0.11042690850E+04  0.11042690850E+04  0.50400001928E-02 0.  1.
    10030    2    1    2    0    0  0.00000000000E+00  0.00000000000E+00 -0.44467360057E+03  0.17638645694E+04  0.17068929692E+04 0.  0.
        2    1    3    3  502    0 -0.20729320406E+03  0.71152598629E+03 -0.65970234359E+03  0.99219296700E+03  0.25500000920E-02 0.  1.
       -2    1    3    3    0  502  0.20729320406E+03 -0.71152598629E+03  0.21502874302E+03  0.77167160240E+03  0.25500000920E-02 0. -1.
</event>
<event>
 5   0  0.7049044E-04  0.1671608E+04  0.7818609E-02  0.8777725E-01
        2   -1    0    0  501    0  0.00000000000E+00  0.00000000000E+00  0.72236459635E+03  0.72236459635E+03  0.25500000920E-02 0.  1.
       -2   -1    0    0    0  501  0.00000000000E+00  0.00000000000E+00 -0.96705799393E+03  0.96705799393E+03  0.25500000920E-02 0. -1.
    10030    2    1    2    0    0  0.00000000000E+00  0.00000000000E+00 -0.24469339758E+03  0.16894225903E+04  0.16716081568E+04 0.  0.
        4    1    3    3  502    0  0.36222647463E+03  0.66128544265E+03  0.24213551454E+03  0.79192024591E+03  0.12699999809E+01 0.  1.
       -4    1    3    3    0  502 -0.36222647463E+03 -0.66128544265E+03 -0.48682891212E+03  0.89750234437E+03  0.12699999809E+01 0. -1.
</event>
<event>
 5   0  0.3723500E-04  0.1727686E+04  0.7818609E-02  0.8745730E-01
        1   -1    0    0  501    0  0.00000000000E+00  0.00000000000E+00  0.48813602283E+03  0.48813602285E+03  0.50400001928E-02 0.  1.
       -1   -1    0    0    0  501  0.00000000000E+00  0.00000000000E+00 -0.15287221063E+04  0.15287221063E+04  0.50400001928E-02 0. -1.
    10030    2    1    2    0    0  0.00000000000E+00  0.00000000000E+00 -0.10405860834E+04  0.20168581291E+04  0.17276855374E+04 0.  0.
        1    1    3    3  502    0  0.61911627134E+03 -0.59707055952E+03 -0.42671261597E+03  0.96014679457E+03  0.50400001928E-02 0. -1.
       -1    1    3    3    0  502 -0.61911627134E+03  0.59707055952E+03 -0.61387346748E+03  0.10567113346E+04  0.50400001928E-02 0.  1.
</event>
<event>
 5   0  0.3723500E-04  0.1713076E+04  0.7818609E-02  0.8753942E-01
       -1   -1    0    0    0  501  0.00000000000E+00  0.00000000000E+00  0.55792066455E+03  0.55792066457E+03  0.50400001928E-02 0. -1.
        1   -1    0    0  501    0  0.00000000000E+00  0.00000000000E+00 -0.13149844531E+04  0.13149844531E+04  0.50400001928E-02 0.  1.
    10030    2    1    2    0    0  0.00000000000E+00  0.00000000000E+00 -0.75706378854E+03  0.18729051177E+04  0.17130755967E+04 0.  0.
        1    1    3    3  502    0 -0.36934189506E+03 -0.50144803188E+03  0.26437431507E+03  0.67657766932E+03  0.50400001928E-02 0. -1.
       -1    1    3    3    0  502  0.36934189506E+03  0.50144803188E+03 -0.10214381036E+04  0.11963274483E+04  0.50400001928E-02 0.  1.
</event>
<event>
 5   0  0.6746664E-04  0.1735704E+04  0.7818609E-02  0.8741259E-01
       -2   -1    0    0    0  501  0.00000000000E+00  0.00000000000E+00  0.85909312875E+03  0.85909312875E+03  0.25500000920E-02 0.  1.
        2   -1    0    0  501    0  0.00000000000E+00  0.00000000000E+00 -0.87669975522E+03  0.87669975522E+03  0.25500000920E-02 0. -1.
    10030    2    1    2    0    0  0.00000000000E+00  0.00000000000E+00 -0.17606626468E+02  0.17357928840E+04  0.17357035872E+04 0.  0.
        5    1    3    3  502    0  0.80044090194E+03 -0.18669335179E+03 -0.28735776715E+03  0.87072189672E+03  0.46999998093E+01 0. -1.
       -5    1    3    3    0  502 -0.80044090194E+03  0.18669335179E+03  0.26975114068E+03  0.86507098725E+03  0.46999998093E+01 0.  1.
</event>
<event>
 5   0  0.7233728E-04  0.1703840E+04  0.7818609E-02  0.8759177E-01
        2   -1    0    0  501    0  0.00000000000E+00  0.00000000000E+00  0.10909401317E+04  0.10909401317E+04  0.25500000920E-02 0.  1.
       -2   -1    0    0    0  501  0.00000000000E+00  0.00000000000E+00 -0.66526815415E+03  0.66526815416E+03  0.25500000920E-02 0. -1.
    10030    2    1    2    0    0  0.00000000000E+00  0.00000000000E+00  0.42567197751E+03  0.17562082858E+04  0.17038400485E+04 0.  0.
        1    1    3    3  502    0  0.43932358441E+03 -0.15303897538E+03 -0.52278103083E+03  0.69980436268E+03  0.50400001928E-02 0. -1.
       -1    1    3    3    0  502 -0.43932358441E+03  0.15303897538E+03  0.94845300834E+03  0.10564039232E+04  0.50400001928E-02 0.  1.
</event>
<event>
 5   0  0.7233728E-04  0.1069300E+04  0.7818609E-02  0.9235642E-01
       -2   -1    0    0    0  501  0.00000000000E+00  0.00000000000E+00  0.95551959617E+02  0.95551959651E+02  0.25500000920E-02 0.  1.
        2   -1    0    0  501    0  0.00000000000E+00  0.00000000000E+00 -0.29915711608E+04  0.29915711608E+04  0.25500000920E-02 0. -1.
    10030    2    1    2    0    0  0.00000000000E+00  0.00000000000E+00 -0.28960192012E+04  0.30871231205E+04  0.10692997462E+04 0.  0.
        1    1    3    3  502    0 -0.16966587148E+03  0.39729177448E+03 -0.53859660636E+03  0.69044447019E+03  0.50400001928E-02 0.  1.
       -1    1    3    3    0  502  0.16966587148E+03 -0.39729177448E+03 -0.23574225949E+04  0.23966786503E+04  0.50400001928E-02 0. -1.
</event>
<event>
 5   0  0.3635143E-04  0.1690793E+04  0.7818609E-02  0.8766633E-01
       -1   -1    0    0    0  501  0.00000000000E+00  0.00000000000E+00  0.96465271671E+03  0.96465271672E+03  0.50400001928E-02 0.  1.
        1   -1    0    0  501    0  0.00000000000E+00  0.00000000000E+00 -0.74088340503E+03  0.74088340505E+03  0.50400001928E-02 0. -1.
    10030    2    1    2    0    0  0.00000000000E+00  0.00000000000E+00  0.22376931168E+03  0.17055361218E+04  0.16907929376E+04 0.  0.
        3    1    3    3  502    0  0.16140206051E+03  0.11636868024E+03  0.94069560249E+03  0.96150950158E+03  0.10100000352E+00 0.  1.
       -3    1    3    3    0  502 -0.16140206051E+03 -0.11636868024E+03 -0.71692629082E+03  0.74402662019E+03  0.10100000352E+00 0. -1.
</event>
<event>
 5   0  0.6746664E-04  0.1688526E+04  0.7818609E-02  0.8767936E-01
       -2   -1    0    0    0  501  0.00000000000E+00  0.00000000000E+00  0.13789818310E+04  0.13789818310E+04  0.25500000920E-02 0.  1.
        2   -1    0    0  501    0  0.00000000000E+00  0.00000000000E+00 -0.51688844375E+03  0.51688844376E+03  0.25500000920E-02 0. -1.
    10030    2    1    2    0    0  0.00000000000E+00  0.00000000000E+00  0.86209338726E+03  0.18958702748E+04  0.16885257151E+04 0.  0.
        5    1    3    3  502    0 -0.91471807154E+02 -0.15513452968E+02  0.13732258814E+04  0.13763644757E+04  0.46999998093E+01 0.  1.
       -5    1    3    3    0  502  0.91471807154E+02  0.15513452968E+02 -0.51113249411E+03  0.51950579907E+03  0.46999998093E+01 0. -1.
</event>
<event>
 5   0  0.7025426E-04  0.1145255E+04  0.7818609E-02  0.9162172E-01
        2   -1    0    0  501    0  0.00000000000E+00  0.00000000000E+00  0.64257730169E+03  0.64257730169E+03  0.25500000920E-02 0.  1.
       -2   -1    0    0    0  501  0.00000000000E+00  0.00000000000E+00 -0.51029238507E+03  0.51029238508E+03  0.25500000920E-02 0. -1.
    10030    2    1    2    0    0  0.00000000000E+00  0.00000000000E+00  0.13228491661E+03  0.11528696868E+04  0.11452550875E+04 0.  0.
        2    1    3    3  502    0 -0.11888228609E+03 -0.31354216928E+03  0.53340604361E+03  0.63005055133E+03  0.25500000920E-02 0.  1.
       -2    1    3    3    0  502  0.11888228609E+03  0.31354216928E+03 -0.40112112699E+03  0.52281913545E+03  0.25500000920E-02 0. -1.
</event>
<event>
 5   0  0.3713516E-04  0.1681524E+04  0.7818609E-02  0.8771973E-01
        1   -1    0    0  501    0  0.00000000000E+00  0.00000000000E+00  0.23180825755E+04  0.23180825755E+04  0.50400001928E-02 0. -1.
       -1   -1    0    0    0  501  0.00000000000E+00  0.00000000000E+00 -0.30494187659E+03  0.30494187663E+03  0.50400001928E-02 0.  1.
    10030    2    1    2    0    0  0.00000000000E+00  0.00000000000E+00  0.20131406989E+04  0.26230244521E+04  0.16815236552E+04 0.  0.
        5    1    3    3  502    0 -0.72502394837E+03 -0.28130102231E+03  0.15049323807E+04  0.16939992773E+04  0.46999998093E+01 0. -1.
       -5    1    3    3    0  502  0.72502394837E+03  0.28130102231E+03  0.50820831821E+03  0.92902517488E+03  0.46999998093E+01 0.  1.
</event>
<event>
 5   0  0.7233728E-04  0.1897132E+04  0.7818609E-02  0.8656285E-01
       -2   -1    0    0    0  501  0.00000000000E+00  0.00000000000E+00  0.53170209540E+03  0.53170209541E+03  0.25500000920E-02 0.  1.
        2   -1    0    0  501    0  0.00000000000E+00  0.00000000000E+00 -0.16922580533E+04  0.16922580533E+04  0.25500000920E-02 0. -1.
    10030    2    1    2    0    0  0.00000000000E+00  0.00000000000E+00 -0.11605559579E+04  0.22239601487E+04  0.18971316801E+04 0.  0.
        1    1    3    3  502    0 -0.52542580110E+03 -0.37285522759E+03  0.23585100811E+03  0.68608963792E+03  0.50400001928E-02 0.  1.
       -1    1    3    3    0  502  0.52542580110E+03  0.37285522759E+03 -0.13964069660E+04  0.15378705108E+04  0.50400001928E-02 0. -1.
</event>
<event>
 5   0  0.7049044E-04  0.1686153E+04  0.7818609E-02  0.8769302E-01
        2   -1    0    0  501    0  0.00000000000E+00  0.00000000000E+00  0.13072237682E+04  0.13072237682E+04  0.25500000920E-02 0.  1.
       -2   -1    0    0    0  501  0.00000000000E+00  0.00000000000E+00 -0.54373084384E+03  0.54373084384E+03  0.25500000920E-02 0. -1.
    10030    2    1    2    0    0  0.00000000000E+00  0.00000000000E+00  0.76349292433E+03  0.18509546120E+04  0.16861528787E+04 0.  0.
        4    1    3    3  502    0  0.39684151864E+03 -0.49545234630E+03  0.99078850595E+03  0.11766986423E+04  0.12699999809E+01 0.  1.
       -4    1    3    3    0  502 -0.39684151864E+03  0.49545234630E+03 -0.22729558162E+03  0.67425596971E+03  0.12699999809E+01 0. -1.
</event>
<event>
 5   0  0.7233728E-04  0.1591291E+04  0.7818609E-02  0.8825916E-01
       -2   -1    0    0    0  501  0.00000000000E+00  0.00000000000E+00  0.47993030481E+03  0.47993030482E+03  0.25500000920E-02 0.  1.
        2   -1    0    0  501    0  0.00000000000E+00  0.00000000000E+00 -0.13190495814E+04  0.13190495814E+04  0.25500000920E-02 0. -1.
    10030    2    1    2    0    0  0.00000000000E+00  0.00000000000E+00 -0.83911927656E+03  0.17989798862E+04  0.15912911332E+04 0.  0.
        1    1    3    3  502    0  0.53842737341E+03  0.25493289550E+03 -0.10158004517E+04  0.11776015350E+04  0.50400001928E-02 0. -1.
       -1    1    3    3    0  502 -0.53842737341E+03 -0.25493289550E+03  0.17668117510E+03  0.62137835118E+03  0.50400001928E-02 0.  1.
</event>
<event>
 5   0  0.7025426E-04  0.1678208E+04  0.7818609E-02  0.8773892E-01
       -2   -1    0    0    0  501  0.00000000000E+00  0.00000000000E+00  0.92323922494E+03  0.92323922494E+03  0.25500000920E-02 0.  1.
        2   -1    0    0  501    0  0.00000000000E+00  0.00000000000E+00 -0.76263574925E+03  0.76263574925E+03  0.25500000920E-02 0. -1.
    10030    2    1    2    0    0  0.00000000000E+00  0.00000000000E+00  0.16060347569E+03  0.16858749742E+04  0.16782076606E+04 0.  0.
        2    1    3    3  502    0 -0.16092048234E+03  0.12855556561E+03 -0.73684767078E+03  0.76509242908E+03  0.25500000920E-02 0. -1.
       -2    1    3    3    0  502  0.16092048234E+03 -0.12855556561E+03  0.89745114647E+03  0.92078254512E+03  0.25500000920E-02 0.  1.
</event>
<event>
 5   0  0.3915701E-04  0.1699638E+04  0.7818609E-02  0.8761571E-01
        1   -1    0    0  501    0  0.00000000000E+00  0.00000000000E+00  0.13951268477E+04  0.13951268477E+04  0.50400001928E-02 0.  1.
       -1   -1    0    0    0  501  0.00000000000E+00  0.00000000000E+00 -0.51765350109E+03  0.51765350111E+03  0.50400001928E-02 0. -1.
    10030    2    1    2    0    0  0.00000000000E+00  0.00000000000E+00  0.87747334660E+03  0.19127803488E+04  0.16996379582E+04 0.  0.
        2    1    3    3  502    0  0.30114453114E+03  0.53569819047E+03  0.10993134235E+04  0.12594247032E+04  0.25500000920E-02 0.  1.
       -2    1    3    3    0  502 -0.30114453114E+03 -0.53569819047E+03 -0.22184007692E+03  0.65335564560E+03  0.25500000920E-02 0. -1.
</event>
<event>
 5   0  0.3915701E-04  0.1684716E+04  0.7818609E-02  0.8770129E-01
       -1   -1    0    0    0  501  0.00000000000E+00  0.00000000000E+00  0.56736223933E+03  0.56736223936E+03  0.50400001928E-02 0.  1.
        1   -1    0    0  501    0  0.00000000000E+00  0.00000000000E+00 -0.12506424560E+04  0.12506424560E+04  0.50400001928E-02 0. -1.
    10030    2    1    2    0    0  0.00000000000E+00  0.00000000000E+00 -0.68328021662E+03  0.18180046953E+04  0.16847163612E+04 0.  0.
        2    1    3    3  502    0  0.27597149839E+03  0.28664116332E+03  0.45955833612E+03  0.60787933732E+03  0.25500000920E-02 0.  1.
       -2    1    3    3    0  502 -0.27597149839E+03 -0.28664116332E+03 -0.11428385527E+04  0.12101253580E+04  0.25500000920E-02 0. -1.
</event>
<event>
 5   0  0.7233728E-04  0.1759214E+04  0.7818609E-02  0.8728295E-01
        2   -1    0    0  501    0  0.00000000000E+00  0.00000000000E+00  0.13842161175E+04  0.13842161175E+04  0.25500000920E-02 0.  1.
       -2   -1    0    0    0  501  0.00000000000E+00  0.00000000000E+00 -0.55895090505E+03  0.55895090506E+03  0.25500000920E-02 0. -1.
    10030    2    1    2    0    0  0.00000000000E+00  0.00000000000E+00  0.82526521244E+03  0.19431670225E+04  0.17592144288E+04 0.  0.
        1    1    3    3  502    0 -0.82314525318E+03  0.29653039694E+03  0.51271905866E+03  0.10140903398E+04  0.50400001928E-02 0. -1.
       -1    1    3    3    0  502  0.82314525318E+03 -0.29653039694E+03  0.31254615378E+03  0.92907668274E+03  0.50400001928E-02 0.  1.
</event>
<event>
 5   0  0.3723500E-04  0.1697383E+04  0.7818609E-02  0.8762858E-01
       -1   -1    0    0    0  501  0.00000000000E+00  0.00000000000E+00  0.41859043173E+03  0.41859043176E+03  0.50400001928E-02 0.  1.
        1   -1    0    0  501    0  0.00000000000E+00  0.00000000000E+00 -0.17207206385E+04  0.17207206385E+04  0.50400001928E-02 0. -1.
    10030    2    1    2    0    0  0.00000000000E+00  0.00000000000E+00 -0.13021302067E+04  0.21393110702E+04  0.16973829208E+04 0.  0.
        1    1    3    3  502    0  0.52565242150E+03 -0.20631870637E+02  0.18831954478E+03  0.55874895372E+03  0.50400001928E-02 0.  1.
       -1    1    3    3    0  502 -0.52565242150E+03  0.20631870637E+02 -0.14904497515E+04  0.15805621165E+04  0.50400001928E-02 0. -1.
</event>
<event>
 5   0  0.3713516E-04  0.1699783E+04  0.7818609E-02  0.8761488E-01
       -1   -1    0    0    0  501  0.00000000000E+00  0.00000000000E+00  0.73084939225E+03  0.73084939227E+03  0.50400001928E-02 0. -1.
        1   -1    0    0  501    0  0.00000000000E+00  0.00000000000E+00 -0.98832309177E+03  0.98832309179E+03  0.50400001928E-02 0.  1.
    10030    2    1    2    0    0  0.00000000000E+00  0.00000000000E+00 -0.25747369952E+03  0.17191724841E+04  0.16997827285E+04 0.  0.
        5    1    3    3  502    0  0.58933318522E+03  0.70454432041E+02 -0.74396497405E+03  0.95172653783E+03  0.46999998093E+01 0.  1.
       -5    1    3    3    0  502 -0.58933318522E+03 -0.70454432041E+02  0.48649127453E+03  0.76744594623E+03  0.46999998093E+01 0. -1.
</event>
<event>
 5   0  0.7233728E-04  0.1701660E+04  0.7818609E-02  0.8760418E-01
       -2   -1    0    0    0  501  0.00000000000E+00  0.00000000000E+00  0.64625094586E+03  0.64625094587E+03  0.25500000920E-02 0. -1.
        2   -1    0    0  501    0  0.00000000000E+00  0.00000000000E+00 -0.11201706521E+04  0.11201706521E+04  0.25500000920E-02 0.  1.
    10030    2    1    2    0    0  0.00000000000E+00  0.00000000000E+00 -0.47391970624E+03  0.17664215980E+04  0.17016595940E+04 0.  0.
        1    1    3    3  502    0 -0.94382228001E+02  0.84477816877E+03 -0.27514549641E+03  0.89345576478E+03  0.50400001928E-02 0. -1.
       -1    1    3    3    0  502  0.94382228001E+02 -0.84477816877E+03 -0.19877420983E+03  0.87296583319E+03  0.50400001928E-02 0.  1.
</event>
<event>
 5   0  0.3803253E-04  0.1656227E+04  0.7818609E-02  0.8786731E-01
       -1   -1    0    0    0  501  0.00000000000E+00  0.00000000000E+00  0.87052948897E+03  0.87052948898E+03  0.50400001928E-02 0. -1.
        1   -1    0    0  501    0  0.00000000000E+00  0.00000000000E+00 -0.78776411523E+03  0.78776411525E+03  0.50400001928E-02 0.  1.
    10030    2    1    2    0    0  0.00000000000E+00  0.00000000000E+00  0.82765373737E+02  0.16582936042E+04  0.16562269080E+04 0.  0.
        4    1    3    3  502    0  0.76830284839E+03 -0.24397711579E+03 -0.14847507723E+03  0.81967100798E+03  0.12699999809E+01 0. -1.
       -4    1    3    3    0  502 -0.76830284839E+03  0.24397711579E+03  0.23124045097E+03  0.83862259625E+03  0.12699999809E+01 0.  1.
</event>
<event>
 5   0  0.7025426E-04  0.1769742E+04  0.7818609E-02  0.8722558E-01
        2   -1    0    0  501    0  0.00000000000E+00  0.00000000000E+00  0.68131151368E+03  0.68131151368E+03  0.25500000920E-02 0. -1.
       -2   -1    0    0    0  501  0.00000000000E+00  0.00000000000E+00 -0.11492495886E+04  0.11492495886E+04  0.25500000920E-02 0.  1.
    10030    2    1    2    0    0  0.00000000000E+00  0.00000000000E+00 -0.46793807490E+03  0.18305611023E+04  0.17697423279E+04 0.  0.
        2    1    3    3  502    0  0.54718307697E+03  0.64540796106E+03 -0.50178037163E+03  0.98373995409E+03  0.25500000920E-02 0.  1.
       -2    1    3    3    0  502 -0.54718307697E+03 -0.64540796106E+03  0.33842296723E+02  0.84682114817E+03  0.25500000920E-02 0. -1.
</event>
<event>
 5   0  0.3803253E-04  0.1708231E+04  0.7818609E-02  0.8756684E-01
        1   -1    0    0  501    0  0.00000000000E+00  0.00000000000E+00  0.18279900795E+04  0.18279900795E+04  0.50400001928E-02 0.  1.
       -1   -1    0    0    0  501  0.00000000000E+00  0.00000000000E+00 -0.39907968435E+03  0.39907968438E+03  0.50400001928E-02 0. -1.
    10030    2    1    2    0    0  0.00000000000E+00  0.00000000000E+00  0.14289103951E+04  0.22270697639E+04  0.17082314878E+04 0.  0.
        4    1    3    3  502    0  0.38749628837E+02  0.74082055873E+02  0.18226414509E+04  0.18245583455E+04  0.12699999809E+01 0.  1.
       -4    1    3    3    0  502 -0.38749628837E+02 -0.74082055873E+02 -0.39373105577E+03  0.40251141836E+03  0.12699999809E+01 0. -1.
</event>
<event>
 5   0  0.3723500E-04  0.1707504E+04  0.7818609E-02  0.8757096E-01
       -1   -1    0    0    0  501  0.00000000000E+00  0.00000000000E+00  0.68821370944E+03  0.68821370946E+03  0.50400001928E-02 0.  1.
        1   -1    0    0  501    0  0.00000000000E+00  0.00000000000E+00 -0.10591078968E+04  0.10591078968E+04  0.50400001928E-02 0. -1.
    10030    2    1    2    0    0  0.00000000000E+00  0.00000000000E+00 -0.37089418736E+03  0.17473216063E+04  0.17075041135E+04 0.  0.
        1    1    3    3  502    0  0.69650255110E+03 -0.28450917469E+03 -0.59838051442E+03  0.96131187147E+03  0.50400001928E-02 0. -1.
       -1    1    3    3    0  502 -0.69650255110E+03  0.28450917469E+03  0.22748632707E+03  0.78600973480E+03  0.50400001928E-02 0.  1.
</event>
<event>
 5   0  0.6746664E-04  0.1677216E+04  0.7818609E-02  0.8774467E-01
       -2   -1    0    0    0  501  0.00000000000E+00  0.00000000000E+00  0.71354516767E+03  0.71354516767E+03  0.25500000920E-02 0. -1.
        2   -1    0    0  501    0  0.00000000000E+00  0.00000000000E+00 -0.98559046435E+03  0.98559046436E+03  0.25500000920E-02 0.  1.
    10030    2    1    2    0    0  0.00000000000E+00  0.00000000000E+00 -0.27204529668E+03  0.16991356320E+04  0.16772159231E+04 0.  0.
        5    1    3    3  502    0 -0.67244479901E+03  0.45638848912E+03 -0.34553151732E+03  0.88311187297E+03  0.46999998093E+01 0.  1.
       -5    1    3    3    0  502  0.67244479901E+03 -0.45638848912E+03  0.73486220632E+02  0.81602375906E+03  0.46999998093E+01 0. -1.
</event>
<event>
 5   0  0.3635143E-04  0.1721675E+04  0.7818609E-02  0.8749098E-01
        1   -1    0    0  501    0  0.00000000000E+00  0.00000000000E+00  0.10416160096E+04  0.10416160096E+04  0.50400001928E-02 0.  1.
       -1   -1    0    0    0  501  0.00000000000E+00  0.00000000000E+00 -0.71143435551E+03  0.71143435552E+03  0.50400001928E-02 0. -1.
    10030    2    1    2    0    0  0.00000000000E+00  0.00000000000E+00  0.33018165411E+03  0.17530503652E+04  0.17216752476E+04 0.  0.
        3    1    3    3  502    0 -0.52691224302E+03 -0.55426981284E+03 -0.23731993363E+03  0.80073235127E+03  0.10100000352E+00 0. -1.
       -3    1    3    3    0  502  0.52691224302E+03  0.55426981284E+03  0.56750158774E+03  0.95231801388E+03  0.10100000352E+00 0.  1.
</event>
<event>
 5   0  0.3635143E-04  0.1646046E+04  0.7818609E-02  0.8792749E-01
       -1   -1    0    0    0  501  0.00000000000E+00  0.00000000000E+00  0.73672758894E+03  0.73672758895E+03  0.50400001928E-02 0. -1.
        1   -1    0    0  501    0  0.00000000000E+00  0.00000000000E+00 -0.91942631174E+03  0.91942631175E+03  0.50400001928E-02 0.  1.
    10030    2    1    2    0    0  0.00000000000E+00  0.00000000000E+00 -0.18269872280E+03  0.16561539007E+04  0.16460458437E+04 0.  0.
        3    1    3    3  502    0  0.63833160426E+03  0.27271183444E+03 -0.53624992243E+03  0.87715618401E+03  0.10100000352E+00 0.  1.
       -3    1    3    3    0  502 -0.63833160426E+03 -0.27271183444E+03  0.35355119963E+03  0.77899771669E+03  0.10100000352E+00 0. -1.
</event>
<event>
 5   0  0.7025426E-04  0.1692495E+04  0.7818609E-02  0.8765657E-01
       -2   -1    0    0    0  501  0.00000000000E+00  0.00000000000E+00  0.96034194376E+03  0.96034194377E+03  0.25500000920E-02 0.  1.
        2   -1    0    0  501    0  0.00000000000E+00  0.00000000000E+00 -0.74570776200E+03  0.74570776200E+03  0.25500000920E-02 0. -1.
    10030    2    1    2    0    0  0.00000000000E+00  0.00000000000E+00  0.21463418177E+03  0.17060497058E+04  0.16924945396E+04 0.  0.
        2    1    3    3  502    0 -0.41461401899E+03 -0.73267798586E+03  0.20530936198E+02  0.84210648677E+03  0.25500000920E-02 0.  1.
       -2    1    3    3    0  502  0.41461401899E+03  0.73267798586E+03  0.19410324557E+03  0.86394321900E+03  0.25500000920E-02 0. -1.
</event>
<event>
 5   0  0.7049044E-04  0.1695794E+04  0.7818609E-02  0.8763767E-01
       -2   -1    0    0    0  501  0.00000000000E+00  0.00000000000E+00  0.44208759316E+03  0.44208759316E+03  0.25500000920E-02 0.  1.
        2   -1    0    0  501    0  0.00000000000E+00  0.00000000000E+00 -0.16262153440E+04  0.16262153440E+04  0.25500000920E-02 0. -1.
    10030    2    1    2    0    0  0.00000000000E+00  0.00000000000E+00 -0.11841277508E+04  0.20683029371E+04  0.16957943594E+04 0.  0.
        4    1    3    3  502    0 -0.37434119470E+03 -0.33572825918E+03  0.24060569982E+03  0.55743834614E+03  0.12699999809E+01 0.  1.
       -4    1    3    3    0  502  0.37434119470E+03  0.33572825918E+03 -0.14247334506E+04  0.15108645910E+04  0.12699999809E+01 0. -1.
</event>
<event>
 5   0  0.3635143E-04  0.1663907E+04  0.7818609E-02  0.8782222E-01
        1   -1    0    0  501    0  0.00000000000E+00  0.00000000000E+00  0.11871678644E+04  0.11871678644E+04  0.50400001928E-02 0.  1.
       -1   -1    0    0    0  501  0.00000000000E+00  0.00000000000E+00 -0.58302326786E+03  0.58302326788E+03  0.50400001928E-02 0. -1.
    10030    2    1    2    0    0  0.00000000000E+00  0.00000000000E+00  0.60414459654E+03  0.17701911323E+04  0.16639068337E+04 0.  0.
        3    1    3    3  502    0 -0.31502029451E+03 -0.50003396705E+03  0.92503047499E+03  0.10977035775E+04  0.10100000352E+00 0.  1.
       -3    1    3    3    0  502  0.31502029451E+03  0.50003396705E+03 -0.32088587846E+03  0.67248755479E+03  0.10100000352E+00 0. -1.
</event>
<event>
 5   0  0.7025426E-04  0.1746729E+04  0.7818609E-02  0.8735153E-01
        2   -1    0    0  501    0  0.00000000000E+00  0.00000000000E+00  0.24483454065E+04  0.24483454065E+04  0.25500000920E-02 0. -1.
       -2   -1    0    0    0  501  0.00000000000E+00  0.00000000000E+00 -0.31154323573E+03  0.31154323574E+03  0.25500000920E-02 0.  1.
    10030    2    1    2    0    0  0.00000000000E+00  0.00000000000E+00  0.21368021708E+04  0.27598886422E+04  0.17467288858E+04 0.  0.
        2    1    3    3  502    0 -0.77375420899E+03  0.38574807667E+03  0.87316444045E+03  0.12287852923E+04  0.25500000920E-02 0.  1.
       -2    1    3    3    0  502  0.77375420899E+03 -0.38574807667E+03  0.12636377303E+04  0.15311033499E+04  0.25500000920E-02 0. -1.
</event>
<event>
 5   0  0.7049044E-04  0.1699676E+04  0.7818609E-02  0.8761549E-01
        2   -1    0    0  501    0  0.00000000000E+00  0.00000000000E+00  0.11997991169E+04  0.11997991169E+04  0.25500000920E-02 0.  1.
       -2   -1    0    0    0  501  0.00000000000E+00  0.00000000000E+00 -0.60195452521E+03  0.60195452522E+03  0.25500000920E-02 0. -1.
    10030    2    1    2    0    0  0.00000000000E+00  0.00000000000E+00  0.59784459171E+03  0.18017536421E+04  0.16996758606E+04 0.  0.
        4    1    3    3  502    0  0.49369874493E+03 -0.26482188619E+03 -0.37848147461E+03  0.67610570303E+03  0.12699999809E+01 0. -1.
       -4    1    3    3    0  502 -0.49369874493E+03  0.26482188619E+03  0.97632606632E+03  0.11256479391E+04  0.12699999809E+01 0.  1.
</event>
<event>
 5   0  0.7242144E-04  0.1731226E+04  0.7818609E-02  0.8743753E-01
       -2   -1    0    0    0  501  0.00000000000E+00  0.00000000000E+00  0.61570480090E+03  0.61570480091E+03  0.25500000920E-02 0. -1.
        2   -1    0    0  501    0  0.00000000000E+00  0.00000000000E+00 -0.12169564762E+04  0.12169564762E+04  0.25500000920E-02 0.  1.
    10030    2    1    2    0    0  0.00000000000E+00  0.00000000000E+00 -0.60125167533E+03  0.18326612771E+04  0.17312260914E+04 0.  0.
        3    1    3    3  502    0 -0.36509697700E+02 -0.24205193439E+03  0.57830087457E+03  0.62797612112E+03  0.10100000352E+00 0. -1.
       -3    1    3    3    0  502  0.36509697700E+02  0.24205193439E+03 -0.11795525499E+04  0.12046851560E+04  0.10100000352E+00 0.  1.
</event>
<event>
 5   0  0.3635143E-04  0.1684984E+04  0.7818609E-02  0.8769975E-01
        1   -1    0    0  501    0  0.00000000000E+00  0.00000000000E+00  0.11803982808E+04  0.11803982808E+04  0.50400001928E-02 0. -1.
       -1   -1    0    0    0  501  0.00000000000E+00  0.00000000000E+00 -0.60131660909E+03  0.60131660911E+03  0.50400001928E-02 0.  1.
    10030    2    1    2    0    0  0.00000000000E+00  0.00000000000E+00  0.57908167171E+03  0.17817148899E+04  0.16849843817E+04 0.  0.
        3    1    3    3  502    0  0.50638891392E+03  0.15630560622E+03 -0.40298583900E+03  0.66577681794E+03  0.10100000352E+00 0.  1.
       -3    1    3    3    0  502 -0.50638891392E+03 -0.15630560622E+03  0.98206751071E+03  0.11159380720E+04  0.10100000352E+00 0. -1.
</event>
<event>
 5   0  0.7025426E-04  0.1577528E+04  0.7818609E-02  0.8834473E-01
        2   -1    0    0  501    0  0.00000000000E+00  0.00000000000E+00  0.14883290698E+04  0.14883290698E+04  0.25500000920E-02 0.  1.
       -2   -1    0    0    0  501  0.00000000000E+00  0.00000000000E+00 -0.41801836668E+03  0.41801836668E+03  0.25500000920E-02 0. -1.
    10030    2    1    2    0    0  0.00000000000E+00  0.00000000000E+00  0.10703107032E+04  0.19063474365E+04  0.15775283032E+04 0.  0.
        2    1    3    3  502    0 -0.15989476743E+03 -0.35965799855E+03 -0.29086289114E+03  0.48940927047E+03  0.25500000920E-02 0. -1.
       -2    1    3    3    0  502  0.15989476743E+03  0.35965799855E+03  0.13611735943E+04  0.14169381660E+04  0.25500000920E-02 0.  1.
</event>
<event>
 5   0  0.3713516E-04  0.1685184E+04  0.7818609E-02  0.8769860E-01
        1   -1    0    0  501    0  0.00000000000E+00  0.00000000000E+00  0.95284321872E+03  0.95284321874E+03  0.50400001928E-02 0.  1.
       -1   -1    0    0    0  501  0.00000000000E+00  0.00000000000E+00 -0.74509771221E+03  0.74509771223E+03  0.50400001928E-02 0. -1.
    10030    2    1    2    0    0  0.00000000000E+00  0.00000000000E+00  0.20774550651E+03  0.16979409310E+04  0.16851840284E+04 0.  0.
        5    1    3    3  502    0 -0.16130837535E+03 -0.74264969387E+03 -0.26273635339E+03  0.80411531583E+03  0.46999998093E+01 0. -1.
       -5    1    3    3    0  502  0.16130837535E+03  0.74264969387E+03  0.47048185990E+03  0.89382561513E+03  0.46999998093E+01 0.  1.
</event>
<event>
 5   0  0.3803253E-04  0.1699868E+04  0.7818609E-02  0.8761440E-01
        1   -1    0    0  501    0  0.00000000000E+00  0.00000000000E+00  0.22644240771E+04  0.22644240771E+04  0.50400001928E-02 0. -1.
       -1   -1    0    0    0  501  0.00000000000E+00  0.00000000000E+00 -0.31901607072E+03  0.31901607076E+03  0.50400001928E-02 0.  1.
    10030    2    1    2    0    0  0.00000000000E+00  0.00000000000E+00  0.19454080063E+04  0.25834401478E+04  0.16998678438E+04 0.  0.
        4    1    3    3  502    0 -0.30228194438E+03 -0.42337030204E+02  0.21782512901E+04  0.21995333809E+04  0.12699999809E+01 0. -1.
       -4    1    3    3    0  502  0.30228194438E+03  0.42337030204E+02 -0.23284328374E+03  0.38390676694E+03  0.12699999809E+01 0.  1.
</event>
<event>
 5   0  0.7025426E-04  0.1801516E+04  0.7818609E-02  0.8705494E-01
        2   -1    0    0  501    0  0.00000000000E+00  0.00000000000E+00  0.13914581322E+04  0.13914581322E+04  0.25500000920E-02 0.  1.
       -2   -1    0    0    0  501  0.00000000000E+00  0.00000000000E+00 -0.58310432553E+03  0.58310432554E+03  0.25500000920E-02 0. -1.
    10030    2    1    2    0    0  0.00000000000E+00  0.00000000000E+00  0.80835380670E+03  0.19745624578E+04  0.18015163121E+04 0.  0.
        2    1    3    3  502    0 -0.22206394117E+03 -0.18137538476E+03 -0.53175198720E+03  0.60412713898E+03  0.25500000920E-02 0. -1.
       -2    1    3    3    0  502  0.22206394117E+03  0.18137538476E+03  0.13401057939E+04  0.13704353188E+04  0.25500000920E-02 0.  1.
</event>
<event>
 5   0  0.3713516E-04  0.1681723E+04  0.7818609E-02  0.8771857E-01
       -1   -1    0    0    0  501  0.00000000000E+00  0.00000000000E+00  0.88836231870E+03  0.88836231871E+03  0.50400001928E-02 0. -1.
        1   -1    0    0  501    0  0.00000000000E+00  0.00000000000E+00 -0.79590085060E+03  0.79590085062E+03  0.50400001928E-02 0.  1.
    10030    2    1    2    0    0  0.00000000000E+00  0.00000000000E+00  0.92461468093E+02  0.16842631693E+04  0.16817233127E+04 0.  0.
        5    1    3    3  502    0  0.11432172316E+03 -0.43908387973E+02 -0.78690833701E+03  0.79639451516E+03  0.46999998093E+01 0.  1.
       -5    1    3    3    0  502 -0.11432172316E+03  0.43908387973E+02  0.87936980511E+03  0.88786865417E+03  0.46999998093E+01 0. -1.
</event>
<event>
 5   0  0.3635143E-04  0.1684737E+04  0.7818609E-02  0.8770118E-01
       -1   -1    0    0    0  501  0.00000000000E+00  0.00000000000E+00  0.15181803040E+04  0.15181803040E+04  0.50400001928E-02 0.  1.
        1   -1    0    0  501    0  0.00000000000E+00  0.00000000000E+00 -0.46739140868E+03  0.46739140870E+03  0.50400001928E-02 0. -1.
    10030    2    1    2    0    0  0.00000000000E+00  0.00000000000E+00  0.10507888953E+04  0.19855717127E+04  0.16847366927E+04 0.  0.
        3    1    3    3  502    0  0.12827341341E+03 -0.54368351759E+00 -0.45581316335E+03  0.47351875809E+03  0.10100000352E+00 0. -1.
       -3    1    3    3    0  502 -0.12827341341E+03  0.54368351759E+00  0.15066020586E+04  0.15120529546E+04  0.10100000352E+00 0.  1.
</event>
<event>
 5   0  0.3635143E-04  0.1638161E+04  0.7818609E-02  0.8797441E-01
       -1   -1    0    0    0  501  0.00000000000E+00  0.00000000000E+00  0.32936052003E+03  0.32936052007E+03  0.50400001928E-02 0.  1.
        1   -1    0    0  501    0  0.00000000000E+00  0.00000000000E+00 -0.20369553633E+04  0.20369553633E+04  0.50400001928E-02 0. -1.
    10030    2    1    2    0    0  0.00000000000E+00  0.00000000000E+00 -0.17075948433E+04  0.23663158834E+04  0.16381607708E+04 0.  0.
        3    1    3    3  502    0  0.28470863075E+03  0.54523988714E+03 -0.72504090877E+02  0.61935643401E+03  0.10100000352E+00 0.  1.
       -3    1    3    3    0  502 -0.28470863075E+03 -0.54523988714E+03 -0.16350907524E+04  0.17469594494E+04  0.10100000352E+00 0. -1.
</event>
<event>
 5   0  0.3915701E-04  0.1660763E+04  0.7818609E-02  0.8784065E-01
       -1   -1    0    0    0  501  0.00000000000E+00  0.00000000000E+00  0.48899119005E+03  0.48899119007E+03  0.50400001928E-02 0. -1.
        1   -1    0    0  501    0  0.00000000000E+00  0.00000000000E+00 -0.14101139571E+04  0.14101139571E+04  0.50400001928E-02 0.  1.
    10030    2    1    2    0    0  0.00000000000E+00  0.00000000000E+00 -0.92112276706E+03  0.18991051472E+04  0.16607628392E+04 0.  0.
        2    1    3    3  502    0  0.30024983605E+03 -0.11604042583E+01  0.42474426956E+03  0.52015286707E+03  0.25500000920E-02 0. -1.
       -2    1    3    3    0  502 -0.30024983605E+03  0.11604042583E+01 -0.13458670366E+04  0.13789522801E+04  0.25500000920E-02 0.  1.
</event>
<event>
 5   0  0.6746664E-04  0.1722619E+04  0.7818609E-02  0.8748568E-01
        2   -1    0    0  501    0  0.00000000000E+00  0.00000000000E+00  0.10584195200E+04  0.10584195200E+04  0.25500000920E-02 0. -1.
       -2   -1    0    0    0  501  0.00000000000E+00  0.00000000000E+00 -0.70090764691E+03  0.70090764692E+03  0.25500000920E-02 0.  1.
    10030    2    1    2    0    0  0.00000000000E+00  0.00000000000E+00  0.35751187307E+03  0.17593271669E+04  0.17226193256E+04 0.  0.
        5    1    3    3  502    0 -0.84172144937E+03 -0.16466648330E+03  0.98194139903E+02  0.86329266657E+03  0.46999998093E+01 0.  1.
       -5    1    3    3    0  502  0.84172144937E+03  0.16466648330E+03  0.25931773317E+03  0.89603450033E+03  0.46999998093E+01 0. -1.
</event>
<event>
 5   0  0.3803253E-04  0.1691767E+04  0.7818609E-02  0.8766074E-01
        1   -1    0    0  501    0  0.00000000000E+00  0.00000000000E+00  0.16013611141E+04  0.16013611141E+04  0.50400001928E-02 0. -1.
       -1   -1    0    0    0  501  0.00000000000E+00  0.00000000000E+00 -0.44681910654E+03  0.44681910656E+03  0.50400001928E-02 0.  1.
    10030    2    1    2    0    0  0.00000000000E+00  0.00000000000E+00  0.11545420075E+04  0.20481802206E+04  0.16917668188E+04 0.  0.
        4    1    3    3  502    0 -0.65114524445E+03  0.14372823592E+03  0.12073680924E+04  0.13792705531E+04  0.12699999809E+01 0. -1.
       -4    1    3    3    0  502  0.65114524445E+03 -0.14372823592E+03 -0.52826084887E+02  0.66890966753E+03  0.12699999809E+01 0.  1.
</event>
<event>
 5   0  0.3635143E-04  0.1765331E+04  0.7818609E-02  0.8724956E-01
        1   -1    0    0  501    0  0.00000000000E+00  0.00000000000E+00  0.15474326685E+04  0.15474326685E+04  0.50400001928E-02 0. -1.
       -1   -1    0    0    0  501  0.00000000000E+00  0.00000000000E+00 -0.50347819802E+03  0.50347819804E+03  0.50400001928E-02 0.  1.
    10030    2    1    2    0    0  0.00000000000E+00  0.00000000000E+00  0.10439544705E+04  0.20509108665E+04  0.17653312567E+04 0.  0.
        3    1    3    3  502    0  0.14959727101E+03 -0.50720569181E+03  0.13430310939E+04  0.14433881968E+04  0.10100000352E+00 0. -1.
       -3    1    3    3    0  502 -0.14959727101E+03  0.50720569181E+03 -0.29907662347E+03  0.60752266970E+03  0.10100000352E+00 0.  1.
</event>
<event>
 5   0  0.7025426E-04  0.1697707E+04  0.7818609E-02  0.8762673E-01
       -2   -1    0    0    0  501  0.00000000000E+00  0.00000000000E+00  0.77248084600E+03  0.77248084600E+03  0.25500000920E-02 0. -1.
        2   -1    0    0  501    0  0.00000000000E+00  0.00000000000E+00 -0.93277656749E+03  0.93277656749E+03  0.25500000920E-02 0.  1.
    10030    2    1    2    0    0  0.00000000000E+00  0.00000000000E+00 -0.16029572149E+03  0.17052574135E+04  0.16977067261E+04 0.  0.
        2    1    3    3  502    0 -0.77598963155E+03 -0.33491002173E+03 -0.15941272036E+03  0.86007967442E+03  0.25500000920E-02 0. -1.
       -2    1    3    3    0  502  0.77598963155E+03  0.33491002173E+03 -0.88300113611E+00  0.84517773907E+03  0.25500000920E-02 0.  1.
</event>
<event>
 5   0  0.2639750E-04  0.1700232E+04  0.7818609E-02  0.8761232E-01
        4   -1    0    0  501    0  0.00000000000E+00  0.00000000000E+00  0.94769807171E+03  0.94769892267E+03  0.12699999809E+01 0. -1.
       -4   -1    0    0    0  501  0.00000000000E+00  0.00000000000E+00 -0.76258039798E+03  0.76258145550E+03  0.12699999809E+01 0.  1.
    10030    2    1    2    0    0  0.00000000000E+00  0.00000000000E+00  0.18511767373E+03  0.17102803782E+04  0.17002324602E+04 0.  0.
        5    1    3    3  502    0 -0.25992918384E+03  0.53042747168E+03 -0.52241247645E+03  0.78857679960E+03  0.46999998093E+01 0.  1.
       -5    1    3    3    0  502  0.25992918384E+03 -0.53042747168E+03  0.70753015018E+03  0.92170357857E+03  0.46999998093E+01 0. -1.
</event>
<event>
 5   0  0.6746664E-04  0.1633158E+04  0.7818609E-02  0.8800433E-01
       -2   -1    0    0    0  501  0.00000000000E+00  0.00000000000E+00  0.97032006044E+03  0.97032006045E+03  0.25500000920E-02 0.  1.
        2   -1    0    0  501    0  0.00000000000E+00  0.00000000000E+00 -0.68719692842E+03  0.68719692843E+03  0.25500000920E-02 0. -1.
    10030    2    1    2    0    0  0.00000000000E+00  0.00000000000E+00  0.28312313202E+03  0.16575169889E+04  0.16331576349E+04 0.  0.
        5    1    3    3  502    0  0.30588296476E+03  0.52084270102E+03 -0.41612260157E+03  0.73349956843E+03  0.46999998093E+01 0. -1.
       -5    1    3    3    0  502 -0.30588296476E+03 -0.52084270102E+03  0.69924573359E+03  0.92401742045E+03  0.46999998093E+01 0.  1.
</event>
<event>
 5   0  0.3723500E-04  0.1645055E+04  0.7818609E-02  0.8793337E-01
        1   -1    0    0  501    0  0.00000000000E+00  0.00000000000E+00  0.94617601567E+03  0.94617601568E+03  0.50400001928E-02 0. -1.
       -1   -1    0    0    0  501  0.00000000000E+00  0.00000000000E+00 -0.71503785720E+03  0.71503785722E+03  0.50400001928E-02 0.  1.
    10030    2    1    2    0    0  0.00000000000E+00  0.00000000000E+00  0.23113815846E+03  0.16612138729E+04  0.16450552219E+04 0.  0.
        1    1    3    3  502    0 -0.42156430952E+03  0.15785184777E+03  0.81074811887E+03  0.92733283409E+03  0.50400001928E-02 0. -1.
       -1    1    3    3    0  502  0.42156430952E+03 -0.15785184777E+03 -0.57960996040E+03  0.73388103881E+03  0.50400001928E-02 0.  1.
</event>
<event>
 5   0  0.7242144E-04  0.1727134E+04  0.7818609E-02  0.8746039E-01
       -2   -1    0    0    0  501  0.00000000000E+00  0.00000000000E+00  0.75932395289E+03  0.75932395289E+03  0.25500000920E-02 0.  1.
        2   -1    0    0  501    0  0.00000000000E+00  0.00000000000E+00 -0.98212071705E+03  0.98212071706E+03  0.25500000920E-02 0. -1.
    10030    2    1    2    0    0  0.00000000000E+00  0.00000000000E+00 -0.22279676417E+03  0.17414446699E+04  0.17271337934E+04 0.  0.
        3    1    3    3  502    0 -0.70350104106E+03 -0.49881059891E+03 -0.66058616457E+02  0.86492166083E+03  0.10100000352E+00 0.  1.
       -3    1    3    3    0  502  0.70350104106E+03  0.49881059891E+03 -0.15673814771E+03  0.87652300912E+03  0.10100000352E+00 0. -1.
</event>
<event>
 5   0  0.6746664E-04  0.1543367E+04  0.7818609E-02  0.8856116E-01
       -2   -1    0    0    0  501  0.00000000000E+00  0.00000000000E+00  0.35635629609E+03  0.35635629610E+03  0.25500000920E-02 0. -1.
        2   -1    0    0  501    0  0.00000000000E+00  0.00000000000E+00 -0.16710676945E+04  0.16710676945E+04  0.25500000920E-02 0.  1.
    10030    2    1    2    0    0  0.00000000000E+00  0.00000000000E+00 -0.13147113984E+04  0.20274239906E+04  0.15433670907E+04 0.  0.
        5    1    3    3  502    0  0.31140061812E+03 -0.70219558576E+03 -0.56060548375E+03  0.95097296704E+03  0.46999998093E+01 0. -1.
       -5    1    3    3    0  502 -0.31140061812E+03  0.70219558576E+03 -0.75410591467E+03  0.10764510236E+04  0.46999998093E+01 0.  1.
</event>
<event>
 5   0  0.3723500E-04  0.1678361E+04  0.7818609E-02  0.8773803E-01
       -1   -1    0    0    0  501  0.00000000000E+00  0.00000000000E+00  0.18172747215E+04  0.18172747215E+04  0.50400001928E-02 0.  1.
        1   -1    0    0  501    0  0.00000000000E+00  0.00000000000E+00 -0.38751641130E+03  0.38751641133E+03  0.50400001928E-02 0. -1.
    10030    2    1    2    0    0  0.00000000000E+00  0.00000000000E+00  0.14297583102E+04  0.22047911328E+04  0.16783608414E+04 0.  0.
        1    1    3    3  502    0 -0.24559655303E+03 -0.61320104328E+03  0.34954411109E+02  0.66147940045E+03  0.50400001928E-02 0. -1.
       -1    1    3    3    0  502  0.24559655303E+03  0.61320104328E+03  0.13948038991E+04  0.15433117324E+04  0.50400001928E-02 0.  1.
</event>
<event>
 5   0  0.7025426E-04  0.1689145E+04  0.7818609E-02  0.8767580E-01
        2   -1    0    0  501    0  0.00000000000E+00  0.00000000000E+00  0.89589383496E+03  0.89589383496E+03  0.25500000920E-02 0.  1.
       -2   -1    0    0    0  501  0.00000000000E+00  0.00000000000E+00 -0.79619097243E+03  0.79619097244E+03  0.25500000920E-02 0. -1.
    10030    2    1    2    0    0  0.00000000000E+00  0.00000000000E+00  0.99702862526E+02  0.16920848074E+04  0.16891448531E+04 0.  0.
        2    1    3    3  502    0 -0.78591497691E+03  0.30722938104E+03  0.14429737788E+02  0.84395524813E+03  0.25500000920E-02 0.  1.
       -2    1    3    3    0  502  0.78591497691E+03 -0.30722938104E+03  0.85273124738E+02  0.84812955927E+03  0.25500000920E-02 0. -1.
</event>
<event>
 5   0  0.6746664E-04  0.1719015E+04  0.7818609E-02  0.8750593E-01
       -2   -1    0    0    0  501  0.00000000000E+00  0.00000000000E+00  0.28760299314E+03  0.28760299315E+03  0.25500000920E-02 0.  1.
        2   -1    0    0  501    0  0.00000000000E+00  0.00000000000E+00 -0.25686563708E+04  0.25686563708E+04  0.25500000920E-02 0. -1.
    10030    2    1    2    0    0  0.00000000000E+00  0.00000000000E+00 -0.22810533777E+04  0.28562593639E+04  0.17190151373E+04 0.  0.
        5    1    3    3  502    0  0.66032569605E+03 -0.17406725299E+03 -0.27331948551E+03  0.73556445304E+03  0.46999998093E+01 0.  1.
       -5    1    3    3    0  502 -0.66032569605E+03  0.17406725299E+03 -0.20077338922E+04  0.21206949109E+04  0.46999998093E+01 0. -1.
</event>
<event>
 5   0  0.3915701E-04  0.1793100E+04  0.7818609E-02  0.8709977E-01
       -1   -1    0    0    0  501  0.00000000000E+00  0.00000000000E+00  0.81251498926E+03  0.81251498928E+03  0.50400001928E-02 0. -1.
        1   -1    0    0  501    0  0.00000000000E+00  0.00000000000E+00 -0.98927652490E+03  0.98927652491E+03  0.50400001928E-02 0.  1.
    10030    2    1    2    0    0  0.00000000000E+00  0.00000000000E+00 -0.17676153564E+03  0.18017915142E+04  0.17931001144E+04 0.  0.
        2    1    3    3  502    0  0.41982278709E+03 -0.19510265693E+03 -0.85988207753E+03  0.97658251396E+03  0.25500000920E-02 0.  1.
       -2    1    3    3    0  502 -0.41982278709E+03  0.19510265693E+03  0.68312054190E+03  0.82520900024E+03  0.25500000920E-02 0. -1.
</event>
<event>
 5   0  0.6746664E-04  0.1361805E+04  0.7818609E-02  0.8981940E-01
       -2   -1    0    0    0  501  0.00000000000E+00  0.00000000000E+00  0.62334868677E+03  0.62334868677E+03  0.25500000920E-02 0. -1.
        2   -1    0    0  501    0  0.00000000000E+00  0.00000000000E+00 -0.74377032641E+03  0.74377032642E+03  0.25500000920E-02 0.  1.
    10030    2    1    2    0    0  0.00000000000E+00  0.00000000000E+00 -0.12042163965E+03  0.13671190132E+04  0.13618050613E+04 0.  0.
        5    1    3    3  502    0 -0.56065468222E+03 -0.34341930622E+03 -0.23792042301E+03  0.69921292198E+03  0.46999998093E+01 0.  1.
       -5    1    3    3    0  502  0.56065468222E+03  0.34341930622E+03  0.11749878337E+03  0.66790609121E+03  0.46999998093E+01 0. -1.
</event>
<event>
 5   0  0.3803253E-04  0.1666167E+04  0.7818609E-02  0.8780899E-01
        1   -1    0    0  501    0  0.00000000000E+00  0.00000000000E+00  0.80834691412E+03  0.80834691414E+03  0.50400001928E-02 0. -1.
       -1   -1    0    0    0  501  0.00000000000E+00  0.00000000000E+00 -0.85857729398E+03  0.85857729399E+03  0.50400001928E-02 0.  1.
    10030    2    1    2    0    0  0.00000000000E+00  0.00000000000E+00 -0.50230379853E+02  0.16669242081E+04  0.16661672259E+04 0.  0.
        4    1    3    3  502    0  0.45779463171E+03 -0.43373870032E+03 -0.56971671605E+03  0.84987289311E+03  0.12699999809E+01 0.  1.
       -4    1    3    3    0  502 -0.45779463171E+03  0.43373870032E+03  0.51948633620E+03  0.81705131502E+03  0.12699999809E+01 0. -1.
</event>
<event>
 5   0  0.3713516E-04  0.1678049E+04  0.7818609E-02  0.8773984E-01
        1   -1    0    0  501    0  0.00000000000E+00  0.00000000000E+00  0.70719687415E+03  0.70719687417E+03  0.50400001928E-02 0.  1.
       -1   -1    0    0    0  501  0.00000000000E+00  0.00000000000E+00 -0.99542564881E+03  0.99542564882E+03  0.50400001928E-02 0. -1.
    10030    2    1    2    0    0  0.00000000000E+00  0.00000000000E+00 -0.28822877465E+03  0.17026225230E+04  0.16780487565E+04 0.  0.
        5    1    3    3  502    0  0.45242913425E+02 -0.72093849225E+03 -0.57714356886E+03  0.92461668809E+03  0.46999998093E+01 0.  1.
       -5    1    3    3    0  502 -0.45242913425E+02  0.72093849225E+03  0.28891479421E+03  0.77800583490E+03  0.46999998093E+01 0. -1.
</event>
<event>
 5   0  0.3713516E-04  0.1732393E+04  0.7818609E-02  0.8743102E-01
        1   -1    0    0  501    0  0.00000000000E+00  0.00000000000E+00  0.92659543330E+03  0.92659543332E+03  0.50400001928E-02 0. -1.
       -1   -1    0    0    0  501  0.00000000000E+00  0.00000000000E+00 -0.80973477807E+03  0.80973477809E+03  0.50400001928E-02 0.  1.
    10030    2    1    2    0    0  0.00000000000E+00  0.00000000000E+00  0.11686065523E+03  0.17363302114E+04  0.17323931974E+04 0.  0.
        5    1    3    3  502    0  0.63747822982E+03 -0.20548270458E+03 -0.49206539046E+03  0.83111495827E+03  0.46999998093E+01 0.  1.
       -5    1    3    3    0  502 -0.63747822982E+03  0.20548270458E+03  0.60892604569E+03  0.90521525313E+03  0.46999998093E+01 0. -1.
</event>
<event>
 5   0  0.2639750E-04  0.1696981E+04  0.7818609E-02  0.8763088E-01
       -3   -1    0    0    0  501  0.00000000000E+00  0.00000000000E+00  0.42935330330E+03  0.42935331518E+03  0.10100000352E+00 0. -1.
        3   -1    0    0  501    0  0.00000000000E+00  0.00000000000E+00 -0.16767917615E+04  0.16767917646E+04  0.10100000352E+00 0.  1.
    10030    2    1    2    0    0  0.00000000000E+00  0.00000000000E+00 -0.12474384582E+04  0.21061450797E+04  0.16969809633E+04 0.  0.
        2    1    3    3  502    0  0.24903085241E+03  0.56890595558E+03  0.93839166892E+02  0.62807335638E+03  0.25500000920E-02 0. -1.
       -2    1    3    3    0  502 -0.24903085241E+03 -0.56890595558E+03 -0.13412776251E+04  0.14780717234E+04  0.25500000920E-02 0.  1.
</event>
<event>
 5   0  0.7242144E-04  0.1786262E+04  0.7818609E-02  0.8713639E-01
        2   -1    0    0  501    0  0.00000000000E+00  0.00000000000E+00  0.12122647749E+04  0.12122647749E+04  0.25500000920E-02 0.  1.
       -2   -1    0    0    0  501  0.00000000000E+00  0.00000000000E+00 -0.65801060030E+03  0.65801060030E+03  0.25500000920E-02 0. -1.
    10030    2    1    2    0    0  0.00000000000E+00  0.00000000000E+00  0.55425417460E+03  0.18702753752E+04  0.17862620998E+04 0.  0.
        3    1    3    3  502    0  0.49480510996E+03  0.52260988094E+03  0.83089756579E+03  0.10992469966E+04  0.10100000352E+00 0.  1.
       -3    1    3    3    0  502 -0.49480510996E+03 -0.52260988094E+03 -0.27664339119E+03  0.77102837860E+03  0.10100000352E+00 0. -1.
</event>
<event>
 5   0  0.3713516E-04  0.1700369E+04  0.7818609E-02  0.8761154E-01
        1   -1    0    0  501    0  0.00000000000E+00  0.00000000000E+00  0.91491338358E+03  0.91491338360E+03  0.50400001928E-02 0.  1.
       -1   -1    0    0    0  501  0.00000000000E+00  0.00000000000E+00 -0.79003493306E+03  0.79003493307E+03  0.50400001928E-02 0. -1.
    10030    2    1    2    0    0  0.00000000000E+00  0.00000000000E+00  0.12487845052E+03  0.17049483167E+04  0.17003688233E+04 0.  0.
        5    1    3    3  502    0 -0.82080991771E+03  0.80440909596E+02  0.26937281644E+03  0.86763094988E+03  0.46999998093E+01 0.  1.
       -5    1    3    3    0  502  0.82080991771E+03 -0.80440909596E+02 -0.14449436591E+03  0.83731736679E+03  0.46999998093E+01 0. -1.
</event>
<event>
 5   0  0.3713516E-04  0.1688026E+04  0.7818609E-02  0.8768223E-01
        1   -1    0    0  501    0  0.00000000000E+00  0.00000000000E+00  0.97640379862E+03  0.97640379863E+03  0.50400001928E-02 0.  1.
       -1   -1    0    0    0  501  0.00000000000E+00  0.00000000000E+00 -0.72957343077E+03  0.72957343078E+03  0.50400001928E-02 0. -1.
    10030    2    1    2    0    0  0.00000000000E+00  0.00000000000E+00  0.24683036785E+03  0.17059772294E+04  0.16880263851E+04 0.  0.
        5    1    3    3  502    0 -0.14723671174E+02 -0.51434097520E+03 -0.55270798747E+03  0.75516331656E+03  0.46999998093E+01 0. -1.
       -5    1    3    3    0  502  0.14723671174E+02  0.51434097520E+03  0.79953835532E+03  0.95081391286E+03  0.46999998093E+01 0.  1.
</event>
<event>
 5   0  0.7242144E-04  0.1714371E+04  0.7818609E-02  0.8753210E-01
        2   -1    0    0  501    0  0.00000000000E+00  0.00000000000E+00  0.11741634940E+04  0.11741634940E+04  0.25500000920E-02 0. -1.
       -2   -1    0    0    0  501  0.00000000000E+00  0.00000000000E+00 -0.62577918169E+03  0.62577918170E+03  0.25500000920E-02 0.  1.
    10030    2    1    2    0    0  0.00000000000E+00  0.00000000000E+00  0.54838431235E+03  0.17999426757E+04  0.17143711039E+04 0.  0.
        3    1    3    3  502    0  0.99558280339E+02 -0.19836438913E+03  0.11434722063E+04  0.11648128514E+04  0.10100000352E+00 0. -1.
       -3    1    3    3    0  502 -0.99558280339E+02  0.19836438913E+03 -0.59508789393E+03  0.63512982434E+03  0.10100000352E+00 0.  1.
</event>
<event>
 5   0  0.7233728E-04  0.1732957E+04  0.7818609E-02  0.8742788E-01
       -2   -1    0    0    0  501  0.00000000000E+00  0.00000000000E+00  0.32992480171E+03  0.32992480172E+03  0.25500000920E-02 0. -1.
        2   -1    0    0  501    0  0.00000000000E+00  0.00000000000E+00 -0.22756238995E+04  0.22756238995E+04  0.25500000920E-02 0.  1.
    10030    2    1    2    0    0  0.00000000000E+00  0.00000000000E+00 -0.19456990978E+04  0.26055487012E+04  0.17329567379E+04 0.  0.
        1    1    3    3  502    0 -0.16894757681E+03  0.83462815780E+03 -0.12135892805E+04  0.14825472631E+04  0.50400001928E-02 0.  1.
       -1    1    3    3    0  502  0.16894757681E+03 -0.83462815780E+03 -0.73210981733E+03  0.11230014382E+04  0.50400001928E-02 0. -1.
</event>
<event>
 5   0  0.7049044E-04  0.1670322E+04  0.7818609E-02  0.8778474E-01
       -2   -1    0    0    0  501  0.00000000000E+00  0.00000000000E+00  0.10394118793E+04  0.10394118793E+04  0.25500000920E-02 0. -1.
        2   -1    0    0  501    0  0.00000000000E+00  0.00000000000E+00 -0.67104661221E+03  0.67104661221E+03  0.25500000920E-02 0.  1.
    10030    2    1    2    0    0  0.00000000000E+00  0.00000000000E+00  0.36836526709E+03  0.17104584915E+04  0.16703219095E+04 0.  0.
        4    1    3    3  502    0 -0.18725361174E+03  0.47233065959E+03 -0.49456573754E+03  0.70905362896E+03  0.12699999809E+01 0.  1.
       -4    1    3    3    0  502  0.18725361174E+03 -0.47233065959E+03  0.86293100463E+03  0.10014048626E+04  0.12699999809E+01 0. -1.
</event>
<event>
 5   0  0.3915701E-04  0.1699048E+04  0.7818609E-02  0.8761907E-01
       -1   -1    0    0    0  501  0.00000000000E+00  0.00000000000E+00  0.31226777316E+03  0.31226777320E+03  0.50400001928E-02 0.  1.
        1   -1    0    0  501    0  0.00000000000E+00  0.00000000000E+00 -0.23111296926E+04  0.23111296927E+04  0.50400001928E-02 0. -1.
    10030    2    1    2    0    0  0.00000000000E+00  0.00000000000E+00 -0.19988619195E+04  0.26233974659E+04  0.16990483485E+04 0.  0.
        2    1    3    3  502    0 -0.66990721141E+03 -0.18927793668E+03 -0.24760982536E+03  0.73885887342E+03  0.25500000920E-02 0.  1.
       -2    1    3    3    0  502  0.66990721141E+03  0.18927793668E+03 -0.17512520941E+04  0.18845385924E+04  0.25500000920E-02 0. -1.
</event>
<event>
 5   0  0.6746664E-04  0.1707659E+04  0.7818609E-02  0.8757008E-01
       -2   -1    0    0    0  501  0.00000000000E+00  0.00000000000E+00  0.73492973138E+03  0.73492973139E+03  0.25500000920E-02 0. -1.
        2   -1    0    0  501    0  0.00000000000E+00  0.00000000000E+00 -0.99196490554E+03  0.99196490554E+03  0.25500000920E-02 0.  1.
    10030    2    1    2    0    0  0.00000000000E+00  0.00000000000E+00 -0.25703517416E+03  0.17268946369E+04  0.17076586328E+04 0.  0.
        5    1    3    3  502    0  0.42377965545E+03  0.11435916274E+03  0.61208109018E+03  0.75321482024E+03  0.46999998093E+01 0. -1.
       -5    1    3    3    0  502 -0.42377965545E+03 -0.11435916274E+03 -0.86911626434E+03  0.97367981668E+03  0.46999998093E+01 0.  1.
</event>
<event>
 5   0  0.3803253E-04  0.1708829E+04  0.7818609E-02  0.8756345E-01
        1   -1    0    0  501    0  0.00000000000E+00  0.00000000000E+00  0.67436489034E+03  0.67436489035E+03  0.50400001928E-02 0.  1.
       -1   -1    0    0    0  501  0.00000000000E+00  0.00000000000E+00 -0.10825358904E+04  0.10825358904E+04  0.50400001928E-02 0. -1.
    10030    2    1    2    0    0  0.00000000000E+00  0.00000000000E+00 -0.40817100007E+03  0.17569007808E+04  0.17088290693E+04 0.  0.
        4    1    3    3  502    0 -0.47565973722E+02  0.53464564914E+03 -0.88755248073E+03  0.10372364778E+04  0.12699999809E+01 0. -1.
       -4    1    3    3    0  502  0.47565973722E+02 -0.53464564914E+03  0.47938148067E+03  0.71966430293E+03  0.12699999809E+01 0.  1.
</event>
<event>
 5   0  0.7233728E-04  0.1669273E+04  0.7818609E-02  0.8779086E-01
       -2   -1    0    0    0  501  0.00000000000E+00  0.00000000000E+00  0.45655553629E+03  0.45655553630E+03  0.25500000920E-02 0. -1.
        2   -1    0    0  501    0  0.00000000000E+00  0.00000000000E+00 -0.15258125097E+04  0.15258125097E+04  0.25500000920E-02 0.  1.
    10030    2    1    2    0    0  0.00000000000E+00  0.00000000000E+00 -0.10692569734E+04  0.19823680460E+04  0.16692730737E+04 0.  0.
        1    1    3    3  502    0 -0.28454788239E+03  0.67149886605E+03 -0.52618172559E+02  0.73119552555E+03  0.50400001928E-02 0. -1.
       -1    1    3    3    0  502  0.28454788239E+03 -0.67149886605E+03 -0.10166388008E+04  0.12511725204E+04  0.50400001928E-02 0.  1.
</event>
<event>
 5   0  0.6746664E-04  0.1702047E+04  0.7818609E-02  0.8760198E-01
       -2   -1    0    0    0  501  0.00000000000E+00  0.00000000000E+00  0.97076687875E+03  0.97076687875E+03  0.25500000920E-02 0. -1.
        2   -1    0    0  501    0  0.00000000000E+00  0.00000000000E+00 -0.74605006245E+03  0.74605006246E+03  0.25500000920E-02 0.  1.
    10030    2    1    2    0    0  0.00000000000E+00  0.00000000000E+00  0.22471681630E+03  0.17168169412E+04  0.17020466392E+04 0.  0.
        5    1    3    3  502    0 -0.24759454926E+03 -0.79782141657E+03  0.27623839812E+03  0.87985897515E+03  0.46999998093E+01 0. -1.
       -5    1    3    3    0  502  0.24759454926E+03  0.79782141657E+03 -0.51521581824E+02  0.83695796606E+03  0.46999998093E+01 0.  1.
</event>
<event>
 5   0  0.7025426E-04  0.1700260E+04  0.7818609E-02  0.8761216E-01
       -2   -1    0    0    0  501  0.00000000000E+00  0.00000000000E+00  0.64534943395E+03  0.64534943396E+03  0.25500000920E-02 0.  1.
        2   -1    0    0  501    0  0.00000000000E+00  0.00000000000E+00 -0.11198907341E+04  0.11198907341E+04  0.25500000920E-02 0. -1.
    10030    2    1    2    0    0  0.00000000000E+00  0.00000000000E+00 -0.47454130011E+03  0.17652401680E+04  0.17002598052E+04 0.  0.
        2    1    3    3  502    0 -0.22841967124E+03  0.78400103150E+03 -0.48271135178E+03  0.94860076574E+03  0.25500000920E-02 0. -1.
       -2    1    3    3    0  502  0.22841967124E+03 -0.78400103150E+03  0.81700516714E+01  0.81663940228E+03  0.25500000920E-02 0.  1.
</event>
<event>
 5   0  0.3723500E-04  0.1706706E+04  0.7818609E-02  0.8757549E-01
       -1   -1    0    0    0  501  0.00000000000E+00  0.00000000000E+00  0.48640064321E+03  0.48640064323E+03  0.50400001928E-02 0.  1.
        1   -1    0    0  501    0  0.00000000000E+00  0.00000000000E+00 -0.14971427180E+04  0.14971427180E+04  0.50400001928E-02 0. -1.
    10030    2    1    2    0    0  0.00000000000E+00  0.00000000000E+00 -0.10107420748E+04  0.19835433613E+04  0.17067058107E+04 0.  0.
        1    1    3    3  502    0  0.55486452477E+03 -0.64385636815E+03 -0.41697065728E+03  0.94672603889E+03  0.50400001928E-02 0.  1.
       -1    1    3    3    0  502 -0.55486452477E+03  0.64385636815E+03 -0.59377141753E+03  0.10368173224E+04  0.50400001928E-02 0. -1.
</event>
<event>
 5   0  0.3803253E-04  0.1713141E+04  0.7818609E-02  0.8753905E-01
       -1   -1    0    0    0  501  0.00000000000E+00  0.00000000000E+00  0.72078591050E+03  0.72078591051E+03  0.50400001928E-02 0.  1.
        1   -1    0    0  501    0  0.00000000000E+00  0.00000000000E+00 -0.10179341948E+04  0.10179341948E+04  0.50400001928E-02 0. -1.
    10030    2    1    2    0    0  0.00000000000E+00  0.00000000000E+00 -0.29714828430E+03  0.17387201053E+04  0.17131405377E+04 0.  0.
        4    1    3    3  502    0 -0.37201828196E+03  0.18429986385E+03 -0.90899211983E+03  0.99931593039E+03  0.12699999809E+01 0. -1.
       -4    1    3    3    0  502  0.37201828196E+03 -0.18429986385E+03  0.61184383553E+03  0.73940417493E+03  0.12699999809E+01 0.  1.
</event>
<event>
 5   0  0.7025426E-04  0.1706516E+04  0.7818609E-02  0.8757657E-01
        2   -1    0    0  501    0  0.00000000000E+00  0.00000000000E+00  0.10128236479E+04  0.10128236479E+04  0.25500000920E-02 0.  1.
       -2   -1    0    0    0  501  0.00000000000E+00  0.00000000000E+00 -0.71883132601E+03  0.71883132602E+03  0.25500000920E-02 0. -1.
    10030    2    1    2    0    0  0.00000000000E+00  0.00000000000E+00  0.29399232191E+03  0.17316549739E+04  0.17065161773E+04 0.  0.
        2    1    3    3  502    0 -0.39756451251E+03 -0.14374212462E+03 -0.60509004605E+03  0.73814179115E+03  0.25500000920E-02 0. -1.
       -2    1    3    3    0  502  0.39756451251E+03  0.14374212462E+03  0.89908236796E+03  0.99351318280E+03  0.25500000920E-02 0.  1.
</event>
<event>
 5   0  0.6746664E-04  0.1689968E+04  0.7818609E-02  0.8767107E-01
        2   -1    0    0  501    0  0.00000000000E+00  0.00000000000E+00  0.17030187314E+04  0.17030187314E+04  0.25500000920E-02 0.  1.
       -2   -1    0    0    0  501  0.00000000000E+00  0.00000000000E+00 -0.41925419955E+03  0.41925419956E+03  0.25500000920E-02 0. -1.
    10030    2    1    2    0    0  0.00000000000E+00  0.00000000000E+00  0.12837645319E+04  0.21222729310E+04  0.16899677572E+04 0.  0.
        5    1    3    3  502    0  0.60880630809E+03  0.31690840551E+03  0.22959836054E+02  0.68674981057E+03  0.46999998093E+01 0. -1.
       -5    1    3    3    0  502 -0.60880630809E+03 -0.31690840551E+03  0.12608046958E+04  0.14355231204E+04  0.46999998093E+01 0.  1.
</event>
<event>
 5   0  0.3803253E-04  0.1719463E+04  0.7818609E-02  0.8750341E-01
       -1   -1    0    0    0  501  0.00000000000E+00  0.00000000000E+00  0.51938597324E+03  0.51938597326E+03  0.50400001928E-02 0.  1.
        1   -1    0    0  501    0  0.00000000000E+00  0.00000000000E+00 -0.14231000899E+04  0.14231000899E+04  0.50400001928E-02 0. -1.
    10030    2    1    2    0    0  0.00000000000E+00  0.00000000000E+00 -0.90371411661E+03  0.19424860631E+04  0.17194629687E+04 0.  0.
        4    1    3    3  502    0  0.45730085042E+03 -0.80865365621E+02 -0.12692151520E+04  0.13515073030E+04  0.12699999809E+01 0. -1.
       -4    1    3    3    0  502 -0.45730085042E+03  0.80865365621E+02  0.36550103537E+03  0.59097876012E+03  0.12699999809E+01 0.  1.
</event>
<event>
 5   0  0.3915701E-04  0.1487663E+04  0.7818609E-02  0.8892698E-01
       -1   -1    0    0    0  501  0.00000000000E+00  0.00000000000E+00  0.99771336776E+03  0.99771336778E+03  0.50400001928E-02 0.  1.
        1   -1    0    0  501    0  0.00000000000E+00  0.00000000000E+00 -0.55455348782E+03  0.55455348785E+03  0.50400001928E-02 0. -1.
    10030    2    1    2    0    0  0.00000000000E+00  0.00000000000E+00  0.44315987994E+03  0.15522668556E+04  0.14876631715E+04 0.  0.
        2    1    3    3  502    0  0.32014673478E+03 -0.61655914935E+03  0.49891611316E+03  0.85531070636E+03  0.25500000920E-02 0.  1.
       -2    1    3    3    0  502 -0.32014673478E+03  0.61655914935E+03 -0.55756233221E+02  0.69695614926E+03  0.25500000920E-02 0. -1.
</event>
<event>
 5   0  0.7049044E-04  0.1690434E+04  0.7818609E-02  0.8766839E-01
       -2   -1    0    0    0  501  0.00000000000E+00  0.00000000000E+00  0.25812088294E+03  0.25812088295E+03  0.25500000920E-02 0.  1.
        2   -1    0    0  501    0  0.00000000000E+00  0.00000000000E+00 -0.27676634447E+04  0.27676634447E+04  0.25500000920E-02 0. -1.
    10030    2    1    2    0    0  0.00000000000E+00  0.00000000000E+00 -0.25095425618E+04  0.30257843277E+04  0.16904339467E+04 0.  0.
        4    1    3    3  502    0 -0.17712690422E+03  0.68254858068E+03 -0.20888620107E+04  0.22046751728E+04  0.12699999809E+01 0. -1.
       -4    1    3    3    0  502  0.17712690422E+03 -0.68254858068E+03 -0.42068055112E+03  0.82110915484E+03  0.12699999809E+01 0.  1.
</event>
<event>
 5   0  0.3713516E-04  0.1704749E+04  0.7818609E-02  0.8758660E-01
        1   -1    0    0  501    0  0.00000000000E+00  0.00000000000E+00  0.65602574945E+03  0.65602574947E+03  0.50400001928E-02 0. -1.
       -1   -1    0    0    0  501  0.00000000000E+00  0.00000000000E+00 -0.11074905307E+04  0.11074905307E+04  0.50400001928E-02 0.  1.
    10030    2    1    2    0    0  0.00000000000E+00  0.00000000000E+00 -0.45146478121E+03  0.17635162801E+04  0.17047490201E+04 0.  0.
        5    1    3    3  502    0 -0.43916703643E+03 -0.60874659647E+03  0.19202055684E+03  0.77481229265E+03  0.46999998093E+01 0. -1.
       -5    1    3    3    0  502  0.43916703643E+03  0.60874659647E+03 -0.64348533805E+03  0.98870398749E+03  0.46999998093E+01 0.  1.
</event>
<event>
 5   0  0.7049044E-04  0.1071243E+04  0.7818609E-02  0.9233682E-01
       -2   -1    0    0    0  501  0.00000000000E+00  0.00000000000E+00  0.20397130464E+03  0.20397130465E+03  0.25500000920E-02 0. -1.
        2   -1    0    0  501    0  0.00000000000E+00  0.00000000000E+00 -0.14065241811E+04  0.14065241811E+04  0.25500000920E-02 0.  1.
    10030    2    1    2    0    0  0.00000000000E+00  0.00000000000E+00 -0.12025528765E+04  0.16104954858E+04  0.10712433379E+04 0.  0.
        4    1    3    3  502    0 -0.43191258162E+03  0.10818034123E+02 -0.10772206559E+04  0.11606340777E+04  0.12699999809E+01 0. -1.
       -4    1    3    3    0  502  0.43191258162E+03 -0.10818034123E+02 -0.12533222059E+03  0.44986140804E+03  0.12699999809E+01 0.  1.
</event>
<event>
 5   0  0.7049044E-04  0.1713900E+04  0.7818609E-02  0.8753476E-01
       -2   -1    0    0    0  501  0.00000000000E+00  0.00000000000E+00  0.68906432579E+03  0.68906432580E+03  0.25500000920E-02 0.  1.
        2   -1    0    0  501    0  0.00000000000E+00  0.00000000000E+00 -0.10657401884E+04  0.10657401884E+04  0.25500000920E-02 0. -1.
    10030    2    1    2    0    0  0.00000000000E+00  0.00000000000E+00 -0.37667586265E+03  0.17548045142E+04  0.17139002823E+04 0.  0.
        4    1    3    3  502    0  0.22192469276E+03  0.13275791926E+03  0.64815928489E+03  0.69784475772E+03  0.12699999809E+01 0.  1.
       -4    1    3    3    0  502 -0.22192469276E+03 -0.13275791926E+03 -0.10248351475E+04  0.10569597565E+04  0.12699999809E+01 0. -1.
</event>
<event>
 5   0  0.7242144E-04  0.1272279E+04  0.7818609E-02  0.9051842E-01
        2   -1    0    0  501    0  0.00000000000E+00  0.00000000000E+00  0.64029570086E+03  0.64029570087E+03  0.25500000920E-02 0. -1.
       -2   -1    0    0    0  501  0.00000000000E+00  0.00000000000E+00 -0.63201040382E+03  0.63201040382E+03  0.25500000920E-02 0.  1.
    10030    2    1    2    0    0  0.00000000000E+00  0.00000000000E+00  0.82852970476E+01  0.12723061047E+04  0.12722791273E+04 0.  0.
        3    1    3    3  502    0  0.38764679558E+03  0.18409811300E+03  0.47373899908E+03  0.63921107843E+03  0.10100000352E+00 0. -1.
       -3    1    3    3    0  502 -0.38764679558E+03 -0.18409811300E+03 -0.46545370203E+03  0.63309502626E+03  0.10100000352E+00 0.  1.
</event>
<event>
 5   0  0.3915701E-04  0.1700343E+04  0.7818609E-02  0.8761169E-01
       -1   -1    0    0    0  501  0.00000000000E+00  0.00000000000E+00  0.11448468965E+04  0.11448468965E+04  0.50400001928E-02 0.  1.
        1   -1    0    0  501    0  0.00000000000E+00  0.00000000000E+00 -0.63134331085E+03  0.63134331087E+03  0.50400001928E-02 0. -1.
    10030    2    1    2    0    0  0.00000000000E+00  0.00000000000E+00  0.51350358564E+03  0.17761902074E+04  0.17003428243E+04 0.  0.
        2    1    3    3  502    0 -0.38228375323E+03 -0.68704036467E+03  0.59463996976E+03  0.98577990663E+03  0.25500000920E-02 0.  1.
       -2    1    3    3    0  502  0.38228375323E+03  0.68704036467E+03 -0.81136384124E+02  0.79041030073E+03  0.25500000920E-02 0. -1.
</event>
<event>
 5   0  0.3723500E-04  0.1673173E+04  0.7818609E-02  0.8776814E-01
        1   -1    0    0  501    0  0.00000000000E+00  0.00000000000E+00  0.82384006918E+03  0.82384006920E+03  0.50400001928E-02 0.  1.
       -1   -1    0    0    0  501  0.00000000000E+00  0.00000000000E+00 -0.84953031143E+03  0.84953031145E+03  0.50400001928E-02 0. -1.
    10030    2    1    2    0    0  0.00000000000E+00  0.00000000000E+00 -0.25690242251E+02  0.16733703806E+04  0.16731731657E+04 0.  0.
        1    1    3    3  502    0  0.28264854014E+03 -0.70534167117E+03 -0.36285785671E+03  0.84205872392E+03  0.50400001928E-02 0. -1.
       -1    1    3    3    0  502 -0.28264854014E+03  0.70534167117E+03  0.33716761446E+03  0.83131165672E+03  0.50400001928E-02 0.  1.
</event>
<event>
 5   0  0.3713516E-04  0.1792321E+04  0.7818609E-02  0.8710394E-01
       -1   -1    0    0    0  501  0.00000000000E+00  0.00000000000E+00  0.48819886844E+03  0.48819886846E+03  0.50400001928E-02 0. -1.
        1   -1    0    0  501    0  0.00000000000E+00  0.00000000000E+00 -0.16450330770E+04  0.16450330771E+04  0.50400001928E-02 0.  1.
    10030    2    1    2    0    0  0.00000000000E+00  0.00000000000E+00 -0.11568342086E+04  0.21332319455E+04  0.17923206039E+04 0.  0.
        5    1    3    3  502    0 -0.60717493851E+02  0.62019815096E+03  0.18808785561E+03  0.65094661221E+03  0.46999998093E+01 0. -1.
       -5    1    3    3    0  502  0.60717493851E+02 -0.62019815096E+03 -0.13449220642E+04  0.14822853333E+04  0.46999998093E+01 0.  1.
</event>
<event>
 5   0  0.7233728E-04  0.1386032E+04  0.7818609E-02  0.8963992E-01
       -2   -1    0    0    0  501  0.00000000000E+00  0.00000000000E+00  0.69569330208E+03  0.69569330208E+03  0.25500000920E-02 0. -1.
        2   -1    0    0  501    0  0.00000000000E+00  0.00000000000E+00 -0.69034895599E+03  0.69034895599E+03  0.25500000920E-02 0.  1.
    10030    2    1    2    0    0  0.00000000000E+00  0.00000000000E+00  0.53443460871E+01  0.13860422581E+04  0.13860319546E+04 0.  0.
        1    1    3    3  502    0  0.31190991145E+03 -0.61372203509E+03  0.82225360488E+02  0.69332787276E+03  0.50400001928E-02 0.  1.
       -1    1    3    3    0  502 -0.31190991145E+03  0.61372203509E+03 -0.76881014401E+02  0.69271438531E+03  0.50400001928E-02 0. -1.
</event>
<event>
 5   0  0.6746664E-04  0.1726327E+04  0.7818609E-02  0.8746490E-01
        2   -1    0    0  501    0  0.00000000000E+00  0.00000000000E+00  0.17831757584E+04  0.17831757584E+04  0.25500000920E-02 0. -1.
       -2   -1    0    0    0  501  0.00000000000E+00  0.00000000000E+00 -0.41782281586E+03  0.41782281587E+03  0.25500000920E-02 0.  1.
    10030    2    1    2    0    0  0.00000000000E+00  0.00000000000E+00  0.13653529426E+04  0.22009985743E+04  0.17263273346E+04 0.  0.
        5    1    3    3  502    0  0.33325083187E+03 -0.22165647995E+03  0.16577015466E+04  0.17053399132E+04  0.46999998093E+01 0. -1.
       -5    1    3    3    0  502 -0.33325083187E+03  0.22165647995E+03 -0.29234860401E+03  0.49565866109E+03  0.46999998093E+01 0.  1.
</event>
<event>
 5   0  0.7049044E-04  0.1698206E+04  0.7818609E-02  0.8762388E-01
        2   -1    0    0  501    0  0.00000000000E+00  0.00000000000E+00  0.10961824198E+04  0.10961824198E+04  0.25500000920E-02 0. -1.
       -2   -1    0    0    0  501  0.00000000000E+00  0.00000000000E+00 -0.65771545246E+03  0.65771545247E+03  0.25500000920E-02 0.  1.
    10030    2    1    2    0    0  0.00000000000E+00  0.00000000000E+00  0.43846696734E+03  0.17538978723E+04  0.16982062492E+04 0.  0.
        4    1    3    3  502    0  0.66524607684E+03  0.50444792548E+03  0.37908139947E+03  0.91691023148E+03  0.12699999809E+01 0. -1.
       -4    1    3    3    0  502 -0.66524607684E+03 -0.50444792548E+03  0.59385567873E+02  0.83698764079E+03  0.12699999809E+01 0.  1.
</event>
<event>
 5   0  0.3713516E-04  0.1725748E+04  0.7818609E-02  0.8746814E-01
       -1   -1    0    0    0  501  0.00000000000E+00  0.00000000000E+00  0.77302463450E+03  0.77302463451E+03  0.50400001928E-02 0. -1.
        1   -1    0    0  501    0  0.00000000000E+00  0.00000000000E+00 -0.96316625485E+03  0.96316625487E+03  0.50400001928E-02 0.  1.
    10030    2    1    2    0    0  0.00000000000E+00  0.00000000000E+00 -0.19014162036E+03  0.17361908894E+04  0.17257476550E+04 0.  0.
        5    1    3    3  502    0 -0.60971033986E+03  0.18398955221E+03 -0.68077101775E+03  0.93223930536E+03  0.46999998093E+01 0.  1.
       -5    1    3    3    0  502  0.60971033986E+03 -0.18398955221E+03  0.49062939740E+03  0.80395158402E+03  0.46999998093E+01 0. -1.
</event>
<event>
 5   0  0.3723500E-04  0.1691390E+04  0.7818609E-02  0.8766290E-01
        1   -1    0    0  501    0  0.00000000000E+00  0.00000000000E+00  0.57145371474E+03  0.57145371476E+03  0.50400001928E-02 0. -1.
       -1   -1    0    0    0  501  0.00000000000E+00  0.00000000000E+00 -0.12515451758E+04  0.12515451758E+04  0.50400001928E-02 0.  1.
    10030    2    1    2    0    0  0.00000000000E+00  0.00000000000E+00 -0.68009146109E+03  0.18229988906E+04  0.16913901264E+04 0.  0.
        1    1    3    3  502    0 -0.83193593673E+03 -0.15028951268E+03 -0.36404486830E+03  0.92045260964E+03  0.50400001928E-02 0.  1.
       -1    1    3    3    0  502  0.83193593673E+03  0.15028951268E+03 -0.31604659279E+03  0.90254628096E+03  0.50400001928E-02 0. -1.
</event>
<event>
 5   0  0.3915701E-04  0.1680285E+04  0.7818609E-02  0.8772689E-01
       -1   -1    0    0    0  501  0.00000000000E+00  0.00000000000E+00  0.42646604575E+03  0.42646604578E+03  0.50400001928E-02 0.  1.
        1   -1    0    0  501    0  0.00000000000E+00  0.00000000000E+00 -0.16550888104E+04  0.16550888104E+04  0.50400001928E-02 0. -1.
    10030    2    1    2    0    0  0.00000000000E+00  0.00000000000E+00 -0.12286227646E+04  0.20815548562E+04  0.16802847144E+04 0.  0.
        2    1    3    3  502    0  0.92416945530E+02 -0.21481815943E+03 -0.16139568215E+04  0.16308109501E+04  0.25500000920E-02 0. -1.
       -2    1    3    3    0  502 -0.92416945530E+02  0.21481815943E+03  0.38533405686E+03  0.45074390603E+03  0.25500000920E-02 0.  1.
</event>
<event>
 5   0  0.3915701E-04  0.1739211E+04  0.7818609E-02  0.8739311E-01
       -1   -1    0    0    0  501  0.00000000000E+00  0.00000000000E+00  0.12496849079E+04  0.12496849079E+04  0.50400001928E-02 0.  1.
        1   -1    0    0  501    0  0.00000000000E+00  0.00000000000E+00 -0.60512376093E+03  0.60512376095E+03  0.50400001928E-02 0. -1.
    10030    2    1    2    0    0  0.00000000000E+00  0.00000000000E+00  0.64456114693E+03  0.18548086688E+04  0.17392113517E+04 0.  0.
        2    1    3    3  502    0 -0.79047617830E+03 -0.21308030223E+03  0.96075003426E+01  0.81874789021E+03  0.25500000920E-02 0. -1.
       -2    1    3    3    0  502  0.79047617830E+03  0.21308030223E+03  0.63495364659E+03  0.10360607786E+04  0.25500000920E-02 0.  1.
</event>
<event>
 5   0  0.3713516E-04  0.1708033E+04  0.7818609E-02  0.8756796E-01
       -1   -1    0    0    0  501  0.00000000000E+00  0.00000000000E+00  0.12313453175E+04  0.12313453175E+04  0.50400001928E-02 0.  1.
        1   -1    0    0  501    0  0.00000000000E+00  0.00000000000E+00 -0.59231472137E+03  0.59231472139E+03  0.50400001928E-02 0. -1.
    10030    2    1    2    0    0  0.00000000000E+00  0.00000000000E+00  0.63903059610E+03  0.18236600389E+04  0.17080327382E+04 0.  0.
        5    1    3    3  502    0  0.65215699280E+03 -0.33631648182E+03 -0.14698894982E+03  0.74836178455E+03  0.46999998093E+01 0. -1.
       -5    1    3    3    0  502 -0.65215699280E+03  0.33631648182E+03  0.78601954592E+03  0.10752982543E+04  0.46999998093E+01 0.  1.
</event>
<event>
 5   0  0.7233728E-04  0.1698698E+04  0.7818609E-02  0.8762107E-01
        2   -1    0    0  501    0  0.00000000000E+00  0.00000000000E+00  0.69518455845E+03  0.69518455845E+03  0.25500000920E-02 0. -1.
       -2   -1    0    0    0  501  0.00000000000E+00  0.00000000000E+00 -0.10377010599E+04  0.10377010599E+04  0.25500000920E-02 0.  1.
    10030    2    1    2    0    0  0.00000000000E+00  0.00000000000E+00 -0.34251650141E+03  0.17328856183E+04  0.16986980345E+04 0.  0.
        1    1    3    3  502    0  0.33588574051E+02 -0.80467954502E+03  0.10390427430E+03  0.81205508478E+03  0.50400001928E-02 0. -1.
       -1    1    3    3    0  502 -0.33588574051E+02  0.80467954502E+03 -0.44642077571E+03  0.92083053354E+03  0.50400001928E-02 0.  1.
</event>
<event>
 5   0  0.3915701E-04  0.1549279E+04  0.7818609E-02  0.8852328E-01
       -1   -1    0    0    0  501  0.00000000000E+00  0.00000000000E+00  0.87054870853E+03  0.87054870854E+03  0.50400001928E-02 0.  1.
        1   -1    0    0  501    0  0.00000000000E+00  0.00000000000E+00 -0.68929687866E+03  0.68929687868E+03  0.50400001928E-02 0. -1.
    10030    2    1    2    0    0  0.00000000000E+00  0.00000000000E+00  0.18125182987E+03  0.15598455872E+04  0.15492791970E+04 0.  0.
        2    1    3    3  502    0  0.48302738201E+03 -0.27287149973E+03  0.63495373667E+03  0.84317290923E+03  0.25500000920E-02 0.  1.
       -2    1    3    3    0  502 -0.48302738201E+03  0.27287149973E+03 -0.45370190681E+03  0.71667267799E+03  0.25500000920E-02 0. -1.
</event>
<event>
 5   0  0.3723500E-04  0.2103074E+04  0.7818609E-02  0.8559890E-01
        1   -1    0    0  501    0  0.00000000000E+00  0.00000000000E+00  0.13435652332E+04  0.13435652332E+04  0.50400001928E-02 0.  1.
       -1   -1    0    0    0  501  0.00000000000E+00  0.00000000000E+00 -0.82298210036E+03  0.82298210037E+03  0.50400001928E-02 0. -1.
    10030    2    1    2    0    0  0.00000000000E+00  0.00000000000E+00  0.52058313287E+03  0.21665473336E+04  0.21030740716E+04 0.  0.
        1    1    3    3  502    0  0.15665471012E+03 -0.10286696340E+04  0.10396102532E+03  0.10457101935E+04  0.50400001928E-02 0. -1.
       -1    1    3    3    0  502 -0.15665471012E+03  0.10286696340E+04  0.41662210755E+03  0.11208371401E+04  0.50400001928E-02 0.  1.
</event>
<event>
 5   0  0.7049044E-04  0.1704302E+04  0.7818609E-02  0.8758915E-01
       -2   -1    0    0    0  501  0.00000000000E+00  0.00000000000E+00  0.58893554479E+03  0.58893554479E+03  0.25500000920E-02 0.  1.
        2   -1    0    0  501    0  0.00000000000E+00  0.00000000000E+00 -0.12330059461E+04  0.12330059461E+04  0.25500000920E-02 0. -1.
    10030    2    1    2    0    0  0.00000000000E+00  0.00000000000E+00 -0.64407040130E+03  0.18219414909E+04  0.17043016501E+04 0.  0.
        4    1    3    3  502    0 -0.48131621357E+03  0.54090133165E+03 -0.80240698259E+03  0.10807858838E+04  0.12699999809E+01 0. -1.
       -4    1    3    3    0  502  0.48131621357E+03 -0.54090133165E+03  0.15833658129E+03  0.74115560708E+03  0.12699999809E+01 0.  1.
</event>
<event>
 5   0  0.3713516E-04  0.1826689E+04  0.7818609E-02  0.8692234E-01
        1   -1    0    0  501    0  0.00000000000E+00  0.00000000000E+00  0.10180590237E+04  0.10180590237E+04  0.50400001928E-02 0. -1.
       -1   -1    0    0    0  501  0.00000000000E+00  0.00000000000E+00 -0.81940039929E+03  0.81940039931E+03  0.50400001928E-02 0.  1.
    10030    2    1    2    0    0  0.00000000000E+00  0.00000000000E+00  0.19865862442E+03  0.18374594230E+04  0.18266887754E+04 0.  0.
        5    1    3    3  502    0  0.41520592836E+01  0.17871558963E+03 -0.80161878327E+03  0.82132287516E+03  0.46999998093E+01 0.  1.
       -5    1    3    3    0  502 -0.41520592836E+01 -0.17871558963E+03  0.10002774077E+04  0.10161365479E+04  0.46999998093E+01 0. -1.
</event>
<event>
 5   0  0.3713516E-04  0.1738171E+04  0.7818609E-02  0.8739888E-01
        1   -1    0    0  501    0  0.00000000000E+00  0.00000000000E+00  0.15285917307E+04  0.15285917307E+04  0.50400001928E-02 0. -1.
       -1   -1    0    0    0  501  0.00000000000E+00  0.00000000000E+00 -0.49412129001E+03  0.49412129003E+03  0.50400001928E-02 0.  1.
    10030    2    1    2    0    0  0.00000000000E+00  0.00000000000E+00  0.10344704406E+04  0.20227130207E+04  0.17381711284E+04 0.  0.
        5    1    3    3  502    0  0.55221979824E+03 -0.26348923674E+03  0.12354517598E+04  0.13786719785E+04  0.46999998093E+01 0. -1.
       -5    1    3    3    0  502 -0.55221979824E+03  0.26348923674E+03 -0.20098131914E+03  0.64404104224E+03  0.46999998093E+01 0.  1.
</event>
<event>
 5   0  0.3915701E-04  0.1724827E+04  0.7818609E-02  0.8747330E-01
        1   -1    0    0  501    0  0.00000000000E+00  0.00000000000E+00  0.70963535551E+03  0.70963535553E+03  0.50400001928E-02 0.  1.
       -1   -1    0    0    0  501  0.00000000000E+00  0.00000000000E+00 -0.10480829421E+04  0.10480829421E+04  0.50400001928E-02 0. -1.
    10030    2    1    2    0    0  0.00000000000E+00  0.00000000000E+00 -0.33844758657E+03  0.17577182976E+04  0.17248266130E+04 0.  0.
        2    1    3    3  502    0 -0.81238494509E+03  0.10618758841E+03  0.10519104947E+03  0.82602073814E+03  0.25500000920E-02 0.  1.
       -2    1    3    3    0  502  0.81238494509E+03 -0.10618758841E+03 -0.44363863604E+03  0.93169755948E+03  0.25500000920E-02 0. -1.
</event>
<event>
 5   0  0.7233728E-04  0.1631265E+04  0.7818609E-02  0.8801568E-01
        2   -1    0    0  501    0  0.00000000000E+00  0.00000000000E+00  0.10534750438E+04  0.10534750438E+04  0.25500000920E-02 0. -1.
       -2   -1    0    0    0  501  0.00000000000E+00  0.00000000000E+00 -0.63148726778E+03  0.63148726779E+03  0.25500000920E-02 0.  1.
    10030    2    1    2    0    0  0.00000000000E+00  0.00000000000E+00  0.42198777600E+03  0.16849623116E+04  0.16312646347E+04 0.  0.
        1    1    3    3  502    0  0.66612383745E+03  0.45196530146E+03  0.34670559733E+03  0.87646926460E+03  0.50400001928E-02 0. -1.
       -1    1    3    3    0  502 -0.66612383745E+03 -0.45196530146E+03  0.75282178669E+02  0.80849304697E+03  0.50400001928E-02 0.  1.
</event>
<event>
 5   0  0.3915701E-04  0.1388067E+04  0.7818609E-02  0.8962502E-01
       -1   -1    0    0    0  501  0.00000000000E+00  0.00000000000E+00  0.24179341343E+03  0.24179341348E+03  0.50400001928E-02 0. -1.
        1   -1    0    0  501    0  0.00000000000E+00  0.00000000000E+00 -0.19921230735E+04  0.19921230735E+04  0.50400001928E-02 0.  1.
    10030    2    1    2    0    0  0.00000000000E+00  0.00000000000E+00 -0.17503296601E+04  0.22339164870E+04  0.13880666237E+04 0.  0.
        2    1    3    3  502    0  0.37219992605E+03  0.47585298449E+03 -0.32534934928E+03  0.68616400873E+03  0.25500000920E-02 0. -1.
       -2    1    3    3    0  502 -0.37219992605E+03 -0.47585298449E+03 -0.14249803108E+04  0.15477524782E+04  0.25500000920E-02 0.  1.
</event>
<event>
 5   0  0.7233728E-04  0.1729177E+04  0.7818609E-02  0.8744896E-01
       -2   -1    0    0    0  501  0.00000000000E+00  0.00000000000E+00  0.62939204435E+03  0.62939204435E+03  0.25500000920E-02 0. -1.
        2   -1    0    0  501    0  0.00000000000E+00  0.00000000000E+00 -0.11876751170E+04  0.11876751170E+04  0.25500000920E-02 0.  1.
    10030    2    1    2    0    0  0.00000000000E+00  0.00000000000E+00 -0.55828307263E+03  0.18170671613E+04  0.17291769949E+04 0.  0.
        1    1    3    3  502    0  0.15623977608E+02 -0.51228286158E+03 -0.10108342085E+04  0.11333418002E+04  0.50400001928E-02 0.  1.
       -1    1    3    3    0  502 -0.15623977608E+02  0.51228286158E+03  0.45255113583E+03  0.68372536118E+03  0.50400001928E-02 0. -1.
</event>
<event>
 5   0  0.7242144E-04  0.1360857E+04  0.7818609E-02  0.8982650E-01
        2   -1    0    0  501    0  0.00000000000E+00  0.00000000000E+00  0.71138958540E+03  0.71138958540E+03  0.25500000920E-02 0.  1.
       -2   -1    0    0    0  501  0.00000000000E+00  0.00000000000E+00 -0.65081447476E+03  0.65081447476E+03  0.25500000920E-02 0. -1.
    10030    2    1    2    0    0  0.00000000000E+00  0.00000000000E+00  0.60575110643E+02  0.13622040602E+04  0.13608565529E+04 0.  0.
        3    1    3    3  502    0 -0.27357100112E+02 -0.26313379258E+03  0.65780129246E+03  0.70900659678E+03  0.10100000352E+00 0.  1.
       -3    1    3    3    0  502  0.27357100112E+02  0.26313379258E+03 -0.59722618181E+03  0.65319746338E+03  0.10100000352E+00 0. -1.
</event>
<event>
 5   0  0.7242144E-04  0.1272311E+04  0.7818609E-02  0.9051816E-01
        2   -1    0    0  501    0  0.00000000000E+00  0.00000000000E+00  0.86717667221E+03  0.86717667221E+03  0.25500000920E-02 0. -1.
       -2   -1    0    0    0  501  0.00000000000E+00  0.00000000000E+00 -0.46667945122E+03  0.46667945122E+03  0.25500000920E-02 0.  1.
    10030    2    1    2    0    0  0.00000000000E+00  0.00000000000E+00  0.40049722100E+03  0.13338561234E+04  0.12723105494E+04 0.  0.
        3    1    3    3  502    0  0.46459848551E+03  0.31529038928E+03 -0.11327233307E+03  0.57279177189E+03  0.10100000352E+00 0.  1.
       -3    1    3    3    0  502 -0.46459848551E+03 -0.31529038928E+03  0.51376955406E+03  0.76106435154E+03  0.10100000352E+00 0. -1.
</event>
<event>
 5   0  0.3723500E-04  0.1633854E+04  0.7818609E-02  0.8800016E-01
       -1   -1    0    0    0  501  0.00000000000E+00  0.00000000000E+00  0.65496764757E+03  0.65496764759E+03  0.50400001928E-02 0.  1.
        1   -1    0    0  501    0  0.00000000000E+00  0.00000000000E+00 -0.10189348476E+04  0.10189348476E+04  0.50400001928E-02 0. -1.
    10030    2    1    2    0    0  0.00000000000E+00  0.00000000000E+00 -0.36396719998E+03  0.16739024952E+04  0.16338535554E+04 0.  0.
        1    1    3    3  502    0  0.69232695236E+02 -0.81378480736E+03 -0.20060835265E+03  0.84100094527E+03  0.50400001928E-02 0.  1.
       -1    1    3    3    0  502 -0.69232695236E+02  0.81378480736E+03 -0.16335884733E+03  0.83290154988E+03  0.50400001928E-02 0. -1.
</event>
<event>
 5   0  0.3713516E-04  0.1753378E+04  0.7818609E-02  0.8731493E-01
       -1   -1    0    0    0  501  0.00000000000E+00  0.00000000000E+00  0.23420118345E+04  0.23420118345E+04  0.50400001928E-02 0.  1.
        1   -1    0    0  501    0  0.00000000000E+00  0.00000000000E+00 -0.32817253955E+03  0.32817253959E+03  0.50400001928E-02 0. -1.
    10030    2    1    2    0    0  0.00000000000E+00  0.00000000000E+00  0.20138392949E+04  0.26701843741E+04  0.17533784206E+04 0.  0.
        5    1    3    3  502    0  0.20314852488E+03 -0.44206576278E+03 -0.10370807963E+03  0.49746247855E+03  0.46999998093E+01 0. -1.
       -5    1    3    3    0  502 -0.20314852488E+03  0.44206576278E+03  0.21175473746E+04  0.21727218955E+04  0.46999998093E+01 0.  1.
</event>
<event>
 5   0  0.7242144E-04  0.1695720E+04  0.7818609E-02  0.8763809E-01
       -2   -1    0    0    0  501  0.00000000000E+00  0.00000000000E+00  0.55860458810E+03  0.55860458810E+03  0.25500000920E-02 0.  1.
        2   -1    0    0  501    0  0.00000000000E+00  0.00000000000E+00 -0.12868964580E+04  0.12868964580E+04  0.25500000920E-02 0. -1.
    10030    2    1    2    0    0  0.00000000000E+00  0.00000000000E+00 -0.72829186992E+03  0.18455010461E+04  0.16957196300E+04 0.  0.
        3    1    3    3  502    0 -0.51788714511E+03 -0.10832965483E+03 -0.10851784277E+04  0.12072922758E+04  0.10100000352E+00 0. -1.
       -3    1    3    3    0  502  0.51788714511E+03  0.10832965483E+03  0.35688655775E+03  0.63820877030E+03  0.10100000352E+00 0.  1.
</event>
<event>
 5   0  0.3713516E-04  0.1695816E+04  0.7818609E-02  0.8763754E-01
        1   -1    0    0  501    0  0.00000000000E+00  0.00000000000E+00  0.17112625186E+04  0.17112625186E+04  0.50400001928E-02 0. -1.
       -1   -1    0    0    0  501  0.00000000000E+00  0.00000000000E+00 -0.42012741058E+03  0.42012741061E+03  0.50400001928E-02 0.  1.
    10030    2    1    2    0    0  0.00000000000E+00  0.00000000000E+00  0.12911351080E+04  0.21313899292E+04  0.16958163707E+04 0.  0.
        5    1    3    3  502    0 -0.58057234375E+03  0.61792149289E+03  0.65300139366E+03  0.10701981722E+04  0.46999998093E+01 0. -1.
       -5    1    3    3    0  502  0.58057234375E+03 -0.61792149289E+03  0.63813371433E+03  0.10611917570E+04  0.46999998093E+01 0.  1.
</event>
<event>
 5   0  0.7025426E-04  0.1731405E+04  0.7818609E-02  0.8743653E-01
        2   -1    0    0  501    0  0.00000000000E+00  0.00000000000E+00  0.19328492686E+04  0.19328492686E+04  0.25500000920E-02 0.  1.
       -2   -1    0    0    0  501  0.00000000000E+00  0.00000000000E+00 -0.38773881837E+03  0.38773881838E+03  0.25500000920E-02 0. -1.
    10030    2    1    2    0    0  0.00000000000E+00  0.00000000000E+00  0.15451104502E+04  0.23205880870E+04  0.17314048533E+04 0.  0.
        2    1    3    3  502    0 -0.61296261629E+03 -0.60475528476E+03  0.65276154730E+03  0.10805321657E+04  0.25500000920E-02 0.  1.
       -2    1    3    3    0  502  0.61296261629E+03  0.60475528476E+03  0.89234890293E+03  0.12400559213E+04  0.25500000920E-02 0. -1.
</event>
<event>
 5   0  0.3635143E-04  0.1585114E+04  0.7818609E-02  0.8829746E-01
       -1   -1    0    0    0  501  0.00000000000E+00  0.00000000000E+00  0.79318154003E+03  0.79318154004E+03  0.50400001928E-02 0. -1.
        1   -1    0    0  501    0  0.00000000000E+00  0.00000000000E+00 -0.79193251008E+03  0.79193251010E+03  0.50400001928E-02 0.  1.
    10030    2    1    2    0    0  0.00000000000E+00  0.00000000000E+00  0.12490299479E+01  0.15851140501E+04  0.15851135580E+04 0.  0.
        3    1    3    3  502    0 -0.13400648408E+03 -0.57128019437E+03 -0.53213022761E+03  0.79213722775E+03  0.10100000352E+00 0.  1.
       -3    1    3    3    0  502  0.13400648408E+03  0.57128019437E+03  0.53337925756E+03  0.79297682239E+03  0.10100000352E+00 0. -1.
</event>
<event>
 5   0  0.3723500E-04  0.1674738E+04  0.7818609E-02  0.8775905E-01
       -1   -1    0    0    0  501  0.00000000000E+00  0.00000000000E+00  0.53879742250E+03  0.53879742252E+03  0.50400001928E-02 0. -1.
        1   -1    0    0  501    0  0.00000000000E+00  0.00000000000E+00 -0.13013926742E+04  0.13013926742E+04  0.50400001928E-02 0.  1.
    10030    2    1    2    0    0  0.00000000000E+00  0.00000000000E+00 -0.76259525169E+03  0.18401900967E+04  0.16747382106E+04 0.  0.
        1    1    3    3  502    0 -0.38863046155E+03 -0.50968485146E+03  0.21080252698E+03  0.67472215679E+03  0.50400001928E-02 0. -1.
       -1    1    3    3    0  502  0.38863046155E+03  0.50968485146E+03 -0.97339777868E+03  0.11654679399E+04  0.50400001928E-02 0.  1.
</event>
<event>
 5   0  0.3803253E-04  0.1254715E+04  0.7818609E-02  0.9066268E-01
        1   -1    0    0  501    0  0.00000000000E+00  0.00000000000E+00  0.98816551224E+03  0.98816551226E+03  0.50400001928E-02 0. -1.
       -1   -1    0    0    0  501  0.00000000000E+00  0.00000000000E+00 -0.39829088998E+03  0.39829089001E+03  0.50400001928E-02 0.  1.
    10030    2    1    2    0    0  0.00000000000E+00  0.00000000000E+00  0.58987462227E+03  0.13864564023E+04  0.12547148223E+04 0.  0.
        4    1    3    3  502    0  0.13240487869E+03 -0.57236806700E+03  0.53813576054E+03  0.79669816474E+03  0.12699999809E+01 0. -1.
       -4    1    3    3    0  502 -0.13240487869E+03  0.57236806700E+03  0.51738861724E+02  0.58975823753E+03  0.12699999809E+01 0.  1.
</event>
<event>
 5   0  0.7049044E-04  0.1666527E+04  0.7818609E-02  0.8780689E-01
        2   -1    0    0  501    0  0.00000000000E+00  0.00000000000E+00  0.11468096782E+04  0.11468096782E+04  0.25500000920E-02 0. -1.
       -2   -1    0    0    0  501  0.00000000000E+00  0.00000000000E+00 -0.60544325051E+03  0.60544325052E+03  0.25500000920E-02 0.  1.
    10030    2    1    2    0    0  0.00000000000E+00  0.00000000000E+00  0.54136642766E+03  0.17522529287E+04  0.16665271426E+04 0.  0.
        4    1    3    3  502    0  0.44545283433E+03 -0.44431086492E+03 -0.30375923825E+03  0.69864988372E+03  0.12699999809E+01 0.  1.
       -4    1    3    3    0  502 -0.44545283433E+03  0.44431086492E+03  0.84512566591E+03  0.10536030450E+04  0.12699999809E+01 0. -1.
</event>
<event>
 5   0  0.3635143E-04  0.1604801E+04  0.7818609E-02  0.8817604E-01
       -1   -1    0    0    0  501  0.00000000000E+00  0.00000000000E+00  0.79183012772E+03  0.79183012773E+03  0.50400001928E-02 0. -1.
        1   -1    0    0  501    0  0.00000000000E+00  0.00000000000E+00 -0.81311217352E+03  0.81311217353E+03  0.50400001928E-02 0.  1.
    10030    2    1    2    0    0  0.00000000000E+00  0.00000000000E+00 -0.21282045803E+02  0.16049423013E+04  0.16048011917E+04 0.  0.
        3    1    3    3  502    0 -0.36508295637E+03  0.69184287159E+03 -0.18930325941E+03  0.80484026876E+03  0.10100000352E+00 0.  1.
       -3    1    3    3    0  502  0.36508295637E+03 -0.69184287159E+03  0.16802121361E+03  0.80010203251E+03  0.10100000352E+00 0. -1.
</event>
<event>
 5   0  0.3713516E-04  0.1467473E+04  0.7818609E-02  0.8906376E-01
       -1   -1    0    0    0  501  0.00000000000E+00  0.00000000000E+00  0.60671936671E+03  0.60671936673E+03  0.50400001928E-02 0.  1.
        1   -1    0    0  501    0  0.00000000000E+00  0.00000000000E+00 -0.88734505233E+03  0.88734505234E+03  0.50400001928E-02 0. -1.
    10030    2    1    2    0    0  0.00000000000E+00  0.00000000000E+00 -0.28062568562E+03  0.14940644191E+04  0.14674732410E+04 0.  0.
        5    1    3    3  502    0  0.80439758561E+02 -0.43905228049E+03  0.45257064222E+03  0.63567266415E+03  0.46999998093E+01 0.  1.
       -5    1    3    3    0  502 -0.80439758561E+02  0.43905228049E+03 -0.73319632784E+03  0.85839175492E+03  0.46999998093E+01 0. -1.
</event>
<event>
 5   0  0.3803253E-04  0.1672401E+04  0.7818609E-02  0.8777264E-01
       -1   -1    0    0    0  501  0.00000000000E+00  0.00000000000E+00  0.91508666538E+03  0.91508666540E+03  0.50400001928E-02 0.  1.
        1   -1    0    0  501    0  0.00000000000E+00  0.00000000000E+00 -0.76411459099E+03  0.76411459101E+03  0.50400001928E-02 0. -1.
    10030    2    1    2    0    0  0.00000000000E+00  0.00000000000E+00  0.15097207439E+03  0.16792012564E+04  0.16724007571E+04 0.  0.
        4    1    3    3  502    0  0.62372164260E+03 -0.40082404036E+03 -0.31279156056E+03  0.80469172485E+03  0.12699999809E+01 0. -1.
       -4    1    3    3    0  502 -0.62372164260E+03  0.40082404036E+03  0.46376363495E+03  0.87450953156E+03  0.12699999809E+01 0.  1.
</event>
<event>
 5   0  0.7025426E-04  0.1694584E+04  0.7818609E-02  0.8764459E-01
       -2   -1    0    0    0  501  0.00000000000E+00  0.00000000000E+00  0.50194110101E+03  0.50194110101E+03  0.25500000920E-02 0. -1.
        2   -1    0    0  501    0  0.00000000000E+00  0.00000000000E+00 -0.14302553989E+04  0.14302553989E+04  0.25500000920E-02 0.  1.
    10030    2    1    2    0    0  0.00000000000E+00  0.00000000000E+00 -0.92831429793E+03  0.19321964999E+04  0.16945842790E+04 0.  0.
        2    1    3    3  502    0 -0.40524316656E+03  0.38987015697E+03 -0.11868103912E+04  0.13132934432E+04  0.25500000920E-02 0.  1.
       -2    1    3    3    0  502  0.40524316656E+03 -0.38987015697E+03  0.25849609330E+03  0.61890305670E+03  0.25500000920E-02 0. -1.
</event>
<event>
 5   0  0.7049044E-04  0.1691395E+04  0.7818609E-02  0.8766287E-01
       -2   -1    0    0    0  501  0.00000000000E+00  0.00000000000E+00  0.43380406684E+03  0.43380406684E+03  0.25500000920E-02 0. -1.
        2   -1    0    0  501    0  0.00000000000E+00  0.00000000000E+00 -0.16486804663E+04  0.16486804663E+04  0.25500000920E-02 0.  1.
    10030    2    1    2    0    0  0.00000000000E+00  0.00000000000E+00 -0.12148763994E+04  0.20824845331E+04  0.16913950351E+04 0.  0.
        4    1    3    3  502    0  0.26003268882E+03 -0.67099843672E+03 -0.60483004165E+02  0.72216044479E+03  0.12699999809E+01 0.  1.
       -4    1    3    3    0  502 -0.26003268882E+03  0.67099843672E+03 -0.11543933953E+04  0.13603240883E+04  0.12699999809E+01 0. -1.
</event>
<event>
 5   0  0.7049044E-04  0.1737730E+04  0.7818609E-02  0.8740133E-01
        2   -1    0    0  501    0  0.00000000000E+00  0.00000000000E+00  0.10544166842E+04  0.10544166842E+04  0.25500000920E-02 0.  1.
       -2   -1    0    0    0  501  0.00000000000E+00  0.00000000000E+00 -0.71596595854E+03  0.71596595855E+03  0.25500000920E-02 0. -1.
    10030    2    1    2    0    0  0.00000000000E+00  0.00000000000E+00  0.33845072564E+03  0.17703826427E+04  0.17377300734E+04 0.  0.
        4    1    3    3  502    0 -0.65733990514E+03 -0.55680990516E+03  0.28445148783E+03  0.90721953418E+03  0.12699999809E+01 0.  1.
       -4    1    3    3    0  502  0.65733990514E+03  0.55680990516E+03  0.53999237813E+02  0.86316310855E+03  0.12699999809E+01 0. -1.
</event>
<event>
 5   0  0.3803253E-04  0.1704511E+04  0.7818609E-02  0.8758796E-01
       -1   -1    0    0    0  501  0.00000000000E+00  0.00000000000E+00  0.11978518864E+04  0.11978518864E+04  0.50400001928E-02 0. -1.
        1   -1    0    0  501    0  0.00000000000E+00  0.00000000000E+00 -0.60636839439E+03  0.60636839441E+03  0.50400001928E-02 0.  1.
    10030    2    1    2    0    0  0.00000000000E+00  0.00000000000E+00  0.59148349198E+03  0.18042202808E+04  0.17045111030E+04 0.  0.
        4    1    3    3  502    0 -0.38930555611E+03 -0.73997517848E+03  0.47036437752E+03  0.95935725427E+03  0.12699999809E+01 0. -1.
       -4    1    3    3    0  502  0.38930555611E+03  0.73997517848E+03  0.12111911446E+03  0.84486302652E+03  0.12699999809E+01 0.  1.
</event>
<event>
 5   0  0.7025426E-04  0.1653515E+04  0.7818609E-02  0.8788330E-01
        2   -1    0    0  501    0  0.00000000000E+00  0.00000000000E+00  0.93546826031E+03  0.93546826032E+03  0.25500000920E-02 0.  1.
       -2   -1    0    0    0  501  0.00000000000E+00  0.00000000000E+00 -0.73067973891E+03  0.73067973891E+03  0.25500000920E-02 0. -1.
    10030    2    1    2    0    0  0.00000000000E+00  0.00000000000E+00  0.20478852141E+03  0.16661479992E+04  0.16535146860E+04 0.  0.
        2    1    3    3  502    0  0.46638043043E+03  0.61751490104E+03 -0.19084870236E+03  0.79703110736E+03  0.25500000920E-02 0.  1.
       -2    1    3    3    0  502 -0.46638043043E+03 -0.61751490104E+03  0.39563722377E+03  0.86911689187E+03  0.25500000920E-02 0. -1.
</event>
<event>
 5   0  0.7049044E-04  0.1707116E+04  0.7818609E-02  0.8757316E-01
        2   -1    0    0  501    0  0.00000000000E+00  0.00000000000E+00  0.10375791852E+04  0.10375791852E+04  0.25500000920E-02 0. -1.
       -2   -1    0    0    0  501  0.00000000000E+00  0.00000000000E+00 -0.70217420799E+03  0.70217420800E+03  0.25500000920E-02 0.  1.
    10030    2    1    2    0    0  0.00000000000E+00  0.00000000000E+00  0.33540497723E+03  0.17397533932E+04  0.17071160975E+04 0.  0.
        4    1    3    3  502    0 -0.94245404801E+02  0.79277485911E+03 -0.14004014085E+03  0.81054736291E+03  0.12699999809E+01 0. -1.
       -4    1    3    3    0  502  0.94245404801E+02 -0.79277485911E+03  0.47544511808E+03  0.92920603031E+03  0.12699999809E+01 0.  1.
</event>
<event>
 5   0  0.6746664E-04  0.1685693E+04  0.7818609E-02  0.8769567E-01
       -2   -1    0    0    0  501  0.00000000000E+00  0.00000000000E+00  0.46891630573E+03  0.46891630574E+03  0.25500000920E-02 0. -1.
        2   -1    0    0  501    0  0.00000000000E+00  0.00000000000E+00 -0.15149608154E+04  0.15149608154E+04  0.25500000920E-02 0.  1.
    10030    2    1    2    0    0  0.00000000000E+00  0.00000000000E+00 -0.10460445096E+04  0.19838771211E+04  0.16856925329E+04 0.  0.
        5    1    3    3  502    0 -0.39796874546E+02 -0.30751860162E+03  0.39933052209E+03  0.50560699900E+03  0.46999998093E+01 0. -1.
       -5    1    3    3    0  502  0.39796874546E+02  0.30751860162E+03 -0.14453750317E+04  0.14782701221E+04  0.46999998093E+01 0.  1.
</event>
<event>
 5   0  0.2639750E-04  0.1467430E+04  0.7818609E-02  0.8906405E-01
       -4   -1    0    0    0  501  0.00000000000E+00  0.00000000000E+00  0.16590447722E+04  0.16590452583E+04  0.12699999809E+01 0. -1.
        4   -1    0    0  501    0  0.00000000000E+00  0.00000000000E+00 -0.32448463996E+03  0.32448712528E+03  0.12699999809E+01 0.  1.
    10030    2    1    2    0    0  0.00000000000E+00  0.00000000000E+00  0.13345601323E+04  0.19835323836E+04  0.14674297156E+04 0.  0.
        2    1    3    3  502    0  0.70214087178E+03 -0.10670033920E+03  0.41821861114E+03  0.82419267948E+03  0.25500000920E-02 0. -1.
       -2    1    3    3    0  502 -0.70214087178E+03  0.10670033920E+03  0.91634152114E+03  0.11593397041E+04  0.25500000920E-02 0.  1.
</event>
<event>
 5   0  0.6746664E-04  0.1670850E+04  0.7818609E-02  0.8778166E-01
       -2   -1    0    0    0  501  0.00000000000E+00  0.00000000000E+00  0.61583615092E+03  0.61583615093E+03  0.25500000920E-02 0.  1.
        2   -1    0    0  501    0  0.00000000000E+00  0.00000000000E+00 -0.11333132231E+04  0.11333132231E+04  0.25500000920E-02 0. -1.
    10030    2    1    2    0    0  0.00000000000E+00  0.00000000000E+00 -0.51747707220E+03  0.17491493741E+04  0.16708503860E+04 0.  0.
        5    1    3    3  502    0 -0.11173441205E+03  0.27108729974E+03 -0.10776630075E+04  0.11168493859E+04  0.46999998093E+01 0. -1.
       -5    1    3    3    0  502  0.11173441205E+03 -0.27108729974E+03  0.56018593533E+03  0.63229998819E+03  0.46999998093E+01 0.  1.
</event>
<event>
 5   0  0.3713516E-04  0.1707482E+04  0.7818609E-02  0.8757109E-01
       -1   -1    0    0    0  501  0.00000000000E+00  0.00000000000E+00  0.66385851461E+03  0.66385851463E+03  0.50400001928E-02 0.  1.
        1   -1    0    0  501    0  0.00000000000E+00  0.00000000000E+00 -0.10979354191E+04  0.10979354191E+04  0.50400001928E-02 0. -1.
    10030    2    1    2    0    0  0.00000000000E+00  0.00000000000E+00 -0.43407690449E+03  0.17617939337E+04  0.17074820954E+04 0.  0.
        5    1    3    3  502    0  0.69265773182E+03  0.44400574901E+03 -0.45218172853E+03  0.93883238345E+03  0.46999998093E+01 0. -1.
       -5    1    3    3    0  502 -0.69265773182E+03 -0.44400574901E+03  0.18104824039E+02  0.82296155029E+03  0.46999998093E+01 0.  1.
</event>
<event>
 5   0  0.3915701E-04  0.1648908E+04  0.7818609E-02  0.8791053E-01
        1   -1    0    0  501    0  0.00000000000E+00  0.00000000000E+00  0.64617606911E+03  0.64617606912E+03  0.50400001928E-02 0. -1.
       -1   -1    0    0    0  501  0.00000000000E+00  0.00000000000E+00 -0.10519183921E+04  0.10519183921E+04  0.50400001928E-02 0.  1.
    10030    2    1    2    0    0  0.00000000000E+00  0.00000000000E+00 -0.40574232302E+03  0.16980944613E+04  0.16489081135E+04 0.  0.
        2    1    3    3  502    0  0.46891088355E+03 -0.41669199243E+02  0.49415749492E+03  0.68249935434E+03  0.25500000920E-02 0. -1.
       -2    1    3    3    0  502 -0.46891088355E+03  0.41669199243E+02 -0.89989981794E+03  0.10155951069E+04  0.25500000920E-02 0.  1.
</event>
<event>
 5   0  0.7233728E-04  0.1693663E+04  0.7818609E-02  0.8764987E-01
       -2   -1    0    0    0  501  0.00000000000E+00  0.00000000000E+00  0.96765126113E+03  0.96765126113E+03  0.25500000920E-02 0. -1.
        2   -1    0    0  501    0  0.00000000000E+00  0.00000000000E+00 -0.74109722350E+03  0.74109722351E+03  0.25500000920E-02 0.  1.
    10030    2    1    2    0    0  0.00000000000E+00  0.00000000000E+00  0.22655403763E+03  0.17087484846E+04  0.16936630869E+04 0.  0.
        1    1    3    3  502    0 -0.50991174331E+02  0.28268108684E+03  0.91699979397E+03  0.96093564763E+03  0.50400001928E-02 0. -1.
       -1    1    3    3    0  502  0.50991174331E+02 -0.28268108684E+03 -0.69044575635E+03  0.74781283701E+03  0.50400001928E-02 0.  1.
</event>
<event>
 5   0  0.3803253E-04  0.1695208E+04  0.7818609E-02  0.8764102E-01
        1   -1    0    0  501    0  0.00000000000E+00  0.00000000000E+00  0.39860034213E+03  0.39860034217E+03  0.50400001928E-02 0. -1.
       -1   -1    0    0    0  501  0.00000000000E+00  0.00000000000E+00 -0.18023871958E+04  0.18023871958E+04  0.50400001928E-02 0.  1.
    10030    2    1    2    0    0  0.00000000000E+00  0.00000000000E+00 -0.14037868536E+04  0.22009875379E+04  0.16952075424E+04 0.  0.
        4    1    3    3  502    0  0.34652402360E+03 -0.76105468778E+03 -0.88155270486E+03  0.12150802118E+04  0.12699999809E+01 0.  1.
       -4    1    3    3    0  502 -0.34652402360E+03  0.76105468778E+03 -0.52223414876E+03  0.98590732615E+03  0.12699999809E+01 0. -1.
</event>
<event>
 5   0  0.7242144E-04  0.1639278E+04  0.7818609E-02  0.8796775E-01
       -2   -1    0    0    0  501  0.00000000000E+00  0.00000000000E+00  0.33779588924E+03  0.33779588925E+03  0.25500000920E-02 0.  1.
        2   -1    0    0  501    0  0.00000000000E+00  0.00000000000E+00 -0.19887985959E+04  0.19887985959E+04  0.25500000920E-02 0. -1.
    10030    2    1    2    0    0  0.00000000000E+00  0.00000000000E+00 -0.16510027067E+04  0.23265944852E+04  0.16392778779E+04 0.  0.
        3    1    3    3  502    0 -0.35162891217E+02  0.59894557229E+03 -0.32943325285E+02  0.60088060408E+03  0.10100000352E+00 0.  1.
       -3    1    3    3    0  502  0.35162891217E+02 -0.59894557229E+03 -0.16180593814E+04  0.17257138811E+04  0.10100000352E+00 0. -1.
</event>
<event>
 5   0  0.3713516E-04  0.1444949E+04  0.7818609E-02  0.8921910E-01
       -1   -1    0    0    0  501  0.00000000000E+00  0.00000000000E+00  0.74092803709E+03  0.74092803710E+03  0.50400001928E-02 0.  1.
        1   -1    0    0  501    0  0.00000000000E+00  0.00000000000E+00 -0.70448008013E+03  0.70448008015E+03  0.50400001928E-02 0. -1.
    10030    2    1    2    0    0  0.00000000000E+00  0.00000000000E+00  0.36447956955E+02  0.14454081173E+04  0.14449485015E+04 0.  0.
        5    1    3    3  502    0 -0.20136888317E+02 -0.45504981423E+03 -0.54273164713E+03  0.70855878972E+03  0.46999998093E+01 0. -1.
       -5    1    3    3    0  502  0.20136888317E+02  0.45504981423E+03  0.57917960408E+03  0.73684932753E+03  0.46999998093E+01 0.  1.
</event>
<event>
 5   0  0.3635143E-04  0.1714358E+04  0.7818609E-02  0.8753217E-01
        1   -1    0    0  501    0  0.00000000000E+00  0.00000000000E+00  0.20873941066E+04  0.20873941066E+04  0.50400001928E-02 0.  1.
       -1   -1    0    0    0  501  0.00000000000E+00  0.00000000000E+00 -0.35199690417E+03  0.35199690421E+03  0.50400001928E-02 0. -1.
    10030    2    1    2    0    0  0.00000000000E+00  0.00000000000E+00  0.17353972024E+04  0.24393910108E+04  0.17143584962E+04 0.  0.
        3    1    3    3  502    0  0.37056365481E+03  0.57692132323E+03  0.13575907285E+03  0.69898939300E+03  0.10100000352E+00 0. -1.
       -3    1    3    3    0  502 -0.37056365481E+03 -0.57692132323E+03  0.15996381296E+04  0.17404016178E+04  0.10100000352E+00 0.  1.
</event>
<event>
 5   0  0.2639750E-04  0.1682805E+04  0.7818609E-02  0.8771232E-01
        3   -1    0    0  501    0  0.00000000000E+00  0.00000000000E+00  0.60353175404E+03  0.60353176249E+03  0.10100000352E+00 0. -1.
       -3   -1    0    0    0  501  0.00000000000E+00  0.00000000000E+00 -0.11730262145E+04  0.11730262189E+04  0.10100000352E+00 0.  1.
    10030    2    1    2    0    0  0.00000000000E+00  0.00000000000E+00 -0.56949446049E+03  0.17765579814E+04  0.16828054910E+04 0.  0.
        2    1    3    3  502    0 -0.76756349012E+03  0.33535324642E+03 -0.36882770990E+03  0.91523187818E+03  0.25500000920E-02 0. -1.
       -2    1    3    3    0  502  0.76756349012E+03 -0.33535324642E+03 -0.20066675060E+03  0.86132610319E+03  0.25500000920E-02 0.  1.
</event>
<event>
 5   0  0.7025426E-04  0.1708335E+04  0.7818609E-02  0.8756625E-01
        2   -1    0    0  501    0  0.00000000000E+00  0.00000000000E+00  0.10324850547E+04  0.10324850547E+04  0.25500000920E-02 0.  1.
       -2   -1    0    0    0  501  0.00000000000E+00  0.00000000000E+00 -0.70664648362E+03  0.70664648362E+03  0.25500000920E-02 0. -1.
    10030    2    1    2    0    0  0.00000000000E+00  0.00000000000E+00  0.32583857111E+03  0.17391315383E+04  0.17083347837E+04 0.  0.
        2    1    3    3  502    0  0.82106434656E+02 -0.75221746343E+03  0.56633226744E+03  0.94514803922E+03  0.25500000920E-02 0.  1.
       -2    1    3    3    0  502 -0.82106434656E+02  0.75221746343E+03 -0.24049369633E+03  0.79398349912E+03  0.25500000920E-02 0. -1.
</event>
<event>
 5   0  0.6746664E-04  0.1712370E+04  0.7818609E-02  0.8754341E-01
       -2   -1    0    0    0  501  0.00000000000E+00  0.00000000000E+00  0.92580629045E+03  0.92580629045E+03  0.25500000920E-02 0. -1.
        2   -1    0    0  501    0  0.00000000000E+00  0.00000000000E+00 -0.79179882996E+03  0.79179882996E+03  0.25500000920E-02 0.  1.
    10030    2    1    2    0    0  0.00000000000E+00  0.00000000000E+00  0.13400746049E+03  0.17176051204E+04  0.17123695133E+04 0.  0.
        5    1    3    3  502    0  0.20566637113E+01 -0.84815190649E+03  0.18425579678E+03  0.86795056023E+03  0.46999998093E+01 0. -1.
       -5    1    3    3    0  502 -0.20566637113E+01  0.84815190649E+03 -0.50248336289E+02  0.84965456019E+03  0.46999998093E+01 0.  1.
</event>
<event>
 5   0  0.3803253E-04  0.1132429E+04  0.7818609E-02  0.9174149E-01
       -1   -1    0    0    0  501  0.00000000000E+00  0.00000000000E+00  0.23849434769E+03  0.23849434774E+03  0.50400001928E-02 0.  1.
        1   -1    0    0  501    0  0.00000000000E+00  0.00000000000E+00 -0.13442611658E+04  0.13442611658E+04  0.50400001928E-02 0. -1.
    10030    2    1    2    0    0  0.00000000000E+00  0.00000000000E+00 -0.11057668181E+04  0.15827555135E+04  0.11324286996E+04 0.  0.
        4    1    3    3  502    0 -0.24126756645E+02 -0.13599901492E+03 -0.13203517793E+04  0.13275572554E+04  0.12699999809E+01 0. -1.
       -4    1    3    3    0  502  0.24126756645E+02  0.13599901492E+03  0.21458496122E+03  0.25519825809E+03  0.12699999809E+01 0.  1.
</event>
<event>
 5   0  0.7049044E-04  0.1704500E+04  0.7818609E-02  0.8758802E-01
        2   -1    0    0  501    0  0.00000000000E+00  0.00000000000E+00  0.88758132341E+03  0.88758132341E+03  0.25500000920E-02 0. -1.
       -2   -1    0    0    0  501  0.00000000000E+00  0.00000000000E+00 -0.81832542562E+03  0.81832542563E+03  0.25500000920E-02 0.  1.
    10030    2    1    2    0    0  0.00000000000E+00  0.00000000000E+00  0.69255897789E+02  0.17059067490E+04  0.17045003541E+04 0.  0.
        4    1    3    3  502    0 -0.33959137715E+02 -0.80555148043E+03 -0.24175627965E+03  0.84173280933E+03  0.12699999809E+01 0. -1.
       -4    1    3    3    0  502  0.33959137715E+02  0.80555148043E+03  0.31101217744E+03  0.86417393971E+03  0.12699999809E+01 0.  1.
</event>
<event>
 5   0  0.3713516E-04  0.1683608E+04  0.7818609E-02  0.8770769E-01
       -1   -1    0    0    0  501  0.00000000000E+00  0.00000000000E+00  0.86290983645E+03  0.86290983646E+03  0.50400001928E-02 0. -1.
        1   -1    0    0  501    0  0.00000000000E+00  0.00000000000E+00 -0.82121464318E+03  0.82121464320E+03  0.50400001928E-02 0.  1.
    10030    2    1    2    0    0  0.00000000000E+00  0.00000000000E+00  0.41695193268E+02  0.16841244797E+04  0.16836082602E+04 0.  0.
        5    1    3    3  502    0  0.54730615713E+03 -0.94153987297E+02 -0.61196244962E+03  0.82639526420E+03  0.46999998093E+01 0.  1.
       -5    1    3    3    0  502 -0.54730615713E+03  0.94153987297E+02  0.65365764288E+03  0.85772921546E+03  0.46999998093E+01 0. -1.
</event>
<event>
 5   0  0.7025426E-04  0.1663289E+04  0.7818609E-02  0.8782584E-01
       -2   -1    0    0    0  501  0.00000000000E+00  0.00000000000E+00  0.72522031156E+03  0.72522031156E+03  0.25500000920E-02 0. -1.
        2   -1    0    0  501    0  0.00000000000E+00  0.00000000000E+00 -0.95368568051E+03  0.95368568052E+03  0.25500000920E-02 0.  1.
    10030    2    1    2    0    0  0.00000000000E+00  0.00000000000E+00 -0.22846536895E+03  0.16789059921E+04  0.16632885815E+04 0.  0.
        2    1    3    3  502    0  0.59624784168E+03 -0.21618979660E+03  0.42876135505E+03  0.76556241839E+03  0.25500000920E-02 0. -1.
       -2    1    3    3    0  502 -0.59624784168E+03  0.21618979660E+03 -0.65722672400E+03  0.91334357369E+03  0.25500000920E-02 0.  1.
</event>
<event>
 5   0  0.7242144E-04  0.1684228E+04  0.7818609E-02  0.8770411E-01
        2   -1    0    0  501    0  0.00000000000E+00  0.00000000000E+00  0.13283678374E+04  0.13283678374E+04  0.25500000920E-02 0. -1.
       -2   -1    0    0    0  501  0.00000000000E+00  0.00000000000E+00 -0.53385509889E+03  0.53385509890E+03  0.25500000920E-02 0.  1.
    10030    2    1    2    0    0  0.00000000000E+00  0.00000000000E+00  0.79451273848E+03  0.18622229363E+04  0.16842279456E+04 0.  0.
        3    1    3    3  502    0  0.18469367079E+03 -0.12602903736E+03 -0.50043388230E+03  0.54811417701E+03  0.10100000352E+00 0.  1.
       -3    1    3    3    0  502 -0.18469367079E+03  0.12602903736E+03  0.12949466208E+04  0.13141087593E+04  0.10100000352E+00 0. -1.
</event>
<event>
 5   0  0.3915701E-04  0.1726297E+04  0.7818609E-02  0.8746507E-01
        1   -1    0    0  501    0  0.00000000000E+00  0.00000000000E+00  0.69863859369E+03  0.69863859371E+03  0.50400001928E-02 0.  1.
       -1   -1    0    0    0  501  0.00000000000E+00  0.00000000000E+00 -0.10663955703E+04  0.10663955703E+04  0.50400001928E-02 0. -1.
    10030    2    1    2    0    0  0.00000000000E+00  0.00000000000E+00 -0.36775697658E+03  0.17650341640E+04  0.17262967318E+04 0.  0.
        2    1    3    3  502    0  0.21428031831E+03 -0.35075414851E+03 -0.95990986836E+03  0.10442085438E+04  0.25500000920E-02 0. -1.
       -2    1    3    3    0  502 -0.21428031831E+03  0.35075414851E+03  0.59215289178E+03  0.72082562022E+03  0.25500000920E-02 0.  1.
</event>
<event>
 5   0  0.3713516E-04  0.1714891E+04  0.7818609E-02  0.8752917E-01
       -1   -1    0    0    0  501  0.00000000000E+00  0.00000000000E+00  0.61069647391E+03  0.61069647393E+03  0.50400001928E-02 0. -1.
        1   -1    0    0  501    0  0.00000000000E+00  0.00000000000E+00 -0.12038918405E+04  0.12038918405E+04  0.50400001928E-02 0.  1.
    10030    2    1    2    0    0  0.00000000000E+00  0.00000000000E+00 -0.59319536655E+03  0.18145883144E+04  0.17148906694E+04 0.  0.
        5    1    3    3  502    0  0.40153049221E+03  0.46957050698E+03  0.33249732807E+03  0.70164076305E+03  0.46999998093E+01 0. -1.
       -5    1    3    3    0  502 -0.40153049221E+03 -0.46957050698E+03 -0.92569269461E+03  0.11129475514E+04  0.46999998093E+01 0.  1.
</event>
<event>
 5   0  0.7242144E-04  0.1747247E+04  0.7818609E-02  0.8734867E-01
        2   -1    0    0  501    0  0.00000000000E+00  0.00000000000E+00  0.22868456677E+04  0.22868456677E+04  0.25500000920E-02 0. -1.
       -2   -1    0    0    0  501  0.00000000000E+00  0.00000000000E+00 -0.33374256097E+03  0.33374256098E+03  0.25500000920E-02 0.  1.
    10030    2    1    2    0    0  0.00000000000E+00  0.00000000000E+00  0.19531031068E+04  0.26205882287E+04  0.17472466680E+04 0.  0.
        3    1    3    3  502    0 -0.29899669566E+03 -0.50984597963E+03  0.19414454675E+04  0.20294217059E+04  0.10100000352E+00 0. -1.
       -3    1    3    3    0  502  0.29899669566E+03  0.50984597963E+03  0.11657639292E+02  0.59116652283E+03  0.10100000352E+00 0.  1.
</event>
<event>
 5   0  0.7242144E-04  0.1414404E+04  0.7818609E-02  0.8943458E-01
       -2   -1    0    0    0  501  0.00000000000E+00  0.00000000000E+00  0.10724881450E+04  0.10724881450E+04  0.25500000920E-02 0. -1.
        2   -1    0    0  501    0  0.00000000000E+00  0.00000000000E+00 -0.46633088766E+03  0.46633088767E+03  0.25500000920E-02 0.  1.
    10030    2    1    2    0    0  0.00000000000E+00  0.00000000000E+00  0.60615725730E+03  0.15388190326E+04  0.14144035473E+04 0.  0.
        3    1    3    3  502    0 -0.52069043472E+03 -0.45758750374E+03  0.15064925085E+03  0.70936595588E+03  0.10100000352E+00 0.  1.
       -3    1    3    3    0  502  0.52069043472E+03  0.45758750374E+03  0.45550800645E+03  0.82945307675E+03  0.10100000352E+00 0. -1.
</event>
<event>
 5   0  0.7025426E-04  0.1690966E+04  0.7818609E-02  0.8766534E-01
       -2   -1    0    0    0  501  0.00000000000E+00  0.00000000000E+00  0.59419598308E+03  0.59419598309E+03  0.25500000920E-02 0.  1.
        2   -1    0    0  501    0  0.00000000000E+00  0.00000000000E+00 -0.12030394112E+04  0.12030394112E+04  0.25500000920E-02 0. -1.
    10030    2    1    2    0    0  0.00000000000E+00  0.00000000000E+00 -0.60884342816E+03  0.17972353943E+04  0.16909656243E+04 0.  0.
        2    1    3    3  502    0  0.82077420442E+02  0.32603510459E+03 -0.11289362071E+04  0.11779357164E+04  0.25500000920E-02 0. -1.
       -2    1    3    3    0  502 -0.82077420442E+02 -0.32603510459E+03  0.52009277891E+03  0.61929967791E+03  0.25500000920E-02 0.  1.
</event>
<event>
 5   0  0.3723500E-04  0.1695087E+04  0.7818609E-02  0.8764171E-01
        1   -1    0    0  501    0  0.00000000000E+00  0.00000000000E+00  0.58950224248E+03  0.58950224250E+03  0.50400001928E-02 0. -1.
       -1   -1    0    0    0  501  0.00000000000E+00  0.00000000000E+00 -0.12185363889E+04  0.12185363889E+04  0.50400001928E-02 0.  1.
    10030    2    1    2    0    0  0.00000000000E+00  0.00000000000E+00 -0.62903414646E+03  0.18080386314E+04  0.16950869404E+04 0.  0.
        1    1    3    3  502    0 -0.68496158246E+03 -0.21448464278E+03 -0.79527705743E+03  0.10712803692E+04  0.50400001928E-02 0.  1.
       -1    1    3    3    0  502  0.68496158246E+03  0.21448464278E+03  0.16624291098E+03  0.73675826219E+03  0.50400001928E-02 0. -1.
</event>
<event>
 5   0  0.7049044E-04  0.1819760E+04  0.7818609E-02  0.8695861E-01
        2   -1    0    0  501    0  0.00000000000E+00  0.00000000000E+00  0.12750222615E+04  0.12750222615E+04  0.25500000920E-02 0.  1.
       -2   -1    0    0    0  501  0.00000000000E+00  0.00000000000E+00 -0.64930740891E+03  0.64930740892E+03  0.25500000920E-02 0. -1.
    10030    2    1    2    0    0  0.00000000000E+00  0.00000000000E+00  0.62571485257E+03  0.19243296704E+04  0.18197597654E+04 0.  0.
        4    1    3    3  502    0 -0.27393555669E+03 -0.79798353264E+03 -0.47396965060E+02  0.84502455158E+03  0.12699999809E+01 0.  1.
       -4    1    3    3    0  502  0.27393555669E+03  0.79798353264E+03  0.67311181763E+03  0.10793051188E+04  0.12699999809E+01 0. -1.
</event>
<event>
 5   0  0.7242144E-04  0.1963196E+04  0.7818609E-02  0.8624024E-01
        2   -1    0    0  501    0  0.00000000000E+00  0.00000000000E+00  0.93176983950E+03  0.93176983951E+03  0.25500000920E-02 0. -1.
       -2   -1    0    0    0  501  0.00000000000E+00  0.00000000000E+00 -0.10340903604E+04  0.10340903604E+04  0.25500000920E-02 0.  1.
    10030    2    1    2    0    0  0.00000000000E+00  0.00000000000E+00 -0.10232052090E+03  0.19658601999E+04  0.19631955676E+04 0.  0.
        3    1    3    3  502    0 -0.47012839730E+02  0.25984618728E+03  0.89553499451E+03  0.93365581706E+03  0.10100000352E+00 0. -1.
       -3    1    3    3    0  502  0.47012839730E+02 -0.25984618728E+03 -0.99785551541E+03  0.10322043828E+04  0.10100000352E+00 0.  1.
</event>
<event>
 5   0  0.3915701E-04  0.1582523E+04  0.7818609E-02  0.8831357E-01
       -1   -1    0    0    0  501  0.00000000000E+00  0.00000000000E+00  0.10744970873E+04  0.10744970873E+04  0.50400001928E-02 0.  1.
        1   -1    0    0  501    0  0.00000000000E+00  0.00000000000E+00 -0.58268617288E+03  0.58268617291E+03  0.50400001928E-02 0. -1.
    10030    2    1    2    0    0  0.00000000000E+00  0.00000000000E+00  0.49181091443E+03  0.16571832602E+04  0.15825227905E+04 0.  0.
        2    1    3    3  502    0  0.47258243335E+03 -0.59308210340E+02  0.90757204765E+03  0.10249578732E+04  0.25500000920E-02 0.  1.
       -2    1    3    3    0  502 -0.47258243335E+03  0.59308210340E+02 -0.41576113322E+03  0.63222538705E+03  0.25500000920E-02 0. -1.
</event>
<event>
 5   0  0.3723500E-04  0.1670999E+04  0.7818609E-02  0.8778080E-01
       -1   -1    0    0    0  501  0.00000000000E+00  0.00000000000E+00  0.55032201268E+03  0.55032201270E+03  0.50400001928E-02 0. -1.
        1   -1    0    0  501    0  0.00000000000E+00  0.00000000000E+00 -0.12684563511E+04  0.12684563512E+04  0.50400001928E-02 0.  1.
    10030    2    1    2    0    0  0.00000000000E+00  0.00000000000E+00 -0.71813433847E+03  0.18187783639E+04  0.16709990451E+04 0.  0.
        1    1    3    3  502    0 -0.14593642694E+03 -0.50660925222E+03  0.34641267455E+03  0.63083446026E+03  0.50400001928E-02 0. -1.
       -1    1    3    3    0  502  0.14593642694E+03  0.50660925222E+03 -0.10645470130E+04  0.11879439036E+04  0.50400001928E-02 0.  1.
</event>
<event>
 5   0  0.7233728E-04  0.1690131E+04  0.7818609E-02  0.8767013E-01
        2   -1    0    0  501    0  0.00000000000E+00  0.00000000000E+00  0.21705730805E+04  0.21705730805E+04  0.25500000920E-02 0.  1.
       -2   -1    0    0    0  501  0.00000000000E+00  0.00000000000E+00 -0.32900788302E+03  0.32900788303E+03  0.25500000920E-02 0. -1.
    10030    2    1    2    0    0  0.00000000000E+00  0.00000000000E+00  0.18415651975E+04  0.24995809635E+04  0.16901309466E+04 0.  0.
        1    1    3    3  502    0  0.45481177593E+03 -0.34058139934E+03 -0.43290032335E+01  0.56821490776E+03  0.50400001928E-02 0. -1.
       -1    1    3    3    0  502 -0.45481177593E+03  0.34058139934E+03  0.18458942007E+04  0.19313660557E+04  0.50400001928E-02 0.  1.
</event>
<event>
 5   0  0.3713516E-04  0.1715291E+04  0.7818609E-02  0.8752691E-01
       -1   -1    0    0    0  501  0.00000000000E+00  0.00000000000E+00  0.61942409889E+03  0.61942409891E+03  0.50400001928E-02 0.  1.
        1   -1    0    0  501    0  0.00000000000E+00  0.00000000000E+00 -0.11874836934E+04  0.11874836934E+04  0.50400001928E-02 0. -1.
    10030    2    1    2    0    0  0.00000000000E+00  0.00000000000E+00 -0.56805959453E+03  0.18069077923E+04  0.17152912485E+04 0.  0.
        5    1    3    3  502    0  0.89651971835E+02  0.73021346209E+03  0.18029029382E+03  0.75747993790E+03  0.46999998093E+01 0.  1.
       -5    1    3    3    0  502 -0.89651971835E+02 -0.73021346209E+03 -0.74834988836E+03  0.10494278544E+04  0.46999998093E+01 0. -1.
</event>
<event>
 5   0  0.3803253E-04  0.1231149E+04  0.7818609E-02  0.9086021E-01
       -1   -1    0    0    0  501  0.00000000000E+00  0.00000000000E+00  0.27903848275E+03  0.27903848280E+03  0.50400001928E-02 0. -1.
        1   -1    0    0  501    0  0.00000000000E+00  0.00000000000E+00 -0.13579910679E+04  0.13579910679E+04  0.50400001928E-02 0.  1.
    10030    2    1    2    0    0  0.00000000000E+00  0.00000000000E+00 -0.10789525852E+04  0.16370295507E+04  0.12311486786E+04 0.  0.
        4    1    3    3  502    0  0.29833738659E+03 -0.38906817599E+03 -0.44538392873E+02  0.49230531497E+03  0.12699999809E+01 0. -1.
       -4    1    3    3    0  502 -0.29833738659E+03  0.38906817599E+03 -0.10344141923E+04  0.11447242358E+04  0.12699999809E+01 0.  1.
</event>
<event>
 5   0  0.7242144E-04  0.1698172E+04  0.7818609E-02  0.8762408E-01
        2   -1    0    0  501    0  0.00000000000E+00  0.00000000000E+00  0.93442134467E+03  0.93442134467E+03  0.25500000920E-02 0.  1.
       -2   -1    0    0    0  501  0.00000000000E+00  0.00000000000E+00 -0.77154358065E+03  0.77154358065E+03  0.25500000920E-02 0. -1.
    10030    2    1    2    0    0  0.00000000000E+00  0.00000000000E+00  0.16287776402E+03  0.17059649253E+04  0.16981717111E+04 0.  0.
        3    1    3    3  502    0 -0.65197880743E+03  0.54117292915E+03  0.13648335956E+03  0.85823785877E+03  0.10100000352E+00 0. -1.
       -3    1    3    3    0  502  0.65197880743E+03 -0.54117292915E+03  0.26394404459E+02  0.84772706656E+03  0.10100000352E+00 0.  1.
</event>
<event>
 5   0  0.3803253E-04  0.1646443E+04  0.7818609E-02  0.8792514E-01
       -1   -1    0    0    0  501  0.00000000000E+00  0.00000000000E+00  0.69136189563E+03  0.69136189565E+03  0.50400001928E-02 0.  1.
        1   -1    0    0  501    0  0.00000000000E+00  0.00000000000E+00 -0.98022999477E+03  0.98022999478E+03  0.50400001928E-02 0. -1.
    10030    2    1    2    0    0  0.00000000000E+00  0.00000000000E+00 -0.28886809913E+03  0.16715918904E+04  0.16464430356E+04 0.  0.
        4    1    3    3  502    0  0.92508904940E+01 -0.74045123122E+03 -0.50956392723E+03  0.89889410590E+03  0.12699999809E+01 0. -1.
       -4    1    3    3    0  502 -0.92508904940E+01  0.74045123122E+03  0.22069582810E+03  0.77269778453E+03  0.12699999809E+01 0.  1.
</event>
<event>
 5   0  0.3723500E-04  0.1684678E+04  0.7818609E-02  0.8770152E-01
       -1   -1    0    0    0  501  0.00000000000E+00  0.00000000000E+00  0.56713035115E+03  0.56713035117E+03  0.50400001928E-02 0. -1.
        1   -1    0    0  501    0  0.00000000000E+00  0.00000000000E+00 -0.12510970504E+04  0.12510970504E+04  0.50400001928E-02 0.  1.
    10030    2    1    2    0    0  0.00000000000E+00  0.00000000000E+00 -0.68396669923E+03  0.18182274016E+04  0.16846781408E+04 0.  0.
        1    1    3    3  502    0 -0.46288198474E+03 -0.68487266119E+03 -0.51676163715E+03  0.97486044308E+03  0.50400001928E-02 0. -1.
       -1    1    3    3    0  502  0.46288198474E+03  0.68487266119E+03 -0.16720506209E+03  0.84336695848E+03  0.50400001928E-02 0.  1.
</event>
<event>
 5   0  0.3915701E-04  0.1697511E+04  0.7818609E-02  0.8762785E-01
       -1   -1    0    0    0  501  0.00000000000E+00  0.00000000000E+00  0.62440116873E+03  0.62440116875E+03  0.50400001928E-02 0. -1.
        1   -1    0    0  501    0  0.00000000000E+00  0.00000000000E+00 -0.11537226191E+04  0.11537226191E+04  0.50400001928E-02 0.  1.
    10030    2    1    2    0    0  0.00000000000E+00  0.00000000000E+00 -0.52932145041E+03  0.17781237879E+04  0.16975108268E+04 0.  0.
        2    1    3    3  502    0 -0.70673770352E+03  0.26507465526E+03  0.14189858725E+03  0.76803513169E+03  0.25500000920E-02 0.  1.
       -2    1    3    3    0  502  0.70673770352E+03 -0.26507465526E+03 -0.67122003766E+03  0.10100886562E+04  0.25500000920E-02 0. -1.
</event>
<event>
 5   0  0.7233728E-04  0.1720664E+04  0.7818609E-02  0.8749666E-01
       -2   -1    0    0    0  501  0.00000000000E+00  0.00000000000E+00  0.27047230813E+03  0.27047230814E+03  0.25500000920E-02 0. -1.
        2   -1    0    0  501    0  0.00000000000E+00  0.00000000000E+00 -0.27365873009E+04  0.27365873009E+04  0.25500000920E-02 0.  1.
    10030    2    1    2    0    0  0.00000000000E+00  0.00000000000E+00 -0.24661149927E+04  0.30070596090E+04  0.17206639226E+04 0.  0.
        1    1    3    3  502    0  0.22994620204E+03  0.82803393399E+03 -0.13041670395E+04  0.15618473416E+04  0.50400001928E-02 0.  1.
       -1    1    3    3    0  502 -0.22994620204E+03 -0.82803393399E+03 -0.11619479533E+04  0.14452122674E+04  0.50400001928E-02 0. -1.
</event>
<event>
 5   0  0.2639750E-04  0.1696256E+04  0.7818609E-02  0.8763502E-01
       -3   -1    0    0    0  501  0.00000000000E+00  0.00000000000E+00  0.30160469600E+03  0.30160471291E+03  0.10100000352E+00 0. -1.
        3   -1    0    0  501    0  0.00000000000E+00  0.00000000000E+00 -0.23849809790E+04  0.23849809812E+04  0.10100000352E+00 0.  1.
    10030    2    1    2    0    0  0.00000000000E+00  0.00000000000E+00 -0.20833762830E+04  0.26865856941E+04  0.16962564532E+04 0.  0.
        2    1    3    3  502    0 -0.36369489113E+02 -0.63289596802E+03 -0.14932628770E+03  0.65128978672E+03  0.25500000920E-02 0. -1.
       -2    1    3    3    0  502  0.36369489113E+02  0.63289596802E+03 -0.19340499953E+04  0.20352959074E+04  0.25500000920E-02 0.  1.
</event>
<event>
 5   0  0.7242144E-04  0.1720031E+04  0.7818609E-02  0.8750022E-01
       -2   -1    0    0    0  501  0.00000000000E+00  0.00000000000E+00  0.62114820378E+03  0.62114820379E+03  0.25500000920E-02 0. -1.
        2   -1    0    0  501    0  0.00000000000E+00  0.00000000000E+00 -0.11907412712E+04  0.11907412712E+04  0.25500000920E-02 0.  1.
    10030    2    1    2    0    0  0.00000000000E+00  0.00000000000E+00 -0.56959306744E+03  0.18118894750E+04  0.17200311646E+04 0.  0.
        3    1    3    3  502    0  0.45165174193E+03  0.44435675039E+03 -0.89738989119E+03  0.10985221184E+04  0.10100000352E+00 0.  1.
       -3    1    3    3    0  502 -0.45165174193E+03 -0.44435675039E+03  0.32779682375E+03  0.71336735661E+03  0.10100000352E+00 0. -1.
</event>
<event>
 5   0  0.7025426E-04  0.1687355E+04  0.7818609E-02  0.8768609E-01
        2   -1    0    0  501    0  0.00000000000E+00  0.00000000000E+00  0.14366755144E+04  0.14366755144E+04  0.25500000920E-02 0.  1.
       -2   -1    0    0    0  501  0.00000000000E+00  0.00000000000E+00 -0.49544391587E+03  0.49544391588E+03  0.25500000920E-02 0. -1.
    10030    2    1    2    0    0  0.00000000000E+00  0.00000000000E+00  0.94123159858E+03  0.19321194303E+04  0.16873554963E+04 0.  0.
        2    1    3    3  502    0 -0.11925715844E+03 -0.25095463100E+03 -0.44155161316E+03  0.52169754049E+03  0.25500000920E-02 0. -1.
       -2    1    3    3    0  502  0.11925715844E+03  0.25095463100E+03  0.13827832117E+04  0.14104218898E+04  0.25500000920E-02 0.  1.
</event>
<event>
 5   0  0.7049044E-04  0.1692335E+04  0.7818609E-02  0.8765748E-01
       -2   -1    0    0    0  501  0.00000000000E+00  0.00000000000E+00  0.67363971035E+03  0.67363971036E+03  0.25500000920E-02 0. -1.
        2   -1    0    0  501    0  0.00000000000E+00  0.00000000000E+00 -0.10628814918E+04  0.10628814918E+04  0.25500000920E-02 0.  1.
    10030    2    1    2    0    0  0.00000000000E+00  0.00000000000E+00 -0.38924178141E+03  0.17365212021E+04  0.16923346953E+04 0.  0.
        4    1    3    3  502    0  0.55198250580E+03 -0.20944141154E+03 -0.81662218567E+03  0.10076823897E+04  0.12699999809E+01 0.  1.
       -4    1    3    3    0  502 -0.55198250580E+03  0.20944141154E+03  0.42738040426E+03  0.72883881238E+03  0.12699999809E+01 0. -1.
</event>
<event>
 5   0  0.7242144E-04  0.1712080E+04  0.7818609E-02  0.8754504E-01
       -2   -1    0    0    0  501  0.00000000000E+00  0.00000000000E+00  0.58670635809E+03  0.58670635810E+03  0.25500000920E-02 0.  1.
        2   -1    0    0  501    0  0.00000000000E+00  0.00000000000E+00 -0.12490146561E+04  0.12490146561E+04  0.25500000920E-02 0. -1.
    10030    2    1    2    0    0  0.00000000000E+00  0.00000000000E+00 -0.66230829802E+03  0.18357210142E+04  0.17120804188E+04 0.  0.
        3    1    3    3  502    0  0.85151556796E+02 -0.16968427920E+03 -0.12261572206E+04  0.12407679405E+04  0.10100000352E+00 0. -1.
       -3    1    3    3    0  502 -0.85151556796E+02  0.16968427920E+03  0.56384892260E+03  0.59495307374E+03  0.10100000352E+00 0.  1.
</event>
<event>
 5   0  0.3723500E-04  0.1714147E+04  0.7818609E-02  0.8753337E-01
        1   -1    0    0  501    0  0.00000000000E+00  0.00000000000E+00  0.66711548745E+03  0.66711548747E+03  0.50400001928E-02 0. -1.
       -1   -1    0    0    0  501  0.00000000000E+00  0.00000000000E+00 -0.11011207485E+04  0.11011207485E+04  0.50400001928E-02 0.  1.
    10030    2    1    2    0    0  0.00000000000E+00  0.00000000000E+00 -0.43400526100E+03  0.17682362359E+04  0.17141466739E+04 0.  0.
        1    1    3    3  502    0  0.68734131696E+03 -0.39157780740E+03  0.12325950108E+03  0.80060237939E+03  0.50400001928E-02 0. -1.
       -1    1    3    3    0  502 -0.68734131696E+03  0.39157780740E+03 -0.55726476208E+03  0.96763385654E+03  0.50400001928E-02 0.  1.
</event>
<event>
 5   0  0.2639750E-04  0.1689411E+04  0.7818609E-02  0.8767427E-01
        3   -1    0    0  501    0  0.00000000000E+00  0.00000000000E+00  0.16853068240E+04  0.16853068270E+04  0.10100000352E+00 0. -1.
       -3   -1    0    0    0  501  0.00000000000E+00  0.00000000000E+00 -0.42338103791E+03  0.42338104995E+03  0.10100000352E+00 0.  1.
    10030    2    1    2    0    0  0.00000000000E+00  0.00000000000E+00  0.12619257861E+04  0.21086878770E+04  0.16894105105E+04 0.  0.
        2    1    3    3  502    0  0.41680655935E+03 -0.11999984396E+03 -0.27377306938E+03  0.51291262803E+03  0.25500000920E-02 0.  1.
       -2    1    3    3    0  502 -0.41680655935E+03  0.11999984396E+03  0.15356988555E+04  0.15957752489E+04  0.25500000920E-02 0. -1.
</event>
<event>
 5   0  0.2639750E-04  0.1678247E+04  0.7818609E-02  0.8773869E-01
       -3   -1    0    0    0  501  0.00000000000E+00  0.00000000000E+00  0.10833263904E+04  0.10833263951E+04  0.10100000352E+00 0. -1.
        3   -1    0    0  501    0  0.00000000000E+00  0.00000000000E+00 -0.64996889890E+03  0.64996890675E+03  0.10100000352E+00 0.  1.
    10030    2    1    2    0    0  0.00000000000E+00  0.00000000000E+00  0.43335749147E+03  0.17332953018E+04  0.16782472666E+04 0.  0.
        3    1    3    3  502    0  0.67447690381E+03 -0.27170087017E+03 -0.21585157332E+03  0.75850667006E+03  0.10100000352E+00 0.  1.
       -3    1    3    3    0  502 -0.67447690381E+03  0.27170087017E+03  0.64920906479E+03  0.97478863177E+03  0.10100000352E+00 0. -1.
</event>
<event>
 5   0  0.7049044E-04  0.1842524E+04  0.7818609E-02  0.8684007E-01
        2   -1    0    0  501    0  0.00000000000E+00  0.00000000000E+00  0.30070326360E+04  0.30070326360E+04  0.25500000920E-02 0.  1.
       -2   -1    0    0    0  501  0.00000000000E+00  0.00000000000E+00 -0.28224627312E+03  0.28224627313E+03  0.25500000920E-02 0. -1.
    10030    2    1    2    0    0  0.00000000000E+00  0.00000000000E+00  0.27247863629E+04  0.32892789092E+04  0.18425240891E+04 0.  0.
        4    1    3    3  502    0  0.32108690267E+02  0.54423867642E+03  0.26881335710E+04  0.27428617197E+04  0.12699999809E+01 0.  1.
       -4    1    3    3    0  502 -0.32108690267E+02 -0.54423867642E+03  0.36652791926E+02  0.54641718948E+03  0.12699999809E+01 0. -1.
</event>
<event>
 5   0  0.7025426E-04  0.1669140E+04  0.7818609E-02  0.8779163E-01
        2   -1    0    0  501    0  0.00000000000E+00  0.00000000000E+00  0.11629411746E+04  0.11629411746E+04  0.25500000920E-02 0. -1.
       -2   -1    0    0    0  501  0.00000000000E+00  0.00000000000E+00 -0.59891852138E+03  0.59891852139E+03  0.25500000920E-02 0.  1.
    10030    2    1    2    0    0  0.00000000000E+00  0.00000000000E+00  0.56402265323E+03  0.17618596960E+04  0.16691399088E+04 0.  0.
        2    1    3    3  502    0  0.74030906436E+03  0.11112493982E+03 -0.10740022651E+03  0.75626785710E+03  0.25500000920E-02 0.  1.
       -2    1    3    3    0  502 -0.74030906436E+03 -0.11112493982E+03  0.67142287973E+03  0.10055918389E+04  0.25500000920E-02 0. -1.
</event>
<event>
 5   0  0.3915701E-04  0.1653608E+04  0.7818609E-02  0.8788275E-01
        1   -1    0    0  501    0  0.00000000000E+00  0.00000000000E+00  0.69657766209E+03  0.69657766211E+03  0.50400001928E-02 0. -1.
       -1   -1    0    0    0  501  0.00000000000E+00  0.00000000000E+00 -0.98137628280E+03  0.98137628282E+03  0.50400001928E-02 0.  1.
    10030    2    1    2    0    0  0.00000000000E+00  0.00000000000E+00 -0.28479862071E+03  0.16779539449E+04  0.16536079302E+04 0.  0.
        2    1    3    3  502    0  0.62588059033E+03 -0.43804906531E+03  0.17847030743E+03  0.78451586830E+03  0.25500000920E-02 0. -1.
       -2    1    3    3    0  502 -0.62588059033E+03  0.43804906531E+03 -0.46326892814E+03  0.89343807663E+03  0.25500000920E-02 0.  1.
</event>
<event>
 5   0  0.2639750E-04  0.1216206E+04  0.7818609E-02  0.9098788E-01
       -4   -1    0    0    0  501  0.00000000000E+00  0.00000000000E+00  0.28673127559E+03  0.28673408814E+03  0.12699999809E+01 0.  1.
        4   -1    0    0  501    0  0.00000000000E+00  0.00000000000E+00 -0.12896632227E+04  0.12896638480E+04  0.12699999809E+01 0. -1.
    10030    2    1    2    0    0  0.00000000000E+00  0.00000000000E+00 -0.10029319471E+04  0.15763979361E+04  0.12162063816E+04 0.  0.
        4    1    3    3  502    0  0.60294607851E+03 -0.43110078242E+02 -0.41563096820E+03  0.73358923593E+03  0.12699999809E+01 0.  1.
       -4    1    3    3    0  502 -0.60294607851E+03  0.43110078242E+02 -0.58730097886E+03  0.84280870019E+03  0.12699999809E+01 0. -1.
</event>
<event>
 5   0  0.7233728E-04  0.1680501E+04  0.7818609E-02  0.8772564E-01
        2   -1    0    0  501    0  0.00000000000E+00  0.00000000000E+00  0.10868460175E+04  0.10868460175E+04  0.25500000920E-02 0. -1.
       -2   -1    0    0    0  501  0.00000000000E+00  0.00000000000E+00 -0.64960503439E+03  0.64960503439E+03  0.25500000920E-02 0.  1.
    10030    2    1    2    0    0  0.00000000000E+00  0.00000000000E+00  0.43724098315E+03  0.17364510519E+04  0.16805006928E+04 0.  0.
        1    1    3    3  502    0 -0.68917011639E+03 -0.94010442849E+02  0.70572538014E+03  0.99087926857E+03  0.50400001928E-02 0. -1.
       -1    1    3    3    0  502  0.68917011639E+03  0.94010442849E+02 -0.26848439699E+03  0.74557178336E+03  0.50400001928E-02 0.  1.
</event>
<event>
 5   0  0.3803253E-04  0.1699699E+04  0.7818609E-02  0.8761536E-01
       -1   -1    0    0    0  501  0.00000000000E+00  0.00000000000E+00  0.51196356469E+03  0.51196356471E+03  0.50400001928E-02 0. -1.
        1   -1    0    0  501    0  0.00000000000E+00  0.00000000000E+00 -0.14107336323E+04  0.14107336323E+04  0.50400001928E-02 0.  1.
    10030    2    1    2    0    0  0.00000000000E+00  0.00000000000E+00 -0.89877006758E+03  0.19226971970E+04  0.16996990548E+04 0.  0.
        4    1    3    3  502    0  0.27564631098E+03 -0.29087572844E+03 -0.12971450168E+04  0.13576363231E+04  0.12699999809E+01 0.  1.
       -4    1    3    3    0  502 -0.27564631098E+03  0.29087572844E+03  0.39837494924E+03  0.56506087392E+03  0.12699999809E+01 0. -1.
</event>
<event>
 5   0  0.3713516E-04  0.1633098E+04  0.7818609E-02  0.8800469E-01
       -1   -1    0    0    0  501  0.00000000000E+00  0.00000000000E+00  0.94712278313E+03  0.94712278315E+03  0.50400001928E-02 0.  1.
        1   -1    0    0  501    0  0.00000000000E+00  0.00000000000E+00 -0.70397663241E+03  0.70397663243E+03  0.50400001928E-02 0. -1.
    10030    2    1    2    0    0  0.00000000000E+00  0.00000000000E+00  0.24314615072E+03  0.16510994156E+04  0.16330980465E+04 0.  0.
        5    1    3    3  502    0  0.60656205282E+03  0.25166088426E+03  0.61218433396E+03  0.89779868196E+03  0.46999998093E+01 0.  1.
       -5    1    3    3    0  502 -0.60656205282E+03 -0.25166088426E+03 -0.36903818324E+03  0.75330073362E+03  0.46999998093E+01 0. -1.
</event>
<event>
 5   0  0.3723500E-04  0.1839031E+04  0.7818609E-02  0.8685814E-01
        1   -1    0    0  501    0  0.00000000000E+00  0.00000000000E+00  0.17423261008E+04  0.17423261008E+04  0.50400001928E-02 0. -1.
       -1   -1    0    0    0  501  0.00000000000E+00  0.00000000000E+00 -0.48527596044E+03  0.48527596046E+03  0.50400001928E-02 0.  1.
    10030    2    1    2    0    0  0.00000000000E+00  0.00000000000E+00  0.12570501404E+04  0.22276020613E+04  0.18390312363E+04 0.  0.
        1    1    3    3  502    0  0.35477567244E+03 -0.46146625145E+03 -0.23369984605E+03  0.62724197648E+03  0.50400001928E-02 0.  1.
       -1    1    3    3    0  502 -0.35477567244E+03  0.46146625145E+03  0.14907499864E+04  0.16003600848E+04  0.50400001928E-02 0. -1.
</event>
<event>
 5   0  0.3635143E-04  0.1644108E+04  0.7818609E-02  0.8793900E-01
        1   -1    0    0  501    0  0.00000000000E+00  0.00000000000E+00  0.15901639600E+04  0.15901639600E+04  0.50400001928E-02 0.  1.
       -1   -1    0    0    0  501  0.00000000000E+00  0.00000000000E+00 -0.42497052592E+03  0.42497052595E+03  0.50400001928E-02 0. -1.
    10030    2    1    2    0    0  0.00000000000E+00  0.00000000000E+00  0.11651934340E+04  0.20151344859E+04  0.16441080432E+04 0.  0.
        3    1    3    3  502    0  0.43680224557E+03 -0.58861079516E+03  0.10387600928E+04  0.12713305669E+04  0.10100000352E+00 0.  1.
       -3    1    3    3    0  502 -0.43680224557E+03  0.58861079516E+03  0.12643334127E+03  0.74380391899E+03  0.10100000352E+00 0. -1.
</event>
<event>
 5   0  0.7242144E-04  0.1704736E+04  0.7818609E-02  0.8758668E-01
        2   -1    0    0  501    0  0.00000000000E+00  0.00000000000E+00  0.22902812191E+04  0.22902812191E+04  0.25500000920E-02 0.  1.
       -2   -1    0    0    0  501  0.00000000000E+00  0.00000000000E+00 -0.31722375883E+03  0.31722375884E+03  0.25500000920E-02 0. -1.
    10030    2    1    2    0    0  0.00000000000E+00  0.00000000000E+00  0.19730574603E+04  0.26075049780E+04  0.17047364807E+04 0.  0.
        3    1    3    3  502    0 -0.44558593220E+03  0.53691578949E+03  0.23765681775E+03  0.73709304786E+03  0.10100000352E+00 0. -1.
       -3    1    3    3    0  502  0.44558593220E+03 -0.53691578949E+03  0.17354006426E+04  0.18704119301E+04  0.10100000352E+00 0.  1.
</event>
<event>
 5   0  0.7233728E-04  0.1682562E+04  0.7818609E-02  0.8771373E-01
       -2   -1    0    0    0  501  0.00000000000E+00  0.00000000000E+00  0.38045327632E+03  0.38045327632E+03  0.25500000920E-02 0. -1.
        2   -1    0    0  501    0  0.00000000000E+00  0.00000000000E+00 -0.18602900669E+04  0.18602900669E+04  0.25500000920E-02 0.  1.
    10030    2    1    2    0    0  0.00000000000E+00  0.00000000000E+00 -0.14798367906E+04  0.22407433432E+04  0.16825616789E+04 0.  0.
        1    1    3    3  502    0 -0.83951379678E+03  0.47120650008E+02 -0.77638196119E+03  0.11444530223E+04  0.50400001928E-02 0. -1.
       -1    1    3    3    0  502  0.83951379678E+03 -0.47120650008E+02 -0.70345482938E+03  0.10962903209E+04  0.50400001928E-02 0.  1.
</event>
<event>
 5   0  0.2639750E-04  0.2018684E+04  0.7818609E-02  0.8597935E-01
        3   -1    0    0  501    0  0.00000000000E+00  0.00000000000E+00  0.16798814218E+04  0.16798814248E+04  0.10100000352E+00 0.  1.
       -3   -1    0    0    0  501  0.00000000000E+00  0.00000000000E+00 -0.60645420947E+03  0.60645421788E+03  0.10100000352E+00 0. -1.
    10030    2    1    2    0    0  0.00000000000E+00  0.00000000000E+00  0.10734272123E+04  0.22863356427E+04  0.20186839007E+04 0.  0.
        4    1    3    3  502    0 -0.78136632265E+03  0.17608011263E+03 -0.15891261487E+03  0.81657355351E+03  0.12699999809E+01 0. -1.
       -4    1    3    3    0  502  0.78136632265E+03 -0.17608011263E+03  0.12323398272E+04  0.14697620892E+04  0.12699999809E+01 0.  1.
</event>
<event>
 5   0  0.7049044E-04  0.1771930E+04  0.7818609E-02  0.8721371E-01
        2   -1    0    0  501    0  0.00000000000E+00  0.00000000000E+00  0.11425803802E+04  0.11425803802E+04  0.25500000920E-02 0.  1.
       -2   -1    0    0    0  501  0.00000000000E+00  0.00000000000E+00 -0.68698335850E+03  0.68698335851E+03  0.25500000920E-02 0. -1.
    10030    2    1    2    0    0  0.00000000000E+00  0.00000000000E+00  0.45559702170E+03  0.18295637387E+04  0.17719296904E+04 0.  0.
        4    1    3    3  502    0 -0.19129819362E+03  0.19626921805E+03 -0.64211043083E+03  0.69815759189E+03  0.12699999809E+01 0. -1.
       -4    1    3    3    0  502  0.19129819362E+03 -0.19626921805E+03  0.10977074525E+04  0.11314061468E+04  0.12699999809E+01 0.  1.
</event>
<event>
 5   0  0.3915701E-04  0.1786636E+04  0.7818609E-02  0.8713439E-01
        1   -1    0    0  501    0  0.00000000000E+00  0.00000000000E+00  0.66238307693E+03  0.66238307695E+03  0.50400001928E-02 0. -1.
       -1   -1    0    0    0  501  0.00000000000E+00  0.00000000000E+00 -0.12047667919E+04  0.12047667919E+04  0.50400001928E-02 0.  1.
    10030    2    1    2    0    0  0.00000000000E+00  0.00000000000E+00 -0.54238371497E+03  0.18671498689E+04  0.17866360957E+04 0.  0.
        2    1    3    3  502    0  0.61636998794E+03  0.87724295675E+02  0.39831008428E+03  0.73909298287E+03  0.25500000920E-02 0. -1.
       -2    1    3    3    0  502 -0.61636998794E+03 -0.87724295675E+02 -0.94069379924E+03  0.11280568860E+04  0.25500000920E-02 0.  1.
</event>
<event>
 5   0  0.6746664E-04  0.1738715E+04  0.7818609E-02  0.8739587E-01
       -2   -1    0    0    0  501  0.00000000000E+00  0.00000000000E+00  0.45822744662E+03  0.45822744663E+03  0.25500000920E-02 0.  1.
        2   -1    0    0  501    0  0.00000000000E+00  0.00000000000E+00 -0.16493602895E+04  0.16493602895E+04  0.25500000920E-02 0. -1.
    10030    2    1    2    0    0  0.00000000000E+00  0.00000000000E+00 -0.11911328428E+04  0.21075877361E+04  0.17387146448E+04 0.  0.
        5    1    3    3  502    0 -0.54557201416E+03  0.25429616868E+03  0.16475845559E+03  0.62408557324E+03  0.46999998093E+01 0.  1.
       -5    1    3    3    0  502  0.54557201416E+03 -0.25429616868E+03 -0.13558912984E+04  0.14835021628E+04  0.46999998093E+01 0. -1.
</event>
<event>
 5   0  0.6746664E-04  0.1700129E+04  0.7818609E-02  0.8761291E-01
       -2   -1    0    0    0  501  0.00000000000E+00  0.00000000000E+00  0.17203445387E+04  0.17203445387E+04  0.25500000920E-02 0. -1.
        2   -1    0    0  501    0  0.00000000000E+00  0.00000000000E+00 -0.42003794122E+03  0.42003794123E+03  0.25500000920E-02 0.  1.
    10030    2    1    2    0    0  0.00000000000E+00  0.00000000000E+00  0.13003065975E+04  0.21403824799E+04  0.17001293812E+04 0.  0.
        5    1    3    3  502    0 -0.28087728760E+03 -0.47917149789E+03  0.14602876641E+04  0.15623570421E+04  0.46999998093E+01 0. -1.
       -5    1    3    3    0  502  0.28087728760E+03  0.47917149789E+03 -0.15998106663E+03  0.57802543782E+03  0.46999998093E+01 0.  1.
</event>
<event>
 5   0  0.7242144E-04  0.1724910E+04  0.7818609E-02  0.8747283E-01
        2   -1    0    0  501    0  0.00000000000E+00  0.00000000000E+00  0.25467121570E+04  0.25467121570E+04  0.25500000920E-02 0.  1.
       -2   -1    0    0    0  501  0.00000000000E+00  0.00000000000E+00 -0.29207418108E+03  0.29207418109E+03  0.25500000920E-02 0. -1.
    10030    2    1    2    0    0  0.00000000000E+00  0.00000000000E+00  0.22546379759E+04  0.28387863381E+04  0.17249102791E+04 0.  0.
        3    1    3    3  502    0 -0.18049095619E+03  0.38524703455E+02  0.25138331760E+04  0.25205988148E+04  0.10100000352E+00 0.  1.
       -3    1    3    3    0  502  0.18049095619E+03 -0.38524703455E+02 -0.25919520009E+03  0.31818752331E+03  0.10100000352E+00 0. -1.
</event>
<event>
 5   0  0.6746664E-04  0.1673221E+04  0.7818609E-02  0.8776786E-01
       -2   -1    0    0    0  501  0.00000000000E+00  0.00000000000E+00  0.24416994707E+03  0.24416994709E+03  0.25500000920E-02 0.  1.
        2   -1    0    0  501    0  0.00000000000E+00  0.00000000000E+00 -0.28665163312E+04  0.28665163312E+04  0.25500000920E-02 0. -1.
    10030    2    1    2    0    0  0.00000000000E+00  0.00000000000E+00 -0.26223463842E+04  0.31106862783E+04  0.16732210146E+04 0.  0.
        5    1    3    3  502    0 -0.47959809027E+03 -0.30429440532E+03 -0.16924698645E+03  0.59268545260E+03  0.46999998093E+01 0.  1.
       -5    1    3    3    0  502  0.47959809027E+03  0.30429440532E+03 -0.24530993977E+04  0.25180008257E+04  0.46999998093E+01 0. -1.
</event>
<event>
 5   0  0.7025426E-04  0.1641102E+04  0.7818609E-02  0.8795688E-01
        2   -1    0    0  501    0  0.00000000000E+00  0.00000000000E+00  0.13038576746E+04  0.13038576746E+04  0.25500000920E-02 0.  1.
       -2   -1    0    0    0  501  0.00000000000E+00  0.00000000000E+00 -0.51639387022E+03  0.51639387022E+03  0.25500000920E-02 0. -1.
    10030    2    1    2    0    0  0.00000000000E+00  0.00000000000E+00  0.78746380437E+03  0.18202515448E+04  0.16411022038E+04 0.  0.
        2    1    3    3  502    0 -0.56772423187E+03  0.58077758043E+03  0.52351219682E+03  0.96627036673E+03  0.25500000920E-02 0.  1.
       -2    1    3    3    0  502  0.56772423187E+03 -0.58077758043E+03  0.26395160755E+03  0.85398117808E+03  0.25500000920E-02 0. -1.
</event>
<event>
 5   0  0.6746664E-04  0.1682685E+04  0.7818609E-02  0.8771302E-01
       -2   -1    0    0    0  501  0.00000000000E+00  0.00000000000E+00  0.38436252900E+03  0.38436252901E+03  0.25500000920E-02 0. -1.
        2   -1    0    0  501    0  0.00000000000E+00  0.00000000000E+00 -0.18416395481E+04  0.18416395481E+04  0.25500000920E-02 0.  1.
    10030    2    1    2    0    0  0.00000000000E+00  0.00000000000E+00 -0.14572770191E+04  0.22260020771E+04  0.16826850380E+04 0.  0.
        5    1    3    3  502    0  0.58410369648E+02 -0.41909178414E+03  0.23333359891E+03  0.48323529796E+03  0.46999998093E+01 0. -1.
       -5    1    3    3    0  502 -0.58410369648E+02  0.41909178414E+03 -0.16906106180E+04  0.17427667792E+04  0.46999998093E+01 0.  1.
</event>
<event>
 5   0  0.7025426E-04  0.1700713E+04  0.7818609E-02  0.8760958E-01
       -2   -1    0    0    0  501  0.00000000000E+00  0.00000000000E+00  0.96459136743E+03  0.96459136743E+03  0.25500000920E-02 0. -1.
        2   -1    0    0  501    0  0.00000000000E+00  0.00000000000E+00 -0.74965064289E+03  0.74965064290E+03  0.25500000920E-02 0.  1.
    10030    2    1    2    0    0  0.00000000000E+00  0.00000000000E+00  0.21494072454E+03  0.17142420103E+04  0.17007134253E+04 0.  0.
        2    1    3    3  502    0 -0.55355246827E+03  0.45257807798E+03 -0.35647276662E+03  0.79894936332E+03  0.25500000920E-02 0.  1.
       -2    1    3    3    0  502  0.55355246827E+03 -0.45257807798E+03  0.57141349116E+03  0.91529264701E+03  0.25500000920E-02 0. -1.
</event>
<event>
 5   0  0.7049044E-04  0.1692895E+04  0.7818609E-02  0.8765427E-01
       -2   -1    0    0    0  501  0.00000000000E+00  0.00000000000E+00  0.43292831622E+03  0.43292831622E+03  0.25500000920E-02 0. -1.
        2   -1    0    0  501    0  0.00000000000E+00  0.00000000000E+00 -0.16549467653E+04  0.16549467653E+04  0.25500000920E-02 0.  1.
    10030    2    1    2    0    0  0.00000000000E+00  0.00000000000E+00 -0.12220184491E+04  0.20878750815E+04  0.16928949365E+04 0.  0.
        4    1    3    3  502    0 -0.44656517924E+03  0.17241184786E+03  0.24995286476E+03  0.54002254776E+03  0.12699999809E+01 0. -1.
       -4    1    3    3    0  502  0.44656517924E+03 -0.17241184786E+03 -0.14719713139E+04  0.15478525338E+04  0.12699999809E+01 0.  1.
</event>
<event>
 5   0  0.7233728E-04  0.1638964E+04  0.7818609E-02  0.8796962E-01
        2   -1    0    0  501    0  0.00000000000E+00  0.00000000000E+00  0.50447462532E+03  0.50447462532E+03  0.25500000920E-02 0.  1.
       -2   -1    0    0    0  501  0.00000000000E+00  0.00000000000E+00 -0.13311882692E+04  0.13311882692E+04  0.25500000920E-02 0. -1.
    10030    2    1    2    0    0  0.00000000000E+00  0.00000000000E+00 -0.82671364391E+03  0.18356628946E+04  0.16389639451E+04 0.  0.
        1    1    3    3  502    0 -0.13314557468E+03  0.17605803536E+03  0.47055121022E+03  0.51975245776E+03  0.50400001928E-02 0.  1.
       -1    1    3    3    0  502  0.13314557468E+03 -0.17605803536E+03 -0.12972648541E+04  0.13159104368E+04  0.50400001928E-02 0. -1.
</event>
<event>
 5   0  0.3723500E-04  0.1683462E+04  0.7818609E-02  0.8770853E-01
       -1   -1    0    0    0  501  0.00000000000E+00  0.00000000000E+00  0.40150369736E+03  0.40150369740E+03  0.50400001928E-02 0.  1.
        1   -1    0    0  501    0  0.00000000000E+00  0.00000000000E+00 -0.17646440494E+04  0.17646440494E+04  0.50400001928E-02 0. -1.
    10030    2    1    2    0    0  0.00000000000E+00  0.00000000000E+00 -0.13631403520E+04  0.21661477468E+04  0.16834620405E+04 0.  0.
        1    1    3    3  502    0 -0.51937411219E+03  0.93891841262E+02 -0.15252772404E+04  0.16140123315E+04  0.50400001928E-02 0. -1.
       -1    1    3    3    0  502  0.51937411219E+03 -0.93891841262E+02  0.16213688831E+03  0.55213541531E+03  0.50400001928E-02 0.  1.
</event>
<event>
 5   0  0.3713516E-04  0.1601576E+04  0.7818609E-02  0.8819580E-01
        1   -1    0    0  501    0  0.00000000000E+00  0.00000000000E+00  0.82324206532E+03  0.82324206533E+03  0.50400001928E-02 0. -1.
       -1   -1    0    0    0  501  0.00000000000E+00  0.00000000000E+00 -0.77894664195E+03  0.77894664197E+03  0.50400001928E-02 0.  1.
    10030    2    1    2    0    0  0.00000000000E+00  0.00000000000E+00  0.44295423365E+02  0.16021887073E+04  0.16015762764E+04 0.  0.
        5    1    3    3  502    0  0.58988436070E+03 -0.87406640862E+02 -0.51250597477E+03  0.78631287923E+03  0.46999998093E+01 0.  1.
       -5    1    3    3    0  502 -0.58988436070E+03  0.87406640862E+02  0.55680139813E+03  0.81587582807E+03  0.46999998093E+01 0. -1.
</event>
<event>
 5   0  0.3915701E-04  0.1742779E+04  0.7818609E-02  0.8737335E-01
        1   -1    0    0  501    0  0.00000000000E+00  0.00000000000E+00  0.13051589492E+04  0.13051589492E+04  0.50400001928E-02 0.  1.
       -1   -1    0    0    0  501  0.00000000000E+00  0.00000000000E+00 -0.58178305912E+03  0.58178305914E+03  0.50400001928E-02 0. -1.
    10030    2    1    2    0    0  0.00000000000E+00  0.00000000000E+00  0.72337589009E+03  0.18869420084E+04  0.17427786620E+04 0.  0.
        2    1    3    3  502    0 -0.69007838916E+03 -0.20540465078E+03 -0.16975035198E+03  0.73973943774E+03  0.25500000920E-02 0. -1.
       -2    1    3    3    0  502  0.69007838916E+03  0.20540465078E+03  0.89312624207E+03  0.11472025706E+04  0.25500000920E-02 0.  1.
</event>
<event>
 5   0  0.3713516E-04  0.1704579E+04  0.7818609E-02  0.8758757E-01
       -1   -1    0    0    0  501  0.00000000000E+00  0.00000000000E+00  0.85212681616E+03  0.85212681617E+03  0.50400001928E-02 0.  1.
        1   -1    0    0  501    0  0.00000000000E+00  0.00000000000E+00 -0.85245267663E+03  0.85245267664E+03  0.50400001928E-02 0. -1.
    10030    2    1    2    0    0  0.00000000000E+00  0.00000000000E+00 -0.32586047194E+00  0.17045794928E+04  0.17045794617E+04 0.  0.
        5    1    3    3  502    0  0.30990284129E+03  0.64531702678E+03  0.46233233138E+03  0.85220133227E+03  0.46999998093E+01 0.  1.
       -5    1    3    3    0  502 -0.30990284129E+03 -0.64531702678E+03 -0.46265819185E+03  0.85237816054E+03  0.46999998093E+01 0. -1.
</event>
<event>
 5   0  0.7233728E-04  0.1518046E+04  0.7818609E-02  0.8872541E-01
        2   -1    0    0  501    0  0.00000000000E+00  0.00000000000E+00  0.20120475896E+04  0.20120475896E+04  0.25500000920E-02 0.  1.
       -2   -1    0    0    0  501  0.00000000000E+00  0.00000000000E+00 -0.28633311407E+03  0.28633311408E+03  0.25500000920E-02 0. -1.
    10030    2    1    2    0    0  0.00000000000E+00  0.00000000000E+00  0.17257144755E+04  0.22983807037E+04  0.15180459176E+04 0.  0.
        1    1    3    3  502    0  0.67110686545E+03 -0.18612562672E+03  0.13198078448E+04  0.14922868092E+04  0.50400001928E-02 0.  1.
       -1    1    3    3    0  502 -0.67110686545E+03  0.18612562672E+03  0.40590663074E+03  0.80609389446E+03  0.50400001928E-02 0. -1.
</event>
<event>
 5   0  0.7049044E-04  0.1664189E+04  0.7818609E-02  0.8782056E-01
       -2   -1    0    0    0  501  0.00000000000E+00  0.00000000000E+00  0.64625592003E+03  0.64625592004E+03  0.25500000920E-02 0. -1.
        2   -1    0    0  501    0  0.00000000000E+00  0.00000000000E+00 -0.10713733380E+04  0.10713733380E+04  0.25500000920E-02 0.  1.
    10030    2    1    2    0    0  0.00000000000E+00  0.00000000000E+00 -0.42511741793E+03  0.17176292580E+04  0.16641891266E+04 0.  0.
        4    1    3    3  502    0  0.24729157305E+03  0.51783371219E+02  0.60570817463E+03  0.65629158562E+03  0.12699999809E+01 0. -1.
       -4    1    3    3    0  502 -0.24729157305E+03 -0.51783371219E+02 -0.10308255926E+04  0.10613376724E+04  0.12699999809E+01 0.  1.
</event>
<event>
 5   0  0.3803253E-04  0.1707518E+04  0.7818609E-02  0.8757088E-01
        1   -1    0    0  501    0  0.00000000000E+00  0.00000000000E+00  0.24915303163E+03  0.24915303168E+03  0.50400001928E-02 0. -1.
       -1   -1    0    0    0  501  0.00000000000E+00  0.00000000000E+00 -0.29255290278E+04  0.29255290278E+04  0.50400001928E-02 0.  1.
    10030    2    1    2    0    0  0.00000000000E+00  0.00000000000E+00 -0.26763759962E+04  0.31746820595E+04  0.17075179958E+04 0.  0.
        4    1    3    3  502    0  0.27628971012E+03 -0.77309624059E+03 -0.90259824290E+03  0.12201225357E+04  0.12699999809E+01 0. -1.
       -4    1    3    3    0  502 -0.27628971012E+03  0.77309624059E+03 -0.17737777533E+04  0.19545595238E+04  0.12699999809E+01 0.  1.
</event>
<event>
 5   0  0.3915701E-04  0.1675915E+04  0.7818609E-02  0.8775221E-01
       -1   -1    0    0    0  501  0.00000000000E+00  0.00000000000E+00  0.60717105565E+03  0.60717105567E+03  0.50400001928E-02 0. -1.
        1   -1    0    0  501    0  0.00000000000E+00  0.00000000000E+00 -0.11564665769E+04  0.11564665769E+04  0.50400001928E-02 0.  1.
    10030    2    1    2    0    0  0.00000000000E+00  0.00000000000E+00 -0.54929552122E+03  0.17636376325E+04  0.16759153109E+04 0.  0.
        2    1    3    3  502    0 -0.74262322616E+03 -0.37969803485E+03 -0.35957632495E+03  0.90827032715E+03  0.25500000920E-02 0.  1.
       -2    1    3    3    0  502  0.74262322616E+03  0.37969803485E+03 -0.18971919626E+03  0.85536730540E+03  0.25500000920E-02 0. -1.
</event>
<event>
 5   0  0.3915701E-04  0.1710918E+04  0.7818609E-02  0.8755162E-01
        1   -1    0    0  501    0  0.00000000000E+00  0.00000000000E+00  0.64737442766E+03  0.64737442768E+03  0.50400001928E-02 0. -1.
       -1   -1    0    0    0  501  0.00000000000E+00  0.00000000000E+00 -0.11304276852E+04  0.11304276852E+04  0.50400001928E-02 0.  1.
    10030    2    1    2    0    0  0.00000000000E+00  0.00000000000E+00 -0.48305325756E+03  0.17778021129E+04  0.17109178540E+04 0.  0.
        2    1    3    3  502    0  0.58503445620E+03 -0.42584204127E+03  0.23260396243E+03  0.76007326120E+03  0.25500000920E-02 0. -1.
       -2    1    3    3    0  502 -0.58503445620E+03  0.42584204127E+03 -0.71565721999E+03  0.10177288517E+04  0.25500000920E-02 0.  1.
</event>
<event>
 5   0  0.7025426E-04  0.1661796E+04  0.7818609E-02  0.8783459E-01
        2   -1    0    0  501    0  0.00000000000E+00  0.00000000000E+00  0.20513239882E+04  0.20513239882E+04  0.25500000920E-02 0.  1.
       -2   -1    0    0    0  501  0.00000000000E+00  0.00000000000E+00 -0.33655878930E+03  0.33655878931E+03  0.25500000920E-02 0. -1.
    10030    2    1    2    0    0  0.00000000000E+00  0.00000000000E+00  0.17147651989E+04  0.23878827775E+04  0.16617955566E+04 0.  0.
        2    1    3    3  502    0 -0.54341102915E+03  0.62099858634E+03  0.99711484972E+03  0.12942846729E+04  0.25500000920E-02 0.  1.
       -2    1    3    3    0  502  0.54341102915E+03 -0.62099858634E+03  0.71765034922E+03  0.10935981047E+04  0.25500000920E-02 0. -1.
</event>
<event>
 5   0  0.3723500E-04  0.1625338E+04  0.7818609E-02  0.8805131E-01
       -1   -1    0    0    0  501  0.00000000000E+00  0.00000000000E+00  0.81795722161E+03  0.81795722163E+03  0.50400001928E-02 0.  1.
        1   -1    0    0  501    0  0.00000000000E+00  0.00000000000E+00 -0.80741476599E+03  0.80741476600E+03  0.50400001928E-02 0. -1.
    10030    2    1    2    0    0  0.00000000000E+00  0.00000000000E+00  0.10542455627E+02  0.16253719876E+04  0.16253377971E+04 0.  0.
        1    1    3    3  502    0 -0.54806488531E+03 -0.42412722874E+03 -0.41920408860E+03  0.80993277042E+03  0.50400001928E-02 0. -1.
       -1    1    3    3    0  502  0.54806488531E+03  0.42412722874E+03  0.42974654423E+03  0.81543921722E+03  0.50400001928E-02 0.  1.
</event>
<event>
 5   0  0.3915701E-04  0.1685304E+04  0.7818609E-02  0.8769791E-01
        1   -1    0    0  501    0  0.00000000000E+00  0.00000000000E+00  0.62194153042E+03  0.62194153044E+03  0.50400001928E-02 0.  1.
       -1   -1    0    0    0  501  0.00000000000E+00  0.00000000000E+00 -0.11416863523E+04  0.11416863523E+04  0.50400001928E-02 0. -1.
    10030    2    1    2    0    0  0.00000000000E+00  0.00000000000E+00 -0.51974482184E+03  0.17636278827E+04  0.16853037201E+04 0.  0.
        2    1    3    3  502    0  0.42914553396E+03 -0.67151695601E+02 -0.10155018018E+04  0.11044995016E+04  0.25500000920E-02 0. -1.
       -2    1    3    3    0  502 -0.42914553396E+03  0.67151695601E+02  0.49575697999E+03  0.65912838109E+03  0.25500000920E-02 0.  1.
</event>
<event>
 5   0  0.3635143E-04  0.1680829E+04  0.7818609E-02  0.8772374E-01
        1   -1    0    0  501    0  0.00000000000E+00  0.00000000000E+00  0.60044430545E+03  0.60044430547E+03  0.50400001928E-02 0. -1.
       -1   -1    0    0    0  501  0.00000000000E+00  0.00000000000E+00 -0.11762898956E+04  0.11762898957E+04  0.50400001928E-02 0.  1.
    10030    2    1    2    0    0  0.00000000000E+00  0.00000000000E+00 -0.57584559020E+03  0.17767342011E+04  0.16808290448E+04 0.  0.
        3    1    3    3  502    0 -0.45749201259E+03  0.37453762341E+03 -0.91926111851E+03  0.10929859959E+04  0.10100000352E+00 0.  1.
       -3    1    3    3    0  502  0.45749201259E+03 -0.37453762341E+03  0.34341552831E+03  0.68374820527E+03  0.10100000352E+00 0. -1.
</event>
<event>
 5   0  0.3803253E-04  0.1716896E+04  0.7818609E-02  0.8751786E-01
       -1   -1    0    0    0  501  0.00000000000E+00  0.00000000000E+00  0.54601060388E+03  0.54601060390E+03  0.50400001928E-02 0. -1.
        1   -1    0    0  501    0  0.00000000000E+00  0.00000000000E+00 -0.13496683306E+04  0.13496683306E+04  0.50400001928E-02 0.  1.
    10030    2    1    2    0    0  0.00000000000E+00  0.00000000000E+00 -0.80365772670E+03  0.18956789345E+04  0.17168962930E+04 0.  0.
        4    1    3    3  502    0 -0.14718416572E+03 -0.82111737861E+03 -0.17816478346E+03  0.85301889255E+03  0.12699999809E+01 0.  1.
       -4    1    3    3    0  502  0.14718416572E+03  0.82111737861E+03 -0.62549294324E+03  0.10426600419E+04  0.12699999809E+01 0. -1.
</event>
<event>
 5   0  0.7049044E-04  0.1763735E+04  0.7818609E-02  0.8725826E-01
       -2   -1    0    0    0  501  0.00000000000E+00  0.00000000000E+00  0.13438658421E+04  0.13438658421E+04  0.25500000920E-02 0.  1.
        2   -1    0    0  501    0  0.00000000000E+00  0.00000000000E+00 -0.57869636278E+03  0.57869636279E+03  0.25500000920E-02 0. -1.
    10030    2    1    2    0    0  0.00000000000E+00  0.00000000000E+00  0.76516947928E+03  0.19225622048E+04  0.17637349856E+04 0.  0.
        4    1    3    3  502    0 -0.40412382357E+03  0.60468310518E+03  0.92622545568E+03  0.11776472010E+04  0.12699999809E+01 0.  1.
       -4    1    3    3    0  502  0.40412382357E+03 -0.60468310518E+03 -0.16105597640E+03  0.74491500381E+03  0.12699999809E+01 0. -1.
</event>
<event>
 5   0  0.7025426E-04  0.1794404E+04  0.7818609E-02  0.8709281E-01
        2   -1    0    0  501    0  0.00000000000E+00  0.00000000000E+00  0.89940955326E+03  0.89940955326E+03  0.25500000920E-02 0. -1.
       -2   -1    0    0    0  501  0.00000000000E+00  0.00000000000E+00 -0.89499951532E+03  0.89499951533E+03  0.25500000920E-02 0.  1.
    10030    2    1    2    0    0  0.00000000000E+00  0.00000000000E+00  0.44100379316E+01  0.17944090686E+04  0.17944036494E+04 0.  0.
        2    1    3    3  502    0 -0.71821234058E+02 -0.13004159417E+03  0.88702519119E+03  0.89937911677E+03  0.25500000920E-02 0. -1.
       -2    1    3    3    0  502  0.71821234058E+02  0.13004159417E+03 -0.88261515326E+03  0.89502995181E+03  0.25500000920E-02 0.  1.
</event>
<event>
 5   0  0.6746664E-04  0.1700421E+04  0.7818609E-02  0.8761124E-01
       -2   -1    0    0    0  501  0.00000000000E+00  0.00000000000E+00  0.46271785772E+03  0.46271785773E+03  0.25500000920E-02 0. -1.
        2   -1    0    0  501    0  0.00000000000E+00  0.00000000000E+00 -0.15621998137E+04  0.15621998137E+04  0.25500000920E-02 0.  1.
    10030    2    1    2    0    0  0.00000000000E+00  0.00000000000E+00 -0.10994819560E+04  0.20249176714E+04  0.17004208316E+04 0.  0.
        5    1    3    3  502    0  0.25622380562E+03  0.30231100549E+03 -0.14454764413E+04  0.14988218090E+04  0.46999998093E+01 0.  1.
       -5    1    3    3    0  502 -0.25622380562E+03 -0.30231100549E+03  0.34599448535E+03  0.52609586246E+03  0.46999998093E+01 0. -1.
</event>
<event>
 5   0  0.7242144E-04  0.1815301E+04  0.7818609E-02  0.8698204E-01
        2   -1    0    0  501    0  0.00000000000E+00  0.00000000000E+00  0.99421549618E+03  0.99421549618E+03  0.25500000920E-02 0.  1.
       -2   -1    0    0    0  501  0.00000000000E+00  0.00000000000E+00 -0.82862300043E+03  0.82862300044E+03  0.25500000920E-02 0. -1.
    10030    2    1    2    0    0  0.00000000000E+00  0.00000000000E+00  0.16559249575E+03  0.18228384966E+04  0.18153014378E+04 0.  0.
        3    1    3    3  502    0  0.99263872449E+02 -0.31694760738E+02  0.98818942853E+03  0.99366806887E+03  0.10100000352E+00 0.  1.
       -3    1    3    3    0  502 -0.99263872449E+02  0.31694760738E+02 -0.82259693278E+03  0.82917042775E+03  0.10100000352E+00 0. -1.
</event>
<event>
 5   0  0.7233728E-04  0.1778717E+04  0.7818609E-02  0.8717700E-01
        2   -1    0    0  501    0  0.00000000000E+00  0.00000000000E+00  0.71505756593E+03  0.71505756594E+03  0.25500000920E-02 0.  1.
       -2   -1    0    0    0  501  0.00000000000E+00  0.00000000000E+00 -0.11061464011E+04  0.11061464011E+04  0.25500000920E-02 0. -1.
    10030    2    1    2    0    0  0.00000000000E+00  0.00000000000E+00 -0.39108883518E+03  0.18212039670E+04  0.17787167882E+04 0.  0.
        1    1    3    3  502    0  0.23612492706E+03 -0.76542725612E+03  0.20011116695E+03  0.82563814395E+03  0.50400001928E-02 0.  1.
       -1    1    3    3    0  502 -0.23612492706E+03  0.76542725612E+03 -0.59120000213E+03  0.99556582310E+03  0.50400001928E-02 0. -1.
</event>
<event>
 5   0  0.3635143E-04  0.1719270E+04  0.7818609E-02  0.8750450E-01
       -1   -1    0    0    0  501  0.00000000000E+00  0.00000000000E+00  0.39047933498E+03  0.39047933501E+03  0.50400001928E-02 0.  1.
        1   -1    0    0  501    0  0.00000000000E+00  0.00000000000E+00 -0.18924739361E+04  0.18924739362E+04  0.50400001928E-02 0. -1.
    10030    2    1    2    0    0  0.00000000000E+00  0.00000000000E+00 -0.15019946012E+04  0.22829532712E+04  0.17192695706E+04 0.  0.
        3    1    3    3  502    0 -0.79306139234E+02 -0.96079693940E+02  0.37842838674E+03  0.39840786312E+03  0.10100000352E+00 0.  1.
       -3    1    3    3    0  502  0.79306139234E+02  0.96079693940E+02 -0.18804229879E+04  0.18845454080E+04  0.10100000352E+00 0. -1.
</event>
<event>
 5   0  0.3635143E-04  0.1669197E+04  0.7818609E-02  0.8779130E-01
       -1   -1    0    0    0  501  0.00000000000E+00  0.00000000000E+00  0.12717548774E+04  0.12717548774E+04  0.50400001928E-02 0. -1.
        1   -1    0    0  501    0  0.00000000000E+00  0.00000000000E+00 -0.54771116384E+03  0.54771116386E+03  0.50400001928E-02 0.  1.
    10030    2    1    2    0    0  0.00000000000E+00  0.00000000000E+00  0.72404371358E+03  0.18194660413E+04  0.16691966260E+04 0.  0.
        3    1    3    3  502    0  0.21098759278E+02  0.71263001823E+03  0.83498172103E+03  0.10979440720E+04  0.10100000352E+00 0. -1.
       -3    1    3    3    0  502 -0.21098759278E+02 -0.71263001823E+03 -0.11093800745E+03  0.72152196933E+03  0.10100000352E+00 0.  1.
</event>
<event>
 5   0  0.6746664E-04  0.1697453E+04  0.7818609E-02  0.8762818E-01
       -2   -1    0    0    0  501  0.00000000000E+00  0.00000000000E+00  0.46880753250E+03  0.46880753250E+03  0.25500000920E-02 0.  1.
        2   -1    0    0  501    0  0.00000000000E+00  0.00000000000E+00 -0.15365296848E+04  0.15365296848E+04  0.25500000920E-02 0. -1.
    10030    2    1    2    0    0  0.00000000000E+00  0.00000000000E+00 -0.10677221523E+04  0.20053372173E+04  0.16974530216E+04 0.  0.
        5    1    3    3  502    0 -0.11181205430E+03 -0.20154689732E+03 -0.14988335095E+04  0.15164587256E+04  0.46999998093E+01 0. -1.
       -5    1    3    3    0  502  0.11181205430E+03  0.20154689732E+03  0.43111135721E+03  0.48887849167E+03  0.46999998093E+01 0.  1.
</event>
<event>
 5   0  0.3803253E-04  0.1379698E+04  0.7818609E-02  0.8968646E-01
        1   -1    0    0  501    0  0.00000000000E+00  0.00000000000E+00  0.12967212862E+04  0.12967212862E+04  0.50400001928E-02 0. -1.
       -1   -1    0    0    0  501  0.00000000000E+00  0.00000000000E+00 -0.36699626815E+03  0.36699626818E+03  0.50400001928E-02 0.  1.
    10030    2    1    2    0    0  0.00000000000E+00  0.00000000000E+00  0.92972501800E+03  0.16637175543E+04  0.13796983335E+04 0.  0.
        4    1    3    3  502    0 -0.33635629649E+03 -0.42076301210E+03 -0.54794552975E+02  0.54146202681E+03  0.12699999809E+01 0.  1.
       -4    1    3    3    0  502  0.33635629649E+03  0.42076301210E+03  0.98451957098E+03  0.11222555275E+04  0.12699999809E+01 0. -1.
</event>
<event>
 5   0  0.7233728E-04  0.1700399E+04  0.7818609E-02  0.8761137E-01
        2   -1    0    0  501    0  0.00000000000E+00  0.00000000000E+00  0.14313028992E+04  0.14313028992E+04  0.25500000920E-02 0. -1.
       -2   -1    0    0    0  501  0.00000000000E+00  0.00000000000E+00 -0.50502192577E+03  0.50502192577E+03  0.25500000920E-02 0.  1.
    10030    2    1    2    0    0  0.00000000000E+00  0.00000000000E+00  0.92628097346E+03  0.19363248250E+04  0.17003991843E+04 0.  0.
        1    1    3    3  502    0 -0.73373253687E+02  0.37571875687E+03  0.13276072340E+04  0.13816979360E+04  0.50400001928E-02 0. -1.
       -1    1    3    3    0  502  0.73373253687E+02 -0.37571875687E+03 -0.40132626050E+03  0.55462688901E+03  0.50400001928E-02 0.  1.
</event>
<event>
 5   0  0.7242144E-04  0.1700271E+04  0.7818609E-02  0.8761210E-01
       -2   -1    0    0    0  501  0.00000000000E+00  0.00000000000E+00  0.12069352258E+04  0.12069352258E+04  0.25500000920E-02 0. -1.
        2   -1    0    0  501    0  0.00000000000E+00  0.00000000000E+00 -0.59881465934E+03  0.59881465934E+03  0.25500000920E-02 0.  1.
    10030    2    1    2    0    0  0.00000000000E+00  0.00000000000E+00  0.60812056642E+03  0.18057498851E+04  0.17002711620E+04 0.  0.
        3    1    3    3  502    0  0.42139543735E+03  0.12118077935E+03  0.10775783752E+04  0.11633718497E+04  0.10100000352E+00 0. -1.
       -3    1    3    3    0  502 -0.42139543735E+03 -0.12118077935E+03 -0.46945780877E+03  0.64237803536E+03  0.10100000352E+00 0.  1.
</event>
<event>
 5   0  0.3723500E-04  0.1550249E+04  0.7818609E-02  0.8851709E-01
       -1   -1    0    0    0  501  0.00000000000E+00  0.00000000000E+00  0.33784902523E+03  0.33784902527E+03  0.50400001928E-02 0. -1.
        1   -1    0    0  501    0  0.00000000000E+00  0.00000000000E+00 -0.17783627828E+04  0.17783627828E+04  0.50400001928E-02 0.  1.
    10030    2    1    2    0    0  0.00000000000E+00  0.00000000000E+00 -0.14405137576E+04  0.21162118081E+04  0.15502491835E+04 0.  0.
        1    1    3    3  502    0  0.35784651944E+02  0.74491419912E+03 -0.10086745021E+04  0.12544329223E+04  0.50400001928E-02 0.  1.
       -1    1    3    3    0  502 -0.35784651944E+02 -0.74491419912E+03 -0.43183925549E+03  0.86177888578E+03  0.50400001928E-02 0. -1.
</event>
<event>
 5   0  0.7242144E-04  0.1692381E+04  0.7818609E-02  0.8765722E-01
       -2   -1    0    0    0  501  0.00000000000E+00  0.00000000000E+00  0.11736440668E+04  0.11736440668E+04  0.25500000920E-02 0.  1.
        2   -1    0    0  501    0  0.00000000000E+00  0.00000000000E+00 -0.61009844850E+03  0.61009844851E+03  0.25500000920E-02 0. -1.
    10030    2    1    2    0    0  0.00000000000E+00  0.00000000000E+00  0.56354561834E+03  0.17837425154E+04  0.16923810733E+04 0.  0.
        3    1    3    3  502    0  0.23943436096E+03 -0.30242699135E+01  0.11371900234E+04  0.11621269806E+04  0.10100000352E+00 0.  1.
       -3    1    3    3    0  502 -0.23943436096E+03  0.30242699135E+01 -0.57364440507E+03  0.62161553479E+03  0.10100000352E+00 0. -1.
</event>
<event>
 5   0  0.7233728E-04  0.1647172E+04  0.7818609E-02  0.8792081E-01
       -2   -1    0    0    0  501  0.00000000000E+00  0.00000000000E+00  0.25459487468E+03  0.25459487469E+03  0.25500000920E-02 0.  1.
        2   -1    0    0  501    0  0.00000000000E+00  0.00000000000E+00 -0.26642103011E+04  0.26642103011E+04  0.25500000920E-02 0. -1.
    10030    2    1    2    0    0  0.00000000000E+00  0.00000000000E+00 -0.24096154264E+04  0.29188051758E+04  0.16471724715E+04 0.  0.
        1    1    3    3  502    0  0.33132974547E+03 -0.10316012424E+03 -0.25283373040E+04  0.25520405432E+04  0.50400001928E-02 0. -1.
       -1    1    3    3    0  502 -0.33132974547E+03  0.10316012424E+03  0.11872187757E+03  0.36676463257E+03  0.50400001928E-02 0.  1.
</event>
<event>
 5   0  0.3915701E-04  0.1677505E+04  0.7818609E-02  0.8774299E-01
        1   -1    0    0  501    0  0.00000000000E+00  0.00000000000E+00  0.93795878110E+03  0.93795878111E+03  0.50400001928E-02 0.  1.
       -1   -1    0    0    0  501  0.00000000000E+00  0.00000000000E+00 -0.75003896197E+03  0.75003896199E+03  0.50400001928E-02 0. -1.
    10030    2    1    2    0    0  0.00000000000E+00  0.00000000000E+00  0.18791981913E+03  0.16879977431E+04  0.16775048502E+04 0.  0.
        2    1    3    3  502    0 -0.33154697513E+03 -0.71304596790E+03 -0.19966607812E+03  0.81131035480E+03  0.25500000920E-02 0. -1.
       -2    1    3    3    0  502  0.33154697513E+03  0.71304596790E+03  0.38758589725E+03  0.87668738830E+03  0.25500000920E-02 0.  1.
</event>
<event>
 5   0  0.7049044E-04  0.1804107E+04  0.7818609E-02  0.8704119E-01
        2   -1    0    0  501    0  0.00000000000E+00  0.00000000000E+00  0.15325201205E+04  0.15325201205E+04  0.25500000920E-02 0.  1.
       -2   -1    0    0    0  501  0.00000000000E+00  0.00000000000E+00 -0.53095575463E+03  0.53095575464E+03  0.25500000920E-02 0. -1.
    10030    2    1    2    0    0  0.00000000000E+00  0.00000000000E+00  0.10015643658E+04  0.20634758751E+04  0.18041068450E+04 0.  0.
        4    1    3    3  502    0  0.31375261532E+03  0.41588552794E+03 -0.34149659398E+03  0.62291493205E+03  0.12699999809E+01 0. -1.
       -4    1    3    3    0  502 -0.31375261532E+03 -0.41588552794E+03  0.13430609598E+04  0.14405609431E+04  0.12699999809E+01 0.  1.
</event>
<event>
 5   0  0.7025426E-04  0.1700124E+04  0.7818609E-02  0.8761294E-01
       -2   -1    0    0    0  501  0.00000000000E+00  0.00000000000E+00  0.51701367994E+03  0.51701367995E+03  0.25500000920E-02 0.  1.
        2   -1    0    0  501    0  0.00000000000E+00  0.00000000000E+00 -0.13976518168E+04  0.13976518169E+04  0.25500000920E-02 0. -1.
    10030    2    1    2    0    0  0.00000000000E+00  0.00000000000E+00 -0.88063813691E+03  0.19146654968E+04  0.17001236533E+04 0.  0.
        2    1    3    3  502    0  0.37095227592E+03  0.48045973282E+03 -0.11105290742E+04  0.12655915496E+04  0.25500000920E-02 0. -1.
       -2    1    3    3    0  502 -0.37095227592E+03 -0.48045973282E+03  0.22989093726E+03  0.64907394719E+03  0.25500000920E-02 0.  1.
</event>
<event>
 5   0  0.3635143E-04  0.1691222E+04  0.7818609E-02  0.8766386E-01
       -1   -1    0    0    0  501  0.00000000000E+00  0.00000000000E+00  0.40391472446E+03  0.40391472449E+03  0.50400001928E-02 0.  1.
        1   -1    0    0  501    0  0.00000000000E+00  0.00000000000E+00 -0.17703197345E+04  0.17703197345E+04  0.50400001928E-02 0. -1.
    10030    2    1    2    0    0  0.00000000000E+00  0.00000000000E+00 -0.13664050100E+04  0.21742344590E+04  0.16912222891E+04 0.  0.
        3    1    3    3  502    0 -0.50338543441E+03  0.20566712072E+03  0.14932845504E+03  0.56391032781E+03  0.10100000352E+00 0.  1.
       -3    1    3    3    0  502  0.50338543441E+03 -0.20566712072E+03 -0.15157334651E+04  0.16103241312E+04  0.10100000352E+00 0. -1.
</event>
<event>
 5   0  0.3803253E-04  0.1684556E+04  0.7818609E-02  0.8770222E-01
        1   -1    0    0  501    0  0.00000000000E+00  0.00000000000E+00  0.10425270399E+04  0.10425270399E+04  0.50400001928E-02 0. -1.
       -1   -1    0    0    0  501  0.00000000000E+00  0.00000000000E+00 -0.68049324035E+03  0.68049324036E+03  0.50400001928E-02 0.  1.
    10030    2    1    2    0    0  0.00000000000E+00  0.00000000000E+00  0.36203379958E+03  0.17230202803E+04  0.16845564444E+04 0.  0.
        4    1    3    3  502    0 -0.51211946689E+03  0.37342137930E+03 -0.38637544367E+03  0.74229203906E+03  0.12699999809E+01 0.  1.
       -4    1    3    3    0  502  0.51211946689E+03 -0.37342137930E+03  0.74840924325E+03  0.98072824124E+03  0.12699999809E+01 0. -1.
</event>
<event>
 5   0  0.3713516E-04  0.1650087E+04  0.7818609E-02  0.8790355E-01
        1   -1    0    0  501    0  0.00000000000E+00  0.00000000000E+00  0.12939504601E+04  0.12939504601E+04  0.50400001928E-02 0. -1.
       -1   -1    0    0    0  501  0.00000000000E+00  0.00000000000E+00 -0.52606104798E+03  0.52606104800E+03  0.50400001928E-02 0.  1.
    10030    2    1    2    0    0  0.00000000000E+00  0.00000000000E+00  0.76788941213E+03  0.18200115081E+04  0.16500871918E+04 0.  0.
        5    1    3    3  502    0  0.29191520654E+03  0.76910511759E+03  0.31473178202E+03  0.88080381148E+03  0.46999998093E+01 0.  1.
       -5    1    3    3    0  502 -0.29191520654E+03 -0.76910511759E+03  0.45315763011E+03  0.93920769664E+03  0.46999998093E+01 0. -1.
</event>
<event>
 5   0  0.3803253E-04  0.1762015E+04  0.7818609E-02  0.8726764E-01
       -1   -1    0    0    0  501  0.00000000000E+00  0.00000000000E+00  0.99585803388E+03  0.99585803390E+03  0.50400001928E-02 0.  1.
        1   -1    0    0  501    0  0.00000000000E+00  0.00000000000E+00 -0.77940232752E+03  0.77940232754E+03  0.50400001928E-02 0. -1.
    10030    2    1    2    0    0  0.00000000000E+00  0.00000000000E+00  0.21645570636E+03  0.17752603614E+04  0.17620148348E+04 0.  0.
        4    1    3    3  502    0 -0.12292125761E+03  0.35909038036E+03 -0.69280661351E+03  0.78996085566E+03  0.12699999809E+01 0. -1.
       -4    1    3    3    0  502  0.12292125761E+03 -0.35909038036E+03  0.90926231988E+03  0.98529950578E+03  0.12699999809E+01 0.  1.
</event>
<event>
 5   0  0.3723500E-04  0.1715620E+04  0.7818609E-02  0.8752505E-01
        1   -1    0    0  501    0  0.00000000000E+00  0.00000000000E+00  0.98597292325E+03  0.98597292326E+03  0.50400001928E-02 0. -1.
       -1   -1    0    0    0  501  0.00000000000E+00  0.00000000000E+00 -0.74630681126E+03  0.74630681128E+03  0.50400001928E-02 0.  1.
    10030    2    1    2    0    0  0.00000000000E+00  0.00000000000E+00  0.23966611199E+03  0.17322797345E+04  0.17156203640E+04 0.  0.
        1    1    3    3  502    0  0.20497642100E+02 -0.41669545859E+03  0.87663309867E+03  0.97084542964E+03  0.50400001928E-02 0. -1.
       -1    1    3    3    0  502 -0.20497642100E+02  0.41669545859E+03 -0.63696698668E+03  0.76143430490E+03  0.50400001928E-02 0.  1.
</event>
<event>
 5   0  0.6746664E-04  0.1780275E+04  0.7818609E-02  0.8716860E-01
       -2   -1    0    0    0  501  0.00000000000E+00  0.00000000000E+00  0.35599182086E+03  0.35599182086E+03  0.25500000920E-02 0.  1.
        2   -1    0    0  501    0  0.00000000000E+00  0.00000000000E+00 -0.22257399330E+04  0.22257399330E+04  0.25500000920E-02 0. -1.
    10030    2    1    2    0    0  0.00000000000E+00  0.00000000000E+00 -0.18697481121E+04  0.25817317538E+04  0.17802754972E+04 0.  0.
        5    1    3    3  502    0  0.67832378766E+02  0.28239784403E+03 -0.21550778082E+04  0.21745648354E+04  0.46999998093E+01 0. -1.
       -5    1    3    3    0  502 -0.67832378766E+02 -0.28239784403E+03  0.28532969615E+03  0.40716691838E+03  0.46999998093E+01 0.  1.
</event>
<event>
 5   0  0.3803253E-04  0.1713156E+04  0.7818609E-02  0.8753896E-01
       -1   -1    0    0    0  501  0.00000000000E+00  0.00000000000E+00  0.86259295516E+03  0.86259295517E+03  0.50400001928E-02 0. -1.
        1   -1    0    0  501    0  0.00000000000E+00  0.00000000000E+00 -0.85060509324E+03  0.85060509325E+03  0.50400001928E-02 0.  1.
    10030    2    1    2    0    0  0.00000000000E+00  0.00000000000E+00  0.11987861918E+02  0.17131980484E+04  0.17131561062E+04 0.  0.
        4    1    3    3  502    0  0.17311754872E+03 -0.43027359379E+03  0.72616383550E+03  0.86163831163E+03  0.12699999809E+01 0. -1.
       -4    1    3    3    0  502 -0.17311754872E+03  0.43027359379E+03 -0.71417597358E+03  0.85155973679E+03  0.12699999809E+01 0.  1.
</event>
<event>
 5   0  0.6746664E-04  0.1637518E+04  0.7818609E-02  0.8797825E-01
       -2   -1    0    0    0  501  0.00000000000E+00  0.00000000000E+00  0.67311223371E+03  0.67311223372E+03  0.25500000920E-02 0. -1.
        2   -1    0    0  501    0  0.00000000000E+00  0.00000000000E+00 -0.99592088678E+03  0.99592088678E+03  0.25500000920E-02 0.  1.
    10030    2    1    2    0    0  0.00000000000E+00  0.00000000000E+00 -0.32280865307E+03  0.16690331205E+04  0.16375182841E+04 0.  0.
        5    1    3    3  502    0 -0.35439683461E+03  0.54341668260E+03 -0.67046172269E+03  0.93297364320E+03  0.46999998093E+01 0.  1.
       -5    1    3    3    0  502  0.35439683461E+03 -0.54341668260E+03  0.34765306962E+03  0.73605947730E+03  0.46999998093E+01 0. -1.
</event>
<event>
 5   0  0.7242144E-04  0.1633883E+04  0.7818609E-02  0.8799999E-01
       -2   -1    0    0    0  501  0.00000000000E+00  0.00000000000E+00  0.10464244156E+04  0.10464244156E+04  0.25500000920E-02 0. -1.
        2   -1    0    0  501    0  0.00000000000E+00  0.00000000000E+00 -0.63778451729E+03  0.63778451729E+03  0.25500000920E-02 0.  1.
    10030    2    1    2    0    0  0.00000000000E+00  0.00000000000E+00  0.40863989831E+03  0.16842089329E+04  0.16338828487E+04 0.  0.
        3    1    3    3  502    0 -0.10565130128E+03  0.29319806895E+03  0.98273958545E+03  0.10309725545E+04  0.10100000352E+00 0. -1.
       -3    1    3    3    0  502  0.10565130128E+03 -0.29319806895E+03 -0.57409968714E+03  0.65323637841E+03  0.10100000352E+00 0.  1.
</event>
<event>
 5   0  0.7242144E-04  0.1695171E+04  0.7818609E-02  0.8764123E-01
        2   -1    0    0  501    0  0.00000000000E+00  0.00000000000E+00  0.12062867776E+04  0.12062867776E+04  0.25500000920E-02 0. -1.
       -2   -1    0    0    0  501  0.00000000000E+00  0.00000000000E+00 -0.59554762418E+03  0.59554762418E+03  0.25500000920E-02 0.  1.
    10030    2    1    2    0    0  0.00000000000E+00  0.00000000000E+00  0.61073915345E+03  0.18018344018E+04  0.16951710527E+04 0.  0.
        3    1    3    3  502    0  0.33286720499E+03  0.21368863724E+02  0.11335924191E+04  0.11816467269E+04  0.10100000352E+00 0. -1.
       -3    1    3    3    0  502 -0.33286720499E+03 -0.21368863724E+02 -0.52285326562E+03  0.62018767488E+03  0.10100000352E+00 0.  1.
</event>
<event>
 5   0  0.3713516E-04  0.1702420E+04  0.7818609E-02  0.8759985E-01
       -1   -1    0    0    0  501  0.00000000000E+00  0.00000000000E+00  0.36448373442E+03  0.36448373445E+03  0.50400001928E-02 0. -1.
        1   -1    0    0  501    0  0.00000000000E+00  0.00000000000E+00 -0.19879038243E+04  0.19879038243E+04  0.50400001928E-02 0.  1.
    10030    2    1    2    0    0  0.00000000000E+00  0.00000000000E+00 -0.16234200899E+04  0.23523875588E+04  0.17024201709E+04 0.  0.
        5    1    3    3  502    0 -0.80474651627E+02  0.64393540347E+03 -0.50586237511E+02  0.65093012745E+03  0.46999998093E+01 0. -1.
       -5    1    3    3    0  502  0.80474651627E+02 -0.64393540347E+03 -0.15728338524E+04  0.17014574313E+04  0.46999998093E+01 0.  1.
</event>
<event>
 5   0  0.6746664E-04  0.1659910E+04  0.7818609E-02  0.8784566E-01
        2   -1    0    0  501    0  0.00000000000E+00  0.00000000000E+00  0.16860273115E+04  0.16860273115E+04  0.25500000920E-02 0. -1.
       -2   -1    0    0    0  501  0.00000000000E+00  0.00000000000E+00 -0.40854915292E+03  0.40854915293E+03  0.25500000920E-02 0.  1.
    10030    2    1    2    0    0  0.00000000000E+00  0.00000000000E+00  0.12774781586E+04  0.20945764644E+04  0.16599096721E+04 0.  0.
        5    1    3    3  502    0  0.78927512506E+02 -0.54927910209E+03 -0.14001042624E+03  0.57233040604E+03  0.46999998093E+01 0.  1.
       -5    1    3    3    0  502 -0.78927512506E+02  0.54927910209E+03  0.14174885848E+04  0.15222460584E+04  0.46999998093E+01 0. -1.
</event>
<event>
 5   0  0.7242144E-04  0.1778154E+04  0.7818609E-02  0.8718004E-01
        2   -1    0    0  501    0  0.00000000000E+00  0.00000000000E+00  0.27392385481E+04  0.27392385481E+04  0.25500000920E-02 0.  1.
       -2   -1    0    0    0  501  0.00000000000E+00  0.00000000000E+00 -0.28856843706E+03  0.28856843707E+03  0.25500000920E-02 0. -1.
    10030    2    1    2    0    0  0.00000000000E+00  0.00000000000E+00  0.24506701110E+04  0.30278069852E+04  0.17781538590E+04 0.  0.
        3    1    3    3  502    0 -0.35455272984E+03  0.21293815792E+03  0.25654654969E+04  0.25985887561E+04  0.10100000352E+00 0.  1.
       -3    1    3    3    0  502  0.35455272984E+03 -0.21293815792E+03 -0.11479538589E+03  0.42921822906E+03  0.10100000352E+00 0. -1.
</event>
<event>
 5   0  0.3635143E-04  0.2095274E+04  0.7818609E-02  0.8563328E-01
       -1   -1    0    0    0  501  0.00000000000E+00  0.00000000000E+00  0.86540104821E+03  0.86540104822E+03  0.50400001928E-02 0.  1.
        1   -1    0    0  501    0  0.00000000000E+00  0.00000000000E+00 -0.12682476376E+04  0.12682476376E+04  0.50400001928E-02 0. -1.
    10030    2    1    2    0    0  0.00000000000E+00  0.00000000000E+00 -0.40284658935E+03  0.21336486858E+04  0.20952735716E+04 0.  0.
        3    1    3    3  502    0 -0.37430883252E+03  0.33764640010E+03 -0.11366283852E+04  0.12433970765E+04  0.10100000352E+00 0. -1.
       -3    1    3    3    0  502  0.37430883252E+03 -0.33764640010E+03  0.73378179589E+03  0.89025160925E+03  0.10100000352E+00 0.  1.
</event>
<event>
 5   0  0.3635143E-04  0.1393544E+04  0.7818609E-02  0.8958505E-01
       -1   -1    0    0    0  501  0.00000000000E+00  0.00000000000E+00  0.31793606689E+03  0.31793606693E+03  0.50400001928E-02 0.  1.
        1   -1    0    0  501    0  0.00000000000E+00  0.00000000000E+00 -0.15270095362E+04  0.15270095362E+04  0.50400001928E-02 0. -1.
    10030    2    1    2    0    0  0.00000000000E+00  0.00000000000E+00 -0.12090734693E+04  0.18449456031E+04  0.13935442671E+04 0.  0.
        3    1    3    3  502    0  0.56439193028E+03 -0.12728756944E+03 -0.90501456105E+02  0.58560302258E+03  0.10100000352E+00 0.  1.
       -3    1    3    3    0  502 -0.56439193028E+03  0.12728756944E+03 -0.11185720132E+04  0.12593425805E+04  0.10100000352E+00 0. -1.
</event>
<event>
 5   0  0.3803253E-04  0.1710198E+04  0.7818609E-02  0.8755569E-01
        1   -1    0    0  501    0  0.00000000000E+00  0.00000000000E+00  0.21222347041E+04  0.21222347042E+04  0.50400001928E-02 0. -1.
       -1   -1    0    0    0  501  0.00000000000E+00  0.00000000000E+00 -0.34453997343E+03  0.34453997346E+03  0.50400001928E-02 0.  1.
    10030    2    1    2    0    0  0.00000000000E+00  0.00000000000E+00  0.17776947307E+04  0.24667746776E+04  0.17101984547E+04 0.  0.
        4    1    3    3  502    0  0.69591790792E+03  0.49445126031E+03  0.95964646295E+03  0.12844090977E+04  0.12699999809E+01 0.  1.
       -4    1    3    3    0  502 -0.69591790792E+03 -0.49445126031E+03  0.81804826777E+03  0.11823655800E+04  0.12699999809E+01 0. -1.
</event>
<event>
 5   0  0.7233728E-04  0.1712744E+04  0.7818609E-02  0.8754129E-01
        2   -1    0    0  501    0  0.00000000000E+00  0.00000000000E+00  0.27109708159E+04  0.27109708159E+04  0.25500000920E-02 0.  1.
       -2   -1    0    0    0  501  0.00000000000E+00  0.00000000000E+00 -0.27052046970E+03  0.27052046971E+03  0.25500000920E-02 0. -1.
    10030    2    1    2    0    0  0.00000000000E+00  0.00000000000E+00  0.24404503462E+04  0.29814912856E+04  0.17127441122E+04 0.  0.
        1    1    3    3  502    0 -0.84248111949E+03  0.15140894675E+03  0.12654179081E+04  0.15277374081E+04  0.50400001928E-02 0.  1.
       -1    1    3    3    0  502  0.84248111949E+03 -0.15140894675E+03  0.11750324381E+04  0.14537538775E+04  0.50400001928E-02 0. -1.
</event>
<event>
 5   0  0.6746664E-04  0.1690923E+04  0.7818609E-02  0.8766558E-01
       -2   -1    0    0    0  501  0.00000000000E+00  0.00000000000E+00  0.13044834148E+04  0.13044834148E+04  0.25500000920E-02 0. -1.
        2   -1    0    0  501    0  0.00000000000E+00  0.00000000000E+00 -0.54796027376E+03  0.54796027376E+03  0.25500000920E-02 0.  1.
    10030    2    1    2    0    0  0.00000000000E+00  0.00000000000E+00  0.75652314100E+03  0.18524436885E+04  0.16909229303E+04 0.  0.
        5    1    3    3  502    0 -0.71866175894E+03  0.36363783699E+03  0.96655240654E+02  0.81121607837E+03  0.46999998093E+01 0. -1.
       -5    1    3    3    0  502  0.71866175894E+03 -0.36363783699E+03  0.65986790035E+03  0.10412276102E+04  0.46999998093E+01 0.  1.
</event>
<event>
 5   0  0.7025426E-04  0.1686106E+04  0.7818609E-02  0.8769328E-01
        2   -1    0    0  501    0  0.00000000000E+00  0.00000000000E+00  0.17545887742E+04  0.17545887742E+04  0.25500000920E-02 0.  1.
       -2   -1    0    0    0  501  0.00000000000E+00  0.00000000000E+00 -0.40507408619E+03  0.40507408620E+03  0.25500000920E-02 0. -1.
    10030    2    1    2    0    0  0.00000000000E+00  0.00000000000E+00  0.13495146880E+04  0.21596628604E+04  0.16861060991E+04 0.  0.
        2    1    3    3  502    0 -0.17327480720E+03  0.67384909290E+03  0.12845342272E+04  0.14608644495E+04  0.25500000920E-02 0.  1.
       -2    1    3    3    0  502  0.17327480720E+03 -0.67384909290E+03  0.64980460774E+02  0.69879841091E+03  0.25500000920E-02 0. -1.
</event>
<event>
 5   0  0.7242144E-04  0.1683283E+04  0.7818609E-02  0.8770957E-01
        2   -1    0    0  501    0  0.00000000000E+00  0.00000000000E+00  0.21454423527E+04  0.21454423527E+04  0.25500000920E-02 0. -1.
       -2   -1    0    0    0  501  0.00000000000E+00  0.00000000000E+00 -0.33016971891E+03  0.33016971892E+03  0.25500000920E-02 0.  1.
    10030    2    1    2    0    0  0.00000000000E+00  0.00000000000E+00  0.18152726338E+04  0.24756120717E+04  0.16832826246E+04 0.  0.
        3    1    3    3  502    0  0.71864928251E+03  0.24689697348E+03  0.14398307316E+04  0.16280440573E+04  0.10100000352E+00 0. -1.
       -3    1    3    3    0  502 -0.71864928251E+03 -0.24689697348E+03  0.37544190225E+03  0.84756801434E+03  0.10100000352E+00 0.  1.
</event>
<event>
 5   0  0.3915701E-04  0.1692465E+04  0.7818609E-02  0.8765674E-01
       -1   -1    0    0    0  501  0.00000000000E+00  0.00000000000E+00  0.14508956801E+04  0.14508956801E+04  0.50400001928E-02 0.  1.
        1   -1    0    0  501    0  0.00000000000E+00  0.00000000000E+00 -0.49356349236E+03  0.49356349239E+03  0.50400001928E-02 0. -1.
    10030    2    1    2    0    0  0.00000000000E+00  0.00000000000E+00  0.95733218775E+03  0.19444591725E+04  0.16924646395E+04 0.  0.
        2    1    3    3  502    0 -0.23248479868E+03 -0.75653609044E+03  0.13454827637E+03  0.80280712281E+03  0.25500000920E-02 0. -1.
       -2    1    3    3    0  502  0.23248479868E+03  0.75653609044E+03  0.82278391138E+03  0.11416520497E+04  0.25500000920E-02 0.  1.
</event>
<event>
 5   0  0.3723500E-04  0.1678541E+04  0.7818609E-02  0.8773699E-01
        1   -1    0    0  501    0  0.00000000000E+00  0.00000000000E+00  0.82701245966E+03  0.82701245968E+03  0.50400001928E-02 0.  1.
       -1   -1    0    0    0  501  0.00000000000E+00  0.00000000000E+00 -0.85171043728E+03  0.85171043729E+03  0.50400001928E-02 0. -1.
    10030    2    1    2    0    0  0.00000000000E+00  0.00000000000E+00 -0.24697977618E+02  0.16787228970E+04  0.16785412044E+04 0.  0.
        1    1    3    3  502    0 -0.73208181018E+02  0.51150720146E+03  0.64906675099E+03  0.82963046122E+03  0.50400001928E-02 0.  1.
       -1    1    3    3    0  502  0.73208181018E+02 -0.51150720146E+03 -0.67376472861E+03  0.84909243575E+03  0.50400001928E-02 0. -1.
</event>
<event>
 5   0  0.7242144E-04  0.1712116E+04  0.7818609E-02  0.8754484E-01
       -2   -1    0    0    0  501  0.00000000000E+00  0.00000000000E+00  0.50090799011E+03  0.50090799012E+03  0.25500000920E-02 0.  1.
        2   -1    0    0  501    0  0.00000000000E+00  0.00000000000E+00 -0.14630131555E+04  0.14630131555E+04  0.25500000920E-02 0. -1.
    10030    2    1    2    0    0  0.00000000000E+00  0.00000000000E+00 -0.96210516535E+03  0.19639211456E+04  0.17121156260E+04 0.  0.
        3    1    3    3  502    0  0.53108257367E+03  0.12075376572E+03 -0.12386459676E+04  0.13530979326E+04  0.10100000352E+00 0. -1.
       -3    1    3    3    0  502 -0.53108257367E+03 -0.12075376572E+03  0.27654080225E+03  0.61082321297E+03  0.10100000352E+00 0.  1.
</event>
<event>
 5   0  0.6746664E-04  0.1683857E+04  0.7818609E-02  0.8770625E-01
        2   -1    0    0  501    0  0.00000000000E+00  0.00000000000E+00  0.25005453108E+04  0.25005453108E+04  0.25500000920E-02 0. -1.
       -2   -1    0    0    0  501  0.00000000000E+00  0.00000000000E+00 -0.28347563989E+03  0.28347563990E+03  0.25500000920E-02 0.  1.
    10030    2    1    2    0    0  0.00000000000E+00  0.00000000000E+00  0.22170696709E+04  0.27840209507E+04  0.16838570985E+04 0.  0.
        5    1    3    3  502    0 -0.14580279322E+03  0.53114834638E+03  0.55766019595E+02  0.55363251288E+03  0.46999998093E+01 0. -1.
       -5    1    3    3    0  502  0.14580279322E+03 -0.53114834638E+03  0.21613036513E+04  0.22303884378E+04  0.46999998093E+01 0.  1.
</event>
<event>
 5   0  0.3635143E-04  0.1463489E+04  0.7818609E-02  0.8909102E-01
        1   -1    0    0  501    0  0.00000000000E+00  0.00000000000E+00  0.23761672068E+04  0.23761672068E+04  0.50400001928E-02 0.  1.
       -1   -1    0    0    0  501  0.00000000000E+00  0.00000000000E+00 -0.22534187851E+03  0.22534187857E+03  0.50400001928E-02 0. -1.
    10030    2    1    2    0    0  0.00000000000E+00  0.00000000000E+00  0.21508253283E+04  0.26015090854E+04  0.14634889574E+04 0.  0.
        3    1    3    3  502    0  0.46989524361E+03 -0.19317014116E+03  0.13928033821E+03  0.52679717749E+03  0.10100000352E+00 0. -1.
       -3    1    3    3    0  502 -0.46989524361E+03  0.19317014116E+03  0.20115449901E+04  0.20747119079E+04  0.10100000352E+00 0.  1.
</event>
<event>
 5   0  0.3915701E-04  0.1656035E+04  0.7818609E-02  0.8786844E-01
       -1   -1    0    0    0  501  0.00000000000E+00  0.00000000000E+00  0.36126958043E+03  0.36126958047E+03  0.50400001928E-02 0.  1.
        1   -1    0    0  501    0  0.00000000000E+00  0.00000000000E+00 -0.18977873627E+04  0.18977873627E+04  0.50400001928E-02 0. -1.
    10030    2    1    2    0    0  0.00000000000E+00  0.00000000000E+00 -0.15365177823E+04  0.22590569432E+04  0.16560348358E+04 0.  0.
        2    1    3    3  502    0  0.50818329992E+02 -0.82345076578E+03 -0.67219447279E+03  0.10641893984E+04  0.25500000920E-02 0.  1.
       -2    1    3    3    0  502 -0.50818329992E+02  0.82345076578E+03 -0.86432330949E+03  0.11948675448E+04  0.25500000920E-02 0. -1.
</event>
<event>
 5   0  0.3915701E-04  0.1699217E+04  0.7818609E-02  0.8761811E-01
       -1   -1    0    0    0  501  0.00000000000E+00  0.00000000000E+00  0.70909571174E+03  0.70909571176E+03  0.50400001928E-02 0. -1.
        1   -1    0    0  501    0  0.00000000000E+00  0.00000000000E+00 -0.10179644509E+04  0.10179644509E+04  0.50400001928E-02 0.  1.
    10030    2    1    2    0    0  0.00000000000E+00  0.00000000000E+00 -0.30886873914E+03  0.17270601626E+04  0.16992165569E+04 0.  0.
        2    1    3    3  502    0 -0.94060929748E+02 -0.34550659625E+03  0.62865270704E+03  0.72348219925E+03  0.25500000920E-02 0. -1.
       -2    1    3    3    0  502  0.94060929748E+02  0.34550659625E+03 -0.93752144618E+03  0.10035779634E+04  0.25500000920E-02 0.  1.
</event>
<event>
 5   0  0.7049044E-04  0.1708613E+04  0.7818609E-02  0.8756467E-01
       -2   -1    0    0    0  501  0.00000000000E+00  0.00000000000E+00  0.59744101817E+03  0.59744101818E+03  0.25500000920E-02 0.  1.
        2   -1    0    0  501    0  0.00000000000E+00  0.00000000000E+00 -0.12216089211E+04  0.12216089211E+04  0.25500000920E-02 0. -1.
    10030    2    1    2    0    0  0.00000000000E+00  0.00000000000E+00 -0.62416790297E+03  0.18190499393E+04  0.17086126274E+04 0.  0.
        4    1    3    3  502    0  0.69854025143E+03  0.19621531529E+02 -0.83526781722E+03  0.10890442722E+04  0.12699999809E+01 0. -1.
       -4    1    3    3    0  502 -0.69854025143E+03 -0.19621531529E+02  0.21109991425E+03  0.73000566715E+03  0.12699999809E+01 0.  1.
</event>
<event>
 5   0  0.3713516E-04  0.1690124E+04  0.7818609E-02  0.8767017E-01
        1   -1    0    0  501    0  0.00000000000E+00  0.00000000000E+00  0.85202798083E+03  0.85202798084E+03  0.50400001928E-02 0. -1.
       -1   -1    0    0    0  501  0.00000000000E+00  0.00000000000E+00 -0.83815308614E+03  0.83815308616E+03  0.50400001928E-02 0.  1.
    10030    2    1    2    0    0  0.00000000000E+00  0.00000000000E+00  0.13874894686E+02  0.16901810670E+04  0.16901241157E+04 0.  0.
        5    1    3    3  502    0 -0.80723565812E+03  0.14339483035E+03 -0.19780417383E+03  0.84340978551E+03  0.46999998093E+01 0. -1.
       -5    1    3    3    0  502  0.80723565812E+03 -0.14339483035E+03  0.21167906852E+03  0.84677128149E+03  0.46999998093E+01 0.  1.
</event>
<event>
 5   0  0.6746664E-04  0.1673403E+04  0.7818609E-02  0.8776681E-01
       -2   -1    0    0    0  501  0.00000000000E+00  0.00000000000E+00  0.81412260502E+03  0.81412260503E+03  0.25500000920E-02 0. -1.
        2   -1    0    0  501    0  0.00000000000E+00  0.00000000000E+00 -0.85990642389E+03  0.85990642389E+03  0.25500000920E-02 0.  1.
    10030    2    1    2    0    0  0.00000000000E+00  0.00000000000E+00 -0.45783818865E+02  0.16740290289E+04  0.16734028300E+04 0.  0.
        5    1    3    3  502    0 -0.80470456522E+03 -0.15243409553E+03 -0.19401607782E+03  0.84169467101E+03  0.46999998093E+01 0.  1.
       -5    1    3    3    0  502  0.80470456522E+03  0.15243409553E+03  0.14823225895E+03  0.83233435791E+03  0.46999998093E+01 0. -1.
</event>
<event>
 5   0  0.3915701E-04  0.1743506E+04  0.7818609E-02  0.8736933E-01
        1   -1    0    0  501    0  0.00000000000E+00  0.00000000000E+00  0.11788386768E+04  0.11788386768E+04  0.50400001928E-02 0. -1.
       -1   -1    0    0    0  501  0.00000000000E+00  0.00000000000E+00 -0.64466256868E+03  0.64466256870E+03  0.50400001928E-02 0.  1.
    10030    2    1    2    0    0  0.00000000000E+00  0.00000000000E+00  0.53417610807E+03  0.18235012455E+04  0.17435058582E+04 0.  0.
        2    1    3    3  502    0  0.39577426972E+03  0.24546867420E+03  0.10378264087E+04  0.11375305698E+04  0.25500000920E-02 0. -1.
       -2    1    3    3    0  502 -0.39577426972E+03 -0.24546867420E+03 -0.50365030061E+03  0.68597067569E+03  0.25500000920E-02 0.  1.
</event>
<event>
 5   0  0.7233728E-04  0.1698210E+04  0.7818609E-02  0.8762386E-01
        2   -1    0    0  501    0  0.00000000000E+00  0.00000000000E+00  0.20298592132E+04  0.20298592132E+04  0.25500000920E-02 0.  1.
       -2   -1    0    0    0  501  0.00000000000E+00  0.00000000000E+00 -0.35518675757E+03  0.35518675758E+03  0.25500000920E-02 0. -1.
    10030    2    1    2    0    0  0.00000000000E+00  0.00000000000E+00  0.16746724557E+04  0.23850459708E+04  0.16982097777E+04 0.  0.
        1    1    3    3  502    0 -0.11894877312E+03  0.26430059345E+03  0.19582359996E+04  0.19795686006E+04  0.50400001928E-02 0.  1.
       -1    1    3    3    0  502  0.11894877312E+03 -0.26430059345E+03 -0.28356354391E+03  0.40547737025E+03  0.50400001928E-02 0. -1.
</event>
<event>
 5   0  0.3713516E-04  0.1760012E+04  0.7818609E-02  0.8727859E-01
       -1   -1    0    0    0  501  0.00000000000E+00  0.00000000000E+00  0.79789563392E+03  0.79789563394E+03  0.50400001928E-02 0. -1.
        1   -1    0    0  501    0  0.00000000000E+00  0.00000000000E+00 -0.97056572909E+03  0.97056572911E+03  0.50400001928E-02 0.  1.
    10030    2    1    2    0    0  0.00000000000E+00  0.00000000000E+00 -0.17267009517E+03  0.17684613630E+04  0.17600115428E+04 0.  0.
        5    1    3    3  502    0  0.19122157462E+03  0.16731722796E+03 -0.93289245817E+03  0.96688736360E+03  0.46999998093E+01 0.  1.
       -5    1    3    3    0  502 -0.19122157462E+03 -0.16731722796E+03  0.76022236300E+03  0.80157399944E+03  0.46999998093E+01 0. -1.
</event>
<event>
 5   0  0.2639750E-04  0.1696705E+04  0.7818609E-02  0.8763246E-01
        4   -1    0    0  501    0  0.00000000000E+00  0.00000000000E+00  0.11317973740E+04  0.11317980866E+04  0.12699999809E+01 0. -1.
       -4   -1    0    0    0  501  0.00000000000E+00  0.00000000000E+00 -0.63589143961E+03  0.63589270783E+03  0.12699999809E+01 0.  1.
    10030    2    1    2    0    0  0.00000000000E+00  0.00000000000E+00  0.49590593444E+03  0.17676907944E+04  0.16967050565E+04 0.  0.
        1    1    3    3  502    0 -0.67501581238E+02 -0.29643077875E+03  0.10730949948E+04  0.11153297889E+04  0.50400001928E-02 0. -1.
       -1    1    3    3    0  502  0.67501581238E+02  0.29643077875E+03 -0.57718906039E+03  0.65236100552E+03  0.50400001928E-02 0.  1.
</event>
<event>
 5   0  0.7025426E-04  0.1690611E+04  0.7818609E-02  0.8766737E-01
       -2   -1    0    0    0  501  0.00000000000E+00  0.00000000000E+00  0.56931388350E+03  0.56931388351E+03  0.25500000920E-02 0. -1.
        2   -1    0    0  501    0  0.00000000000E+00  0.00000000000E+00 -0.12550925927E+04  0.12550925927E+04  0.25500000920E-02 0.  1.
    10030    2    1    2    0    0  0.00000000000E+00  0.00000000000E+00 -0.68577870915E+03  0.18244064762E+04  0.16906112955E+04 0.  0.
        2    1    3    3  502    0  0.47741667569E+03  0.69595169864E+03 -0.29151742202E+03  0.89289297030E+03  0.25500000920E-02 0.  1.
       -2    1    3    3    0  502 -0.47741667569E+03 -0.69595169864E+03 -0.39426128713E+03  0.93151350586E+03  0.25500000920E-02 0. -1.
</event>
<event>
 5   0  0.7025426E-04  0.1743066E+04  0.7818609E-02  0.8737176E-01
        2   -1    0    0  501    0  0.00000000000E+00  0.00000000000E+00  0.78351694371E+03  0.78351694372E+03  0.25500000920E-02 0. -1.
       -2   -1    0    0    0  501  0.00000000000E+00  0.00000000000E+00 -0.96943679528E+03  0.96943679529E+03  0.25500000920E-02 0.  1.
    10030    2    1    2    0    0  0.00000000000E+00  0.00000000000E+00 -0.18591985157E+03  0.17529537390E+04  0.17430664416E+04 0.  0.
        2    1    3    3  502    0 -0.72104521888E+03  0.48826752800E+03 -0.57279549350E+02  0.87269257666E+03  0.25500000920E-02 0.  1.
       -2    1    3    3    0  502  0.72104521888E+03 -0.48826752800E+03 -0.12864030222E+03  0.88026116235E+03  0.25500000920E-02 0. -1.
</event>
<event>
 5   0  0.7049044E-04  0.1677540E+04  0.7818609E-02  0.8774279E-01
        2   -1    0    0  501    0  0.00000000000E+00  0.00000000000E+00  0.95570466221E+03  0.95570466222E+03  0.25500000920E-02 0.  1.
       -2   -1    0    0    0  501  0.00000000000E+00  0.00000000000E+00 -0.73614285348E+03  0.73614285349E+03  0.25500000920E-02 0. -1.
    10030    2    1    2    0    0  0.00000000000E+00  0.00000000000E+00  0.21956180873E+03  0.16918475157E+04  0.16775400527E+04 0.  0.
        4    1    3    3  502    0 -0.67950338915E+03 -0.95034983111E+02  0.59636553926E+03  0.90907093958E+03  0.12699999809E+01 0.  1.
       -4    1    3    3    0  502  0.67950338915E+03  0.95034983111E+02 -0.37680373052E+03  0.78277657612E+03  0.12699999809E+01 0. -1.
</event>
<event>
 5   0  0.7025426E-04  0.1694276E+04  0.7818609E-02  0.8764636E-01
       -2   -1    0    0    0  501  0.00000000000E+00  0.00000000000E+00  0.94448214128E+03  0.94448214129E+03  0.25500000920E-02 0.  1.
        2   -1    0    0  501    0  0.00000000000E+00  0.00000000000E+00 -0.75982688253E+03  0.75982688254E+03  0.25500000920E-02 0. -1.
    10030    2    1    2    0    0  0.00000000000E+00  0.00000000000E+00  0.18465525875E+03  0.17043090238E+04  0.16942761534E+04 0.  0.
        2    1    3    3  502    0  0.61262770761E+03  0.37863630643E+03  0.54102365913E+03  0.90076898283E+03  0.25500000920E-02 0. -1.
       -2    1    3    3    0  502 -0.61262770761E+03 -0.37863630643E+03 -0.35636840038E+03  0.80354004099E+03  0.25500000920E-02 0.  1.
</event>
<event>
 5   0  0.7025426E-04  0.1708138E+04  0.7818609E-02  0.8756736E-01
       -2   -1    0    0    0  501  0.00000000000E+00  0.00000000000E+00  0.51981543594E+03  0.51981543595E+03  0.25500000920E-02 0. -1.
        2   -1    0    0  501    0  0.00000000000E+00  0.00000000000E+00 -0.14032557245E+04  0.14032557245E+04  0.25500000920E-02 0.  1.
    10030    2    1    2    0    0  0.00000000000E+00  0.00000000000E+00 -0.88344028854E+03  0.19230711604E+04  0.17081381515E+04 0.  0.
        2    1    3    3  502    0 -0.53346105755E+03  0.22190111432E+03  0.26640128783E+03  0.63623144422E+03  0.25500000920E-02 0. -1.
       -2    1    3    3    0  502  0.53346105755E+03 -0.22190111432E+03 -0.11498415764E+04  0.12868397162E+04  0.25500000920E-02 0.  1.
</event>
<event>
 5   0  0.7242144E-04  0.1656790E+04  0.7818609E-02  0.8786400E-01
       -2   -1    0    0    0  501  0.00000000000E+00  0.00000000000E+00  0.50654713478E+03  0.50654713479E+03  0.25500000920E-02 0. -1.
        2   -1    0    0  501    0  0.00000000000E+00  0.00000000000E+00 -0.13547368137E+04  0.13547368137E+04  0.25500000920E-02 0.  1.
    10030    2    1    2    0    0  0.00000000000E+00  0.00000000000E+00 -0.84818967887E+03  0.18612839484E+04  0.16567897288E+04 0.  0.
        3    1    3    3  502    0 -0.57397184954E+03  0.27306229095E+03 -0.10209210110E+04  0.12026164890E+04  0.10100000352E+00 0. -1.
       -3    1    3    3    0  502  0.57397184954E+03 -0.27306229095E+03  0.17273133211E+03  0.65866745942E+03  0.10100000352E+00 0.  1.
</event>
<event>
 5   0  0.3803253E-04  0.1659460E+04  0.7818609E-02  0.8784830E-01
        1   -1    0    0  501    0  0.00000000000E+00  0.00000000000E+00  0.13083160760E+04  0.13083160760E+04  0.50400001928E-02 0. -1.
       -1   -1    0    0    0  501  0.00000000000E+00  0.00000000000E+00 -0.52621192882E+03  0.52621192884E+03  0.50400001928E-02 0.  1.
    10030    2    1    2    0    0  0.00000000000E+00  0.00000000000E+00  0.78210414717E+03  0.18345280049E+04  0.16594595818E+04 0.  0.
        4    1    3    3  502    0 -0.30921037803E+03 -0.55402082534E+03  0.98215699810E+03  0.11692664857E+04  0.12699999809E+01 0. -1.
       -4    1    3    3    0  502  0.30921037803E+03  0.55402082534E+03 -0.20005285092E+03  0.66526151914E+03  0.12699999809E+01 0.  1.
</event>
<event>
 5   0  0.3723500E-04  0.1724225E+04  0.7818609E-02  0.8747667E-01
       -1   -1    0    0    0  501  0.00000000000E+00  0.00000000000E+00  0.47005379543E+03  0.47005379546E+03  0.50400001928E-02 0. -1.
        1   -1    0    0  501    0  0.00000000000E+00  0.00000000000E+00 -0.15811769220E+04  0.15811769220E+04  0.50400001928E-02 0.  1.
    10030    2    1    2    0    0  0.00000000000E+00  0.00000000000E+00 -0.11111231266E+04  0.20512307175E+04  0.17242252910E+04 0.  0.
        1    1    3    3  502    0  0.80523639050E+03  0.18626510662E+03 -0.84730060612E+03  0.11836463372E+04  0.50400001928E-02 0.  1.
       -1    1    3    3    0  502 -0.80523639050E+03 -0.18626510662E+03 -0.26382252049E+03  0.86758438026E+03  0.50400001928E-02 0. -1.
</event>
<event>
 5   0  0.3635143E-04  0.1710922E+04  0.7818609E-02  0.8755160E-01
        1   -1    0    0  501    0  0.00000000000E+00  0.00000000000E+00  0.54008074783E+03  0.54008074785E+03  0.50400001928E-02 0.  1.
       -1   -1    0    0    0  501  0.00000000000E+00  0.00000000000E+00 -0.13550068842E+04  0.13550068842E+04  0.50400001928E-02 0. -1.
    10030    2    1    2    0    0  0.00000000000E+00  0.00000000000E+00 -0.81492613633E+03  0.18950876320E+04  0.17109215427E+04 0.  0.
        3    1    3    3  502    0  0.81324563174E+02 -0.48785726689E+03 -0.11805894456E+04  0.12800038464E+04  0.10100000352E+00 0. -1.
       -3    1    3    3    0  502 -0.81324563174E+02  0.48785726689E+03  0.36566330927E+03  0.61508378566E+03  0.10100000352E+00 0.  1.
</event>
<event>
 5   0  0.3915701E-04  0.1746185E+04  0.7818609E-02  0.8735453E-01
        1   -1    0    0  501    0  0.00000000000E+00  0.00000000000E+00  0.11727810364E+04  0.11727810365E+04  0.50400001928E-02 0.  1.
       -1   -1    0    0    0  501  0.00000000000E+00  0.00000000000E+00 -0.64998529142E+03  0.64998529143E+03  0.50400001928E-02 0. -1.
    10030    2    1    2    0    0  0.00000000000E+00  0.00000000000E+00  0.52279574503E+03  0.18227663279E+04  0.17461848972E+04 0.  0.
        2    1    3    3  502    0 -0.36817847267E+03 -0.70214994729E+03 -0.12031758345E+03  0.80190165053E+03  0.25500000920E-02 0. -1.
       -2    1    3    3    0  502  0.36817847267E+03  0.70214994729E+03  0.64311332848E+03  0.10208646774E+04  0.25500000920E-02 0.  1.
</event>
<event>
 5   0  0.3723500E-04  0.1724768E+04  0.7818609E-02  0.8747363E-01
       -1   -1    0    0    0  501  0.00000000000E+00  0.00000000000E+00  0.90549204965E+03  0.90549204966E+03  0.50400001928E-02 0. -1.
        1   -1    0    0  501    0  0.00000000000E+00  0.00000000000E+00 -0.82132804581E+03  0.82132804583E+03  0.50400001928E-02 0.  1.
    10030    2    1    2    0    0  0.00000000000E+00  0.00000000000E+00  0.84164003834E+02  0.17268200955E+04  0.17247678286E+04 0.  0.
        1    1    3    3  502    0 -0.42314681101E+03  0.10204003135E+03 -0.70327721914E+03  0.82708176056E+03  0.50400001928E-02 0.  1.
       -1    1    3    3    0  502  0.42314681101E+03 -0.10204003135E+03  0.78744122298E+03  0.89973833493E+03  0.50400001928E-02 0. -1.
</event>
<event>
 5   0  0.7049044E-04  0.1713253E+04  0.7818609E-02  0.8753842E-01
       -2   -1    0    0    0  501  0.00000000000E+00  0.00000000000E+00  0.26721642659E+03  0.26721642661E+03  0.25500000920E-02 0.  1.
        2   -1    0    0  501    0  0.00000000000E+00  0.00000000000E+00 -0.27461217573E+04  0.27461217573E+04  0.25500000920E-02 0. -1.
    10030    2    1    2    0    0  0.00000000000E+00  0.00000000000E+00 -0.24789053307E+04  0.30133381839E+04  0.17132528628E+04 0.  0.
        4    1    3    3  502    0 -0.12697364640E+03 -0.13834602312E+03  0.23056886795E+03  0.29736433001E+03  0.12699999809E+01 0.  1.
       -4    1    3    3    0  502  0.12697364640E+03  0.13834602312E+03 -0.27094741986E+04  0.27159738539E+04  0.12699999809E+01 0. -1.
</event>
<event>
 5   0  0.7049044E-04  0.1623669E+04  0.7818609E-02  0.8806138E-01
        2   -1    0    0  501    0  0.00000000000E+00  0.00000000000E+00  0.74764986378E+03  0.74764986378E+03  0.25500000920E-02 0. -1.
       -2   -1    0    0    0  501  0.00000000000E+00  0.00000000000E+00 -0.88152917966E+03  0.88152917967E+03  0.25500000920E-02 0.  1.
    10030    2    1    2    0    0  0.00000000000E+00  0.00000000000E+00 -0.13387931589E+03  0.16291790434E+04  0.16236688962E+04 0.  0.
        4    1    3    3  502    0  0.13779053443E+03 -0.68268274889E+03  0.35164700754E+03  0.78019176990E+03  0.12699999809E+01 0. -1.
       -4    1    3    3    0  502 -0.13779053443E+03  0.68268274889E+03 -0.48552632342E+03  0.84898727355E+03  0.12699999809E+01 0.  1.
</event>
<event>
 5   0  0.7025426E-04  0.1734243E+04  0.7818609E-02  0.8742072E-01
        2   -1    0    0  501    0  0.00000000000E+00  0.00000000000E+00  0.69155022520E+03  0.69155022521E+03  0.25500000920E-02 0. -1.
       -2   -1    0    0    0  501  0.00000000000E+00  0.00000000000E+00 -0.10872669711E+04  0.10872669711E+04  0.25500000920E-02 0.  1.
    10030    2    1    2    0    0  0.00000000000E+00  0.00000000000E+00 -0.39571674585E+03  0.17788171963E+04  0.17342430264E+04 0.  0.
        2    1    3    3  502    0  0.25522592680E+03  0.99884579500E+02 -0.10416708205E+04  0.10771236239E+04  0.25500000920E-02 0.  1.
       -2    1    3    3    0  502 -0.25522592680E+03 -0.99884579500E+02  0.64595407463E+03  0.70169357235E+03  0.25500000920E-02 0. -1.
</event>
<event>
 5   0  0.2639750E-04  0.1689019E+04  0.7818609E-02  0.8767652E-01
        3   -1    0    0  501    0  0.00000000000E+00  0.00000000000E+00  0.12774718255E+04  0.12774718295E+04  0.10100000352E+00 0.  1.
       -3   -1    0    0    0  501  0.00000000000E+00  0.00000000000E+00 -0.55828738593E+03  0.55828739507E+03  0.10100000352E+00 0. -1.
    10030    2    1    2    0    0  0.00000000000E+00  0.00000000000E+00  0.71918443954E+03  0.18357592245E+04  0.16890191451E+04 0.  0.
        2    1    3    3  502    0  0.20234026904E+03 -0.38472286668E+03 -0.42735848539E+03  0.60958062933E+03  0.25500000920E-02 0. -1.
       -2    1    3    3    0  502 -0.20234026904E+03  0.38472286668E+03  0.11465429249E+04  0.12261785952E+04  0.25500000920E-02 0.  1.
</event>
<event>
 5   0  0.3803253E-04  0.1722875E+04  0.7818609E-02  0.8748424E-01
        1   -1    0    0  501    0  0.00000000000E+00  0.00000000000E+00  0.73865235945E+03  0.73865235947E+03  0.50400001928E-02 0. -1.
       -1   -1    0    0    0  501  0.00000000000E+00  0.00000000000E+00 -0.10046329465E+04  0.10046329466E+04  0.50400001928E-02 0.  1.
    10030    2    1    2    0    0  0.00000000000E+00  0.00000000000E+00 -0.26598058710E+03  0.17432853060E+04  0.17228749187E+04 0.  0.
        4    1    3    3  502    0 -0.70677016628E+03 -0.48399355148E+03 -0.40811904961E+02  0.85757859716E+03  0.12699999809E+01 0. -1.
       -4    1    3    3    0  502  0.70677016628E+03  0.48399355148E+03 -0.22516868214E+03  0.88570670887E+03  0.12699999809E+01 0.  1.
</event>
<event>
 5   0  0.3635143E-04  0.1659340E+04  0.7818609E-02  0.8784900E-01
        1   -1    0    0  501    0  0.00000000000E+00  0.00000000000E+00  0.16572430311E+04  0.16572430312E+04  0.50400001928E-02 0.  1.
       -1   -1    0    0    0  501  0.00000000000E+00  0.00000000000E+00 -0.41536001175E+03  0.41536001178E+03  0.50400001928E-02 0. -1.
    10030    2    1    2    0    0  0.00000000000E+00  0.00000000000E+00  0.12418830194E+04  0.20726030429E+04  0.16593402122E+04 0.  0.
        3    1    3    3  502    0 -0.56475845017E+03  0.54507341719E+03  0.95678415226E+03  0.12375350748E+04  0.10100000352E+00 0.  1.
       -3    1    3    3    0  502  0.56475845017E+03 -0.54507341719E+03  0.28509886714E+03  0.83506796813E+03  0.10100000352E+00 0. -1.
</event>
<event>
 5   0  0.3803253E-04  0.1059019E+04  0.7818609E-02  0.9246082E-01
        1   -1    0    0  501    0  0.00000000000E+00  0.00000000000E+00  0.98632242884E+03  0.98632242886E+03  0.50400001928E-02 0. -1.
       -1   -1    0    0    0  501  0.00000000000E+00  0.00000000000E+00 -0.28426834318E+03  0.28426834322E+03  0.50400001928E-02 0.  1.
    10030    2    1    2    0    0  0.00000000000E+00  0.00000000000E+00  0.70205408567E+03  0.12705907721E+04  0.10590188718E+04 0.  0.
        4    1    3    3  502    0  0.39360138414E+03  0.28447136541E+02 -0.72560818509E+02  0.40124552889E+03  0.12699999809E+01 0.  1.
       -4    1    3    3    0  502 -0.39360138414E+03 -0.28447136541E+02  0.77461490418E+03  0.86934524318E+03  0.12699999809E+01 0. -1.
</event>
<event>
 5   0  0.3803253E-04  0.1692812E+04  0.7818609E-02  0.8765474E-01
       -1   -1    0    0    0  501  0.00000000000E+00  0.00000000000E+00  0.38658380170E+03  0.38658380173E+03  0.50400001928E-02 0.  1.
        1   -1    0    0  501    0  0.00000000000E+00  0.00000000000E+00 -0.18531647804E+04  0.18531647804E+04  0.50400001928E-02 0. -1.
    10030    2    1    2    0    0  0.00000000000E+00  0.00000000000E+00 -0.14665809787E+04  0.22397485821E+04  0.16928124362E+04 0.  0.
        4    1    3    3  502    0 -0.30104855827E+03  0.42917698716E+03 -0.16125043246E+04  0.16955810009E+04  0.12699999809E+01 0. -1.
       -4    1    3    3    0  502  0.30104855827E+03 -0.42917698716E+03  0.14592334589E+03  0.54416758128E+03  0.12699999809E+01 0.  1.
</event>
<event>
 5   0  0.7233728E-04  0.1508446E+04  0.7818609E-02  0.8878856E-01
        2   -1    0    0  501    0  0.00000000000E+00  0.00000000000E+00  0.11566857207E+04  0.11566857207E+04  0.25500000920E-02 0.  1.
       -2   -1    0    0    0  501  0.00000000000E+00  0.00000000000E+00 -0.49179510667E+03  0.49179510668E+03  0.25500000920E-02 0. -1.
    10030    2    1    2    0    0  0.00000000000E+00  0.00000000000E+00  0.66489061401E+03  0.16484808274E+04  0.15084460579E+04 0.  0.
        1    1    3    3  502    0  0.44366574209E+03  0.40960830333E+02  0.99749128236E+03  0.10924769740E+04  0.50400001928E-02 0.  1.
       -1    1    3    3    0  502 -0.44366574209E+03 -0.40960830333E+02 -0.33260066835E+03  0.55600385335E+03  0.50400001928E-02 0. -1.
</event>
<event>
 5   0  0.7025426E-04  0.1703912E+04  0.7818609E-02  0.8759137E-01
        2   -1    0    0  501    0  0.00000000000E+00  0.00000000000E+00  0.10293045442E+04  0.10293045442E+04  0.25500000920E-02 0. -1.
       -2   -1    0    0    0  501  0.00000000000E+00  0.00000000000E+00 -0.70516420233E+03  0.70516420234E+03  0.25500000920E-02 0.  1.
    10030    2    1    2    0    0  0.00000000000E+00  0.00000000000E+00  0.32414034185E+03  0.17344687465E+04  0.17039116384E+04 0.  0.
        2    1    3    3  502    0  0.21955197290E+03  0.75966404560E+03 -0.16069050330E+03  0.80691633323E+03  0.25500000920E-02 0.  1.
       -2    1    3    3    0  502 -0.21955197290E+03 -0.75966404560E+03  0.48483084514E+03  0.92755241329E+03  0.25500000920E-02 0. -1.
</event>
<event>
 5   0  0.7242144E-04  0.1696402E+04  0.7818609E-02  0.8763419E-01
       -2   -1    0    0    0  501  0.00000000000E+00  0.00000000000E+00  0.58371952562E+03  0.58371952562E+03  0.25500000920E-02 0.  1.
        2   -1    0    0  501    0  0.00000000000E+00  0.00000000000E+00 -0.12325179381E+04  0.12325179381E+04  0.25500000920E-02 0. -1.
    10030    2    1    2    0    0  0.00000000000E+00  0.00000000000E+00 -0.64879841245E+03  0.18162374637E+04  0.16964018228E+04 0.  0.
        3    1    3    3  502    0  0.11639378182E+03 -0.77521032265E+03 -0.67123770493E+03  0.10320167748E+04  0.10100000352E+00 0. -1.
       -3    1    3    3    0  502 -0.11639378182E+03  0.77521032265E+03  0.22439292480E+02  0.78422068887E+03  0.10100000352E+00 0.  1.
</event>
<event>
 5   0  0.6746664E-04  0.1720980E+04  0.7818609E-02  0.8749488E-01
        2   -1    0    0  501    0  0.00000000000E+00  0.00000000000E+00  0.11834204357E+04  0.11834204357E+04  0.25500000920E-02 0.  1.
       -2   -1    0    0    0  501  0.00000000000E+00  0.00000000000E+00 -0.62568077651E+03  0.62568077652E+03  0.25500000920E-02 0. -1.
    10030    2    1    2    0    0  0.00000000000E+00  0.00000000000E+00  0.55773965915E+03  0.18091012122E+04  0.17209804382E+04 0.  0.
        5    1    3    3  502    0 -0.85963437177E+03 -0.23274010027E+02  0.31055267444E+03  0.91431831780E+03  0.46999998093E+01 0. -1.
       -5    1    3    3    0  502  0.85963437177E+03  0.23274010027E+02  0.24718698471E+03  0.89478289438E+03  0.46999998093E+01 0.  1.
</event>
<event>
 5   0  0.3713516E-04  0.1695829E+04  0.7818609E-02  0.8763747E-01
       -1   -1    0    0    0  501  0.00000000000E+00  0.00000000000E+00  0.10746633169E+04  0.10746633169E+04  0.50400001928E-02 0.  1.
        1   -1    0    0  501    0  0.00000000000E+00  0.00000000000E+00 -0.66900886106E+03  0.66900886108E+03  0.50400001928E-02 0. -1.
    10030    2    1    2    0    0  0.00000000000E+00  0.00000000000E+00  0.40565445583E+03  0.17436721780E+04  0.16958293330E+04 0.  0.
        5    1    3    3  502    0 -0.81426067476E+03 -0.19777130206E+03  0.69542793334E+02  0.84082829667E+03  0.46999998093E+01 0. -1.
       -5    1    3    3    0  502  0.81426067476E+03  0.19777130206E+03  0.33611166250E+03  0.90284388132E+03  0.46999998093E+01 0.  1.
</event>
<event>
 5   0  0.3915701E-04  0.1688568E+04  0.7818609E-02  0.8767911E-01
       -1   -1    0    0    0  501  0.00000000000E+00  0.00000000000E+00  0.53963299761E+03  0.53963299763E+03  0.50400001928E-02 0.  1.
        1   -1    0    0  501    0  0.00000000000E+00  0.00000000000E+00 -0.13209264292E+04  0.13209264292E+04  0.50400001928E-02 0. -1.
    10030    2    1    2    0    0  0.00000000000E+00  0.00000000000E+00 -0.78129343156E+03  0.18605594268E+04  0.16885680189E+04 0.  0.
        2    1    3    3  502    0  0.30649625537E+03  0.74832310297E+03 -0.12326073189E+03  0.81799793950E+03  0.25500000920E-02 0.  1.
       -2    1    3    3    0  502 -0.30649625537E+03 -0.74832310297E+03 -0.65803269966E+03  0.10425614873E+04  0.25500000920E-02 0. -1.
</event>
<event>
 5   0  0.3713516E-04  0.1697871E+04  0.7818609E-02  0.8762580E-01
       -1   -1    0    0    0  501  0.00000000000E+00  0.00000000000E+00  0.30326197168E+03  0.30326197173E+03  0.50400001928E-02 0.  1.
        1   -1    0    0  501    0  0.00000000000E+00  0.00000000000E+00 -0.23764650681E+04  0.23764650681E+04  0.50400001928E-02 0. -1.
    10030    2    1    2    0    0  0.00000000000E+00  0.00000000000E+00 -0.20732030964E+04  0.26797270398E+04  0.16978709989E+04 0.  0.
        5    1    3    3  502    0 -0.69904852497E+03  0.23535278323E+03 -0.16998756583E+04  0.18530135230E+04  0.46999998093E+01 0.  1.
       -5    1    3    3    0  502  0.69904852497E+03 -0.23535278323E+03 -0.37332743813E+03  0.82671351682E+03  0.46999998093E+01 0. -1.
</event>
<event>
 5   0  0.7025426E-04  0.1634594E+04  0.7818609E-02  0.8799573E-01
       -2   -1    0    0    0  501  0.00000000000E+00  0.00000000000E+00  0.99128080866E+03  0.99128080866E+03  0.25500000920E-02 0.  1.
        2   -1    0    0  501    0  0.00000000000E+00  0.00000000000E+00 -0.67384976946E+03  0.67384976946E+03  0.25500000920E-02 0. -1.
    10030    2    1    2    0    0  0.00000000000E+00  0.00000000000E+00  0.31743103920E+03  0.16651305781E+04  0.16345939488E+04 0.  0.
        2    1    3    3  502    0  0.45138767354E+03  0.56381448188E+03 -0.23097074746E+03  0.75827771165E+03  0.25500000920E-02 0. -1.
       -2    1    3    3    0  502 -0.45138767354E+03 -0.56381448188E+03  0.54840178666E+03  0.90685286647E+03  0.25500000920E-02 0.  1.
</event>
<event>
 5   0  0.7233728E-04  0.1679695E+04  0.7818609E-02  0.8773030E-01
       -2   -1    0    0    0  501  0.00000000000E+00  0.00000000000E+00  0.45881393070E+03  0.45881393070E+03  0.25500000920E-02 0. -1.
        2   -1    0    0  501    0  0.00000000000E+00  0.00000000000E+00 -0.15373206331E+04  0.15373206331E+04  0.25500000920E-02 0.  1.
    10030    2    1    2    0    0  0.00000000000E+00  0.00000000000E+00 -0.10785067024E+04  0.19961345638E+04  0.16796953562E+04 0.  0.
        1    1    3    3  502    0 -0.33292225397E+03  0.33540507528E+03  0.28581032270E+03  0.55228736388E+03  0.50400001928E-02 0. -1.
       -1    1    3    3    0  502  0.33292225397E+03 -0.33540507528E+03 -0.13643170251E+04  0.14438471999E+04  0.50400001928E-02 0.  1.
</event>
<event>
 5   0  0.7233728E-04  0.1212798E+04  0.7818609E-02  0.9101728E-01
        2   -1    0    0  501    0  0.00000000000E+00  0.00000000000E+00  0.54837365123E+03  0.54837365123E+03  0.25500000920E-02 0. -1.
       -2   -1    0    0    0  501  0.00000000000E+00  0.00000000000E+00 -0.67056380301E+03  0.67056380301E+03  0.25500000920E-02 0.  1.
    10030    2    1    2    0    0  0.00000000000E+00  0.00000000000E+00 -0.12219015178E+03  0.12189374542E+04  0.12127976270E+04 0.  0.
        1    1    3    3  502    0 -0.67387180291E+02 -0.56002628716E+03 -0.28481812754E+03  0.63189543453E+03  0.50400001928E-02 0.  1.
       -1    1    3    3    0  502  0.67387180291E+02  0.56002628716E+03  0.16262797576E+03  0.58704201971E+03  0.50400001928E-02 0. -1.
</event>
<event>
 5   0  0.7242144E-04  0.1712040E+04  0.7818609E-02  0.8754527E-01
        2   -1    0    0  501    0  0.00000000000E+00  0.00000000000E+00  0.87835336147E+03  0.87835336148E+03  0.25500000920E-02 0. -1.
       -2   -1    0    0    0  501  0.00000000000E+00  0.00000000000E+00 -0.83425449023E+03  0.83425449024E+03  0.25500000920E-02 0.  1.
    10030    2    1    2    0    0  0.00000000000E+00  0.00000000000E+00  0.44098871241E+02  0.17126078517E+04  0.17120399947E+04 0.  0.
        3    1    3    3  502    0 -0.34784019806E+03 -0.60404400296E+03  0.51911289550E+03  0.86910308329E+03  0.10100000352E+00 0. -1.
       -3    1    3    3    0  502  0.34784019806E+03  0.60404400296E+03 -0.47501402426E+03  0.84350476842E+03  0.10100000352E+00 0.  1.
</event>
<event>
 5   0  0.3803253E-04  0.1721366E+04  0.7818609E-02  0.8749272E-01
       -1   -1    0    0    0  501  0.00000000000E+00  0.00000000000E+00  0.70366948564E+03  0.70366948566E+03  0.50400001928E-02 0.  1.
        1   -1    0    0  501    0  0.00000000000E+00  0.00000000000E+00 -0.10527313802E+04  0.10527313802E+04  0.50400001928E-02 0. -1.
    10030    2    1    2    0    0  0.00000000000E+00  0.00000000000E+00 -0.34906189456E+03  0.17564008659E+04  0.17213656774E+04 0.  0.
        4    1    3    3  502    0  0.33815801523E+03 -0.63848808235E+03  0.30270149068E+03  0.78335667478E+03  0.12699999809E+01 0.  1.
       -4    1    3    3    0  502 -0.33815801523E+03  0.63848808235E+03 -0.65176338524E+03  0.97304419108E+03  0.12699999809E+01 0. -1.
</event>
<event>
 5   0  0.7242144E-04  0.1709896E+04  0.7818609E-02  0.8755741E-01
       -2   -1    0    0    0  501  0.00000000000E+00  0.00000000000E+00  0.13617778539E+04  0.13617778539E+04  0.25500000920E-02 0.  1.
        2   -1    0    0  501    0  0.00000000000E+00  0.00000000000E+00 -0.53675107678E+03  0.53675107679E+03  0.25500000920E-02 0. -1.
    10030    2    1    2    0    0  0.00000000000E+00  0.00000000000E+00  0.82502677716E+03  0.18985289307E+04  0.17098955868E+04 0.  0.
        3    1    3    3  502    0 -0.40177798708E+03 -0.24952341073E+03  0.12032974380E+04  0.12929084337E+04  0.10100000352E+00 0.  1.
       -3    1    3    3    0  502  0.40177798708E+03  0.24952341073E+03 -0.37827066083E+03  0.60562049705E+03  0.10100000352E+00 0. -1.
</event>
<event>
 5   0  0.3915701E-04  0.1605392E+04  0.7818609E-02  0.8817243E-01
       -1   -1    0    0    0  501  0.00000000000E+00  0.00000000000E+00  0.95950341597E+03  0.95950341599E+03  0.50400001928E-02 0.  1.
        1   -1    0    0  501    0  0.00000000000E+00  0.00000000000E+00 -0.67151467445E+03  0.67151467447E+03  0.50400001928E-02 0. -1.
    10030    2    1    2    0    0  0.00000000000E+00  0.00000000000E+00  0.28798874153E+03  0.16310180905E+04  0.16053916956E+04 0.  0.
        2    1    3    3  502    0  0.66039061584E+03 -0.23621374238E+03  0.54062070235E+03  0.88554132676E+03  0.25500000920E-02 0. -1.
       -2    1    3    3    0  502 -0.66039061584E+03  0.23621374238E+03 -0.25263196083E+03  0.74547676370E+03  0.25500000920E-02 0.  1.
</event>
<event>
 5   0  0.6746664E-04  0.1592223E+04  0.7818609E-02  0.8825340E-01
       -2   -1    0    0    0  501  0.00000000000E+00  0.00000000000E+00  0.30048877328E+03  0.30048877329E+03  0.25500000920E-02 0. -1.
        2   -1    0    0  501    0  0.00000000000E+00  0.00000000000E+00 -0.21092097637E+04  0.21092097637E+04  0.25500000920E-02 0.  1.
    10030    2    1    2    0    0  0.00000000000E+00  0.00000000000E+00 -0.18087209904E+04  0.24096985370E+04  0.15922234196E+04 0.  0.
        5    1    3    3  502    0  0.66379237446E+03  0.42256197077E+03 -0.10871824939E+04  0.13420755570E+04  0.46999998093E+01 0.  1.
       -5    1    3    3    0  502 -0.66379237446E+03 -0.42256197077E+03 -0.72153849648E+03  0.10676229800E+04  0.46999998093E+01 0. -1.
</event>
<event>
 5   0  0.7242144E-04  0.1721989E+04  0.7818609E-02  0.8748922E-01
        2   -1    0    0  501    0  0.00000000000E+00  0.00000000000E+00  0.12292908647E+04  0.12292908647E+04  0.25500000920E-02 0. -1.
       -2   -1    0    0    0  501  0.00000000000E+00  0.00000000000E+00 -0.60303965024E+03  0.60303965025E+03  0.25500000920E-02 0.  1.
    10030    2    1    2    0    0  0.00000000000E+00  0.00000000000E+00  0.62625121441E+03  0.18323305149E+04  0.17219885401E+04 0.  0.
        3    1    3    3  502    0  0.57714706049E+03 -0.43418752306E+02 -0.36515829176E+03  0.68434238925E+03  0.10100000352E+00 0.  1.
       -3    1    3    3    0  502 -0.57714706049E+03  0.43418752306E+02  0.99140950618E+03  0.11479881256E+04  0.10100000352E+00 0. -1.
</event>
<event>
 5   0  0.3915701E-04  0.1709316E+04  0.7818609E-02  0.8756069E-01
       -1   -1    0    0    0  501  0.00000000000E+00  0.00000000000E+00  0.62569514490E+03  0.62569514492E+03  0.50400001928E-02 0. -1.
        1   -1    0    0  501    0  0.00000000000E+00  0.00000000000E+00 -0.11674057032E+04  0.11674057032E+04  0.50400001928E-02 0.  1.
    10030    2    1    2    0    0  0.00000000000E+00  0.00000000000E+00 -0.54171055828E+03  0.17931008481E+04  0.17093157469E+04 0.  0.
        2    1    3    3  502    0  0.51181428622E+03  0.67076818749E+03 -0.41375375498E+03  0.93972123244E+03  0.25500000920E-02 0.  1.
       -2    1    3    3    0  502 -0.51181428622E+03 -0.67076818749E+03 -0.12795680330E+03  0.85337961567E+03  0.25500000920E-02 0. -1.
</event>
<event>
 5   0  0.3915701E-04  0.1213158E+04  0.7818609E-02  0.9101416E-01
       -1   -1    0    0    0  501  0.00000000000E+00  0.00000000000E+00  0.65671147383E+03  0.65671147385E+03  0.50400001928E-02 0.  1.
        1   -1    0    0  501    0  0.00000000000E+00  0.00000000000E+00 -0.56027395597E+03  0.56027395600E+03  0.50400001928E-02 0. -1.
    10030    2    1    2    0    0  0.00000000000E+00  0.00000000000E+00  0.96437517857E+02  0.12169854298E+04  0.12131584157E+04 0.  0.
        2    1    3    3  502    0  0.25734661560E+03  0.13572732284E+03  0.58214692685E+03  0.65080275904E+03  0.25500000920E-02 0.  1.
       -2    1    3    3    0  502 -0.25734661560E+03 -0.13572732284E+03 -0.48570940900E+03  0.56618267080E+03  0.25500000920E-02 0. -1.
</event>
<event>
 5   0  0.3713516E-04  0.1710722E+04  0.7818609E-02  0.8755273E-01
       -1   -1    0    0    0  501  0.00000000000E+00  0.00000000000E+00  0.73057972456E+03  0.73057972457E+03  0.50400001928E-02 0.  1.
        1   -1    0    0  501    0  0.00000000000E+00  0.00000000000E+00 -0.10014545425E+04  0.10014545425E+04  0.50400001928E-02 0. -1.
    10030    2    1    2    0    0  0.00000000000E+00  0.00000000000E+00 -0.27087481791E+03  0.17320342670E+04  0.17107219339E+04 0.  0.
        5    1    3    3  502    0 -0.21291753221E+03 -0.48756657838E+03 -0.81353135848E+03  0.97206502103E+03  0.46999998093E+01 0. -1.
       -5    1    3    3    0  502  0.21291753221E+03  0.48756657838E+03  0.54265654057E+03  0.75996924602E+03  0.46999998093E+01 0.  1.
</event>
<event>
 5   0  0.7025426E-04  0.1686227E+04  0.7818609E-02  0.8769259E-01
        2   -1    0    0  501    0  0.00000000000E+00  0.00000000000E+00  0.56540870254E+03  0.56540870254E+03  0.25500000920E-02 0. -1.
       -2   -1    0    0    0  501  0.00000000000E+00  0.00000000000E+00 -0.12572154304E+04  0.12572154304E+04  0.25500000920E-02 0.  1.
    10030    2    1    2    0    0  0.00000000000E+00  0.00000000000E+00 -0.69180672791E+03  0.18226241330E+04  0.16862272034E+04 0.  0.
        2    1    3    3  502    0  0.36181198217E+03  0.17707360884E+03 -0.11464747232E+04  0.12151819881E+04  0.25500000920E-02 0.  1.
       -2    1    3    3    0  502 -0.36181198217E+03 -0.17707360884E+03  0.45466799528E+03  0.60744214484E+03  0.25500000920E-02 0. -1.
</event>
<event>
 5   0  0.7025426E-04  0.1647926E+04  0.7818609E-02  0.8791634E-01
        2   -1    0    0  501    0  0.00000000000E+00  0.00000000000E+00  0.16054178136E+04  0.16054178136E+04  0.25500000920E-02 0. -1.
       -2   -1    0    0    0  501  0.00000000000E+00  0.00000000000E+00 -0.42288994032E+03  0.42288994032E+03  0.25500000920E-02 0.  1.
    10030    2    1    2    0    0  0.00000000000E+00  0.00000000000E+00  0.11825278733E+04  0.20283077540E+04  0.16479260219E+04 0.  0.
        2    1    3    3  502    0 -0.26865281569E+03 -0.35441630036E+03 -0.26247927805E+03  0.51641129030E+03  0.25500000920E-02 0.  1.
       -2    1    3    3    0  502  0.26865281569E+03  0.35441630036E+03  0.14450071514E+04  0.15118964637E+04  0.25500000920E-02 0. -1.
</event>
<event>
 5   0  0.3635143E-04  0.1916560E+04  0.7818609E-02  0.8646657E-01
       -1   -1    0    0    0  501  0.00000000000E+00  0.00000000000E+00  0.12686198439E+04  0.12686198439E+04  0.50400001928E-02 0. -1.
        1   -1    0    0  501    0  0.00000000000E+00  0.00000000000E+00 -0.72385791834E+03  0.72385791836E+03  0.50400001928E-02 0.  1.
    10030    2    1    2    0    0  0.00000000000E+00  0.00000000000E+00  0.54476192552E+03  0.19924777622E+04  0.19165599593E+04 0.  0.
        3    1    3    3  502    0 -0.37323570455E+03  0.64765236792E+03 -0.35098904677E+03  0.82580373090E+03  0.10100000352E+00 0.  1.
       -3    1    3    3    0  502  0.37323570455E+03 -0.64765236792E+03  0.89575097228E+03  0.11666740313E+04  0.10100000352E+00 0. -1.
</event>
<event>
 5   0  0.7049044E-04  0.1690250E+04  0.7818609E-02  0.8766945E-01
       -2   -1    0    0    0  501  0.00000000000E+00  0.00000000000E+00  0.53041215369E+03  0.53041215370E+03  0.25500000920E-02 0.  1.
        2   -1    0    0  501    0  0.00000000000E+00  0.00000000000E+00 -0.13465688315E+04  0.13465688315E+04  0.25500000920E-02 0. -1.
    10030    2    1    2    0    0  0.00000000000E+00  0.00000000000E+00 -0.81615667778E+03  0.18769809852E+04  0.16902502466E+04 0.  0.
        4    1    3    3  502    0 -0.35419734664E+03  0.75308435004E+03 -0.24470987653E+03  0.86745393838E+03  0.12699999809E+01 0.  1.
       -4    1    3    3    0  502  0.35419734664E+03 -0.75308435004E+03 -0.57144680125E+03  0.10095270468E+04  0.12699999809E+01 0. -1.
</event>
<event>
 5   0  0.3723500E-04  0.1732931E+04  0.7818609E-02  0.8742802E-01
       -1   -1    0    0    0  501  0.00000000000E+00  0.00000000000E+00  0.65855132557E+03  0.65855132559E+03  0.50400001928E-02 0.  1.
        1   -1    0    0  501    0  0.00000000000E+00  0.00000000000E+00 -0.11400215093E+04  0.11400215093E+04  0.50400001928E-02 0. -1.
    10030    2    1    2    0    0  0.00000000000E+00  0.00000000000E+00 -0.48147018371E+03  0.17985728349E+04  0.17329312464E+04 0.  0.
        1    1    3    3  502    0  0.14370201344E+03  0.70307395180E+03  0.26325043950E+03  0.76437166633E+03  0.50400001928E-02 0.  1.
       -1    1    3    3    0  502 -0.14370201344E+03 -0.70307395180E+03 -0.74472062321E+03  0.10342011686E+04  0.50400001928E-02 0. -1.
</event>
<event>
 5   0  0.7025426E-04  0.1721988E+04  0.7818609E-02  0.8748922E-01
       -2   -1    0    0    0  501  0.00000000000E+00  0.00000000000E+00  0.11242279476E+04  0.11242279476E+04  0.25500000920E-02 0.  1.
        2   -1    0    0  501    0  0.00000000000E+00  0.00000000000E+00 -0.65939534006E+03  0.65939534006E+03  0.25500000920E-02 0. -1.
    10030    2    1    2    0    0  0.00000000000E+00  0.00000000000E+00  0.46483260758E+03  0.17836232877E+04  0.17219880021E+04 0.  0.
        2    1    3    3  502    0 -0.36977635050E+03 -0.54458619680E+03 -0.34242739796E+03  0.74200080729E+03  0.25500000920E-02 0. -1.
       -2    1    3    3    0  502  0.36977635050E+03  0.54458619680E+03  0.80726000554E+03  0.10416224804E+04  0.25500000920E-02 0.  1.
</event>
<event>
 5   0  0.3635143E-04  0.1584046E+04  0.7818609E-02  0.8830410E-01
        1   -1    0    0  501    0  0.00000000000E+00  0.00000000000E+00  0.18699911520E+04  0.18699911520E+04  0.50400001928E-02 0.  1.
       -1   -1    0    0    0  501  0.00000000000E+00  0.00000000000E+00 -0.33545634517E+03  0.33545634521E+03  0.50400001928E-02 0. -1.
    10030    2    1    2    0    0  0.00000000000E+00  0.00000000000E+00  0.15345348068E+04  0.22054474972E+04  0.15840459556E+04 0.  0.
        3    1    3    3  502    0  0.84330276929E+01 -0.59551912703E+03  0.14941778520E+04  0.16085029096E+04  0.10100000352E+00 0.  1.
       -3    1    3    3    0  502 -0.84330276929E+01  0.59551912703E+03  0.40356954781E+02  0.59694458756E+03  0.10100000352E+00 0. -1.
</event>
<event>
 5   0  0.7233728E-04  0.1674873E+04  0.7818609E-02  0.8775827E-01
       -2   -1    0    0    0  501  0.00000000000E+00  0.00000000000E+00  0.97520673464E+03  0.97520673464E+03  0.25500000920E-02 0.  1.
        2   -1    0    0  501    0  0.00000000000E+00  0.00000000000E+00 -0.71912925469E+03  0.71912925469E+03  0.25500000920E-02 0. -1.
    10030    2    1    2    0    0  0.00000000000E+00  0.00000000000E+00  0.25607747995E+03  0.16943359893E+04  0.16748727620E+04 0.  0.
        1    1    3    3  502    0 -0.70586596690E+03  0.39116397328E+02 -0.32609090144E+03  0.77853203646E+03  0.50400001928E-02 0. -1.
       -1    1    3    3    0  502  0.70586596690E+03 -0.39116397328E+02  0.58216838139E+03  0.91580395287E+03  0.50400001928E-02 0.  1.
</event>
<event>
 5   0  0.6746664E-04  0.1771699E+04  0.7818609E-02  0.8721496E-01
       -2   -1    0    0    0  501  0.00000000000E+00  0.00000000000E+00  0.37196464498E+03  0.37196464499E+03  0.25500000920E-02 0.  1.
        2   -1    0    0  501    0  0.00000000000E+00  0.00000000000E+00 -0.21096877158E+04  0.21096877158E+04  0.25500000920E-02 0. -1.
    10030    2    1    2    0    0  0.00000000000E+00  0.00000000000E+00 -0.17377230708E+04  0.24816523608E+04  0.17716988934E+04 0.  0.
        5    1    3    3  502    0 -0.45483967721E+03  0.26512825566E+03 -0.18667546832E+04  0.19395791454E+04  0.46999998093E+01 0. -1.
       -5    1    3    3    0  502  0.45483967721E+03 -0.26512825566E+03  0.12903161236E+03  0.54207321544E+03  0.46999998093E+01 0.  1.
</event>
<event>
 5   0  0.3723500E-04  0.1704351E+04  0.7818609E-02  0.8758887E-01
       -1   -1    0    0    0  501  0.00000000000E+00  0.00000000000E+00  0.77485738579E+03  0.77485738581E+03  0.50400001928E-02 0.  1.
        1   -1    0    0  501    0  0.00000000000E+00  0.00000000000E+00 -0.93720865885E+03  0.93720865886E+03  0.50400001928E-02 0. -1.
    10030    2    1    2    0    0  0.00000000000E+00  0.00000000000E+00 -0.16235127306E+03  0.17120660447E+04  0.17043509631E+04 0.  0.
        1    1    3    3  502    0 -0.37823081569E+03 -0.75078193280E+03  0.58994504171E+02  0.84274101128E+03  0.50400001928E-02 0.  1.
       -1    1    3    3    0  502  0.37823081569E+03  0.75078193280E+03 -0.22134577723E+03  0.86932503339E+03  0.50400001928E-02 0. -1.
</event>
<event>
 5   0  0.3803253E-04  0.1735771E+04  0.7818609E-02  0.8741222E-01
       -1   -1    0    0    0  501  0.00000000000E+00  0.00000000000E+00  0.79438557229E+03  0.79438557230E+03  0.50400001928E-02 0. -1.
        1   -1    0    0  501    0  0.00000000000E+00  0.00000000000E+00 -0.94818632315E+03  0.94818632316E+03  0.50400001928E-02 0.  1.
    10030    2    1    2    0    0  0.00000000000E+00  0.00000000000E+00 -0.15380075086E+03  0.17425718955E+04  0.17357713386E+04 0.  0.
        4    1    3    3  502    0 -0.84952108325E+03  0.12132247854E+03 -0.20709543358E+03  0.88277706483E+03  0.12699999809E+01 0.  1.
       -4    1    3    3    0  502  0.84952108325E+03 -0.12132247854E+03  0.53294682715E+02  0.85979483064E+03  0.12699999809E+01 0. -1.
</event>
<event>
 5   0  0.3803253E-04  0.1685736E+04  0.7818609E-02  0.8769542E-01
        1   -1    0    0  501    0  0.00000000000E+00  0.00000000000E+00  0.12575341280E+04  0.12575341280E+04  0.50400001928E-02 0.  1.
       -1   -1    0    0    0  501  0.00000000000E+00  0.00000000000E+00 -0.56493587888E+03  0.56493587890E+03  0.50400001928E-02 0. -1.
    10030    2    1    2    0    0  0.00000000000E+00  0.00000000000E+00  0.69259824912E+03  0.18224700069E+04  0.16857356232E+04 0.  0.
        4    1    3    3  502    0 -0.68913199027E+03  0.38200314671E+03  0.66990274483E+03  0.10342149702E+04  0.12699999809E+01 0.  1.
       -4    1    3    3    0  502  0.68913199027E+03 -0.38200314671E+03  0.22695504293E+02  0.78825503673E+03  0.12699999809E+01 0. -1.
</event>
<event>
 5   0  0.7025426E-04  0.1651258E+04  0.7818609E-02  0.8789662E-01
       -2   -1    0    0    0  501  0.00000000000E+00  0.00000000000E+00  0.33277510975E+03  0.33277510976E+03  0.25500000920E-02 0. -1.
        2   -1    0    0  501    0  0.00000000000E+00  0.00000000000E+00 -0.20484209742E+04  0.20484209742E+04  0.25500000920E-02 0.  1.
    10030    2    1    2    0    0  0.00000000000E+00  0.00000000000E+00 -0.17156458644E+04  0.23811960839E+04  0.16512583256E+04 0.  0.
        2    1    3    3  502    0 -0.52206579689E+02  0.73840937910E+03 -0.33055796959E+03  0.81070494594E+03  0.25500000920E-02 0. -1.
       -2    1    3    3    0  502  0.52206579689E+02 -0.73840937910E+03 -0.13850878948E+04  0.15704911380E+04  0.25500000920E-02 0.  1.
</event>
<event>
 5   0  0.7025426E-04  0.1670891E+04  0.7818609E-02  0.8778143E-01
        2   -1    0    0  501    0  0.00000000000E+00  0.00000000000E+00  0.67446910362E+03  0.67446910363E+03  0.25500000920E-02 0.  1.
       -2   -1    0    0    0  501  0.00000000000E+00  0.00000000000E+00 -0.10348417350E+04  0.10348417350E+04  0.25500000920E-02 0. -1.
    10030    2    1    2    0    0  0.00000000000E+00  0.00000000000E+00 -0.36037263140E+03  0.17093108386E+04  0.16708905140E+04 0.  0.
        2    1    3    3  502    0  0.11653089527E+03  0.18793129603E+03  0.64398825010E+03  0.68089535749E+03  0.25500000920E-02 0.  1.
       -2    1    3    3    0  502 -0.11653089527E+03 -0.18793129603E+03 -0.10043608815E+04  0.10284154812E+04  0.25500000920E-02 0. -1.
</event>
<event>
 5   0  0.7049044E-04  0.1725525E+04  0.7818609E-02  0.8746939E-01
        2   -1    0    0  501    0  0.00000000000E+00  0.00000000000E+00  0.11952672352E+04  0.11952672352E+04  0.25500000920E-02 0.  1.
       -2   -1    0    0    0  501  0.00000000000E+00  0.00000000000E+00 -0.62275524770E+03  0.62275524771E+03  0.25500000920E-02 0. -1.
    10030    2    1    2    0    0  0.00000000000E+00  0.00000000000E+00  0.57251198753E+03  0.18180224829E+04  0.17255247818E+04 0.  0.
        4    1    3    3  502    0 -0.41946332109E+03  0.74507699942E+03  0.16489400004E+03  0.87079323433E+03  0.12699999809E+01 0. -1.
       -4    1    3    3    0  502  0.41946332109E+03 -0.74507699942E+03  0.40761798749E+03  0.94722924861E+03  0.12699999809E+01 0.  1.
</event>
<event>
 5   0  0.6746664E-04  0.1702821E+04  0.7818609E-02  0.8759757E-01
       -2   -1    0    0    0  501  0.00000000000E+00  0.00000000000E+00  0.55268788537E+03  0.55268788538E+03  0.25500000920E-02 0. -1.
        2   -1    0    0  501    0  0.00000000000E+00  0.00000000000E+00 -0.13115894716E+04  0.13115894717E+04  0.25500000920E-02 0.  1.
    10030    2    1    2    0    0  0.00000000000E+00  0.00000000000E+00 -0.75890158628E+03  0.18642773570E+04  0.17028207323E+04 0.  0.
        5    1    3    3  502    0 -0.84910493173E+03 -0.60244748019E+02 -0.39740401952E+03  0.93944699663E+03  0.46999998093E+01 0.  1.
       -5    1    3    3    0  502  0.84910493173E+03  0.60244748019E+02 -0.36149756676E+03  0.92483036040E+03  0.46999998093E+01 0. -1.
</event>
<event>
 5   0  0.7025426E-04  0.1710396E+04  0.7818609E-02  0.8755457E-01
        2   -1    0    0  501    0  0.00000000000E+00  0.00000000000E+00  0.13351472295E+04  0.13351472295E+04  0.25500000920E-02 0.  1.
       -2   -1    0    0    0  501  0.00000000000E+00  0.00000000000E+00 -0.54777735418E+03  0.54777735419E+03  0.25500000920E-02 0. -1.
    10030    2    1    2    0    0  0.00000000000E+00  0.00000000000E+00  0.78736987534E+03  0.18829245837E+04  0.17103957634E+04 0.  0.
        2    1    3    3  502    0 -0.58909683337E+03 -0.34344715493E+03 -0.17448848748E+03  0.70387304224E+03  0.25500000920E-02 0. -1.
       -2    1    3    3    0  502  0.58909683337E+03  0.34344715493E+03  0.96185836282E+03  0.11790515415E+04  0.25500000920E-02 0.  1.
</event>
<event>
 5   0  0.7233728E-04  0.1710828E+04  0.7818609E-02  0.8755213E-01
       -2   -1    0    0    0  501  0.00000000000E+00  0.00000000000E+00  0.41226183700E+03  0.41226183701E+03  0.25500000920E-02 0.  1.
        2   -1    0    0  501    0  0.00000000000E+00  0.00000000000E+00 -0.17749237558E+04  0.17749237558E+04  0.25500000920E-02 0. -1.
    10030    2    1    2    0    0  0.00000000000E+00  0.00000000000E+00 -0.13626619188E+04  0.21871855928E+04  0.17108282534E+04 0.  0.
        1    1    3    3  502    0  0.19372202612E+03 -0.41770704471E+03 -0.16029817820E+04  0.16678003454E+04  0.50400001928E-02 0. -1.
       -1    1    3    3    0  502 -0.19372202612E+03  0.41770704471E+03  0.24031986318E+03  0.51938524745E+03  0.50400001928E-02 0.  1.
</event>
<event>
 5   0  0.7049044E-04  0.1546515E+04  0.7818609E-02  0.8854097E-01
        2   -1    0    0  501    0  0.00000000000E+00  0.00000000000E+00  0.58480168070E+03  0.58480168071E+03  0.25500000920E-02 0. -1.
       -2   -1    0    0    0  501  0.00000000000E+00  0.00000000000E+00 -0.10224436808E+04  0.10224436808E+04  0.25500000920E-02 0.  1.
    10030    2    1    2    0    0  0.00000000000E+00  0.00000000000E+00 -0.43764200008E+03  0.16072453615E+04  0.15465145107E+04 0.  0.
        4    1    3    3  502    0 -0.28940558152E+03  0.71350546648E+03 -0.29289058185E+03  0.82379132500E+03  0.12699999809E+01 0.  1.
       -4    1    3    3    0  502  0.28940558152E+03 -0.71350546648E+03 -0.14475141823E+03  0.78345403649E+03  0.12699999809E+01 0. -1.
</event>
<event>
 5   0  0.7049044E-04  0.1704220E+04  0.7818609E-02  0.8758961E-01
        2   -1    0    0  501    0  0.00000000000E+00  0.00000000000E+00  0.85513060897E+03  0.85513060897E+03  0.25500000920E-02 0.  1.
       -2   -1    0    0    0  501  0.00000000000E+00  0.00000000000E+00 -0.84910036645E+03  0.84910036645E+03  0.25500000920E-02 0. -1.
    10030    2    1    2    0    0  0.00000000000E+00  0.00000000000E+00  0.60302425226E+01  0.17042309754E+04  0.17042203067E+04 0.  0.
        4    1    3    3  502    0 -0.32996375556E+03 -0.70570714804E+03 -0.34222817569E+03  0.85089388052E+03  0.12699999809E+01 0. -1.
       -4    1    3    3    0  502  0.32996375556E+03  0.70570714804E+03  0.34825841822E+03  0.85333709490E+03  0.12699999809E+01 0.  1.
</event>
<event>
 5   0  0.6746664E-04  0.1695460E+04  0.7818609E-02  0.8763958E-01
        2   -1    0    0  501    0  0.00000000000E+00  0.00000000000E+00  0.23556136362E+04  0.23556136362E+04  0.25500000920E-02 0.  1.
       -2   -1    0    0    0  501  0.00000000000E+00  0.00000000000E+00 -0.30507799900E+03  0.30507799901E+03  0.25500000920E-02 0. -1.
    10030    2    1    2    0    0  0.00000000000E+00  0.00000000000E+00  0.20505356372E+04  0.26606916352E+04  0.16954596952E+04 0.  0.
        5    1    3    3  502    0  0.58093831678E+03  0.44948403828E+03  0.36113775443E+03  0.81851560538E+03  0.46999998093E+01 0. -1.
       -5    1    3    3    0  502 -0.58093831678E+03 -0.44948403828E+03  0.16893978827E+04  0.18421760298E+04  0.46999998093E+01 0.  1.
</event>
<event>
 5   0  0.3803253E-04  0.1751809E+04  0.7818609E-02  0.8732355E-01
        1   -1    0    0  501    0  0.00000000000E+00  0.00000000000E+00  0.44268356577E+03  0.44268356580E+03  0.50400001928E-02 0.  1.
       -1   -1    0    0    0  501  0.00000000000E+00  0.00000000000E+00 -0.17330866649E+04  0.17330866649E+04  0.50400001928E-02 0. -1.
    10030    2    1    2    0    0  0.00000000000E+00  0.00000000000E+00 -0.12904030991E+04  0.21757702307E+04  0.17518093328E+04 0.  0.
        4    1    3    3  502    0 -0.14279502221E+03 -0.55569035733E+03 -0.14672089606E+04  0.15754002471E+04  0.12699999809E+01 0. -1.
       -4    1    3    3    0  502  0.14279502221E+03  0.55569035733E+03  0.17680586152E+03  0.60036998356E+03  0.12699999809E+01 0.  1.
</event>
<event>
 5   0  0.6746664E-04  0.1686224E+04  0.7818609E-02  0.8769260E-01
       -2   -1    0    0    0  501  0.00000000000E+00  0.00000000000E+00  0.45253232539E+03  0.45253232540E+03  0.25500000920E-02 0.  1.
        2   -1    0    0  501    0  0.00000000000E+00  0.00000000000E+00 -0.15708003929E+04  0.15708003929E+04  0.25500000920E-02 0. -1.
    10030    2    1    2    0    0  0.00000000000E+00  0.00000000000E+00 -0.11182680675E+04  0.20233327183E+04  0.16862241304E+04 0.  0.
        5    1    3    3  502    0  0.38396317780E+03  0.24750635774E+03 -0.14094093010E+04  0.14816017639E+04  0.46999998093E+01 0. -1.
       -5    1    3    3    0  502 -0.38396317780E+03 -0.24750635774E+03  0.29114123355E+03  0.54173095435E+03  0.46999998093E+01 0.  1.
</event>
<event>
 5   0  0.7242144E-04  0.1740142E+04  0.7818609E-02  0.8738795E-01
        2   -1    0    0  501    0  0.00000000000E+00  0.00000000000E+00  0.83017000038E+03  0.83017000039E+03  0.25500000920E-02 0.  1.
       -2   -1    0    0    0  501  0.00000000000E+00  0.00000000000E+00 -0.91188996595E+03  0.91188996596E+03  0.25500000920E-02 0. -1.
    10030    2    1    2    0    0  0.00000000000E+00  0.00000000000E+00 -0.81719965569E+02  0.17420599663E+04  0.17401421705E+04 0.  0.
        3    1    3    3  502    0 -0.63916070423E+03  0.58968020151E+03 -0.12998800619E+02  0.86972301620E+03  0.10100000352E+00 0.  1.
       -3    1    3    3    0  502  0.63916070423E+03 -0.58968020151E+03 -0.68721164951E+02  0.87233695015E+03  0.10100000352E+00 0. -1.
</event>
<event>
 5   0  0.6746664E-04  0.1693446E+04  0.7818609E-02  0.8765111E-01
        2   -1    0    0  501    0  0.00000000000E+00  0.00000000000E+00  0.21084458763E+04  0.21084458763E+04  0.25500000920E-02 0. -1.
       -2   -1    0    0    0  501  0.00000000000E+00  0.00000000000E+00 -0.34003234939E+03  0.34003234940E+03  0.25500000920E-02 0.  1.
    10030    2    1    2    0    0  0.00000000000E+00  0.00000000000E+00  0.17684135270E+04  0.24484782257E+04  0.16934459601E+04 0.  0.
        5    1    3    3  502    0  0.19865968101E+03 -0.52922185776E+03 -0.27228587314E+02  0.56595488296E+03  0.46999998093E+01 0.  1.
       -5    1    3    3    0  502 -0.19865968101E+03  0.52922185776E+03  0.17956421143E+04  0.18825233428E+04  0.46999998093E+01 0. -1.
</event>
<event>
 5   0  0.3723500E-04  0.1736825E+04  0.7818609E-02  0.8740636E-01
        1   -1    0    0  501    0  0.00000000000E+00  0.00000000000E+00  0.10029939350E+04  0.10029939350E+04  0.50400001928E-02 0. -1.
       -1   -1    0    0    0  501  0.00000000000E+00  0.00000000000E+00 -0.75188941015E+03  0.75188941017E+03  0.50400001928E-02 0.  1.
    10030    2    1    2    0    0  0.00000000000E+00  0.00000000000E+00  0.25110452481E+03  0.17548833451E+04  0.17368252856E+04 0.  0.
        1    1    3    3  502    0  0.23074999591E+03 -0.23783526029E+03 -0.68549483647E+03  0.76138974415E+03  0.50400001928E-02 0.  1.
       -1    1    3    3    0  502 -0.23074999591E+03  0.23783526029E+03  0.93659936128E+03  0.99349360099E+03  0.50400001928E-02 0. -1.
</event>
<event>
 5   0  0.3713516E-04  0.1672019E+04  0.7818609E-02  0.8777486E-01
       -1   -1    0    0    0  501  0.00000000000E+00  0.00000000000E+00  0.53120422444E+03  0.53120422446E+03  0.50400001928E-02 0. -1.
        1   -1    0    0  501    0  0.00000000000E+00  0.00000000000E+00 -0.13157123094E+04  0.13157123094E+04  0.50400001928E-02 0.  1.
    10030    2    1    2    0    0  0.00000000000E+00  0.00000000000E+00 -0.78450808495E+03  0.18469165339E+04  0.16720190632E+04 0.  0.
        5    1    3    3  502    0 -0.25355862241E+03  0.26839521942E+03  0.43624344176E+03  0.57154037415E+03  0.46999998093E+01 0. -1.
       -5    1    3    3    0  502  0.25355862241E+03 -0.26839521942E+03 -0.12207515267E+04  0.12753761597E+04  0.46999998093E+01 0.  1.
</event>
<event>
 5   0  0.3713516E-04  0.1690855E+04  0.7818609E-02  0.8766597E-01
        1   -1    0    0  501    0  0.00000000000E+00  0.00000000000E+00  0.26496173577E+03  0.26496173582E+03  0.50400001928E-02 0. -1.
       -1   -1    0    0    0  501  0.00000000000E+00  0.00000000000E+00 -0.26975510226E+04  0.26975510226E+04  0.50400001928E-02 0.  1.
    10030    2    1    2    0    0  0.00000000000E+00  0.00000000000E+00 -0.24325892868E+04  0.29625127584E+04  0.16908551698E+04 0.  0.
        5    1    3    3  502    0 -0.18427348590E+03  0.78442615071E+03 -0.76807513555E+03  0.11132127413E+04  0.46999998093E+01 0.  1.
       -5    1    3    3    0  502  0.18427348590E+03 -0.78442615071E+03 -0.16645141513E+04  0.18493000171E+04  0.46999998093E+01 0. -1.
</event>
<event>
 5   0  0.7233728E-04  0.1361627E+04  0.7818609E-02  0.8982073E-01
       -2   -1    0    0    0  501  0.00000000000E+00  0.00000000000E+00  0.58681333596E+03  0.58681333596E+03  0.25500000920E-02 0. -1.
        2   -1    0    0  501    0  0.00000000000E+00  0.00000000000E+00 -0.78987170170E+03  0.78987170170E+03  0.25500000920E-02 0.  1.
    10030    2    1    2    0    0  0.00000000000E+00  0.00000000000E+00 -0.20305836574E+03  0.13766850377E+04  0.13616273327E+04 0.  0.
        1    1    3    3  502    0  0.51603559806E+03  0.31188026461E+03 -0.42116638817E+03  0.73548838500E+03  0.50400001928E-02 0.  1.
       -1    1    3    3    0  502 -0.51603559806E+03 -0.31188026461E+03  0.21810802243E+03  0.64119665267E+03  0.50400001928E-02 0. -1.
</event>
<event>
 5   0  0.7233728E-04  0.1685506E+04  0.7818609E-02  0.8769674E-01
       -2   -1    0    0    0  501  0.00000000000E+00  0.00000000000E+00  0.71689860808E+03  0.71689860809E+03  0.25500000920E-02 0. -1.
        2   -1    0    0  501    0  0.00000000000E+00  0.00000000000E+00 -0.99070188220E+03  0.99070188220E+03  0.25500000920E-02 0.  1.
    10030    2    1    2    0    0  0.00000000000E+00  0.00000000000E+00 -0.27380327412E+03  0.17076004903E+04  0.16855062152E+04 0.  0.
        1    1    3    3  502    0 -0.80096979731E+03  0.25761146175E+03 -0.88140498357E+02  0.84598169537E+03  0.50400001928E-02 0.  1.
       -1    1    3    3    0  502  0.80096979731E+03 -0.25761146175E+03 -0.18566277576E+03  0.86161879492E+03  0.50400001928E-02 0. -1.
</event>
<event>
 5   0  0.3803253E-04  0.1712285E+04  0.7818609E-02  0.8754389E-01
       -1   -1    0    0    0  501  0.00000000000E+00  0.00000000000E+00  0.82829895738E+03  0.82829895740E+03  0.50400001928E-02 0. -1.
        1   -1    0    0  501    0  0.00000000000E+00  0.00000000000E+00 -0.88492163541E+03  0.88492163543E+03  0.50400001928E-02 0.  1.
    10030    2    1    2    0    0  0.00000000000E+00  0.00000000000E+00 -0.56622678031E+02  0.17132205928E+04  0.17122846352E+04 0.  0.
        4    1    3    3  502    0 -0.57830835055E+03  0.53401179595E+03 -0.36519838293E+03  0.86774455822E+03  0.12699999809E+01 0.  1.
       -4    1    3    3    0  502  0.57830835055E+03 -0.53401179595E+03  0.30857570490E+03  0.84547603460E+03  0.12699999809E+01 0. -1.
</event>
<event>
 5   0  0.7025426E-04  0.1707630E+04  0.7818609E-02  0.8757025E-01
       -2   -1    0    0    0  501  0.00000000000E+00  0.00000000000E+00  0.17390768728E+04  0.17390768728E+04  0.25500000920E-02 0. -1.
        2   -1    0    0  501    0  0.00000000000E+00  0.00000000000E+00 -0.41918781442E+03  0.41918781443E+03  0.25500000920E-02 0.  1.
    10030    2    1    2    0    0  0.00000000000E+00  0.00000000000E+00  0.13198890584E+04  0.21582646873E+04  0.17076297414E+04 0.  0.
        2    1    3    3  502    0  0.32527610779E+03 -0.68615087598E+03  0.16655213173E+03  0.77739769969E+03  0.25500000920E-02 0.  1.
       -2    1    3    3    0  502 -0.32527610779E+03  0.68615087598E+03  0.11533369267E+04  0.13808669876E+04  0.25500000920E-02 0. -1.
</event>
<event>
 5   0  0.2639750E-04  0.1763326E+04  0.7818609E-02  0.8726049E-01
       -3   -1    0    0    0  501  0.00000000000E+00  0.00000000000E+00  0.14458491033E+04  0.14458491069E+04  0.10100000352E+00 0.  1.
        3   -1    0    0  501    0  0.00000000000E+00  0.00000000000E+00 -0.53762840948E+03  0.53762841897E+03  0.10100000352E+00 0. -1.
    10030    2    1    2    0    0  0.00000000000E+00  0.00000000000E+00  0.90822069387E+03  0.19834775258E+04  0.17633259105E+04 0.  0.
        4    1    3    3  502    0 -0.10454646722E+03 -0.72612267345E+03  0.10041883850E+04  0.12436157068E+04  0.12699999809E+01 0.  1.
       -4    1    3    3    0  502  0.10454646722E+03  0.72612267345E+03 -0.95967691103E+02  0.73986181908E+03  0.12699999809E+01 0. -1.
</event>
<event>
 5   0  0.6746664E-04  0.1772847E+04  0.7818609E-02  0.8720874E-01
       -2   -1    0    0    0  501  0.00000000000E+00  0.00000000000E+00  0.69081565891E+03  0.69081565892E+03  0.25500000920E-02 0.  1.
        2   -1    0    0  501    0  0.00000000000E+00  0.00000000000E+00 -0.11374182924E+04  0.11374182924E+04  0.25500000920E-02 0. -1.
    10030    2    1    2    0    0  0.00000000000E+00  0.00000000000E+00 -0.44660263352E+03  0.18282339514E+04  0.17728467132E+04 0.  0.
        5    1    3    3  502    0 -0.40803243495E+03 -0.44452665772E+03  0.44631536312E+03  0.75054241102E+03  0.46999998093E+01 0.  1.
       -5    1    3    3    0  502  0.40803243495E+03  0.44452665772E+03 -0.89291799664E+03  0.10776915403E+04  0.46999998093E+01 0. -1.
</event>
<event>
 5   0  0.6746664E-04  0.1690835E+04  0.7818609E-02  0.8766609E-01
       -2   -1    0    0    0  501  0.00000000000E+00  0.00000000000E+00  0.83796538733E+03  0.83796538733E+03  0.25500000920E-02 0.  1.
        2   -1    0    0  501    0  0.00000000000E+00  0.00000000000E+00 -0.85293543254E+03  0.85293543254E+03  0.25500000920E-02 0. -1.
    10030    2    1    2    0    0  0.00000000000E+00  0.00000000000E+00 -0.14970045210E+02  0.16909008199E+04  0.16908345515E+04 0.  0.
        5    1    3    3  502    0  0.28365996195E+03 -0.79237791261E+03 -0.87379014894E+02  0.84615773509E+03  0.46999998093E+01 0. -1.
       -5    1    3    3    0  502 -0.28365996195E+03  0.79237791261E+03  0.72408969684E+02  0.84474308479E+03  0.46999998093E+01 0.  1.
</event>
<event>
 5   0  0.3723500E-04  0.1603665E+04  0.7818609E-02  0.8818300E-01
        1   -1    0    0  501    0  0.00000000000E+00  0.00000000000E+00  0.17421492947E+04  0.17421492947E+04  0.50400001928E-02 0. -1.
       -1   -1    0    0    0  501  0.00000000000E+00  0.00000000000E+00 -0.36904716674E+03  0.36904716677E+03  0.50400001928E-02 0.  1.
    10030    2    1    2    0    0  0.00000000000E+00  0.00000000000E+00  0.13731021280E+04  0.21111964615E+04  0.16036648793E+04 0.  0.
        1    1    3    3  502    0 -0.51582536832E+03 -0.32580402502E+03  0.15864538838E+01  0.61010375362E+03  0.50400001928E-02 0.  1.
       -1    1    3    3    0  502  0.51582536832E+03  0.32580402502E+03  0.13715156741E+04  0.15010927079E+04  0.50400001928E-02 0. -1.
</event>
<event>
 5   0  0.3803253E-04  0.1695551E+04  0.7818609E-02  0.8763906E-01
       -1   -1    0    0    0  501  0.00000000000E+00  0.00000000000E+00  0.83693645412E+03  0.83693645413E+03  0.50400001928E-02 0.  1.
        1   -1    0    0  501    0  0.00000000000E+00  0.00000000000E+00 -0.85875540041E+03  0.85875540042E+03  0.50400001928E-02 0. -1.
    10030    2    1    2    0    0  0.00000000000E+00  0.00000000000E+00 -0.21818946292E+02  0.16956918546E+04  0.16955514735E+04 0.  0.
        4    1    3    3  502    0  0.20643857645E+03 -0.71753377441E+03 -0.41250278211E+03  0.85301334187E+03  0.12699999809E+01 0. -1.
       -4    1    3    3    0  502 -0.20643857645E+03  0.71753377441E+03  0.39068383582E+03  0.84267851268E+03  0.12699999809E+01 0.  1.
</event>
<event>
 5   0  0.7242144E-04  0.1683695E+04  0.7818609E-02  0.8770719E-01
       -2   -1    0    0    0  501  0.00000000000E+00  0.00000000000E+00  0.52619580147E+03  0.52619580147E+03  0.25500000920E-02 0. -1.
        2   -1    0    0  501    0  0.00000000000E+00  0.00000000000E+00 -0.13468504250E+04  0.13468504250E+04  0.25500000920E-02 0.  1.
    10030    2    1    2    0    0  0.00000000000E+00  0.00000000000E+00 -0.82065462351E+03  0.18730462265E+04  0.16836947928E+04 0.  0.
        3    1    3    3  502    0 -0.24978117201E+03  0.75286740234E+03 -0.96646466505E+02  0.79908729753E+03  0.10100000352E+00 0. -1.
       -3    1    3    3    0  502  0.24978117201E+03 -0.75286740234E+03 -0.72400815701E+03  0.10739589289E+04  0.10100000352E+00 0.  1.
</event>
<event>
 5   0  0.7233728E-04  0.1692979E+04  0.7818609E-02  0.8765379E-01
        2   -1    0    0  501    0  0.00000000000E+00  0.00000000000E+00  0.66658949101E+03  0.66658949101E+03  0.25500000920E-02 0. -1.
       -2   -1    0    0    0  501  0.00000000000E+00  0.00000000000E+00 -0.10749417419E+04  0.10749417419E+04  0.25500000920E-02 0.  1.
    10030    2    1    2    0    0  0.00000000000E+00  0.00000000000E+00 -0.40835225085E+03  0.17415312329E+04  0.16929794666E+04 0.  0.
        1    1    3    3  502    0  0.14808308377E+01  0.23903916090E+03 -0.10395002445E+04  0.10666314601E+04  0.50400001928E-02 0.  1.
       -1    1    3    3    0  502 -0.14808308377E+01 -0.23903916090E+03  0.63114799368E+03  0.67489977275E+03  0.50400001928E-02 0. -1.
</event>
<event>
 5   0  0.6746664E-04  0.1630545E+04  0.7818609E-02  0.8802000E-01
       -2   -1    0    0    0  501  0.00000000000E+00  0.00000000000E+00  0.73847784129E+03  0.73847784129E+03  0.25500000920E-02 0.  1.
        2   -1    0    0  501    0  0.00000000000E+00  0.00000000000E+00 -0.90005292511E+03  0.90005292512E+03  0.25500000920E-02 0. -1.
    10030    2    1    2    0    0  0.00000000000E+00  0.00000000000E+00 -0.16157508383E+03  0.16385307664E+04  0.16305448674E+04 0.  0.
        5    1    3    3  502    0 -0.19289362639E+03  0.58283448148E+02 -0.87461991430E+03  0.89754498267E+03  0.46999998093E+01 0. -1.
       -5    1    3    3    0  502  0.19289362639E+03 -0.58283448148E+02  0.71304483048E+03  0.74098578374E+03  0.46999998093E+01 0.  1.
</event>
<event>
 5   0  0.6746664E-04  0.1725526E+04  0.7818609E-02  0.8746938E-01
       -2   -1    0    0    0  501  0.00000000000E+00  0.00000000000E+00  0.67917123459E+03  0.67917123460E+03  0.25500000920E-02 0.  1.
        2   -1    0    0  501    0  0.00000000000E+00  0.00000000000E+00 -0.10959833457E+04  0.10959833457E+04  0.25500000920E-02 0. -1.
    10030    2    1    2    0    0  0.00000000000E+00  0.00000000000E+00 -0.41681211114E+03  0.17751545803E+04  0.17255264264E+04 0.  0.
        5    1    3    3  502    0 -0.38561176939E+03  0.71439672233E+03  0.92018906833E+02  0.81703652476E+03  0.46999998093E+01 0.  1.
       -5    1    3    3    0  502  0.38561176939E+03 -0.71439672233E+03 -0.50883101797E+03  0.95811805558E+03  0.46999998093E+01 0. -1.
</event>
<event>
 5   0  0.7242144E-04  0.1549417E+04  0.7818609E-02  0.8852241E-01
       -2   -1    0    0    0  501  0.00000000000E+00  0.00000000000E+00  0.72758869646E+03  0.72758869647E+03  0.25500000920E-02 0. -1.
        2   -1    0    0  501    0  0.00000000000E+00  0.00000000000E+00 -0.82487932474E+03  0.82487932474E+03  0.25500000920E-02 0.  1.
    10030    2    1    2    0    0  0.00000000000E+00  0.00000000000E+00 -0.97290628272E+02  0.15524680212E+04  0.15494165000E+04 0.  0.
        3    1    3    3  502    0  0.17968122931E+03  0.76716493691E+02 -0.79978975058E+03  0.82330700222E+03  0.10100000352E+00 0.  1.
       -3    1    3    3    0  502 -0.17968122931E+03 -0.76716493691E+02  0.70249912231E+03  0.72916101899E+03  0.10100000352E+00 0. -1.
</event>
<event>
 5   0  0.7049044E-04  0.1696310E+04  0.7818609E-02  0.8763472E-01
       -2   -1    0    0    0  501  0.00000000000E+00  0.00000000000E+00  0.48587588307E+03  0.48587588307E+03  0.25500000920E-02 0. -1.
        2   -1    0    0  501    0  0.00000000000E+00  0.00000000000E+00 -0.14805564700E+04  0.14805564700E+04  0.25500000920E-02 0.  1.
    10030    2    1    2    0    0  0.00000000000E+00  0.00000000000E+00 -0.99468058696E+03  0.19664323531E+04  0.16963097386E+04 0.  0.
        4    1    3    3  502    0  0.97327098636E+02  0.83217594492E+03 -0.65014792179E+03  0.10605108677E+04  0.12699999809E+01 0. -1.
       -4    1    3    3    0  502 -0.97327098636E+02 -0.83217594492E+03 -0.34453266517E+03  0.90592148539E+03  0.12699999809E+01 0.  1.
</event>
<event>
 5   0  0.3713516E-04  0.1658969E+04  0.7818609E-02  0.8785118E-01
        1   -1    0    0  501    0  0.00000000000E+00  0.00000000000E+00  0.22877197202E+04  0.22877197202E+04  0.50400001928E-02 0. -1.
       -1   -1    0    0    0  501  0.00000000000E+00  0.00000000000E+00 -0.30075555447E+03  0.30075555451E+03  0.50400001928E-02 0.  1.
    10030    2    1    2    0    0  0.00000000000E+00  0.00000000000E+00  0.19869641658E+04  0.25884752748E+04  0.16589688520E+04 0.  0.
        5    1    3    3  502    0  0.24362895919E+03  0.26564915981E+03 -0.17214850464E+03  0.39947683726E+03  0.46999998093E+01 0.  1.
       -5    1    3    3    0  502 -0.24362895919E+03 -0.26564915981E+03  0.21591126704E+04  0.21889984375E+04  0.46999998093E+01 0. -1.
</event>
<event>
 5   0  0.7242144E-04  0.1263343E+04  0.7818609E-02  0.9059150E-01
       -2   -1    0    0    0  501  0.00000000000E+00  0.00000000000E+00  0.23733527196E+03  0.23733527197E+03  0.25500000920E-02 0. -1.
        2   -1    0    0  501    0  0.00000000000E+00  0.00000000000E+00 -0.16812045483E+04  0.16812045483E+04  0.25500000920E-02 0.  1.
    10030    2    1    2    0    0  0.00000000000E+00  0.00000000000E+00 -0.14438692764E+04  0.19185398203E+04  0.12633434034E+04 0.  0.
        3    1    3    3  502    0  0.56307383813E+03  0.23463581747E+03 -0.47284831998E+03  0.77181063606E+03  0.10100000352E+00 0.  1.
       -3    1    3    3    0  502 -0.56307383813E+03 -0.23463581747E+03 -0.97102095638E+03  0.11467291842E+04  0.10100000352E+00 0. -1.
</event>
<event>
 5   0  0.7049044E-04  0.1749502E+04  0.7818609E-02  0.8733625E-01
        2   -1    0    0  501    0  0.00000000000E+00  0.00000000000E+00  0.91036548491E+03  0.91036548491E+03  0.25500000920E-02 0. -1.
       -2   -1    0    0    0  501  0.00000000000E+00  0.00000000000E+00 -0.84052972598E+03  0.84052972598E+03  0.25500000920E-02 0.  1.
    10030    2    1    2    0    0  0.00000000000E+00  0.00000000000E+00  0.69835758933E+02  0.17508952109E+04  0.17495019309E+04 0.  0.
        4    1    3    3  502    0 -0.66520709753E+02  0.23655835641E+03  0.87511179512E+03  0.90895936525E+03  0.12699999809E+01 0. -1.
       -4    1    3    3    0  502  0.66520709753E+02 -0.23655835641E+03 -0.80527603619E+03  0.84193584564E+03  0.12699999809E+01 0.  1.
</event>
<event>
 5   0  0.7233728E-04  0.1616184E+04  0.7818609E-02  0.8810667E-01
       -2   -1    0    0    0  501  0.00000000000E+00  0.00000000000E+00  0.66210712430E+03  0.66210712431E+03  0.25500000920E-02 0.  1.
        2   -1    0    0  501    0  0.00000000000E+00  0.00000000000E+00 -0.98626408207E+03  0.98626408207E+03  0.25500000920E-02 0. -1.
    10030    2    1    2    0    0  0.00000000000E+00  0.00000000000E+00 -0.32415695776E+03  0.16483712064E+04  0.16161837460E+04 0.  0.
        1    1    3    3  502    0  0.31704451638E+03 -0.24543287097E+03 -0.87766253716E+03  0.96490727465E+03  0.50400001928E-02 0. -1.
       -1    1    3    3    0  502 -0.31704451638E+03  0.24543287097E+03  0.55350557940E+03  0.68346393172E+03  0.50400001928E-02 0.  1.
</event>
<event>
 5   0  0.3803253E-04  0.1622362E+04  0.7818609E-02  0.8806927E-01
        1   -1    0    0  501    0  0.00000000000E+00  0.00000000000E+00  0.76228836379E+03  0.76228836381E+03  0.50400001928E-02 0. -1.
       -1   -1    0    0    0  501  0.00000000000E+00  0.00000000000E+00 -0.86320964007E+03  0.86320964008E+03  0.50400001928E-02 0.  1.
    10030    2    1    2    0    0  0.00000000000E+00  0.00000000000E+00 -0.10092127627E+03  0.16254980039E+04  0.16223620609E+04 0.  0.
        4    1    3    3  502    0 -0.32752557922E+03 -0.31180838046E+03  0.62427673259E+03  0.77085700550E+03  0.12699999809E+01 0. -1.
       -4    1    3    3    0  502  0.32752557922E+03  0.31180838046E+03 -0.72519800887E+03  0.85464099839E+03  0.12699999809E+01 0.  1.
</event>
<event>
 5   0  0.7242144E-04  0.1787013E+04  0.7818609E-02  0.8713236E-01
        2   -1    0    0  501    0  0.00000000000E+00  0.00000000000E+00  0.85296741975E+03  0.85296741975E+03  0.25500000920E-02 0. -1.
       -2   -1    0    0    0  501  0.00000000000E+00  0.00000000000E+00 -0.93597230240E+03  0.93597230241E+03  0.25500000920E-02 0.  1.
    10030    2    1    2    0    0  0.00000000000E+00  0.00000000000E+00 -0.83004882656E+02  0.17889397222E+04  0.17870130159E+04 0.  0.
        3    1    3    3  502    0 -0.33451309727E+03  0.81586114912E+03  0.10296338041E+03  0.88776680203E+03  0.10100000352E+00 0.  1.
       -3    1    3    3    0  502  0.33451309727E+03 -0.81586114912E+03 -0.18596826307E+03  0.90117292012E+03  0.10100000352E+00 0. -1.
</event>
<event>
 5   0  0.6746664E-04  0.1705677E+04  0.7818609E-02  0.8758133E-01
       -2   -1    0    0    0  501  0.00000000000E+00  0.00000000000E+00  0.66008809081E+03  0.66008809082E+03  0.25500000920E-02 0.  1.
        2   -1    0    0  501    0  0.00000000000E+00  0.00000000000E+00 -0.11018732726E+04  0.11018732726E+04  0.25500000920E-02 0. -1.
    10030    2    1    2    0    0  0.00000000000E+00  0.00000000000E+00 -0.44178518174E+03  0.17619613634E+04  0.17056769035E+04 0.  0.
        5    1    3    3  502    0 -0.72273783114E+03  0.22161099697E+03  0.18691275587E+03  0.77872965453E+03  0.46999998093E+01 0.  1.
       -5    1    3    3    0  502  0.72273783114E+03 -0.22161099697E+03 -0.62869793760E+03  0.98323170885E+03  0.46999998093E+01 0. -1.
</event>
<event>
 5   0  0.3635143E-04  0.1698942E+04  0.7818609E-02  0.8761968E-01
       -1   -1    0    0    0  501  0.00000000000E+00  0.00000000000E+00  0.71574770409E+03  0.71574770411E+03  0.50400001928E-02 0.  1.
        1   -1    0    0  501    0  0.00000000000E+00  0.00000000000E+00 -0.10081781965E+04  0.10081781965E+04  0.50400001928E-02 0. -1.
    10030    2    1    2    0    0  0.00000000000E+00  0.00000000000E+00 -0.29243049244E+03  0.17239259007E+04  0.16989422939E+04 0.  0.
        3    1    3    3  502    0  0.39907747908E+03  0.59977138598E+03  0.31052919036E+03  0.78448514200E+03  0.10100000352E+00 0. -1.
       -3    1    3    3    0  502 -0.39907747908E+03 -0.59977138598E+03 -0.60295968280E+03  0.93944075866E+03  0.10100000352E+00 0.  1.
</event>
<event>
 5   0  0.2639750E-04  0.1663319E+04  0.7818609E-02  0.8782566E-01
        3   -1    0    0  501    0  0.00000000000E+00  0.00000000000E+00  0.76051684597E+03  0.76051685268E+03  0.10100000352E+00 0. -1.
       -3   -1    0    0    0  501  0.00000000000E+00  0.00000000000E+00 -0.90945680705E+03  0.90945681265E+03  0.10100000352E+00 0.  1.
    10030    2    1    2    0    0  0.00000000000E+00  0.00000000000E+00 -0.14893996107E+03  0.16699736653E+04  0.16633186498E+04 0.  0.
        5    1    3    3  502    0 -0.71156383813E+03  0.43047877333E+03 -0.74199269672E+02  0.83496268877E+03  0.46999998093E+01 0. -1.
       -5    1    3    3    0  502  0.71156383813E+03 -0.43047877333E+03 -0.74740691402E+02  0.83501097656E+03  0.46999998093E+01 0.  1.
</event>
<event>
 5   0  0.3803253E-04  0.1763159E+04  0.7818609E-02  0.8726140E-01
        1   -1    0    0  501    0  0.00000000000E+00  0.00000000000E+00  0.18690796576E+04  0.18690796576E+04  0.50400001928E-02 0.  1.
       -1   -1    0    0    0  501  0.00000000000E+00  0.00000000000E+00 -0.41581038071E+03  0.41581038074E+03  0.50400001928E-02 0. -1.
    10030    2    1    2    0    0  0.00000000000E+00  0.00000000000E+00  0.14532692769E+04  0.22848900383E+04  0.17631593507E+04 0.  0.
        4    1    3    3  502    0  0.62605600963E+03  0.61599019520E+03  0.62801738625E+03  0.10797210279E+04  0.12699999809E+01 0.  1.
       -4    1    3    3    0  502 -0.62605600963E+03 -0.61599019520E+03  0.82525189061E+03  0.12051690104E+04  0.12699999809E+01 0. -1.
</event>
<event>
 5   0  0.7049044E-04  0.1729786E+04  0.7818609E-02  0.8744556E-01
       -2   -1    0    0    0  501  0.00000000000E+00  0.00000000000E+00  0.45536337513E+03  0.45536337514E+03  0.25500000920E-02 0.  1.
        2   -1    0    0  501    0  0.00000000000E+00  0.00000000000E+00 -0.16427321933E+04  0.16427321933E+04  0.25500000920E-02 0. -1.
    10030    2    1    2    0    0  0.00000000000E+00  0.00000000000E+00 -0.11873688181E+04  0.20980955684E+04  0.17297862018E+04 0.  0.
        4    1    3    3  502    0  0.78042933759E+03 -0.19764813968E+03 -0.21030950641E+03  0.83208559624E+03  0.12699999809E+01 0.  1.
       -4    1    3    3    0  502 -0.78042933759E+03  0.19764813968E+03 -0.97705931172E+03  0.12660099722E+04  0.12699999809E+01 0. -1.
</event>
<event>
 5   0  0.3635143E-04  0.1715109E+04  0.7818609E-02  0.8752794E-01
        1   -1    0    0  501    0  0.00000000000E+00  0.00000000000E+00  0.21307681105E+04  0.21307681105E+04  0.50400001928E-02 0. -1.
       -1   -1    0    0    0  501  0.00000000000E+00  0.00000000000E+00 -0.34513346533E+03  0.34513346537E+03  0.50400001928E-02 0.  1.
    10030    2    1    2    0    0  0.00000000000E+00  0.00000000000E+00  0.17856346452E+04  0.24759015759E+04  0.17151086051E+04 0.  0.
        3    1    3    3  502    0  0.79025390995E+03  0.33036228571E+03  0.95335991976E+03  0.12816144618E+04  0.10100000352E+00 0. -1.
       -3    1    3    3    0  502 -0.79025390995E+03 -0.33036228571E+03  0.83227472543E+03  0.11942871141E+04  0.10100000352E+00 0.  1.
</event>
<event>
 5   0  0.6746664E-04  0.1314677E+04  0.7818609E-02  0.9018006E-01
       -2   -1    0    0    0  501  0.00000000000E+00  0.00000000000E+00  0.44656526704E+03  0.44656526705E+03  0.25500000920E-02 0.  1.
        2   -1    0    0  501    0  0.00000000000E+00  0.00000000000E+00 -0.96759424095E+03  0.96759424096E+03  0.25500000920E-02 0. -1.
    10030    2    1    2    0    0  0.00000000000E+00  0.00000000000E+00 -0.52102897391E+03  0.14141595080E+04  0.13146771172E+04 0.  0.
        5    1    3    3  502    0  0.46807102679E+03 -0.37634249374E+03  0.26807843183E+02  0.60121951829E+03  0.46999998093E+01 0.  1.
       -5    1    3    3    0  502 -0.46807102679E+03  0.37634249374E+03 -0.54783681710E+03  0.81293998972E+03  0.46999998093E+01 0. -1.
</event>
<event>
 5   0  0.7025426E-04  0.1753487E+04  0.7818609E-02  0.8731434E-01
        2   -1    0    0  501    0  0.00000000000E+00  0.00000000000E+00  0.87936888202E+03  0.87936888203E+03  0.25500000920E-02 0.  1.
       -2   -1    0    0    0  501  0.00000000000E+00  0.00000000000E+00 -0.87412546804E+03  0.87412546804E+03  0.25500000920E-02 0. -1.
    10030    2    1    2    0    0  0.00000000000E+00  0.00000000000E+00  0.52434139833E+01  0.17534943501E+04  0.17534865105E+04 0.  0.
        2    1    3    3  502    0 -0.39818437448E+03 -0.74116858784E+03 -0.24395000171E+03  0.87600986012E+03  0.25500000920E-02 0. -1.
       -2    1    3    3    0  502  0.39818437448E+03  0.74116858784E+03  0.24919341569E+03  0.87748448995E+03  0.25500000920E-02 0.  1.
</event>
<event>
 5   0  0.6746664E-04  0.1654759E+04  0.7818609E-02  0.8787596E-01
        2   -1    0    0  501    0  0.00000000000E+00  0.00000000000E+00  0.84821956519E+03  0.84821956519E+03  0.25500000920E-02 0.  1.
       -2   -1    0    0    0  501  0.00000000000E+00  0.00000000000E+00 -0.80705131781E+03  0.80705131782E+03  0.25500000920E-02 0. -1.
    10030    2    1    2    0    0  0.00000000000E+00  0.00000000000E+00  0.41168247377E+02  0.16552708830E+04  0.16547588560E+04 0.  0.
        5    1    3    3  502    0 -0.59692553039E+03  0.14424277202E+03  0.57520005585E+03  0.84142929611E+03  0.46999998093E+01 0.  1.
       -5    1    3    3    0  502  0.59692553039E+03 -0.14424277202E+03 -0.53403180847E+03  0.81384158690E+03  0.46999998093E+01 0. -1.
</event>
<event>
 5   0  0.3713516E-04  0.1699652E+04  0.7818609E-02  0.8761563E-01
       -1   -1    0    0    0  501  0.00000000000E+00  0.00000000000E+00  0.28306159613E+03  0.28306159617E+03  0.50400001928E-02 0.  1.
        1   -1    0    0  501    0  0.00000000000E+00  0.00000000000E+00 -0.25514022734E+04  0.25514022734E+04  0.50400001928E-02 0. -1.
    10030    2    1    2    0    0  0.00000000000E+00  0.00000000000E+00 -0.22683406772E+04  0.28344638695E+04  0.16996517289E+04 0.  0.
        5    1    3    3  502    0 -0.50096324982E+02 -0.79674011919E+03 -0.16200258666E+04  0.18060482712E+04  0.46999998093E+01 0. -1.
       -5    1    3    3    0  502  0.50096324982E+02  0.79674011919E+03 -0.64831481062E+03  0.10284155984E+04  0.46999998093E+01 0.  1.
</event>
<event>
 5   0  0.3803253E-04  0.1702840E+04  0.7818609E-02  0.8759746E-01
       -1   -1    0    0    0  501  0.00000000000E+00  0.00000000000E+00  0.31686041936E+03  0.31686041940E+03  0.50400001928E-02 0. -1.
        1   -1    0    0  501    0  0.00000000000E+00  0.00000000000E+00 -0.22878092479E+04  0.22878092479E+04  0.50400001928E-02 0.  1.
    10030    2    1    2    0    0  0.00000000000E+00  0.00000000000E+00 -0.19709488285E+04  0.26046696673E+04  0.17028402130E+04 0.  0.
        4    1    3    3  502    0 -0.46588404719E+03 -0.65599198504E+03 -0.14114109435E+04  0.16246402353E+04  0.12699999809E+01 0.  1.
       -4    1    3    3    0  502  0.46588404719E+03  0.65599198504E+03 -0.55953788501E+03  0.98002943197E+03  0.12699999809E+01 0. -1.
</event>
<event>
 5   0  0.7242144E-04  0.1802429E+04  0.7818609E-02  0.8705009E-01
        2   -1    0    0  501    0  0.00000000000E+00  0.00000000000E+00  0.52973277732E+03  0.52973277732E+03  0.25500000920E-02 0. -1.
       -2   -1    0    0    0  501  0.00000000000E+00  0.00000000000E+00 -0.15332027150E+04  0.15332027150E+04  0.25500000920E-02 0.  1.
    10030    2    1    2    0    0  0.00000000000E+00  0.00000000000E+00 -0.10034699376E+04  0.20629354923E+04  0.18024291746E+04 0.  0.
        3    1    3    3  502    0  0.10223188890E+03  0.39781843062E+03  0.41637331559E+03  0.58487401291E+03  0.10100000352E+00 0. -1.
       -3    1    3    3    0  502 -0.10223188890E+03 -0.39781843062E+03 -0.14198432532E+04  0.14780614794E+04  0.10100000352E+00 0.  1.
</event>
<event>
 5   0  0.3915701E-04  0.1712630E+04  0.7818609E-02  0.8754194E-01
        1   -1    0    0  501    0  0.00000000000E+00  0.00000000000E+00  0.84607730379E+03  0.84607730381E+03  0.50400001928E-02 0.  1.
       -1   -1    0    0    0  501  0.00000000000E+00  0.00000000000E+00 -0.86667634086E+03  0.86667634088E+03  0.50400001928E-02 0. -1.
    10030    2    1    2    0    0  0.00000000000E+00  0.00000000000E+00 -0.20599037070E+02  0.17127536447E+04  0.17126297694E+04 0.  0.
        2    1    3    3  502    0  0.71689401989E+03 -0.27225808827E+03  0.37079717113E+03  0.85179342831E+03  0.25500000920E-02 0.  1.
       -2    1    3    3    0  502 -0.71689401989E+03  0.27225808827E+03 -0.39139620820E+03  0.86096021638E+03  0.25500000920E-02 0. -1.
</event>
<event>
 5   0  0.7049044E-04  0.1650230E+04  0.7818609E-02  0.8790271E-01
       -2   -1    0    0    0  501  0.00000000000E+00  0.00000000000E+00  0.60338786793E+03  0.60338786793E+03  0.25500000920E-02 0. -1.
        2   -1    0    0  501    0  0.00000000000E+00  0.00000000000E+00 -0.11283199292E+04  0.11283199292E+04  0.25500000920E-02 0.  1.
    10030    2    1    2    0    0  0.00000000000E+00  0.00000000000E+00 -0.52493206129E+03  0.17317077972E+04  0.16502297494E+04 0.  0.
        4    1    3    3  502    0 -0.61102260847E+03 -0.52811702741E+03 -0.85135150987E+02  0.81209964261E+03  0.12699999809E+01 0.  1.
       -4    1    3    3    0  502  0.61102260847E+03  0.52811702741E+03 -0.43979691031E+03  0.91960815455E+03  0.12699999809E+01 0. -1.
</event>
<event>
 5   0  0.3803253E-04  0.1769627E+04  0.7818609E-02  0.8722620E-01
        1   -1    0    0  501    0  0.00000000000E+00  0.00000000000E+00  0.83222978785E+03  0.83222978786E+03  0.50400001928E-02 0. -1.
       -1   -1    0    0    0  501  0.00000000000E+00  0.00000000000E+00 -0.94072014202E+03  0.94072014203E+03  0.50400001928E-02 0.  1.
    10030    2    1    2    0    0  0.00000000000E+00  0.00000000000E+00 -0.10849035417E+03  0.17729499299E+04  0.17696274458E+04 0.  0.
        4    1    3    3  502    0 -0.28525757248E+03 -0.40951102854E+03  0.67775819500E+03  0.84168221375E+03  0.12699999809E+01 0. -1.
       -4    1    3    3    0  502  0.28525757248E+03  0.40951102854E+03 -0.78624854917E+03  0.93126771614E+03  0.12699999809E+01 0.  1.
</event>
<event>
 5   0  0.3723500E-04  0.1691708E+04  0.7818609E-02  0.8766108E-01
        1   -1    0    0  501    0  0.00000000000E+00  0.00000000000E+00  0.10589701703E+04  0.10589701703E+04  0.50400001928E-02 0.  1.
       -1   -1    0    0    0  501  0.00000000000E+00  0.00000000000E+00 -0.67562712556E+03  0.67562712558E+03  0.50400001928E-02 0. -1.
    10030    2    1    2    0    0  0.00000000000E+00  0.00000000000E+00  0.38334304476E+03  0.17345972959E+04  0.16917079798E+04 0.  0.
        1    1    3    3  502    0  0.56876876835E+03  0.57067018007E+03 -0.72357499133E+02  0.80894868439E+03  0.50400001928E-02 0.  1.
       -1    1    3    3    0  502 -0.56876876835E+03 -0.57067018007E+03  0.45570054390E+03  0.92564861152E+03  0.50400001928E-02 0. -1.
</event>
<event>
 5   0  0.3713516E-04  0.1672783E+04  0.7818609E-02  0.8777041E-01
       -1   -1    0    0    0  501  0.00000000000E+00  0.00000000000E+00  0.99753543636E+03  0.99753543637E+03  0.50400001928E-02 0. -1.
        1   -1    0    0  501    0  0.00000000000E+00  0.00000000000E+00 -0.70127894128E+03  0.70127894129E+03  0.50400001928E-02 0.  1.
    10030    2    1    2    0    0  0.00000000000E+00  0.00000000000E+00  0.29625649508E+03  0.16988143777E+04  0.16727828248E+04 0.  0.
        5    1    3    3  502    0 -0.28375117384E+03 -0.16668618876E+03 -0.63275195329E+03  0.71322937305E+03  0.46999998093E+01 0.  1.
       -5    1    3    3    0  502  0.28375117384E+03  0.16668618876E+03  0.92900844837E+03  0.98558500462E+03  0.46999998093E+01 0. -1.
</event>
<event>
 5   0  0.3635143E-04  0.1710250E+04  0.7818609E-02  0.8755540E-01
       -1   -1    0    0    0  501  0.00000000000E+00  0.00000000000E+00  0.56896279233E+03  0.56896279236E+03  0.50400001928E-02 0. -1.
        1   -1    0    0  501    0  0.00000000000E+00  0.00000000000E+00 -0.12852142454E+04  0.12852142454E+04  0.50400001928E-02 0.  1.
    10030    2    1    2    0    0  0.00000000000E+00  0.00000000000E+00 -0.71625145302E+03  0.18541770377E+04  0.17102503744E+04 0.  0.
        3    1    3    3  502    0  0.59330455791E+03 -0.48856454801E+03  0.48300170681E+02  0.77008995104E+03  0.10100000352E+00 0.  1.
       -3    1    3    3    0  502 -0.59330455791E+03  0.48856454801E+03 -0.76455162370E+03  0.10840870867E+04  0.10100000352E+00 0. -1.
</event>
<event>
 5   0  0.7025426E-04  0.1765750E+04  0.7818609E-02  0.8724729E-01
       -2   -1    0    0    0  501  0.00000000000E+00  0.00000000000E+00  0.55870797684E+03  0.55870797684E+03  0.25500000920E-02 0.  1.
        2   -1    0    0  501    0  0.00000000000E+00  0.00000000000E+00 -0.13951256496E+04  0.13951256496E+04  0.25500000920E-02 0. -1.
    10030    2    1    2    0    0  0.00000000000E+00  0.00000000000E+00 -0.83641767275E+03  0.19538336264E+04  0.17657495056E+04 0.  0.
        2    1    3    3  502    0  0.38920538592E+03  0.67090827780E+03  0.48459908666E+02  0.77714034280E+03  0.25500000920E-02 0.  1.
       -2    1    3    3    0  502 -0.38920538592E+03 -0.67090827780E+03 -0.88487758142E+03  0.11766932836E+04  0.25500000920E-02 0. -1.
</event>
<event>
 5   0  0.3803253E-04  0.1684369E+04  0.7818609E-02  0.8770330E-01
        1   -1    0    0  501    0  0.00000000000E+00  0.00000000000E+00  0.22055350437E+04  0.22055350437E+04  0.50400001928E-02 0.  1.
       -1   -1    0    0    0  501  0.00000000000E+00  0.00000000000E+00 -0.32158860646E+03  0.32158860650E+03  0.50400001928E-02 0. -1.
    10030    2    1    2    0    0  0.00000000000E+00  0.00000000000E+00  0.18839464373E+04  0.25271236502E+04  0.16843692484E+04 0.  0.
        4    1    3    3  502    0 -0.10460933123E+03 -0.15901439136E+03  0.21728402040E+04  0.21811613544E+04  0.12699999809E+01 0.  1.
       -4    1    3    3    0  502  0.10460933123E+03  0.15901439136E+03 -0.28889376669E+03  0.34596229588E+03  0.12699999809E+01 0. -1.
</event>
<event>
 5   0  0.7242144E-04  0.1859534E+04  0.7818609E-02  0.8675265E-01
        2   -1    0    0  501    0  0.00000000000E+00  0.00000000000E+00  0.18616023890E+04  0.18616023890E+04  0.25500000920E-02 0. -1.
       -2   -1    0    0    0  501  0.00000000000E+00  0.00000000000E+00 -0.46436680463E+03  0.46436680463E+03  0.25500000920E-02 0.  1.
    10030    2    1    2    0    0  0.00000000000E+00  0.00000000000E+00  0.13972355843E+04  0.23259691936E+04  0.18595336543E+04 0.  0.
        3    1    3    3  502    0 -0.23819338763E+03  0.69436546545E+03  0.14123467963E+04  0.15917295539E+04  0.10100000352E+00 0. -1.
       -3    1    3    3    0  502  0.23819338763E+03 -0.69436546545E+03 -0.15111212005E+02  0.73423963966E+03  0.10100000352E+00 0.  1.
</event>
<event>
 5   0  0.7049044E-04  0.1857255E+04  0.7818609E-02  0.8676431E-01
       -2   -1    0    0    0  501  0.00000000000E+00  0.00000000000E+00  0.49390495908E+03  0.49390495908E+03  0.25500000920E-02 0.  1.
        2   -1    0    0  501    0  0.00000000000E+00  0.00000000000E+00 -0.17459818701E+04  0.17459818701E+04  0.25500000920E-02 0. -1.
    10030    2    1    2    0    0  0.00000000000E+00  0.00000000000E+00 -0.12520769110E+04  0.22398868292E+04  0.18572550758E+04 0.  0.
        4    1    3    3  502    0  0.27851837225E+02 -0.78498479796E+03 -0.28637635928E+02  0.78600164437E+03  0.12699999809E+01 0.  1.
       -4    1    3    3    0  502 -0.27851837225E+02  0.78498479796E+03 -0.12234392751E+04  0.14538851848E+04  0.12699999809E+01 0. -1.
</event>
<event>
 5   0  0.3723500E-04  0.1695726E+04  0.7818609E-02  0.8763806E-01
        1   -1    0    0  501    0  0.00000000000E+00  0.00000000000E+00  0.79832871492E+03  0.79832871493E+03  0.50400001928E-02 0. -1.
       -1   -1    0    0    0  501  0.00000000000E+00  0.00000000000E+00 -0.90047059872E+03  0.90047059873E+03  0.50400001928E-02 0.  1.
    10030    2    1    2    0    0  0.00000000000E+00  0.00000000000E+00 -0.10214188380E+03  0.16987993137E+04  0.16957258457E+04 0.  0.
        1    1    3    3  502    0 -0.26324008254E+03 -0.66779693244E+03  0.40099348643E+03  0.82221886394E+03  0.50400001928E-02 0. -1.
       -1    1    3    3    0  502  0.26324008254E+03  0.66779693244E+03 -0.50313537023E+03  0.87658044972E+03  0.50400001928E-02 0.  1.
</event>
<event>
 5   0  0.6746664E-04  0.1707552E+04  0.7818609E-02  0.8757069E-01
        2   -1    0    0  501    0  0.00000000000E+00  0.00000000000E+00  0.11136020791E+04  0.11136020791E+04  0.25500000920E-02 0. -1.
       -2   -1    0    0    0  501  0.00000000000E+00  0.00000000000E+00 -0.65457259575E+03  0.65457259575E+03  0.25500000920E-02 0.  1.
    10030    2    1    2    0    0  0.00000000000E+00  0.00000000000E+00  0.45902948335E+03  0.17681746749E+04  0.17075519360E+04 0.  0.
        5    1    3    3  502    0 -0.66623664210E+03  0.50029159391E+03  0.42254192398E+03  0.93419843167E+03  0.46999998093E+01 0. -1.
       -5    1    3    3    0  502  0.66623664210E+03 -0.50029159391E+03  0.36487559371E+02  0.83397624319E+03  0.46999998093E+01 0.  1.
</event>
<event>
 5   0  0.2639750E-04  0.1613100E+04  0.7818609E-02  0.8812541E-01
        3   -1    0    0  501    0  0.00000000000E+00  0.00000000000E+00  0.59800551285E+03  0.59800552138E+03  0.10100000352E+00 0.  1.
       -3   -1    0    0    0  501  0.00000000000E+00  0.00000000000E+00 -0.10878203658E+04  0.10878203705E+04  0.10100000352E+00 0. -1.
    10030    2    1    2    0    0  0.00000000000E+00  0.00000000000E+00 -0.48981485297E+03  0.16858258919E+04  0.16130996087E+04 0.  0.
        5    1    3    3  502    0 -0.78236778993E+03  0.52485271947E+02 -0.47592662873E+02  0.78558335907E+03  0.46999998093E+01 0. -1.
       -5    1    3    3    0  502  0.78236778993E+03 -0.52485271947E+02 -0.44222219010E+03  0.90024253282E+03  0.46999998093E+01 0.  1.
</event>
<event>
 5   0  0.7233728E-04  0.1714890E+04  0.7818609E-02  0.8752918E-01
        2   -1    0    0  501    0  0.00000000000E+00  0.00000000000E+00  0.91162960808E+03  0.91162960808E+03  0.25500000920E-02 0.  1.
       -2   -1    0    0    0  501  0.00000000000E+00  0.00000000000E+00 -0.80648067698E+03  0.80648067698E+03  0.25500000920E-02 0. -1.
    10030    2    1    2    0    0  0.00000000000E+00  0.00000000000E+00  0.10514893110E+03  0.17181102851E+04  0.17148896915E+04 0.  0.
        1    1    3    3  502    0  0.24815048624E+03  0.28226064708E+03 -0.71956215702E+03  0.81180011983E+03  0.50400001928E-02 0. -1.
       -1    1    3    3    0  502 -0.24815048624E+03 -0.28226064708E+03  0.82471108812E+03  0.90631016523E+03  0.50400001928E-02 0.  1.
</event>
<event>
 5   0  0.7242144E-04  0.1698062E+04  0.7818609E-02  0.8762470E-01
        2   -1    0    0  501    0  0.00000000000E+00  0.00000000000E+00  0.10462414169E+04  0.10462414169E+04  0.25500000920E-02 0.  1.
       -2   -1    0    0    0  501  0.00000000000E+00  0.00000000000E+00 -0.68899375951E+03  0.68899375951E+03  0.25500000920E-02 0. -1.
    10030    2    1    2    0    0  0.00000000000E+00  0.00000000000E+00  0.35724765742E+03  0.17352351764E+04  0.16980621982E+04 0.  0.
        3    1    3    3  502    0 -0.22740328316E+03 -0.48325551765E+03  0.85307653310E+03  0.10064729157E+04  0.10100000352E+00 0.  1.
       -3    1    3    3    0  502  0.22740328316E+03  0.48325551765E+03 -0.49582887567E+03  0.72876226074E+03  0.10100000352E+00 0. -1.
</event>
<event>
 5   0  0.3723500E-04  0.1700418E+04  0.7818609E-02  0.8761126E-01
        1   -1    0    0  501    0  0.00000000000E+00  0.00000000000E+00  0.14169130671E+04  0.14169130671E+04  0.50400001928E-02 0. -1.
       -1   -1    0    0    0  501  0.00000000000E+00  0.00000000000E+00 -0.51016195190E+03  0.51016195193E+03  0.50400001928E-02 0.  1.
    10030    2    1    2    0    0  0.00000000000E+00  0.00000000000E+00  0.90675111516E+03  0.19270750190E+04  0.17004177557E+04 0.  0.
        1    1    3    3  502    0  0.15249786647E+03 -0.81476137079E+03  0.66769554048E+03  0.10643819922E+04  0.50400001928E-02 0. -1.
       -1    1    3    3    0  502 -0.15249786647E+03  0.81476137079E+03  0.23905557468E+03  0.86269302676E+03  0.50400001928E-02 0.  1.
</event>
<event>
 5   0  0.2639750E-04  0.1690494E+04  0.7818609E-02  0.8766805E-01
        4   -1    0    0  501    0  0.00000000000E+00  0.00000000000E+00  0.71084780448E+03  0.71084893897E+03  0.12699999809E+01 0. -1.
       -4   -1    0    0    0  501  0.00000000000E+00  0.00000000000E+00 -0.10050544083E+04  0.10050552107E+04  0.12699999809E+01 0.  1.
    10030    2    1    2    0    0  0.00000000000E+00  0.00000000000E+00 -0.29420660380E+03  0.17159041496E+04  0.16904938702E+04 0.  0.
        5    1    3    3  502    0 -0.25243827175E+03 -0.64925620020E+03  0.33880055238E+03  0.77463965741E+03  0.46999998093E+01 0. -1.
       -5    1    3    3    0  502  0.25243827175E+03  0.64925620020E+03 -0.63300715618E+03  0.94126449222E+03  0.46999998093E+01 0.  1.
</event>
<event>
 5   0  0.7233728E-04  0.1701251E+04  0.7818609E-02  0.8760651E-01
        2   -1    0    0  501    0  0.00000000000E+00  0.00000000000E+00  0.70111135118E+03  0.70111135119E+03  0.25500000920E-02 0.  1.
       -2   -1    0    0    0  501  0.00000000000E+00  0.00000000000E+00 -0.10320234569E+04  0.10320234569E+04  0.25500000920E-02 0. -1.
    10030    2    1    2    0    0  0.00000000000E+00  0.00000000000E+00 -0.33091210572E+03  0.17331348081E+04  0.17012505522E+04 0.  0.
        1    1    3    3  502    0  0.14484728776E+03  0.46962728654E+03 -0.87275396619E+03  0.10016137033E+04  0.50400001928E-02 0. -1.
       -1    1    3    3    0  502 -0.14484728776E+03 -0.46962728654E+03  0.54184186047E+03  0.73152110483E+03  0.50400001928E-02 0.  1.
</event>
<event>
 5   0  0.7242144E-04  0.1733862E+04  0.7818609E-02  0.8742284E-01
        2   -1    0    0  501    0  0.00000000000E+00  0.00000000000E+00  0.21045108290E+04  0.21045108290E+04  0.25500000920E-02 0. -1.
       -2   -1    0    0    0  501  0.00000000000E+00  0.00000000000E+00 -0.35712291555E+03  0.35712291555E+03  0.25500000920E-02 0.  1.
    10030    2    1    2    0    0  0.00000000000E+00  0.00000000000E+00  0.17473879134E+04  0.24616337445E+04  0.17338616358E+04 0.  0.
        3    1    3    3  502    0 -0.86408081919E+02  0.85606184235E+03  0.10243524394E+04  0.13377616248E+04  0.10100000352E+00 0. -1.
       -3    1    3    3    0  502  0.86408081919E+02 -0.85606184235E+03  0.72303547403E+03  0.11238721197E+04  0.10100000352E+00 0.  1.
</event>
<event>
 5   0  0.3713516E-04  0.1709209E+04  0.7818609E-02  0.8756130E-01
        1   -1    0    0  501    0  0.00000000000E+00  0.00000000000E+00  0.11192086747E+04  0.11192086747E+04  0.50400001928E-02 0. -1.
       -1   -1    0    0    0  501  0.00000000000E+00  0.00000000000E+00 -0.65255816507E+03  0.65255816509E+03  0.50400001928E-02 0.  1.
    10030    2    1    2    0    0  0.00000000000E+00  0.00000000000E+00  0.46665050965E+03  0.17717668398E+04  0.17092088920E+04 0.  0.
        5    1    3    3  502    0 -0.80387881919E+03 -0.26885997682E+03  0.34602345190E+03  0.91556603385E+03  0.46999998093E+01 0.  1.
       -5    1    3    3    0  502  0.80387881919E+03  0.26885997682E+03  0.12062705776E+03  0.85620080597E+03  0.46999998093E+01 0. -1.
</event>
<event>
 5   0  0.7242144E-04  0.1683083E+04  0.7818609E-02  0.8771072E-01
        2   -1    0    0  501    0  0.00000000000E+00  0.00000000000E+00  0.20283743343E+04  0.20283743343E+04  0.25500000920E-02 0.  1.
       -2   -1    0    0    0  501  0.00000000000E+00  0.00000000000E+00 -0.34914270167E+03  0.34914270168E+03  0.25500000920E-02 0. -1.
    10030    2    1    2    0    0  0.00000000000E+00  0.00000000000E+00  0.16792316326E+04  0.23775170359E+04  0.16830829986E+04 0.  0.
        3    1    3    3  502    0 -0.50348515393E+03 -0.34518557805E+03  0.16578758805E+04  0.17666926243E+04  0.10100000352E+00 0.  1.
       -3    1    3    3    0  502  0.50348515393E+03  0.34518557805E+03  0.21355752144E+02  0.61082441166E+03  0.10100000352E+00 0. -1.
</event>
<event>
 5   0  0.3915701E-04  0.1707246E+04  0.7818609E-02  0.8757243E-01
       -1   -1    0    0    0  501  0.00000000000E+00  0.00000000000E+00  0.62371981524E+03  0.62371981526E+03  0.50400001928E-02 0.  1.
        1   -1    0    0  501    0  0.00000000000E+00  0.00000000000E+00 -0.11682683728E+04  0.11682683728E+04  0.50400001928E-02 0. -1.
    10030    2    1    2    0    0  0.00000000000E+00  0.00000000000E+00 -0.54454855757E+03  0.17919881881E+04  0.17072458917E+04 0.  0.
        2    1    3    3  502    0 -0.63070745157E+03 -0.30583263057E+03  0.23909026950E+03  0.74060086711E+03  0.25500000920E-02 0.  1.
       -2    1    3    3    0  502  0.63070745157E+03  0.30583263057E+03 -0.78363882708E+03  0.10513873210E+04  0.25500000920E-02 0. -1.
</event>
<event>
 5   0  0.3803253E-04  0.1706668E+04  0.7818609E-02  0.8757571E-01
       -1   -1    0    0    0  501  0.00000000000E+00  0.00000000000E+00  0.38789765271E+03  0.38789765274E+03  0.50400001928E-02 0. -1.
        1   -1    0    0  501    0  0.00000000000E+00  0.00000000000E+00 -0.18772444144E+04  0.18772444144E+04  0.50400001928E-02 0.  1.
    10030    2    1    2    0    0  0.00000000000E+00  0.00000000000E+00 -0.14893467617E+04  0.22651420672E+04  0.17066677497E+04 0.  0.
        4    1    3    3  502    0 -0.61358110603E+03  0.39872480430E+03 -0.13273169039E+04  0.15156632276E+04  0.12699999809E+01 0.  1.
       -4    1    3    3    0  502  0.61358110603E+03 -0.39872480430E+03 -0.16202985780E+03  0.74947883956E+03  0.12699999809E+01 0. -1.
</event>
<event>
 5   0  0.7242144E-04  0.1698413E+04  0.7818609E-02  0.8762270E-01
        2   -1    0    0  501    0  0.00000000000E+00  0.00000000000E+00  0.21340864942E+04  0.21340864942E+04  0.25500000920E-02 0. -1.
       -2   -1    0    0    0  501  0.00000000000E+00  0.00000000000E+00 -0.33792038119E+03  0.33792038120E+03  0.25500000920E-02 0.  1.
    10030    2    1    2    0    0  0.00000000000E+00  0.00000000000E+00  0.17961661131E+04  0.24720068754E+04  0.16984125784E+04 0.  0.
        3    1    3    3  502    0  0.24931944555E+03 -0.72376530173E+03  0.14331675879E+04  0.16247971391E+04  0.10100000352E+00 0. -1.
       -3    1    3    3    0  502 -0.24931944555E+03  0.72376530173E+03  0.36299852511E+03  0.84720973634E+03  0.10100000352E+00 0.  1.
</event>
<event>
 5   0  0.3635143E-04  0.1639147E+04  0.7818609E-02  0.8796853E-01
       -1   -1    0    0    0  501  0.00000000000E+00  0.00000000000E+00  0.12235146967E+04  0.12235146967E+04  0.50400001928E-02 0.  1.
        1   -1    0    0  501    0  0.00000000000E+00  0.00000000000E+00 -0.54899304667E+03  0.54899304669E+03  0.50400001928E-02 0. -1.
    10030    2    1    2    0    0  0.00000000000E+00  0.00000000000E+00  0.67452165000E+03  0.17725077434E+04  0.16391474138E+04 0.  0.
        3    1    3    3  502    0 -0.72515743740E+03  0.18034484793E+03 -0.26763223222E+02  0.74772578764E+03  0.10100000352E+00 0. -1.
       -3    1    3    3    0  502  0.72515743740E+03 -0.18034484793E+03  0.70128487322E+03  0.10247819557E+04  0.10100000352E+00 0.  1.
</event>
<event>
 5   0  0.3723500E-04  0.1674622E+04  0.7818609E-02  0.8775972E-01
        1   -1    0    0  501    0  0.00000000000E+00  0.00000000000E+00  0.10421525519E+04  0.10421525519E+04  0.50400001928E-02 0.  1.
       -1   -1    0    0    0  501  0.00000000000E+00  0.00000000000E+00 -0.67273257811E+03  0.67273257813E+03  0.50400001928E-02 0. -1.
    10030    2    1    2    0    0  0.00000000000E+00  0.00000000000E+00  0.36941997380E+03  0.17148851301E+04  0.16746223133E+04 0.  0.
        1    1    3    3  502    0 -0.31866112101E+03  0.10300589730E+02  0.97755928179E+03  0.10282378916E+04  0.50400001928E-02 0.  1.
       -1    1    3    3    0  502  0.31866112101E+03 -0.10300589730E+02 -0.60813930799E+03  0.68664723850E+03  0.50400001928E-02 0. -1.
</event>
<event>
 5   0  0.3803253E-04  0.1669374E+04  0.7818609E-02  0.8779027E-01
       -1   -1    0    0    0  501  0.00000000000E+00  0.00000000000E+00  0.14641422188E+04  0.14641422188E+04  0.50400001928E-02 0. -1.
        1   -1    0    0  501    0  0.00000000000E+00  0.00000000000E+00 -0.47584312208E+03  0.47584312211E+03  0.50400001928E-02 0.  1.
    10030    2    1    2    0    0  0.00000000000E+00  0.00000000000E+00  0.98829909671E+03  0.19399853409E+04  0.16693735407E+04 0.  0.
        4    1    3    3  502    0  0.15328078131E+03  0.48957550677E+03  0.12593057474E+04  0.13597910697E+04  0.12699999809E+01 0. -1.
       -4    1    3    3    0  502 -0.15328078131E+03 -0.48957550677E+03 -0.27100665072E+03  0.58019427124E+03  0.12699999809E+01 0.  1.
</event>
<event>
 5   0  0.7025426E-04  0.1214497E+04  0.7818609E-02  0.9100261E-01
        2   -1    0    0  501    0  0.00000000000E+00  0.00000000000E+00  0.10534734253E+04  0.10534734253E+04  0.25500000920E-02 0. -1.
       -2   -1    0    0    0  501  0.00000000000E+00  0.00000000000E+00 -0.35003347695E+03  0.35003347696E+03  0.25500000920E-02 0.  1.
    10030    2    1    2    0    0  0.00000000000E+00  0.00000000000E+00  0.70343994831E+03  0.14035069022E+04  0.12144973708E+04 0.  0.
        2    1    3    3  502    0  0.26239848471E+03 -0.10332590812E+03  0.97320898590E+03  0.10132447574E+04  0.25500000920E-02 0. -1.
       -2    1    3    3    0  502 -0.26239848471E+03  0.10332590812E+03 -0.26976903759E+03  0.39026214487E+03  0.25500000920E-02 0.  1.
</event>
<event>
 5   0  0.7025426E-04  0.1708887E+04  0.7818609E-02  0.8756312E-01
        2   -1    0    0  501    0  0.00000000000E+00  0.00000000000E+00  0.21735208037E+04  0.21735208037E+04  0.25500000920E-02 0. -1.
       -2   -1    0    0    0  501  0.00000000000E+00  0.00000000000E+00 -0.33589438474E+03  0.33589438475E+03  0.25500000920E-02 0.  1.
    10030    2    1    2    0    0  0.00000000000E+00  0.00000000000E+00  0.18376264189E+04  0.25094151884E+04  0.17088866938E+04 0.  0.
        2    1    3    3  502    0 -0.67746305846E+03 -0.44357026650E+03  0.13192525164E+04  0.15479463747E+04  0.25500000920E-02 0. -1.
       -2    1    3    3    0  502  0.67746305846E+03  0.44357026650E+03  0.51837390248E+03  0.96146881368E+03  0.25500000920E-02 0.  1.
</event>
<event>
 5   0  0.7025426E-04  0.1691301E+04  0.7818609E-02  0.8766342E-01
       -2   -1    0    0    0  501  0.00000000000E+00  0.00000000000E+00  0.92501134862E+03  0.92501134862E+03  0.25500000920E-02 0.  1.
        2   -1    0    0  501    0  0.00000000000E+00  0.00000000000E+00 -0.77309805607E+03  0.77309805607E+03  0.25500000920E-02 0. -1.
    10030    2    1    2    0    0  0.00000000000E+00  0.00000000000E+00  0.15191329255E+03  0.16981094047E+04  0.16913006539E+04 0.  0.
        2    1    3    3  502    0 -0.10871899528E+03 -0.21971558360E+03  0.88855390401E+03  0.92174985650E+03  0.25500000920E-02 0.  1.
       -2    1    3    3    0  502  0.10871899528E+03  0.21971558360E+03 -0.73664061146E+03  0.77635954819E+03  0.25500000920E-02 0. -1.
</event>
<event>
 5   0  0.3915701E-04  0.1692118E+04  0.7818609E-02  0.8765872E-01
       -1   -1    0    0    0  501  0.00000000000E+00  0.00000000000E+00  0.63297818343E+03  0.63297818345E+03  0.50400001928E-02 0.  1.
        1   -1    0    0  501    0  0.00000000000E+00  0.00000000000E+00 -0.11308701697E+04  0.11308701697E+04  0.50400001928E-02 0. -1.
    10030    2    1    2    0    0  0.00000000000E+00  0.00000000000E+00 -0.49789198630E+03  0.17638483532E+04  0.16921183715E+04 0.  0.
        2    1    3    3  502    0 -0.47677288226E+03  0.11425818775E+03 -0.96770350277E+03  0.10848121423E+04  0.25500000920E-02 0. -1.
       -2    1    3    3    0  502  0.47677288226E+03 -0.11425818775E+03  0.46981151647E+03  0.67903621092E+03  0.25500000920E-02 0.  1.
</event>
<event>
 5   0  0.3803253E-04  0.1695975E+04  0.7818609E-02  0.8763663E-01
        1   -1    0    0  501    0  0.00000000000E+00  0.00000000000E+00  0.10362766349E+04  0.10362766350E+04  0.50400001928E-02 0. -1.
       -1   -1    0    0    0  501  0.00000000000E+00  0.00000000000E+00 -0.69391047635E+03  0.69391047636E+03  0.50400001928E-02 0.  1.
    10030    2    1    2    0    0  0.00000000000E+00  0.00000000000E+00  0.34236615860E+03  0.17301871113E+04  0.16959754873E+04 0.  0.
        4    1    3    3  502    0 -0.17006521534E+02 -0.84541846930E+03  0.23618646992E+03  0.87795630386E+03  0.12699999809E+01 0. -1.
       -4    1    3    3    0  502  0.17006521534E+02  0.84541846930E+03  0.10617968867E+03  0.85223080747E+03  0.12699999809E+01 0.  1.
</event>
<event>
 5   0  0.3635143E-04  0.1762751E+04  0.7818609E-02  0.8726363E-01
        1   -1    0    0  501    0  0.00000000000E+00  0.00000000000E+00  0.11894758930E+04  0.11894758931E+04  0.50400001928E-02 0. -1.
       -1   -1    0    0    0  501  0.00000000000E+00  0.00000000000E+00 -0.65307995667E+03  0.65307995669E+03  0.50400001928E-02 0.  1.
    10030    2    1    2    0    0  0.00000000000E+00  0.00000000000E+00  0.53639593637E+03  0.18425558497E+04  0.17627511052E+04 0.  0.
        3    1    3    3  502    0  0.62415564085E+03 -0.44670754538E+03  0.72106169758E+03  0.10531134208E+04  0.10100000352E+00 0.  1.
       -3    1    3    3    0  502 -0.62415564085E+03  0.44670754538E+03 -0.18466576121E+03  0.78944242897E+03  0.10100000352E+00 0. -1.
</event>
<event>
 5   0  0.6746664E-04  0.1731043E+04  0.7818609E-02  0.8743855E-01
        2   -1    0    0  501    0  0.00000000000E+00  0.00000000000E+00  0.12632174122E+04  0.12632174122E+04  0.25500000920E-02 0.  1.
       -2   -1    0    0    0  501  0.00000000000E+00  0.00000000000E+00 -0.59303117164E+03  0.59303117165E+03  0.25500000920E-02 0. -1.
    10030    2    1    2    0    0  0.00000000000E+00  0.00000000000E+00  0.67018624060E+03  0.18562485839E+04  0.17310428094E+04 0.  0.
        5    1    3    3  502    0 -0.64173928545E+03  0.81804346579E+02  0.95164440866E+03  0.11507260457E+04  0.46999998093E+01 0.  1.
       -5    1    3    3    0  502  0.64173928545E+03 -0.81804346579E+02 -0.28145816806E+03  0.70552253824E+03  0.46999998093E+01 0. -1.
</event>
<event>
 5   0  0.3803253E-04  0.1701704E+04  0.7818609E-02  0.8760393E-01
       -1   -1    0    0    0  501  0.00000000000E+00  0.00000000000E+00  0.11964024927E+04  0.11964024927E+04  0.50400001928E-02 0.  1.
        1   -1    0    0  501    0  0.00000000000E+00  0.00000000000E+00 -0.60510474188E+03  0.60510474190E+03  0.50400001928E-02 0. -1.
    10030    2    1    2    0    0  0.00000000000E+00  0.00000000000E+00  0.59129775083E+03  0.18015072346E+04  0.17017036423E+04 0.  0.
        4    1    3    3  502    0 -0.55453144485E+03 -0.34423597067E+03  0.87350427033E+03  0.10904195752E+04  0.12699999809E+01 0.  1.
       -4    1    3    3    0  502  0.55453144485E+03  0.34423597067E+03 -0.28220651950E+03  0.71108765942E+03  0.12699999809E+01 0. -1.
</event>
<event>
 5   0  0.6746664E-04  0.1639164E+04  0.7818609E-02  0.8796843E-01
        2   -1    0    0  501    0  0.00000000000E+00  0.00000000000E+00  0.61519464394E+03  0.61519464395E+03  0.25500000920E-02 0. -1.
       -2   -1    0    0    0  501  0.00000000000E+00  0.00000000000E+00 -0.10918739887E+04  0.10918739887E+04  0.25500000920E-02 0.  1.
    10030    2    1    2    0    0  0.00000000000E+00  0.00000000000E+00 -0.47667934471E+03  0.17070686326E+04  0.16391644575E+04 0.  0.
        5    1    3    3  502    0 -0.80374290054E+03  0.33974594330E+02 -0.75210932695E+02  0.80798248597E+03  0.46999998093E+01 0. -1.
       -5    1    3    3    0  502  0.80374290054E+03 -0.33974594330E+02 -0.40146841202E+03  0.89908614664E+03  0.46999998093E+01 0.  1.
</event>
<event>
 5   0  0.3803253E-04  0.1706630E+04  0.7818609E-02  0.8757592E-01
       -1   -1    0    0    0  501  0.00000000000E+00  0.00000000000E+00  0.63087017904E+03  0.63087017906E+03  0.50400001928E-02 0. -1.
        1   -1    0    0  501    0  0.00000000000E+00  0.00000000000E+00 -0.11541940964E+04  0.11541940964E+04  0.50400001928E-02 0.  1.
    10030    2    1    2    0    0  0.00000000000E+00  0.00000000000E+00 -0.52332391734E+03  0.17850642755E+04  0.17066301723E+04 0.  0.
        4    1    3    3  502    0 -0.83390923294E+03  0.15911508765E+03 -0.17154668211E+03  0.86611321254E+03  0.12699999809E+01 0. -1.
       -4    1    3    3    0  502  0.83390923294E+03 -0.15911508765E+03 -0.35177723523E+03  0.91895106291E+03  0.12699999809E+01 0.  1.
</event>
<event>
 5   0  0.3713516E-04  0.1141465E+04  0.7818609E-02  0.9165694E-01
        1   -1    0    0  501    0  0.00000000000E+00  0.00000000000E+00  0.45433009651E+03  0.45433009654E+03  0.50400001928E-02 0.  1.
       -1   -1    0    0    0  501  0.00000000000E+00  0.00000000000E+00 -0.71695762088E+03  0.71695762090E+03  0.50400001928E-02 0. -1.
    10030    2    1    2    0    0  0.00000000000E+00  0.00000000000E+00 -0.26262752437E+03  0.11712877174E+04  0.11414647171E+04 0.  0.
        5    1    3    3  502    0  0.11431810218E+02 -0.69351781907E+02  0.44985195311E+03  0.45533419117E+03  0.46999998093E+01 0.  1.
       -5    1    3    3    0  502 -0.11431810218E+02  0.69351781907E+02 -0.71247947748E+03  0.71595352626E+03  0.46999998093E+01 0. -1.
</event>
<event>
 5   0  0.3635143E-04  0.1673259E+04  0.7818609E-02  0.8776764E-01
        1   -1    0    0  501    0  0.00000000000E+00  0.00000000000E+00  0.12341850708E+04  0.12341850709E+04  0.50400001928E-02 0.  1.
       -1   -1    0    0    0  501  0.00000000000E+00  0.00000000000E+00 -0.56713455773E+03  0.56713455775E+03  0.50400001928E-02 0. -1.
    10030    2    1    2    0    0  0.00000000000E+00  0.00000000000E+00  0.66705051312E+03  0.18013196286E+04  0.16732591005E+04 0.  0.
        3    1    3    3  502    0 -0.20029421813E+03 -0.17129328717E+03  0.11883294196E+04  0.12172041669E+04  0.10100000352E+00 0.  1.
       -3    1    3    3    0  502  0.20029421813E+03  0.17129328717E+03 -0.52127890653E+03  0.58411546173E+03  0.10100000352E+00 0. -1.
</event>
<event>
 5   0  0.3723500E-04  0.1222121E+04  0.7818609E-02  0.9093711E-01
       -1   -1    0    0    0  501  0.00000000000E+00  0.00000000000E+00  0.17142592014E+03  0.17142592021E+03  0.50400001928E-02 0.  1.
        1   -1    0    0  501    0  0.00000000000E+00  0.00000000000E+00 -0.21781721322E+04  0.21781721322E+04  0.50400001928E-02 0. -1.
    10030    2    1    2    0    0  0.00000000000E+00  0.00000000000E+00 -0.20067462121E+04  0.23495980524E+04  0.12221213722E+04 0.  0.
        1    1    3    3  502    0 -0.28823369342E+03  0.11281984172E+03 -0.20163037778E+04  0.20399235043E+04  0.50400001928E-02 0. -1.
       -1    1    3    3    0  502  0.28823369342E+03 -0.11281984172E+03  0.95575657396E+01  0.30967454819E+03  0.50400001928E-02 0.  1.
</event>
<event>
 5   0  0.7049044E-04  0.1681849E+04  0.7818609E-02  0.8771785E-01
        2   -1    0    0  501    0  0.00000000000E+00  0.00000000000E+00  0.60263148408E+03  0.60263148408E+03  0.25500000920E-02 0. -1.
       -2   -1    0    0    0  501  0.00000000000E+00  0.00000000000E+00 -0.11734440137E+04  0.11734440137E+04  0.25500000920E-02 0.  1.
    10030    2    1    2    0    0  0.00000000000E+00  0.00000000000E+00 -0.57081252958E+03  0.17760754978E+04  0.16818493481E+04 0.  0.
        4    1    3    3  502    0  0.66908591178E+03 -0.20133751211E+03  0.20871874101E+03  0.72923101749E+03  0.12699999809E+01 0. -1.
       -4    1    3    3    0  502 -0.66908591178E+03  0.20133751211E+03 -0.77953127059E+03  0.10468444803E+04  0.12699999809E+01 0.  1.
</event>
<event>
 5   0  0.7025426E-04  0.1691440E+04  0.7818609E-02  0.8766261E-01
        2   -1    0    0  501    0  0.00000000000E+00  0.00000000000E+00  0.70723691880E+03  0.70723691881E+03  0.25500000920E-02 0. -1.
       -2   -1    0    0    0  501  0.00000000000E+00  0.00000000000E+00 -0.10113194701E+04  0.10113194701E+04  0.25500000920E-02 0.  1.
    10030    2    1    2    0    0  0.00000000000E+00  0.00000000000E+00 -0.30408255129E+03  0.17185563889E+04  0.16914401745E+04 0.  0.
        2    1    3    3  502    0 -0.41129159867E+03  0.58129070674E+03 -0.61562648236E+03  0.94130528027E+03  0.25500000920E-02 0.  1.
       -2    1    3    3    0  502  0.41129159867E+03 -0.58129070674E+03  0.31154393107E+03  0.77725110863E+03  0.25500000920E-02 0. -1.
</event>
<event>
 5   0  0.3635143E-04  0.1668503E+04  0.7818609E-02  0.8779535E-01
       -1   -1    0    0    0  501  0.00000000000E+00  0.00000000000E+00  0.47094602473E+03  0.47094602476E+03  0.50400001928E-02 0. -1.
        1   -1    0    0  501    0  0.00000000000E+00  0.00000000000E+00 -0.14778252079E+04  0.14778252079E+04  0.50400001928E-02 0.  1.
    10030    2    1    2    0    0  0.00000000000E+00  0.00000000000E+00 -0.10068791832E+04  0.19487712327E+04  0.16685034096E+04 0.  0.
        3    1    3    3  502    0  0.65924413669E+03  0.50597395198E+03 -0.58897675884E+03  0.10185804359E+04  0.10100000352E+00 0.  1.
       -3    1    3    3    0  502 -0.65924413669E+03 -0.50597395198E+03 -0.41790242432E+03  0.93019079672E+03  0.10100000352E+00 0. -1.
</event>
<event>
 5   0  0.7242144E-04  0.1710992E+04  0.7818609E-02  0.8755120E-01
       -2   -1    0    0    0  501  0.00000000000E+00  0.00000000000E+00  0.79467878120E+03  0.79467878120E+03  0.25500000920E-02 0.  1.
        2   -1    0    0  501    0  0.00000000000E+00  0.00000000000E+00 -0.92096710926E+03  0.92096710926E+03  0.25500000920E-02 0. -1.
    10030    2    1    2    0    0  0.00000000000E+00  0.00000000000E+00 -0.12628832806E+03  0.17156458905E+04  0.17109915487E+04 0.  0.
        3    1    3    3  502    0 -0.32554245716E+03 -0.27210859058E+03 -0.80803239645E+03  0.91265400914E+03  0.10100000352E+00 0. -1.
       -3    1    3    3    0  502  0.32554245716E+03  0.27210859058E+03  0.68174406839E+03  0.80299188132E+03  0.10100000352E+00 0.  1.
</event>
<event>
 5   0  0.3723500E-04  0.1714766E+04  0.7818609E-02  0.8752987E-01
        1   -1    0    0  501    0  0.00000000000E+00  0.00000000000E+00  0.16985235322E+04  0.16985235322E+04  0.50400001928E-02 0. -1.
       -1   -1    0    0    0  501  0.00000000000E+00  0.00000000000E+00 -0.43279110383E+03  0.43279110386E+03  0.50400001928E-02 0.  1.
    10030    2    1    2    0    0  0.00000000000E+00  0.00000000000E+00  0.12657324283E+04  0.21313146360E+04  0.17147663099E+04 0.  0.
        1    1    3    3  502    0  0.41939973881E+03  0.56158712417E+03  0.12466082501E+04  0.14301427790E+04  0.50400001928E-02 0. -1.
       -1    1    3    3    0  502 -0.41939973881E+03 -0.56158712417E+03  0.19124178241E+02  0.70117185709E+03  0.50400001928E-02 0.  1.
</event>
<event>
 5   0  0.3803253E-04  0.1699971E+04  0.7818609E-02  0.8761381E-01
        1   -1    0    0  501    0  0.00000000000E+00  0.00000000000E+00  0.24569080901E+04  0.24569080901E+04  0.50400001928E-02 0. -1.
       -1   -1    0    0    0  501  0.00000000000E+00  0.00000000000E+00 -0.29405890461E+03  0.29405890465E+03  0.50400001928E-02 0.  1.
    10030    2    1    2    0    0  0.00000000000E+00  0.00000000000E+00  0.21628491855E+04  0.27509669947E+04  0.16999714136E+04 0.  0.
        4    1    3    3  502    0 -0.21809532722E+03 -0.82135400890E+03  0.11087967889E+04  0.13970039054E+04  0.12699999809E+01 0.  1.
       -4    1    3    3    0  502  0.21809532722E+03  0.82135400890E+03  0.10540523966E+04  0.13539630893E+04  0.12699999809E+01 0. -1.
</event>
<event>
 5   0  0.3713516E-04  0.1699285E+04  0.7818609E-02  0.8761772E-01
       -1   -1    0    0    0  501  0.00000000000E+00  0.00000000000E+00  0.60527776169E+03  0.60527776171E+03  0.50400001928E-02 0.  1.
        1   -1    0    0  501    0  0.00000000000E+00  0.00000000000E+00 -0.11926636248E+04  0.11926636249E+04  0.50400001928E-02 0. -1.
    10030    2    1    2    0    0  0.00000000000E+00  0.00000000000E+00 -0.58738586315E+03  0.17979413866E+04  0.16992854608E+04 0.  0.
        5    1    3    3  502    0 -0.67218439410E+02  0.84557588137E+03 -0.34502550135E+03  0.91574099849E+03  0.46999998093E+01 0. -1.
       -5    1    3    3    0  502  0.67218439410E+02 -0.84557588137E+03 -0.24236036181E+03  0.88220038807E+03  0.46999998093E+01 0.  1.
</event>
<event>
 5   0  0.7242144E-04  0.1699564E+04  0.7818609E-02  0.8761613E-01
       -2   -1    0    0    0  501  0.00000000000E+00  0.00000000000E+00  0.75917301299E+03  0.75917301299E+03  0.25500000920E-02 0. -1.
        2   -1    0    0  501    0  0.00000000000E+00  0.00000000000E+00 -0.95120575899E+03  0.95120575899E+03  0.25500000920E-02 0.  1.
    10030    2    1    2    0    0  0.00000000000E+00  0.00000000000E+00 -0.19203274600E+03  0.17103787720E+04  0.16995643466E+04 0.  0.
        3    1    3    3  502    0 -0.39396902269E+02  0.78865878860E+03 -0.41201266009E+03  0.89066786347E+03  0.10100000352E+00 0.  1.
       -3    1    3    3    0  502  0.39396902269E+02 -0.78865878860E+03  0.21997991409E+03  0.81971090852E+03  0.10100000352E+00 0. -1.
</event>
<event>
 5   0  0.3723500E-04  0.1652594E+04  0.7818609E-02  0.8788874E-01
        1   -1    0    0  501    0  0.00000000000E+00  0.00000000000E+00  0.66578753766E+03  0.66578753768E+03  0.50400001928E-02 0.  1.
       -1   -1    0    0    0  501  0.00000000000E+00  0.00000000000E+00 -0.10255021442E+04  0.10255021443E+04  0.50400001928E-02 0. -1.
    10030    2    1    2    0    0  0.00000000000E+00  0.00000000000E+00 -0.35971460659E+03  0.16912896819E+04  0.16525937765E+04 0.  0.
        1    1    3    3  502    0 -0.31744190397E+03  0.60867382609E+03 -0.65053193027E+03  0.94575101443E+03  0.50400001928E-02 0. -1.
       -1    1    3    3    0  502  0.31744190397E+03 -0.60867382609E+03  0.29081732368E+03  0.74553866750E+03  0.50400001928E-02 0.  1.
</event>
<event>
 5   0  0.7233728E-04  0.1488374E+04  0.7818609E-02  0.8892221E-01
       -2   -1    0    0    0  501  0.00000000000E+00  0.00000000000E+00  0.65266855385E+03  0.65266855386E+03  0.25500000920E-02 0.  1.
        2   -1    0    0  501    0  0.00000000000E+00  0.00000000000E+00 -0.84853796089E+03  0.84853796089E+03  0.25500000920E-02 0. -1.
    10030    2    1    2    0    0  0.00000000000E+00  0.00000000000E+00 -0.19586940704E+03  0.15012065148E+04  0.14883736679E+04 0.  0.
        1    1    3    3  502    0 -0.17732572435E+03  0.21316086624E+03 -0.79449181194E+03  0.84148630808E+03  0.50400001928E-02 0. -1.
       -1    1    3    3    0  502  0.17732572435E+03 -0.21316086624E+03  0.59862240490E+03  0.65972020667E+03  0.50400001928E-02 0.  1.
</event>
<event>
 5   0  0.3803253E-04  0.1679236E+04  0.7818609E-02  0.8773296E-01
        1   -1    0    0  501    0  0.00000000000E+00  0.00000000000E+00  0.16916395340E+04  0.16916395340E+04  0.50400001928E-02 0. -1.
       -1   -1    0    0    0  501  0.00000000000E+00  0.00000000000E+00 -0.41673062797E+03  0.41673062800E+03  0.50400001928E-02 0.  1.
    10030    2    1    2    0    0  0.00000000000E+00  0.00000000000E+00  0.12749089060E+04  0.21083701620E+04  0.16792355467E+04 0.  0.
        4    1    3    3  502    0  0.72739171444E+01 -0.61741979816E+03 -0.76884106232E+02  0.62223218795E+03  0.12699999809E+01 0.  1.
       -4    1    3    3    0  502 -0.72739171444E+01  0.61741979816E+03  0.13517930122E+04  0.14861379740E+04  0.12699999809E+01 0. -1.
</event>
<event>
 5   0  0.3713516E-04  0.1742609E+04  0.7818609E-02  0.8737429E-01
        1   -1    0    0  501    0  0.00000000000E+00  0.00000000000E+00  0.49439964901E+03  0.49439964904E+03  0.50400001928E-02 0.  1.
       -1   -1    0    0    0  501  0.00000000000E+00  0.00000000000E+00 -0.15355427700E+04  0.15355427700E+04  0.50400001928E-02 0. -1.
    10030    2    1    2    0    0  0.00000000000E+00  0.00000000000E+00 -0.10411431210E+04  0.20299424190E+04  0.17426093154E+04 0.  0.
        5    1    3    3  502    0 -0.73039090611E+03 -0.32924986488E+03 -0.91948933297E+03  0.12195733158E+04  0.46999998093E+01 0. -1.
       -5    1    3    3    0  502  0.73039090611E+03  0.32924986488E+03 -0.12165378799E+03  0.81036910318E+03  0.46999998093E+01 0.  1.
</event>
<event>
 5   0  0.3915701E-04  0.1737263E+04  0.7818609E-02  0.8740393E-01
       -1   -1    0    0    0  501  0.00000000000E+00  0.00000000000E+00  0.70310814982E+03  0.70310814984E+03  0.50400001928E-02 0. -1.
        1   -1    0    0  501    0  0.00000000000E+00  0.00000000000E+00 -0.10731214316E+04  0.10731214316E+04  0.50400001928E-02 0.  1.
    10030    2    1    2    0    0  0.00000000000E+00  0.00000000000E+00 -0.37001328181E+03  0.17762295815E+04  0.17372627025E+04 0.  0.
        2    1    3    3  502    0  0.19726256138E+03  0.70012238807E+03  0.30044476764E+03  0.78698852266E+03  0.25500000920E-02 0. -1.
       -2    1    3    3    0  502 -0.19726256138E+03 -0.70012238807E+03 -0.67045804945E+03  0.98924105883E+03  0.25500000920E-02 0.  1.
</event>
<event>
 5   0  0.3915701E-04  0.1686251E+04  0.7818609E-02  0.8769245E-01
       -1   -1    0    0    0  501  0.00000000000E+00  0.00000000000E+00  0.74418328397E+03  0.74418328399E+03  0.50400001928E-02 0. -1.
        1   -1    0    0  501    0  0.00000000000E+00  0.00000000000E+00 -0.95522256937E+03  0.95522256938E+03  0.50400001928E-02 0.  1.
    10030    2    1    2    0    0  0.00000000000E+00  0.00000000000E+00 -0.21103928539E+03  0.16994058534E+04  0.16862510710E+04 0.  0.
        2    1    3    3  502    0  0.97620807203E+02  0.77612012258E+03 -0.42256627915E+03  0.88907509635E+03  0.25500000920E-02 0.  1.
       -2    1    3    3    0  502 -0.97620807203E+02 -0.77612012258E+03  0.21152699376E+03  0.81033075702E+03  0.25500000920E-02 0. -1.
</event>
<event>
 5   0  0.3713516E-04  0.1656565E+04  0.7818609E-02  0.8786532E-01
       -1   -1    0    0    0  501  0.00000000000E+00  0.00000000000E+00  0.36690379229E+03  0.36690379233E+03  0.50400001928E-02 0.  1.
        1   -1    0    0  501    0  0.00000000000E+00  0.00000000000E+00 -0.18698411526E+04  0.18698411526E+04  0.50400001928E-02 0. -1.
    10030    2    1    2    0    0  0.00000000000E+00  0.00000000000E+00 -0.15029373603E+04  0.22367449449E+04  0.16565648915E+04 0.  0.
        5    1    3    3  502    0  0.15284996701E+03  0.14912359633E+03 -0.18320150911E+04  0.18444246647E+04  0.46999998093E+01 0. -1.
       -5    1    3    3    0  502 -0.15284996701E+03 -0.14912359633E+03  0.32907773083E+03  0.39232028028E+03  0.46999998093E+01 0.  1.
</event>
<event>
 5   0  0.7025426E-04  0.1687660E+04  0.7818609E-02  0.8768434E-01
        2   -1    0    0  501    0  0.00000000000E+00  0.00000000000E+00  0.18317023829E+04  0.18317023829E+04  0.25500000920E-02 0. -1.
       -2   -1    0    0    0  501  0.00000000000E+00  0.00000000000E+00 -0.38873607415E+03  0.38873607416E+03  0.25500000920E-02 0.  1.
    10030    2    1    2    0    0  0.00000000000E+00  0.00000000000E+00  0.14429663088E+04  0.22204384571E+04  0.16876596735E+04 0.  0.
        2    1    3    3  502    0  0.70678029975E+03 -0.31645543289E+03  0.28044920214E+03  0.82361045896E+03  0.25500000920E-02 0.  1.
       -2    1    3    3    0  502 -0.70678029975E+03  0.31645543289E+03  0.11625171066E+04  0.13968279981E+04  0.25500000920E-02 0. -1.
</event>
<event>
 5   0  0.3723500E-04  0.1716546E+04  0.7818609E-02  0.8751984E-01
       -1   -1    0    0    0  501  0.00000000000E+00  0.00000000000E+00  0.74747367730E+03  0.74747367732E+03  0.50400001928E-02 0.  1.
        1   -1    0    0  501    0  0.00000000000E+00  0.00000000000E+00 -0.98549608217E+03  0.98549608218E+03  0.50400001928E-02 0. -1.
    10030    2    1    2    0    0  0.00000000000E+00  0.00000000000E+00 -0.23802240487E+03  0.17329697595E+04  0.17165458112E+04 0.  0.
        1    1    3    3  502    0  0.49869644933E+03  0.56335853636E+03 -0.53595349598E+03  0.92375166520E+03  0.50400001928E-02 0. -1.
       -1    1    3    3    0  502 -0.49869644933E+03 -0.56335853636E+03  0.29793109112E+03  0.80921809430E+03  0.50400001928E-02 0.  1.
</event>
<event>
 5   0  0.3723500E-04  0.1689477E+04  0.7818609E-02  0.8767389E-01
        1   -1    0    0  501    0  0.00000000000E+00  0.00000000000E+00  0.82557907799E+03  0.82557907800E+03  0.50400001928E-02 0. -1.
       -1   -1    0    0    0  501  0.00000000000E+00  0.00000000000E+00 -0.86434281976E+03  0.86434281977E+03  0.50400001928E-02 0.  1.
    10030    2    1    2    0    0  0.00000000000E+00  0.00000000000E+00 -0.38763741769E+02  0.16899218978E+04  0.16894772543E+04 0.  0.
        1    1    3    3  502    0  0.10169238296E+03  0.61547827895E+03 -0.58911802636E+03  0.85802966244E+03  0.50400001928E-02 0.  1.
       -1    1    3    3    0  502 -0.10169238296E+03 -0.61547827895E+03  0.55035428459E+03  0.83189223533E+03  0.50400001928E-02 0. -1.
</event>
<event>
 5   0  0.3723500E-04  0.1700252E+04  0.7818609E-02  0.8761221E-01
       -1   -1    0    0    0  501  0.00000000000E+00  0.00000000000E+00  0.71275618466E+03  0.71275618468E+03  0.50400001928E-02 0. -1.
        1   -1    0    0  501    0  0.00000000000E+00  0.00000000000E+00 -0.10139710480E+04  0.10139710480E+04  0.50400001928E-02 0.  1.
    10030    2    1    2    0    0  0.00000000000E+00  0.00000000000E+00 -0.30121486334E+03  0.17267272327E+04  0.17002519055E+04 0.  0.
        1    1    3    3  502    0  0.82039621663E+03 -0.16281296451E+03  0.39334484841E+01  0.83640509666E+03  0.50400001928E-02 0.  1.
       -1    1    3    3    0  502 -0.82039621663E+03  0.16281296451E+03 -0.30514831182E+03  0.89032213603E+03  0.50400001928E-02 0. -1.
</event>
<event>
 5   0  0.7049044E-04  0.1734197E+04  0.7818609E-02  0.8742097E-01
       -2   -1    0    0    0  501  0.00000000000E+00  0.00000000000E+00  0.84052571699E+03  0.84052571699E+03  0.25500000920E-02 0. -1.
        2   -1    0    0  501    0  0.00000000000E+00  0.00000000000E+00 -0.89451174353E+03  0.89451174353E+03  0.25500000920E-02 0.  1.
    10030    2    1    2    0    0  0.00000000000E+00  0.00000000000E+00 -0.53986026541E+02  0.17350374605E+04  0.17341973643E+04 0.  0.
        4    1    3    3  502    0  0.62572074952E+03 -0.14171206609E+03  0.55659886421E+03  0.84936015599E+03  0.12699999809E+01 0. -1.
       -4    1    3    3    0  502 -0.62572074952E+03  0.14171206609E+03 -0.61058489075E+03  0.88567730453E+03  0.12699999809E+01 0.  1.
</event>
<event>
 5   0  0.3635143E-04  0.1720515E+04  0.7818609E-02  0.8749750E-01
        1   -1    0    0  501    0  0.00000000000E+00  0.00000000000E+00  0.11239594021E+04  0.11239594022E+04  0.50400001928E-02 0. -1.
       -1   -1    0    0    0  501  0.00000000000E+00  0.00000000000E+00 -0.65842468991E+03  0.65842468993E+03  0.50400001928E-02 0.  1.
    10030    2    1    2    0    0  0.00000000000E+00  0.00000000000E+00  0.46553471224E+03  0.17823840921E+04  0.17205145984E+04 0.  0.
        3    1    3    3  502    0  0.31575270089E+03 -0.18702800300E+03  0.10387969812E+04  0.11017161251E+04  0.10100000352E+00 0. -1.
       -3    1    3    3    0  502 -0.31575270089E+03  0.18702800300E+03 -0.57326226896E+03  0.68066796695E+03  0.10100000352E+00 0.  1.
</event>
<event>
 5   0  0.7049044E-04  0.1789613E+04  0.7818609E-02  0.8711843E-01
       -2   -1    0    0    0  501  0.00000000000E+00  0.00000000000E+00  0.29958539603E+03  0.29958539604E+03  0.25500000920E-02 0.  1.
        2   -1    0    0  501    0  0.00000000000E+00  0.00000000000E+00 -0.26726211279E+04  0.26726211279E+04  0.25500000920E-02 0. -1.
    10030    2    1    2    0    0  0.00000000000E+00  0.00000000000E+00 -0.23730357319E+04  0.29722065240E+04  0.17896125380E+04 0.  0.
        4    1    3    3  502    0  0.13030696331E+03 -0.88360775812E+03 -0.10965566539E+04  0.14142774420E+04  0.12699999809E+01 0.  1.
       -4    1    3    3    0  502 -0.13030696331E+03  0.88360775812E+03 -0.12764790780E+04  0.15579290820E+04  0.12699999809E+01 0. -1.
</event>
<event>
 5   0  0.7242144E-04  0.1672973E+04  0.7818609E-02  0.8776931E-01
        2   -1    0    0  501    0  0.00000000000E+00  0.00000000000E+00  0.14297529536E+04  0.14297529536E+04  0.25500000920E-02 0.  1.
       -2   -1    0    0    0  501  0.00000000000E+00  0.00000000000E+00 -0.48939190303E+03  0.48939190304E+03  0.25500000920E-02 0. -1.
    10030    2    1    2    0    0  0.00000000000E+00  0.00000000000E+00  0.94036105057E+03  0.19191448566E+04  0.16729728256E+04 0.  0.
        3    1    3    3  502    0 -0.19681212320E+03  0.30355181089E+03 -0.39500734008E+03  0.53563935876E+03  0.10100000352E+00 0. -1.
       -3    1    3    3    0  502  0.19681212320E+03 -0.30355181089E+03  0.13353683906E+04  0.13835054979E+04  0.10100000352E+00 0.  1.
</event>
<event>
 5   0  0.7233728E-04  0.1447791E+04  0.7818609E-02  0.8919933E-01
       -2   -1    0    0    0  501  0.00000000000E+00  0.00000000000E+00  0.31979782134E+03  0.31979782135E+03  0.25500000920E-02 0.  1.
        2   -1    0    0  501    0  0.00000000000E+00  0.00000000000E+00 -0.16386126646E+04  0.16386126646E+04  0.25500000920E-02 0. -1.
    10030    2    1    2    0    0  0.00000000000E+00  0.00000000000E+00 -0.13188148433E+04  0.19584104860E+04  0.14477910902E+04 0.  0.
        1    1    3    3  502    0  0.14074388314E+03  0.41893596450E+03 -0.14349458897E+04  0.15014612514E+04  0.50400001928E-02 0. -1.
       -1    1    3    3    0  502 -0.14074388314E+03 -0.41893596450E+03  0.11613104646E+03  0.45694923456E+03  0.50400001928E-02 0.  1.
</event>
<event>
 5   0  0.7049044E-04  0.1618796E+04  0.7818609E-02  0.8809083E-01
       -2   -1    0    0    0  501  0.00000000000E+00  0.00000000000E+00  0.36052069786E+03  0.36052069787E+03  0.25500000920E-02 0. -1.
        2   -1    0    0  501    0  0.00000000000E+00  0.00000000000E+00 -0.18171643125E+04  0.18171643125E+04  0.25500000920E-02 0.  1.
    10030    2    1    2    0    0  0.00000000000E+00  0.00000000000E+00 -0.14566436146E+04  0.21776850103E+04  0.16187962763E+04 0.  0.
        4    1    3    3  502    0 -0.53511270543E+03  0.45835910154E+03 -0.12642059238E+04  0.14472929572E+04  0.12699999809E+01 0.  1.
       -4    1    3    3    0  502  0.53511270543E+03 -0.45835910154E+03 -0.19243769084E+03  0.73039205310E+03  0.12699999809E+01 0. -1.
</event>
<event>
 5   0  0.3635143E-04  0.1645349E+04  0.7818609E-02  0.8793163E-01
        1   -1    0    0  501    0  0.00000000000E+00  0.00000000000E+00  0.13083641548E+04  0.13083641548E+04  0.50400001928E-02 0. -1.
       -1   -1    0    0    0  501  0.00000000000E+00  0.00000000000E+00 -0.51728190089E+03  0.51728190092E+03  0.50400001928E-02 0.  1.
    10030    2    1    2    0    0  0.00000000000E+00  0.00000000000E+00  0.79108225393E+03  0.18256460558E+04  0.16453487133E+04 0.  0.
        3    1    3    3  502    0  0.77400250854E+03 -0.70184395841E+02  0.96186073434E+02  0.78310759387E+03  0.10100000352E+00 0. -1.
       -3    1    3    3    0  502 -0.77400250854E+03  0.70184395841E+02  0.69489618050E+03  0.10425384619E+04  0.10100000352E+00 0.  1.
</event>
<event>
 5   0  0.7242144E-04  0.1685873E+04  0.7818609E-02  0.8769463E-01
       -2   -1    0    0    0  501  0.00000000000E+00  0.00000000000E+00  0.64008296232E+03  0.64008296233E+03  0.25500000920E-02 0.  1.
        2   -1    0    0  501    0  0.00000000000E+00  0.00000000000E+00 -0.11100776828E+04  0.11100776828E+04  0.25500000920E-02 0. -1.
    10030    2    1    2    0    0  0.00000000000E+00  0.00000000000E+00 -0.46999472047E+03  0.17501606451E+04  0.16858728441E+04 0.  0.
        3    1    3    3  502    0  0.53403902463E+03  0.29127271989E+03 -0.84077664002E+03  0.10377585682E+04  0.10100000352E+00 0. -1.
       -3    1    3    3    0  502 -0.53403902463E+03 -0.29127271989E+03  0.37078191956E+03  0.71240207696E+03  0.10100000352E+00 0.  1.
</event>
<event>
 5   0  0.3635143E-04  0.1427750E+04  0.7818609E-02  0.8933973E-01
       -1   -1    0    0    0  501  0.00000000000E+00  0.00000000000E+00  0.45983471731E+03  0.45983471733E+03  0.50400001928E-02 0. -1.
        1   -1    0    0  501    0  0.00000000000E+00  0.00000000000E+00 -0.11082620373E+04  0.11082620373E+04  0.50400001928E-02 0.  1.
    10030    2    1    2    0    0  0.00000000000E+00  0.00000000000E+00 -0.64842732003E+03  0.15680967547E+04  0.14277497829E+04 0.  0.
        3    1    3    3  502    0 -0.38389205235E+03  0.19176020049E+03  0.30236810016E+03  0.52494910281E+03  0.10100000352E+00 0. -1.
       -3    1    3    3    0  502  0.38389205235E+03 -0.19176020049E+03 -0.95079542018E+03  0.10431476519E+04  0.10100000352E+00 0.  1.
</event>
<event>
 5   0  0.7049044E-04  0.1639774E+04  0.7818609E-02  0.8796479E-01
        2   -1    0    0  501    0  0.00000000000E+00  0.00000000000E+00  0.13039469022E+04  0.13039469022E+04  0.25500000920E-02 0.  1.
       -2   -1    0    0    0  501  0.00000000000E+00  0.00000000000E+00 -0.51552297661E+03  0.51552297662E+03  0.25500000920E-02 0. -1.
    10030    2    1    2    0    0  0.00000000000E+00  0.00000000000E+00  0.78842392562E+03  0.18194698788E+04  0.16397738727E+04 0.  0.
        4    1    3    3  502    0 -0.76139359943E+03  0.12094842335E+03  0.70383262534E+03  0.10439016772E+04  0.12699999809E+01 0.  1.
       -4    1    3    3    0  502  0.76139359943E+03 -0.12094842335E+03  0.84591300280E+02  0.77556820160E+03  0.12699999809E+01 0. -1.
</event>
<event>
 5   0  0.7025426E-04  0.1692053E+04  0.7818609E-02  0.8765910E-01
       -2   -1    0    0    0  501  0.00000000000E+00  0.00000000000E+00  0.33013959601E+03  0.33013959602E+03  0.25500000920E-02 0. -1.
        2   -1    0    0  501    0  0.00000000000E+00  0.00000000000E+00 -0.21680561295E+04  0.21680561295E+04  0.25500000920E-02 0.  1.
    10030    2    1    2    0    0  0.00000000000E+00  0.00000000000E+00 -0.18379165335E+04  0.24981957255E+04  0.16920533972E+04 0.  0.
        2    1    3    3  502    0  0.58465400309E+03  0.50832916198E+03 -0.14208187099E+04  0.16183153730E+04  0.25500000920E-02 0.  1.
       -2    1    3    3    0  502 -0.58465400309E+03 -0.50832916198E+03 -0.41709782361E+03  0.87988035250E+03  0.25500000920E-02 0. -1.
</event>
<event>
 5   0  0.7233728E-04  0.1703089E+04  0.7818609E-02  0.8759604E-01
        2   -1    0    0  501    0  0.00000000000E+00  0.00000000000E+00  0.15862894887E+04  0.15862894887E+04  0.25500000920E-02 0.  1.
       -2   -1    0    0    0  501  0.00000000000E+00  0.00000000000E+00 -0.45712236882E+03  0.45712236883E+03  0.25500000920E-02 0. -1.
    10030    2    1    2    0    0  0.00000000000E+00  0.00000000000E+00  0.11291671198E+04  0.20434118575E+04  0.17030894383E+04 0.  0.
        1    1    3    3  502    0  0.99532017306E+02 -0.71529229136E+03  0.11059416704E+04  0.13208545199E+04  0.50400001928E-02 0. -1.
       -1    1    3    3    0  502 -0.99532017306E+02  0.71529229136E+03  0.23225449490E+02  0.72255733757E+03  0.50400001928E-02 0.  1.
</event>
<event>
 5   0  0.7242144E-04  0.1613028E+04  0.7818609E-02  0.8812584E-01
        2   -1    0    0  501    0  0.00000000000E+00  0.00000000000E+00  0.83578437822E+03  0.83578437823E+03  0.25500000920E-02 0. -1.
       -2   -1    0    0    0  501  0.00000000000E+00  0.00000000000E+00 -0.77826872815E+03  0.77826872815E+03  0.25500000920E-02 0.  1.
    10030    2    1    2    0    0  0.00000000000E+00  0.00000000000E+00  0.57515650077E+02  0.16140531064E+04  0.16130280159E+04 0.  0.
        3    1    3    3  502    0 -0.41860950558E+03  0.30037299673E+03  0.64964145681E+03  0.82915130581E+03  0.10100000352E+00 0. -1.
       -3    1    3    3    0  502  0.41860950558E+03 -0.30037299673E+03 -0.59212580674E+03  0.78490180056E+03  0.10100000352E+00 0.  1.
</event>
<event>
 5   0  0.7025426E-04  0.1704001E+04  0.7818609E-02  0.8759086E-01
        2   -1    0    0  501    0  0.00000000000E+00  0.00000000000E+00  0.12416901687E+04  0.12416901687E+04  0.25500000920E-02 0.  1.
       -2   -1    0    0    0  501  0.00000000000E+00  0.00000000000E+00 -0.58461003043E+03  0.58461003044E+03  0.25500000920E-02 0. -1.
    10030    2    1    2    0    0  0.00000000000E+00  0.00000000000E+00  0.65708013828E+03  0.18263001992E+04  0.17040006189E+04 0.  0.
        2    1    3    3  502    0  0.11981755062E+03 -0.46725572064E+03 -0.42416167458E+03  0.64233735692E+03  0.25500000920E-02 0. -1.
       -2    1    3    3    0  502 -0.11981755062E+03  0.46725572064E+03  0.10812418129E+04  0.11839628422E+04  0.25500000920E-02 0.  1.
</event>
<event>
 5   0  0.3915701E-04  0.1760955E+04  0.7818609E-02  0.8727343E-01
        1   -1    0    0  501    0  0.00000000000E+00  0.00000000000E+00  0.39396320394E+03  0.39396320397E+03  0.50400001928E-02 0. -1.
       -1   -1    0    0    0  501  0.00000000000E+00  0.00000000000E+00 -0.19678002923E+04  0.19678002923E+04  0.50400001928E-02 0.  1.
    10030    2    1    2    0    0  0.00000000000E+00  0.00000000000E+00 -0.15738370883E+04  0.23617634962E+04  0.17609553179E+04 0.  0.
        2    1    3    3  502    0 -0.37855163082E+03 -0.20630659931E+03  0.24271982828E+03  0.49474909314E+03  0.25500000920E-02 0. -1.
       -2    1    3    3    0  502  0.37855163082E+03  0.20630659931E+03 -0.18165569166E+04  0.18670144031E+04  0.25500000920E-02 0.  1.
</event>
<event>
 5   0  0.3915701E-04  0.1824407E+04  0.7818609E-02  0.8693427E-01
        1   -1    0    0  501    0  0.00000000000E+00  0.00000000000E+00  0.46752858225E+03  0.46752858228E+03  0.50400001928E-02 0. -1.
       -1   -1    0    0    0  501  0.00000000000E+00  0.00000000000E+00 -0.17798175680E+04  0.17798175680E+04  0.50400001928E-02 0.  1.
    10030    2    1    2    0    0  0.00000000000E+00  0.00000000000E+00 -0.13122889858E+04  0.22473461503E+04  0.18244073934E+04 0.  0.
        2    1    3    3  502    0  0.67726090807E+03  0.29396384153E+02  0.95740752784E+02  0.68462601232E+03  0.25500000920E-02 0. -1.
       -2    1    3    3    0  502 -0.67726090807E+03 -0.29396384153E+02 -0.14080297386E+04  0.15627201380E+04  0.25500000920E-02 0.  1.
</event>
<event>
 5   0  0.3803253E-04  0.1701434E+04  0.7818609E-02  0.8760547E-01
       -1   -1    0    0    0  501  0.00000000000E+00  0.00000000000E+00  0.50420548089E+03  0.50420548091E+03  0.50400001928E-02 0. -1.
        1   -1    0    0  501    0  0.00000000000E+00  0.00000000000E+00 -0.14353659425E+04  0.14353659425E+04  0.50400001928E-02 0.  1.
    10030    2    1    2    0    0  0.00000000000E+00  0.00000000000E+00 -0.93116046159E+03  0.19395714234E+04  0.17014339544E+04 0.  0.
        4    1    3    3  502    0 -0.20650132729E+03 -0.62668485966E+03 -0.10777105908E+04  0.12636607305E+04  0.12699999809E+01 0.  1.
       -4    1    3    3    0  502  0.20650132729E+03  0.62668485966E+03  0.14655012917E+03  0.67591069289E+03  0.12699999809E+01 0. -1.
</event>
<event>
 5   0  0.3713516E-04  0.1664700E+04  0.7818609E-02  0.8781757E-01
       -1   -1    0    0    0  501  0.00000000000E+00  0.00000000000E+00  0.68832822476E+03  0.68832822478E+03  0.50400001928E-02 0. -1.
        1   -1    0    0  501    0  0.00000000000E+00  0.00000000000E+00 -0.10065060982E+04  0.10065060982E+04  0.50400001928E-02 0.  1.
    10030    2    1    2    0    0  0.00000000000E+00  0.00000000000E+00 -0.31817787345E+03  0.16948343230E+04  0.16647000400E+04 0.  0.
        5    1    3    3  502    0 -0.26588364438E+03  0.99964424308E+02  0.63743998925E+03  0.69788167218E+03  0.46999998093E+01 0. -1.
       -5    1    3    3    0  502  0.26588364438E+03 -0.99964424308E+02 -0.95561786270E+03  0.99695265083E+03  0.46999998093E+01 0.  1.
</event>
<event>
 5   0  0.3713516E-04  0.1680845E+04  0.7818609E-02  0.8772365E-01
        1   -1    0    0  501    0  0.00000000000E+00  0.00000000000E+00  0.11784138487E+04  0.11784138487E+04  0.50400001928E-02 0.  1.
       -1   -1    0    0    0  501  0.00000000000E+00  0.00000000000E+00 -0.59937327252E+03  0.59937327254E+03  0.50400001928E-02 0. -1.
    10030    2    1    2    0    0  0.00000000000E+00  0.00000000000E+00  0.57904057618E+03  0.17777871213E+04  0.16808447458E+04 0.  0.
        5    1    3    3  502    0  0.30456284797E+03 -0.11343676712E+03 -0.53020241082E+03  0.62190281792E+03  0.46999998093E+01 0. -1.
       -5    1    3    3    0  502 -0.30456284797E+03  0.11343676712E+03  0.11092429870E+04  0.11558843033E+04  0.46999998093E+01 0.  1.
</event>
<event>
 5   0  0.7242144E-04  0.1699587E+04  0.7818609E-02  0.8761600E-01
        2   -1    0    0  501    0  0.00000000000E+00  0.00000000000E+00  0.68029750336E+03  0.68029750337E+03  0.25500000920E-02 0. -1.
       -2   -1    0    0    0  501  0.00000000000E+00  0.00000000000E+00 -0.10615199425E+04  0.10615199425E+04  0.25500000920E-02 0.  1.
    10030    2    1    2    0    0  0.00000000000E+00  0.00000000000E+00 -0.38122243918E+03  0.17418174459E+04  0.16995874402E+04 0.  0.
        3    1    3    3  502    0 -0.53152846381E+03  0.36385775974E+03  0.37744854403E+03  0.74658046502E+03  0.10100000352E+00 0.  1.
       -3    1    3    3    0  502  0.53152846381E+03 -0.36385775974E+03 -0.75867098321E+03  0.99523698089E+03  0.10100000352E+00 0. -1.
</event>
<event>
 5   0  0.7242144E-04  0.1680352E+04  0.7818609E-02  0.8772650E-01
       -2   -1    0    0    0  501  0.00000000000E+00  0.00000000000E+00  0.84032019139E+03  0.84032019139E+03  0.25500000920E-02 0.  1.
        2   -1    0    0  501    0  0.00000000000E+00  0.00000000000E+00 -0.84003190490E+03  0.84003190490E+03  0.25500000920E-02 0. -1.
    10030    2    1    2    0    0  0.00000000000E+00  0.00000000000E+00  0.28828649171E+00  0.16803520963E+04  0.16803520716E+04 0.  0.
        3    1    3    3  502    0 -0.30658272279E+03 -0.48198262206E+03 -0.61596912410E+03  0.84007034582E+03  0.10100000352E+00 0. -1.
       -3    1    3    3    0  502  0.30658272279E+03  0.48198262206E+03  0.61625741059E+03  0.84028175048E+03  0.10100000352E+00 0.  1.
</event>
<event>
 5   0  0.3713516E-04  0.1701117E+04  0.7818609E-02  0.8760728E-01
        1   -1    0    0  501    0  0.00000000000E+00  0.00000000000E+00  0.12637918675E+04  0.12637918675E+04  0.50400001928E-02 0. -1.
       -1   -1    0    0    0  501  0.00000000000E+00  0.00000000000E+00 -0.57244346182E+03  0.57244346184E+03  0.50400001928E-02 0.  1.
    10030    2    1    2    0    0  0.00000000000E+00  0.00000000000E+00  0.69134840565E+03  0.18362353293E+04  0.17011165647E+04 0.  0.
        5    1    3    3  502    0  0.76771431356E+03 -0.32862290949E+03  0.51989096633E+03  0.98371082680E+03  0.46999998093E+01 0. -1.
       -5    1    3    3    0  502 -0.76771431356E+03  0.32862290949E+03  0.17145743933E+03  0.85252450252E+03  0.46999998093E+01 0.  1.
</event>
<event>
 5   0  0.7233728E-04  0.1684491E+04  0.7818609E-02  0.8770260E-01
       -2   -1    0    0    0  501  0.00000000000E+00  0.00000000000E+00  0.37126378515E+03  0.37126378515E+03  0.25500000920E-02 0. -1.
        2   -1    0    0  501    0  0.00000000000E+00  0.00000000000E+00 -0.19107093696E+04  0.19107093696E+04  0.25500000920E-02 0.  1.
    10030    2    1    2    0    0  0.00000000000E+00  0.00000000000E+00 -0.15394455844E+04  0.22819731547E+04  0.16844906564E+04 0.  0.
        1    1    3    3  502    0 -0.11850198413E+03  0.77107637233E+03 -0.33967191504E+03  0.85086926263E+03  0.50400001928E-02 0. -1.
       -1    1    3    3    0  502  0.11850198413E+03 -0.77107637233E+03 -0.11997736694E+04  0.14311038921E+04  0.50400001928E-02 0.  1.
</event>
<event>
 5   0  0.3915701E-04  0.1724596E+04  0.7818609E-02  0.8747459E-01
        1   -1    0    0  501    0  0.00000000000E+00  0.00000000000E+00  0.95022023693E+03  0.95022023694E+03  0.50400001928E-02 0.  1.
       -1   -1    0    0    0  501  0.00000000000E+00  0.00000000000E+00 -0.78251125390E+03  0.78251125392E+03  0.50400001928E-02 0. -1.
    10030    2    1    2    0    0  0.00000000000E+00  0.00000000000E+00  0.16770898303E+03  0.17327314909E+04  0.17245962184E+04 0.  0.
        2    1    3    3  502    0  0.49978290521E+03 -0.48765413166E+03  0.59217440263E+03  0.91556541416E+03  0.25500000920E-02 0.  1.
       -2    1    3    3    0  502 -0.49978290521E+03  0.48765413166E+03 -0.42446541960E+03  0.81716607670E+03  0.25500000920E-02 0. -1.
</event>
<event>
 5   0  0.7242144E-04  0.1427426E+04  0.7818609E-02  0.8934202E-01
       -2   -1    0    0    0  501  0.00000000000E+00  0.00000000000E+00  0.66048084037E+03  0.66048084038E+03  0.25500000920E-02 0. -1.
        2   -1    0    0  501    0  0.00000000000E+00  0.00000000000E+00 -0.77123569703E+03  0.77123569703E+03  0.25500000920E-02 0.  1.
    10030    2    1    2    0    0  0.00000000000E+00  0.00000000000E+00 -0.11075485665E+03  0.14317165374E+04  0.14274262171E+04 0.  0.
        3    1    3    3  502    0  0.19412861261E+03 -0.48087080204E+03  0.43646747486E+03  0.67781008645E+03  0.10100000352E+00 0. -1.
       -3    1    3    3    0  502 -0.19412861261E+03  0.48087080204E+03 -0.54722233151E+03  0.75390645096E+03  0.10100000352E+00 0.  1.
</event>
<event>
 5   0  0.7049044E-04  0.1731824E+04  0.7818609E-02  0.8743419E-01
        2   -1    0    0  501    0  0.00000000000E+00  0.00000000000E+00  0.18691174770E+04  0.18691174770E+04  0.25500000920E-02 0. -1.
       -2   -1    0    0    0  501  0.00000000000E+00  0.00000000000E+00 -0.40115368585E+03  0.40115368586E+03  0.25500000920E-02 0.  1.
    10030    2    1    2    0    0  0.00000000000E+00  0.00000000000E+00  0.14679637911E+04  0.22702711628E+04  0.17318237384E+04 0.  0.
        4    1    3    3  502    0 -0.17747445513E+03  0.31698569055E+03  0.17643838116E+04  0.18013963910E+04  0.12699999809E+01 0. -1.
       -4    1    3    3    0  502  0.17747445513E+03 -0.31698569055E+03 -0.29642002043E+03  0.46887477182E+03  0.12699999809E+01 0.  1.
</event>
<event>
 5   0  0.6746664E-04  0.1706165E+04  0.7818609E-02  0.8757856E-01
        2   -1    0    0  501    0  0.00000000000E+00  0.00000000000E+00  0.11894010109E+04  0.11894010109E+04  0.25500000920E-02 0.  1.
       -2   -1    0    0    0  501  0.00000000000E+00  0.00000000000E+00 -0.61186268872E+03  0.61186268873E+03  0.25500000920E-02 0. -1.
    10030    2    1    2    0    0  0.00000000000E+00  0.00000000000E+00  0.57753832220E+03  0.18012636996E+04  0.17061654088E+04 0.  0.
        5    1    3    3  502    0 -0.84594810982E+03 -0.50321280373E+02  0.39203509953E+03  0.93374195848E+03  0.46999998093E+01 0. -1.
       -5    1    3    3    0  502  0.84594810982E+03  0.50321280373E+02  0.18550322267E+03  0.86752174116E+03  0.46999998093E+01 0.  1.
</event>
<event>
 5   0  0.3723500E-04  0.1715219E+04  0.7818609E-02  0.8752732E-01
        1   -1    0    0  501    0  0.00000000000E+00  0.00000000000E+00  0.67575321261E+03  0.67575321263E+03  0.50400001928E-02 0. -1.
       -1   -1    0    0    0  501  0.00000000000E+00  0.00000000000E+00 -0.10884063644E+04  0.10884063644E+04  0.50400001928E-02 0.  1.
    10030    2    1    2    0    0  0.00000000000E+00  0.00000000000E+00 -0.41265315180E+03  0.17641595770E+04  0.17152190500E+04 0.  0.
        1    1    3    3  502    0  0.60731647247E+03  0.34418905370E+03  0.30607979682E+03  0.76222322483E+03  0.50400001928E-02 0. -1.
       -1    1    3    3    0  502 -0.60731647247E+03 -0.34418905370E+03 -0.71873294862E+03  0.10019363522E+04  0.50400001928E-02 0.  1.
</event>
<event>
 5   0  0.3635143E-04  0.1718696E+04  0.7818609E-02  0.8750773E-01
       -1   -1    0    0    0  501  0.00000000000E+00  0.00000000000E+00  0.29843042170E+03  0.29843042174E+03  0.50400001928E-02 0. -1.
        1   -1    0    0  501    0  0.00000000000E+00  0.00000000000E+00 -0.24745428339E+04  0.24745428339E+04  0.50400001928E-02 0.  1.
    10030    2    1    2    0    0  0.00000000000E+00  0.00000000000E+00 -0.21761124122E+04  0.27729732557E+04  0.17186958562E+04 0.  0.
        3    1    3    3  502    0 -0.74146743581E+03  0.10531355251E+03 -0.40809335572E+03  0.85288047222E+03  0.10100000352E+00 0. -1.
       -3    1    3    3    0  502  0.74146743581E+03 -0.10531355251E+03 -0.17680190565E+04  0.19200927835E+04  0.10100000352E+00 0.  1.
</event>
<event>
 5   0  0.3803253E-04  0.1706393E+04  0.7818609E-02  0.8757726E-01
       -1   -1    0    0    0  501  0.00000000000E+00  0.00000000000E+00  0.72189031306E+03  0.72189031308E+03  0.50400001928E-02 0. -1.
        1   -1    0    0  501    0  0.00000000000E+00  0.00000000000E+00 -0.10083864806E+04  0.10083864806E+04  0.50400001928E-02 0.  1.
    10030    2    1    2    0    0  0.00000000000E+00  0.00000000000E+00 -0.28649616757E+03  0.17302767937E+04  0.17063931929E+04 0.  0.
        4    1    3    3  502    0 -0.22608896809E+03  0.79674263500E+03  0.64628060957E+02  0.83071863292E+03  0.12699999809E+01 0. -1.
       -4    1    3    3    0  502  0.22608896809E+03 -0.79674263500E+03 -0.35112422853E+03  0.89955816081E+03  0.12699999809E+01 0.  1.
</event>
<event>
 5   0  0.3713516E-04  0.1705439E+04  0.7818609E-02  0.8758269E-01
        1   -1    0    0  501    0  0.00000000000E+00  0.00000000000E+00  0.67581724668E+03  0.67581724670E+03  0.50400001928E-02 0.  1.
       -1   -1    0    0    0  501  0.00000000000E+00  0.00000000000E+00 -0.10759273029E+04  0.10759273029E+04  0.50400001928E-02 0. -1.
    10030    2    1    2    0    0  0.00000000000E+00  0.00000000000E+00 -0.40011005624E+03  0.17517445496E+04  0.17054386269E+04 0.  0.
        5    1    3    3  502    0 -0.53276630193E+03  0.37459125628E+03 -0.76540824593E+03  0.10050026939E+04  0.46999998093E+01 0. -1.
       -5    1    3    3    0  502  0.53276630193E+03 -0.37459125628E+03  0.36529818969E+03  0.74674185576E+03  0.46999998093E+01 0.  1.
</event>
<event>
 5   0  0.7242144E-04  0.1697545E+04  0.7818609E-02  0.8762766E-01
       -2   -1    0    0    0  501  0.00000000000E+00  0.00000000000E+00  0.14408541518E+04  0.14408541518E+04  0.25500000920E-02 0. -1.
        2   -1    0    0  501    0  0.00000000000E+00  0.00000000000E+00 -0.49999133445E+03  0.49999133446E+03  0.25500000920E-02 0.  1.
    10030    2    1    2    0    0  0.00000000000E+00  0.00000000000E+00  0.94086281735E+03  0.19408454863E+04  0.16975448037E+04 0.  0.
        3    1    3    3  502    0  0.71777515442E+03  0.19857161609E+03  0.93595248464E+03  0.11960931915E+04  0.10100000352E+00 0.  1.
       -3    1    3    3    0  502 -0.71777515442E+03 -0.19857161609E+03  0.49103327111E+01  0.74475229478E+03  0.10100000352E+00 0. -1.
</event>
<event>
 5   0  0.3915701E-04  0.1538572E+04  0.7818609E-02  0.8859201E-01
        1   -1    0    0  501    0  0.00000000000E+00  0.00000000000E+00  0.46460661184E+03  0.46460661186E+03  0.50400001928E-02 0.  1.
       -1   -1    0    0    0  501  0.00000000000E+00  0.00000000000E+00 -0.12737674153E+04  0.12737674153E+04  0.50400001928E-02 0. -1.
    10030    2    1    2    0    0  0.00000000000E+00  0.00000000000E+00 -0.80916080344E+03  0.17383740271E+04  0.15385717573E+04 0.  0.
        2    1    3    3  502    0 -0.18284741783E+03 -0.54657253967E+03  0.17112406138E+03  0.60121390846E+03  0.25500000920E-02 0.  1.
       -2    1    3    3    0  502  0.18284741783E+03  0.54657253967E+03 -0.98028486482E+03  0.11371601187E+04  0.25500000920E-02 0. -1.
</event>
<event>
 5   0  0.3803253E-04  0.1731948E+04  0.7818609E-02  0.8743350E-01
       -1   -1    0    0    0  501  0.00000000000E+00  0.00000000000E+00  0.70796249361E+03  0.70796249362E+03  0.50400001928E-02 0. -1.
        1   -1    0    0  501    0  0.00000000000E+00  0.00000000000E+00 -0.10592518932E+04  0.10592518932E+04  0.50400001928E-02 0.  1.
    10030    2    1    2    0    0  0.00000000000E+00  0.00000000000E+00 -0.35128939963E+03  0.17672143869E+04  0.17319475878E+04 0.  0.
        4    1    3    3  502    0  0.21666597809E+03 -0.16107017103E+03  0.66392284992E+03  0.71671675689E+03  0.12699999809E+01 0. -1.
       -4    1    3    3    0  502 -0.21666597809E+03  0.16107017103E+03 -0.10152122496E+04  0.10504976300E+04  0.12699999809E+01 0.  1.
</event>
<event>
 5   0  0.3635143E-04  0.1685713E+04  0.7818609E-02  0.8769555E-01
        1   -1    0    0  501    0  0.00000000000E+00  0.00000000000E+00  0.83158083781E+03  0.83158083782E+03  0.50400001928E-02 0.  1.
       -1   -1    0    0    0  501  0.00000000000E+00  0.00000000000E+00 -0.85428547165E+03  0.85428547166E+03  0.50400001928E-02 0. -1.
    10030    2    1    2    0    0  0.00000000000E+00  0.00000000000E+00 -0.22704633840E+02  0.16858663095E+04  0.16857134137E+04 0.  0.
        3    1    3    3  502    0  0.66507258709E+03 -0.31182613716E+03  0.40202562896E+03  0.83736593103E+03  0.10100000352E+00 0.  1.
       -3    1    3    3    0  502 -0.66507258709E+03  0.31182613716E+03 -0.42473026280E+03  0.84850037846E+03  0.10100000352E+00 0. -1.
</event>
<event>
 5   0  0.3803253E-04  0.1684947E+04  0.7818609E-02  0.8769997E-01
       -1   -1    0    0    0  501  0.00000000000E+00  0.00000000000E+00  0.31896123737E+03  0.31896123741E+03  0.50400001928E-02 0.  1.
        1   -1    0    0  501    0  0.00000000000E+00  0.00000000000E+00 -0.22252274338E+04  0.22252274338E+04  0.50400001928E-02 0. -1.
    10030    2    1    2    0    0  0.00000000000E+00  0.00000000000E+00 -0.19062661964E+04  0.25441886712E+04  0.16849466410E+04 0.  0.
        4    1    3    3  502    0  0.59504360885E+03 -0.19283688704E+03 -0.18052823075E+04  0.19105781283E+04  0.12699999809E+01 0. -1.
       -4    1    3    3    0  502 -0.59504360885E+03  0.19283688704E+03 -0.10098388891E+03  0.63361054296E+03  0.12699999809E+01 0.  1.
</event>
<event>
 5   0  0.7025426E-04  0.1736875E+04  0.7818609E-02  0.8740608E-01
       -2   -1    0    0    0  501  0.00000000000E+00  0.00000000000E+00  0.10968363611E+04  0.10968363611E+04  0.25500000920E-02 0.  1.
        2   -1    0    0  501    0  0.00000000000E+00  0.00000000000E+00 -0.68759922880E+03  0.68759922881E+03  0.25500000920E-02 0. -1.
    10030    2    1    2    0    0  0.00000000000E+00  0.00000000000E+00  0.40923713226E+03  0.17844355899E+04  0.17368751665E+04 0.  0.
        2    1    3    3  502    0  0.13800158574E+03  0.50713242840E+03 -0.50565601776E+03  0.72932554179E+03  0.25500000920E-02 0. -1.
       -2    1    3    3    0  502 -0.13800158574E+03 -0.50713242840E+03  0.91489315002E+03  0.10551100481E+04  0.25500000920E-02 0.  1.
</event>
<event>
 5   0  0.6746664E-04  0.1713328E+04  0.7818609E-02  0.8753799E-01
        2   -1    0    0  501    0  0.00000000000E+00  0.00000000000E+00  0.18065294892E+04  0.18065294892E+04  0.25500000920E-02 0.  1.
       -2   -1    0    0    0  501  0.00000000000E+00  0.00000000000E+00 -0.40623367812E+03  0.40623367812E+03  0.25500000920E-02 0. -1.
    10030    2    1    2    0    0  0.00000000000E+00  0.00000000000E+00  0.14002958111E+04  0.22127631673E+04  0.17133278951E+04 0.  0.
        5    1    3    3  502    0 -0.62449141221E+03  0.19452157990E+03 -0.14301341410E+02  0.65425896046E+03  0.46999998093E+01 0. -1.
       -5    1    3    3    0  502  0.62449141221E+03 -0.19452157990E+03  0.14145971525E+04  0.15585042069E+04  0.46999998093E+01 0.  1.
</event>
<event>
 5   0  0.7242144E-04  0.1625556E+04  0.7818609E-02  0.8805000E-01
        2   -1    0    0  501    0  0.00000000000E+00  0.00000000000E+00  0.14704813089E+04  0.14704813089E+04  0.25500000920E-02 0. -1.
       -2   -1    0    0    0  501  0.00000000000E+00  0.00000000000E+00 -0.44924624802E+03  0.44924624803E+03  0.25500000920E-02 0.  1.
    10030    2    1    2    0    0  0.00000000000E+00  0.00000000000E+00  0.10212350608E+04  0.19197275569E+04  0.16255561643E+04 0.  0.
        3    1    3    3  502    0 -0.67659402748E+02  0.40705817374E+03  0.13375758974E+04  0.13997797838E+04  0.10100000352E+00 0. -1.
       -3    1    3    3    0  502  0.67659402748E+02 -0.40705817374E+03 -0.31634083661E+03  0.51994777305E+03  0.10100000352E+00 0.  1.
</event>
<event>
 5   0  0.6746664E-04  0.1713965E+04  0.7818609E-02  0.8753439E-01
        2   -1    0    0  501    0  0.00000000000E+00  0.00000000000E+00  0.84355034468E+03  0.84355034468E+03  0.25500000920E-02 0. -1.
       -2   -1    0    0    0  501  0.00000000000E+00  0.00000000000E+00 -0.87062862683E+03  0.87062862684E+03  0.25500000920E-02 0.  1.
    10030    2    1    2    0    0  0.00000000000E+00  0.00000000000E+00 -0.27078282154E+02  0.17141789715E+04  0.17139650851E+04 0.  0.
        5    1    3    3  502    0  0.53080924965E+03  0.43150490377E+03 -0.52978380182E+03  0.86524442105E+03  0.46999998093E+01 0.  1.
       -5    1    3    3    0  502 -0.53080924965E+03 -0.43150490377E+03  0.50270551967E+03  0.84893455047E+03  0.46999998093E+01 0. -1.
</event>
<event>
 5   0  0.3803253E-04  0.1677798E+04  0.7818609E-02  0.8774129E-01
       -1   -1    0    0    0  501  0.00000000000E+00  0.00000000000E+00  0.36886334227E+03  0.36886334231E+03  0.50400001928E-02 0.  1.
        1   -1    0    0  501    0  0.00000000000E+00  0.00000000000E+00 -0.19078917980E+04  0.19078917980E+04  0.50400001928E-02 0. -1.
    10030    2    1    2    0    0  0.00000000000E+00  0.00000000000E+00 -0.15390284557E+04  0.22767551403E+04  0.16777977773E+04 0.  0.
        4    1    3    3  502    0 -0.15965082814E+03 -0.53935075492E+00  0.34805684365E+03  0.38292800516E+03  0.12699999809E+01 0.  1.
       -4    1    3    3    0  502  0.15965082814E+03  0.53935075492E+00 -0.18870852994E+04  0.18938271352E+04  0.12699999809E+01 0. -1.
</event>
<event>
 5   0  0.3635143E-04  0.1698309E+04  0.7818609E-02  0.8762329E-01
        1   -1    0    0  501    0  0.00000000000E+00  0.00000000000E+00  0.16729208614E+04  0.16729208614E+04  0.50400001928E-02 0. -1.
       -1   -1    0    0    0  501  0.00000000000E+00  0.00000000000E+00 -0.43102079643E+03  0.43102079645E+03  0.50400001928E-02 0.  1.
    10030    2    1    2    0    0  0.00000000000E+00  0.00000000000E+00  0.12419000650E+04  0.21039416578E+04  0.16983093735E+04 0.  0.
        3    1    3    3  502    0 -0.68105087299E+03 -0.49754627344E+03  0.49905698745E+03  0.98002064914E+03  0.10100000352E+00 0.  1.
       -3    1    3    3    0  502  0.68105087299E+03  0.49754627344E+03  0.74284307751E+03  0.11239210087E+04  0.10100000352E+00 0. -1.
</event>
<event>
 5   0  0.3635143E-04  0.1702244E+04  0.7818609E-02  0.8760085E-01
       -1   -1    0    0    0  501  0.00000000000E+00  0.00000000000E+00  0.84953172184E+03  0.84953172185E+03  0.50400001928E-02 0.  1.
        1   -1    0    0  501    0  0.00000000000E+00  0.00000000000E+00 -0.85271539540E+03  0.85271539542E+03  0.50400001928E-02 0. -1.
    10030    2    1    2    0    0  0.00000000000E+00  0.00000000000E+00 -0.31836735684E+01  0.17022471173E+04  0.17022441401E+04 0.  0.
        3    1    3    3  502    0  0.73203913927E+02  0.47162035348E+03  0.70312508103E+03  0.84980554282E+03  0.10100000352E+00 0.  1.
       -3    1    3    3    0  502 -0.73203913927E+02 -0.47162035348E+03 -0.70630875460E+03  0.85244157445E+03  0.10100000352E+00 0. -1.
</event>
<event>
 5   0  0.3713516E-04  0.1700675E+04  0.7818609E-02  0.8760979E-01
        1   -1    0    0  501    0  0.00000000000E+00  0.00000000000E+00  0.13586169857E+04  0.13586169857E+04  0.50400001928E-02 0.  1.
       -1   -1    0    0    0  501  0.00000000000E+00  0.00000000000E+00 -0.53221328339E+03  0.53221328342E+03  0.50400001928E-02 0. -1.
    10030    2    1    2    0    0  0.00000000000E+00  0.00000000000E+00  0.82640370229E+03  0.18908302691E+04  0.17006751681E+04 0.  0.
        5    1    3    3  502    0  0.10127888990E+03 -0.18301642996E+03  0.13295527700E+04  0.13459142192E+04  0.46999998093E+01 0.  1.
       -5    1    3    3    0  502 -0.10127888990E+03  0.18301642996E+03 -0.50314906769E+03  0.54491604995E+03  0.46999998093E+01 0. -1.
</event>
<event>
 5   0  0.7025426E-04  0.1640650E+04  0.7818609E-02  0.8795957E-01
        2   -1    0    0  501    0  0.00000000000E+00  0.00000000000E+00  0.42831939096E+03  0.42831939097E+03  0.25500000920E-02 0.  1.
       -2   -1    0    0    0  501  0.00000000000E+00  0.00000000000E+00 -0.15711016826E+04  0.15711016826E+04  0.25500000920E-02 0. -1.
    10030    2    1    2    0    0  0.00000000000E+00  0.00000000000E+00 -0.11427822917E+04  0.19994210736E+04  0.16406502563E+04 0.  0.
        2    1    3    3  502    0  0.26010174513E+03  0.14461039392E+03  0.36021330270E+03  0.46724587457E+03  0.25500000920E-02 0.  1.
       -2    1    3    3    0  502 -0.26010174513E+03 -0.14461039392E+03 -0.15029955944E+04  0.15321751990E+04  0.25500000920E-02 0. -1.
</event>
<event>
 5   0  0.7242144E-04  0.1754411E+04  0.7818609E-02  0.8730926E-01
       -2   -1    0    0    0  501  0.00000000000E+00  0.00000000000E+00  0.46322571805E+03  0.46322571806E+03  0.25500000920E-02 0.  1.
        2   -1    0    0  501    0  0.00000000000E+00  0.00000000000E+00 -0.16611544635E+04  0.16611544635E+04  0.25500000920E-02 0. -1.
    10030    2    1    2    0    0  0.00000000000E+00  0.00000000000E+00 -0.11979287454E+04  0.21243801816E+04  0.17544109771E+04 0.  0.
        3    1    3    3  502    0 -0.26427479072E+03  0.20281471985E+03  0.38365103753E+03  0.50809753433E+03  0.10100000352E+00 0.  1.
       -3    1    3    3    0  502  0.26427479072E+03 -0.20281471985E+03 -0.15815797830E+04  0.16162826472E+04  0.10100000352E+00 0. -1.
</event>
<event>
 5   0  0.7242144E-04  0.1703517E+04  0.7818609E-02  0.8759361E-01
        2   -1    0    0  501    0  0.00000000000E+00  0.00000000000E+00  0.12460693397E+04  0.12460693397E+04  0.25500000920E-02 0.  1.
       -2   -1    0    0    0  501  0.00000000000E+00  0.00000000000E+00 -0.58222512662E+03  0.58222512663E+03  0.25500000920E-02 0. -1.
    10030    2    1    2    0    0  0.00000000000E+00  0.00000000000E+00  0.66384421311E+03  0.18282944664E+04  0.17035173954E+04 0.  0.
        3    1    3    3  502    0  0.29556418658E+03 -0.57269539588E+03 -0.26578542775E+03  0.69712273572E+03  0.10100000352E+00 0. -1.
       -3    1    3    3    0  502 -0.29556418658E+03  0.57269539588E+03  0.92962964087E+03  0.11311717307E+04  0.10100000352E+00 0.  1.
</event>
<event>
 5   0  0.3915701E-04  0.1708642E+04  0.7818609E-02  0.8756451E-01
        1   -1    0    0  501    0  0.00000000000E+00  0.00000000000E+00  0.12142412299E+04  0.12142412299E+04  0.50400001928E-02 0.  1.
       -1   -1    0    0    0  501  0.00000000000E+00  0.00000000000E+00 -0.60108653120E+03  0.60108653122E+03  0.50400001928E-02 0. -1.
    10030    2    1    2    0    0  0.00000000000E+00  0.00000000000E+00  0.61315469874E+03  0.18153277612E+04  0.17086416230E+04 0.  0.
        2    1    3    3  502    0 -0.15021025680E+01  0.45813167055E+03  0.10726962971E+04  0.11664322654E+04  0.25500000920E-02 0.  1.
       -2    1    3    3    0  502  0.15021025680E+01 -0.45813167055E+03 -0.45954159834E+03  0.64889549581E+03  0.25500000920E-02 0. -1.
</event>
<event>
 5   0  0.7049044E-04  0.1720426E+04  0.7818609E-02  0.8749800E-01
       -2   -1    0    0    0  501  0.00000000000E+00  0.00000000000E+00  0.28880931532E+03  0.28880931533E+03  0.25500000920E-02 0. -1.
        2   -1    0    0  501    0  0.00000000000E+00  0.00000000000E+00 -0.25621287369E+04  0.25621287369E+04  0.25500000920E-02 0.  1.
    10030    2    1    2    0    0  0.00000000000E+00  0.00000000000E+00 -0.22733194216E+04  0.28509380522E+04  0.17204262801E+04 0.  0.
        4    1    3    3  502    0  0.60593803689E+03  0.36378357707E+03 -0.19492623441E+04  0.20734330697E+04  0.12699999809E+01 0.  1.
       -4    1    3    3    0  502 -0.60593803689E+03 -0.36378357707E+03 -0.32405707745E+03  0.77750498252E+03  0.12699999809E+01 0. -1.
</event>
<event>
 5   0  0.7242144E-04  0.1451449E+04  0.7818609E-02  0.8917396E-01
       -2   -1    0    0    0  501  0.00000000000E+00  0.00000000000E+00  0.53239889207E+03  0.53239889208E+03  0.25500000920E-02 0.  1.
        2   -1    0    0  501    0  0.00000000000E+00  0.00000000000E+00 -0.98925099522E+03  0.98925099523E+03  0.25500000920E-02 0. -1.
    10030    2    1    2    0    0  0.00000000000E+00  0.00000000000E+00 -0.45685210315E+03  0.15216498873E+04  0.14514491157E+04 0.  0.
        3    1    3    3  502    0 -0.48673715513E+03 -0.35999338429E+03  0.19114021870E+03  0.63485658878E+03  0.10100000352E+00 0.  1.
       -3    1    3    3    0  502  0.48673715513E+03  0.35999338429E+03 -0.64799232185E+03  0.88679329852E+03  0.10100000352E+00 0. -1.
</event>
<event>
 5   0  0.7242144E-04  0.1699165E+04  0.7818609E-02  0.8761841E-01
        2   -1    0    0  501    0  0.00000000000E+00  0.00000000000E+00  0.19037159370E+04  0.19037159370E+04  0.25500000920E-02 0. -1.
       -2   -1    0    0    0  501  0.00000000000E+00  0.00000000000E+00 -0.37914823791E+03  0.37914823791E+03  0.25500000920E-02 0.  1.
    10030    2    1    2    0    0  0.00000000000E+00  0.00000000000E+00  0.15245676990E+04  0.22828641749E+04  0.16991651397E+04 0.  0.
        3    1    3    3  502    0  0.10989829240E+03  0.36940724645E+03  0.17795087055E+04  0.18207664846E+04  0.10100000352E+00 0. -1.
       -3    1    3    3    0  502 -0.10989829240E+03 -0.36940724645E+03 -0.25494100641E+03  0.46209769027E+03  0.10100000352E+00 0.  1.
</event>
<event>
 5   0  0.7242144E-04  0.1647668E+04  0.7818609E-02  0.8791787E-01
       -2   -1    0    0    0  501  0.00000000000E+00  0.00000000000E+00  0.12873956747E+04  0.12873956748E+04  0.25500000920E-02 0.  1.
        2   -1    0    0  501    0  0.00000000000E+00  0.00000000000E+00 -0.52719012368E+03  0.52719012369E+03  0.25500000920E-02 0. -1.
    10030    2    1    2    0    0  0.00000000000E+00  0.00000000000E+00  0.76020555107E+03  0.18145857984E+04  0.16476677881E+04 0.  0.
        3    1    3    3  502    0 -0.59017356744E+02  0.29954248988E+03 -0.46258928823E+03  0.55425410367E+03  0.10100000352E+00 0. -1.
       -3    1    3    3    0  502  0.59017356744E+02 -0.29954248988E+03  0.12227948393E+04  0.12603316948E+04  0.10100000352E+00 0.  1.
</event>
<event>
 5   0  0.6746664E-04  0.1641799E+04  0.7818609E-02  0.8795273E-01
       -2   -1    0    0    0  501  0.00000000000E+00  0.00000000000E+00  0.46277660129E+03  0.46277660129E+03  0.25500000920E-02 0.  1.
        2   -1    0    0  501    0  0.00000000000E+00  0.00000000000E+00 -0.14561583969E+04  0.14561583969E+04  0.25500000920E-02 0. -1.
    10030    2    1    2    0    0  0.00000000000E+00  0.00000000000E+00 -0.99338179558E+03  0.19189349982E+04  0.16417990545E+04 0.  0.
        5    1    3    3  502    0 -0.66482424767E+03  0.47626776608E+03 -0.57959894895E+03  0.10023868000E+04  0.46999998093E+01 0. -1.
       -5    1    3    3    0  502  0.66482424767E+03 -0.47626776608E+03 -0.41378284663E+03  0.91654819811E+03  0.46999998093E+01 0.  1.
</event>
<event>
 5   0  0.3635143E-04  0.1696457E+04  0.7818609E-02  0.8763388E-01
       -1   -1    0    0    0  501  0.00000000000E+00  0.00000000000E+00  0.74738695603E+03  0.74738695604E+03  0.50400001928E-02 0. -1.
        1   -1    0    0  501    0  0.00000000000E+00  0.00000000000E+00 -0.96267594312E+03  0.96267594313E+03  0.50400001928E-02 0.  1.
    10030    2    1    2    0    0  0.00000000000E+00  0.00000000000E+00 -0.21528898709E+03  0.17100628992E+04  0.16964568286E+04 0.  0.
        3    1    3    3  502    0 -0.47287465815E+03 -0.13900808817E+03  0.58822378133E+03  0.76742486148E+03  0.10100000352E+00 0. -1.
       -3    1    3    3    0  502  0.47287465815E+03  0.13900808817E+03 -0.80351276842E+03  0.94263803770E+03  0.10100000352E+00 0.  1.
</event>
<event>
 5   0  0.3915701E-04  0.1644622E+04  0.7818609E-02  0.8793594E-01
        1   -1    0    0  501    0  0.00000000000E+00  0.00000000000E+00  0.13844335302E+04  0.13844335302E+04  0.50400001928E-02 0.  1.
       -1   -1    0    0    0  501  0.00000000000E+00  0.00000000000E+00 -0.48842738525E+03  0.48842738527E+03  0.50400001928E-02 0. -1.
    10030    2    1    2    0    0  0.00000000000E+00  0.00000000000E+00  0.89600614493E+03  0.18728609155E+04  0.16446218401E+04 0.  0.
        2    1    3    3  502    0  0.53112484067E+02 -0.10920819095E+03 -0.47815963329E+03  0.49333963945E+03  0.25500000920E-02 0. -1.
       -2    1    3    3    0  502 -0.53112484067E+02  0.10920819095E+03  0.13741657782E+04  0.13795212760E+04  0.25500000920E-02 0.  1.
</event>
<event>
 5   0  0.3803253E-04  0.1485246E+04  0.7818609E-02  0.8894324E-01
       -1   -1    0    0    0  501  0.00000000000E+00  0.00000000000E+00  0.10754742914E+04  0.10754742914E+04  0.50400001928E-02 0.  1.
        1   -1    0    0  501    0  0.00000000000E+00  0.00000000000E+00 -0.51278656229E+03  0.51278656231E+03  0.50400001928E-02 0. -1.
    10030    2    1    2    0    0  0.00000000000E+00  0.00000000000E+00  0.56268772911E+03  0.15882608537E+04  0.14852457908E+04 0.  0.
        4    1    3    3  502    0 -0.54658057694E+03  0.40816867496E+03 -0.32500061368E+02  0.68294206284E+03  0.12699999809E+01 0. -1.
       -4    1    3    3    0  502  0.54658057694E+03 -0.40816867496E+03  0.59518779048E+03  0.90531879089E+03  0.12699999809E+01 0.  1.
</event>
<event>
 5   0  0.7242144E-04  0.1756973E+04  0.7818609E-02  0.8729522E-01
        2   -1    0    0  501    0  0.00000000000E+00  0.00000000000E+00  0.66406159037E+03  0.66406159038E+03  0.25500000920E-02 0. -1.
       -2   -1    0    0    0  501  0.00000000000E+00  0.00000000000E+00 -0.11621485635E+04  0.11621485635E+04  0.25500000920E-02 0.  1.
    10030    2    1    2    0    0  0.00000000000E+00  0.00000000000E+00 -0.49808697315E+03  0.18262101539E+04  0.17569726502E+04 0.  0.
        3    1    3    3  502    0  0.50134761528E+03 -0.45436053336E+03 -0.83143191361E+03  0.10719477426E+04  0.10100000352E+00 0.  1.
       -3    1    3    3    0  502 -0.50134761528E+03  0.45436053336E+03  0.33334494046E+03  0.75426241134E+03  0.10100000352E+00 0. -1.
</event>
<event>
 5   0  0.7242144E-04  0.1622941E+04  0.7818609E-02  0.8806577E-01
        2   -1    0    0  501    0  0.00000000000E+00  0.00000000000E+00  0.51417944674E+03  0.51417944674E+03  0.25500000920E-02 0. -1.
       -2   -1    0    0    0  501  0.00000000000E+00  0.00000000000E+00 -0.12806510023E+04  0.12806510023E+04  0.25500000920E-02 0.  1.
    10030    2    1    2    0    0  0.00000000000E+00  0.00000000000E+00 -0.76647155560E+03  0.17948304491E+04  0.16229410634E+04 0.  0.
        3    1    3    3  502    0 -0.68066019194E+03 -0.15997211465E+03  0.72200112884E+02  0.70292406479E+03  0.10100000352E+00 0.  1.
       -3    1    3    3    0  502  0.68066019194E+03  0.15997211465E+03 -0.83867166848E+03  0.10919063843E+04  0.10100000352E+00 0. -1.
</event>
<event>
 5   0  0.7233728E-04  0.1674871E+04  0.7818609E-02  0.8775828E-01
       -2   -1    0    0    0  501  0.00000000000E+00  0.00000000000E+00  0.11047306510E+04  0.11047306510E+04  0.25500000920E-02 0.  1.
        2   -1    0    0  501    0  0.00000000000E+00  0.00000000000E+00 -0.63481375282E+03  0.63481375283E+03  0.25500000920E-02 0. -1.
    10030    2    1    2    0    0  0.00000000000E+00  0.00000000000E+00  0.46991689815E+03  0.17395444038E+04  0.16748709925E+04 0.  0.
        1    1    3    3  502    0  0.13103126755E+03 -0.45905637781E+03  0.94956430214E+03  0.10628143370E+04  0.50400001928E-02 0.  1.
       -1    1    3    3    0  502 -0.13103126755E+03  0.45905637781E+03 -0.47964740399E+03  0.67673006676E+03  0.50400001928E-02 0. -1.
</event>
<event>
 5   0  0.3723500E-04  0.1691280E+04  0.7818609E-02  0.8766353E-01
        1   -1    0    0  501    0  0.00000000000E+00  0.00000000000E+00  0.64657844637E+03  0.64657844638E+03  0.50400001928E-02 0.  1.
       -1   -1    0    0    0  501  0.00000000000E+00  0.00000000000E+00 -0.11059862206E+04  0.11059862206E+04  0.50400001928E-02 0. -1.
    10030    2    1    2    0    0  0.00000000000E+00  0.00000000000E+00 -0.45940777424E+03  0.17525646670E+04  0.16912798139E+04 0.  0.
        1    1    3    3  502    0  0.57495598514E+03  0.57353660077E+03  0.14611054775E+02  0.81223894281E+03  0.50400001928E-02 0. -1.
       -1    1    3    3    0  502 -0.57495598514E+03 -0.57353660077E+03 -0.47401882901E+03  0.94032572418E+03  0.50400001928E-02 0.  1.
</event>
<event>
 5   0  0.7025426E-04  0.1690871E+04  0.7818609E-02  0.8766588E-01
       -2   -1    0    0    0  501  0.00000000000E+00  0.00000000000E+00  0.75937427767E+03  0.75937427767E+03  0.25500000920E-02 0. -1.
        2   -1    0    0  501    0  0.00000000000E+00  0.00000000000E+00 -0.94125014481E+03  0.94125014481E+03  0.25500000920E-02 0.  1.
    10030    2    1    2    0    0  0.00000000000E+00  0.00000000000E+00 -0.18187586714E+03  0.17006244225E+04  0.16908709576E+04 0.  0.
        2    1    3    3  502    0 -0.58682427517E+03  0.95737286873E+02  0.51355541990E+03  0.78566374954E+03  0.25500000920E-02 0. -1.
       -2    1    3    3    0  502  0.58682427517E+03 -0.95737286873E+02 -0.69543128704E+03  0.91496067294E+03  0.25500000920E-02 0.  1.
</event>
<event>
 5   0  0.7242144E-04  0.1702664E+04  0.7818609E-02  0.8759846E-01
        2   -1    0    0  501    0  0.00000000000E+00  0.00000000000E+00  0.15848357385E+04  0.15848357385E+04  0.25500000920E-02 0. -1.
       -2   -1    0    0    0  501  0.00000000000E+00  0.00000000000E+00 -0.45731337498E+03  0.45731337498E+03  0.25500000920E-02 0.  1.
    10030    2    1    2    0    0  0.00000000000E+00  0.00000000000E+00  0.11275223635E+04  0.20421491134E+04  0.17026644770E+04 0.  0.
        3    1    3    3  502    0  0.78872245037E+03 -0.26183076191E+03  0.34218934994E+03  0.89873912400E+03  0.10100000352E+00 0.  1.
       -3    1    3    3    0  502 -0.78872245037E+03  0.26183076191E+03  0.78533301354E+03  0.11434099894E+04  0.10100000352E+00 0. -1.
</event>
<event>
 5   0  0.3723500E-04  0.1680612E+04  0.7818609E-02  0.8772500E-01
       -1   -1    0    0    0  501  0.00000000000E+00  0.00000000000E+00  0.95983308139E+03  0.95983308141E+03  0.50400001928E-02 0. -1.
        1   -1    0    0  501    0  0.00000000000E+00  0.00000000000E+00 -0.73566318878E+03  0.73566318879E+03  0.50400001928E-02 0.  1.
    10030    2    1    2    0    0  0.00000000000E+00  0.00000000000E+00  0.22416989262E+03  0.16954962702E+04  0.16806116332E+04 0.  0.
        1    1    3    3  502    0 -0.16250075531E+03 -0.54924448014E+03  0.73237829974E+03  0.92976016714E+03  0.50400001928E-02 0. -1.
       -1    1    3    3    0  502  0.16250075531E+03  0.54924448014E+03 -0.50820840712E+03  0.76573610306E+03  0.50400001928E-02 0.  1.
</event>
<event>
 5   0  0.7049044E-04  0.1679158E+04  0.7818609E-02  0.8773341E-01
        2   -1    0    0  501    0  0.00000000000E+00  0.00000000000E+00  0.76680716871E+03  0.76680716872E+03  0.25500000920E-02 0. -1.
       -2   -1    0    0    0  501  0.00000000000E+00  0.00000000000E+00 -0.91925688414E+03  0.91925688414E+03  0.25500000920E-02 0.  1.
    10030    2    1    2    0    0  0.00000000000E+00  0.00000000000E+00 -0.15244971542E+03  0.16860640529E+04  0.16791578468E+04 0.  0.
        4    1    3    3  502    0 -0.45260903315E+03 -0.53230842916E+03  0.39118290731E+03  0.80077017959E+03  0.12699999809E+01 0. -1.
       -4    1    3    3    0  502  0.45260903315E+03  0.53230842916E+03 -0.54363262273E+03  0.88529387327E+03  0.12699999809E+01 0.  1.
</event>
<event>
 5   0  0.3713516E-04  0.1715217E+04  0.7818609E-02  0.8752733E-01
       -1   -1    0    0    0  501  0.00000000000E+00  0.00000000000E+00  0.47435776865E+03  0.47435776867E+03  0.50400001928E-02 0.  1.
        1   -1    0    0  501    0  0.00000000000E+00  0.00000000000E+00 -0.15505006731E+04  0.15505006731E+04  0.50400001928E-02 0. -1.
    10030    2    1    2    0    0  0.00000000000E+00  0.00000000000E+00 -0.10761429044E+04  0.20248584417E+04  0.17152166506E+04 0.  0.
        5    1    3    3  502    0 -0.34709209006E+03  0.76848616966E+03 -0.35356897815E+03  0.91437247566E+03  0.46999998093E+01 0. -1.
       -5    1    3    3    0  502  0.34709209006E+03 -0.76848616966E+03 -0.72257392626E+03  0.11104859661E+04  0.46999998093E+01 0.  1.
</event>
<event>
 5   0  0.6746664E-04  0.1624186E+04  0.7818609E-02  0.8805826E-01
        2   -1    0    0  501    0  0.00000000000E+00  0.00000000000E+00  0.15364902237E+04  0.15364902237E+04  0.25500000920E-02 0.  1.
       -2   -1    0    0    0  501  0.00000000000E+00  0.00000000000E+00 -0.42922171172E+03  0.42922171172E+03  0.25500000920E-02 0. -1.
    10030    2    1    2    0    0  0.00000000000E+00  0.00000000000E+00  0.11072685120E+04  0.19657119354E+04  0.16241859054E+04 0.  0.
        5    1    3    3  502    0  0.60036782772E+02 -0.47954138833E+03  0.13434800301E+04  0.14277692529E+04  0.46999998093E+01 0.  1.
       -5    1    3    3    0  502 -0.60036782772E+02  0.47954138833E+03 -0.23621151807E+03  0.53794268252E+03  0.46999998093E+01 0. -1.
</event>
<event>
 5   0  0.7049044E-04  0.1699740E+04  0.7818609E-02  0.8761513E-01
        2   -1    0    0  501    0  0.00000000000E+00  0.00000000000E+00  0.83625115163E+03  0.83625115164E+03  0.25500000920E-02 0. -1.
       -2   -1    0    0    0  501  0.00000000000E+00  0.00000000000E+00 -0.86371038129E+03  0.86371038129E+03  0.25500000920E-02 0.  1.
    10030    2    1    2    0    0  0.00000000000E+00  0.00000000000E+00 -0.27459229655E+02  0.16999615329E+04  0.16997397460E+04 0.  0.
        4    1    3    3  502    0  0.15172279904E+03 -0.27583041485E+03  0.77578770642E+03  0.83722780881E+03  0.12699999809E+01 0. -1.
       -4    1    3    3    0  502 -0.15172279904E+03  0.27583041485E+03 -0.80324693608E+03  0.86273372412E+03  0.12699999809E+01 0.  1.
</event>
<event>
 5   0  0.7242144E-04  0.1701817E+04  0.7818609E-02  0.8760329E-01
        2   -1    0    0  501    0  0.00000000000E+00  0.00000000000E+00  0.75996156151E+03  0.75996156151E+03  0.25500000920E-02 0.  1.
       -2   -1    0    0    0  501  0.00000000000E+00  0.00000000000E+00 -0.95273898706E+03  0.95273898706E+03  0.25500000920E-02 0. -1.
    10030    2    1    2    0    0  0.00000000000E+00  0.00000000000E+00 -0.19277742555E+03  0.17127005486E+04  0.17018166862E+04 0.  0.
        3    1    3    3  502    0 -0.61581549405E+03 -0.48080902560E+03 -0.43564841571E+03  0.89453652476E+03  0.10100000352E+00 0. -1.
       -3    1    3    3    0  502  0.61581549405E+03  0.48080902560E+03  0.24287099015E+03  0.81816402382E+03  0.10100000352E+00 0.  1.
</event>
<event>
 5   0  0.7242144E-04  0.1712529E+04  0.7818609E-02  0.8754251E-01
        2   -1    0    0  501    0  0.00000000000E+00  0.00000000000E+00  0.87083770482E+03  0.87083770482E+03  0.25500000920E-02 0.  1.
       -2   -1    0    0    0  501  0.00000000000E+00  0.00000000000E+00 -0.84193524146E+03  0.84193524147E+03  0.25500000920E-02 0. -1.
    10030    2    1    2    0    0  0.00000000000E+00  0.00000000000E+00  0.28902463356E+02  0.17127729463E+04  0.17125290693E+04 0.  0.
        3    1    3    3  502    0 -0.62535708071E+02  0.18008954960E+03  0.84934312215E+03  0.87047499102E+03  0.10100000352E+00 0.  1.
       -3    1    3    3    0  502  0.62535708071E+02 -0.18008954960E+03 -0.82044065879E+03  0.84229795527E+03  0.10100000352E+00 0. -1.
</event>
<event>
 5   0  0.7049044E-04  0.1710705E+04  0.7818609E-02  0.8755282E-01
       -2   -1    0    0    0  501  0.00000000000E+00  0.00000000000E+00  0.31362569876E+03  0.31362569877E+03  0.25500000920E-02 0. -1.
        2   -1    0    0  501    0  0.00000000000E+00  0.00000000000E+00 -0.23328063892E+04  0.23328063892E+04  0.25500000920E-02 0.  1.
    10030    2    1    2    0    0  0.00000000000E+00  0.00000000000E+00 -0.20191806904E+04  0.26464320880E+04  0.17107051574E+04 0.  0.
        4    1    3    3  502    0 -0.90476745086E+02 -0.81771115131E+03 -0.64748770466E+03  0.10469381591E+04  0.12699999809E+01 0. -1.
       -4    1    3    3    0  502  0.90476745086E+02  0.81771115131E+03 -0.13716929858E+04  0.15994939289E+04  0.12699999809E+01 0.  1.
</event>
<event>
 5   0  0.7242144E-04  0.1636590E+04  0.7818609E-02  0.8798379E-01
       -2   -1    0    0    0  501  0.00000000000E+00  0.00000000000E+00  0.27235836204E+03  0.27235836205E+03  0.25500000920E-02 0.  1.
        2   -1    0    0  501    0  0.00000000000E+00  0.00000000000E+00 -0.24585498250E+04  0.24585498250E+04  0.25500000920E-02 0. -1.
    10030    2    1    2    0    0  0.00000000000E+00  0.00000000000E+00 -0.21861914630E+04  0.27309081871E+04  0.16365898733E+04 0.  0.
        3    1    3    3  502    0  0.14738837558E+02  0.97489930854E+02  0.26241010586E+03  0.28032230344E+03  0.10100000352E+00 0.  1.
       -3    1    3    3    0  502 -0.14738837558E+02 -0.97489930854E+02 -0.24486015688E+04  0.24505858836E+04  0.10100000352E+00 0. -1.
</event>
<event>
 5   0  0.3713516E-04  0.1705728E+04  0.7818609E-02  0.8758104E-01
        1   -1    0    0  501    0  0.00000000000E+00  0.00000000000E+00  0.22199644233E+04  0.22199644233E+04  0.50400001928E-02 0.  1.
       -1   -1    0    0    0  501  0.00000000000E+00  0.00000000000E+00 -0.32765235986E+03  0.32765235990E+03  0.50400001928E-02 0. -1.
    10030    2    1    2    0    0  0.00000000000E+00  0.00000000000E+00  0.18923120634E+04  0.25476167832E+04  0.17057275071E+04 0.  0.
        5    1    3    3  502    0  0.75158549812E+03  0.34326410180E+03  0.12617316964E+04  0.15082108500E+04  0.46999998093E+01 0.  1.
       -5    1    3    3    0  502 -0.75158549812E+03 -0.34326410180E+03  0.63058036707E+03  0.10394059332E+04  0.46999998093E+01 0. -1.
</event>
<event>
 5   0  0.7233728E-04  0.1649915E+04  0.7818609E-02  0.8790457E-01
        2   -1    0    0  501    0  0.00000000000E+00  0.00000000000E+00  0.14144767776E+04  0.14144767776E+04  0.25500000920E-02 0.  1.
       -2   -1    0    0    0  501  0.00000000000E+00  0.00000000000E+00 -0.48113536023E+03  0.48113536024E+03  0.25500000920E-02 0. -1.
    10030    2    1    2    0    0  0.00000000000E+00  0.00000000000E+00  0.93334141734E+03  0.18956121378E+04  0.16499148995E+04 0.  0.
        1    1    3    3  502    0 -0.77662069459E+03 -0.19091862432E+03  0.23413196885E+03  0.83331110832E+03  0.50400001928E-02 0. -1.
       -1    1    3    3    0  502  0.77662069459E+03  0.19091862432E+03  0.69920944849E+03  0.10623010295E+04  0.50400001928E-02 0.  1.
</event>
<event>
 5   0  0.3635143E-04  0.1682603E+04  0.7818609E-02  0.8771349E-01
       -1   -1    0    0    0  501  0.00000000000E+00  0.00000000000E+00  0.77958402281E+03  0.77958402283E+03  0.50400001928E-02 0. -1.
        1   -1    0    0  501    0  0.00000000000E+00  0.00000000000E+00 -0.90790493219E+03  0.90790493220E+03  0.50400001928E-02 0.  1.
    10030    2    1    2    0    0  0.00000000000E+00  0.00000000000E+00 -0.12832090938E+03  0.16874889550E+04  0.16826029590E+04 0.  0.
        3    1    3    3  502    0  0.54308058352E+01 -0.47059600725E+03 -0.76353619758E+03  0.89692677009E+03  0.10100000352E+00 0.  1.
       -3    1    3    3    0  502 -0.54308058352E+01  0.47059600725E+03  0.63521528820E+03  0.79056218494E+03  0.10100000352E+00 0. -1.
</event>
<event>
 5   0  0.7049044E-04  0.1708713E+04  0.7818609E-02  0.8756411E-01
       -2   -1    0    0    0  501  0.00000000000E+00  0.00000000000E+00  0.42703157732E+03  0.42703157732E+03  0.25500000920E-02 0.  1.
        2   -1    0    0  501    0  0.00000000000E+00  0.00000000000E+00 -0.17092998924E+04  0.17092998924E+04  0.25500000920E-02 0. -1.
    10030    2    1    2    0    0  0.00000000000E+00  0.00000000000E+00 -0.12822683151E+04  0.21363314697E+04  0.17087130001E+04 0.  0.
        4    1    3    3  502    0 -0.40244147748E+03  0.43126627533E+03 -0.14138436189E+04  0.15319612053E+04  0.12699999809E+01 0. -1.
       -4    1    3    3    0  502  0.40244147748E+03 -0.43126627533E+03  0.13157530380E+03  0.60437026441E+03  0.12699999809E+01 0.  1.
</event>
<event>
 5   0  0.7049044E-04  0.1657533E+04  0.7818609E-02  0.8785962E-01
       -2   -1    0    0    0  501  0.00000000000E+00  0.00000000000E+00  0.43869931919E+03  0.43869931919E+03  0.25500000920E-02 0. -1.
        2   -1    0    0  501    0  0.00000000000E+00  0.00000000000E+00 -0.15656598338E+04  0.15656598338E+04  0.25500000920E-02 0.  1.
    10030    2    1    2    0    0  0.00000000000E+00  0.00000000000E+00 -0.11269605146E+04  0.20043591529E+04  0.16575329899E+04 0.  0.
        4    1    3    3  502    0  0.46979096657E+02 -0.31319235564E+03  0.36264137943E+03  0.48146325938E+03  0.12699999809E+01 0. -1.
       -4    1    3    3    0  502 -0.46979096657E+02  0.31319235564E+03 -0.14896018940E+04  0.15228958936E+04  0.12699999809E+01 0.  1.
</event>
<event>
 5   0  0.2639750E-04  0.1718272E+04  0.7818609E-02  0.8751011E-01
        3   -1    0    0  501    0  0.00000000000E+00  0.00000000000E+00  0.71411050581E+03  0.71411051296E+03  0.10100000352E+00 0. -1.
       -3   -1    0    0    0  501  0.00000000000E+00  0.00000000000E+00 -0.10336142453E+04  0.10336142503E+04  0.10100000352E+00 0.  1.
    10030    2    1    2    0    0  0.00000000000E+00  0.00000000000E+00 -0.31950373952E+03  0.17477247632E+04  0.17182721578E+04 0.  0.
        1    1    3    3  502    0  0.54774456524E+03 -0.55114331311E+01 -0.83295797124E+03  0.99693202703E+03  0.50400001928E-02 0.  1.
       -1    1    3    3    0  502 -0.54774456524E+03  0.55114331311E+01  0.51345423171E+03  0.75079273620E+03  0.50400001928E-02 0. -1.
</event>
<event>
 5   0  0.7049044E-04  0.1507215E+04  0.7818609E-02  0.8879669E-01
        2   -1    0    0  501    0  0.00000000000E+00  0.00000000000E+00  0.61145433097E+03  0.61145433098E+03  0.25500000920E-02 0. -1.
       -2   -1    0    0    0  501  0.00000000000E+00  0.00000000000E+00 -0.92880879282E+03  0.92880879283E+03  0.25500000920E-02 0.  1.
    10030    2    1    2    0    0  0.00000000000E+00  0.00000000000E+00 -0.31735446185E+03  0.15402631238E+04  0.15072148606E+04 0.  0.
        4    1    3    3  502    0 -0.67679836126E+03  0.59860804922E+02  0.17448217452E+03  0.70148769048E+03  0.12699999809E+01 0. -1.
       -4    1    3    3    0  502  0.67679836126E+03 -0.59860804922E+02 -0.49183663637E+03  0.83877543332E+03  0.12699999809E+01 0.  1.
</event>
<event>
 5   0  0.7233728E-04  0.1706472E+04  0.7818609E-02  0.8757682E-01
        2   -1    0    0  501    0  0.00000000000E+00  0.00000000000E+00  0.42547913422E+03  0.42547913423E+03  0.25500000920E-02 0.  1.
       -2   -1    0    0    0  501  0.00000000000E+00  0.00000000000E+00 -0.17110388017E+04  0.17110388017E+04  0.25500000920E-02 0. -1.
    10030    2    1    2    0    0  0.00000000000E+00  0.00000000000E+00 -0.12855596675E+04  0.21365179359E+04  0.17064715737E+04 0.  0.
        1    1    3    3  502    0 -0.55550139081E+03  0.54766366938E+03 -0.10755731718E+04  0.13286741278E+04  0.50400001928E-02 0. -1.
       -1    1    3    3    0  502  0.55550139081E+03 -0.54766366938E+03 -0.20998649568E+03  0.80784380813E+03  0.50400001928E-02 0.  1.
</event>
<event>
 5   0  0.3803253E-04  0.1814469E+04  0.7818609E-02  0.8698643E-01
       -1   -1    0    0    0  501  0.00000000000E+00  0.00000000000E+00  0.96340310506E+03  0.96340310507E+03  0.50400001928E-02 0.  1.
        1   -1    0    0  501    0  0.00000000000E+00  0.00000000000E+00 -0.85434030369E+03  0.85434030370E+03  0.50400001928E-02 0. -1.
    10030    2    1    2    0    0  0.00000000000E+00  0.00000000000E+00  0.10906280138E+03  0.18177434088E+04  0.18144686290E+04 0.  0.
        4    1    3    3  502    0  0.35923267942E+03 -0.71332334361E+03 -0.37658721826E+03  0.88300501491E+03  0.12699999809E+01 0. -1.
       -4    1    3    3    0  502 -0.35923267942E+03  0.71332334361E+03  0.48565001964E+03  0.93473839387E+03  0.12699999809E+01 0.  1.
</event>
<event>
 5   0  0.2639750E-04  0.1578060E+04  0.7818609E-02  0.8834141E-01
        3   -1    0    0  501    0  0.00000000000E+00  0.00000000000E+00  0.66076149442E+03  0.66076150214E+03  0.10100000352E+00 0.  1.
       -3   -1    0    0    0  501  0.00000000000E+00  0.00000000000E+00 -0.94219862383E+03  0.94219862924E+03  0.10100000352E+00 0. -1.
    10030    2    1    2    0    0  0.00000000000E+00  0.00000000000E+00 -0.28143712941E+03  0.16029601314E+04  0.15780603046E+04 0.  0.
        3    1    3    3  502    0 -0.38440601938E+03 -0.42205915161E+03  0.41254681248E+03  0.70434139299E+03  0.10100000352E+00 0.  1.
       -3    1    3    3    0  502  0.38440601938E+03  0.42205915161E+03 -0.69398394188E+03  0.89861873839E+03  0.10100000352E+00 0. -1.
</event>
<event>
 5   0  0.3713516E-04  0.1719103E+04  0.7818609E-02  0.8750543E-01
       -1   -1    0    0    0  501  0.00000000000E+00  0.00000000000E+00  0.62217419521E+03  0.62217419523E+03  0.50400001928E-02 0.  1.
        1   -1    0    0  501    0  0.00000000000E+00  0.00000000000E+00 -0.11874953443E+04  0.11874953443E+04  0.50400001928E-02 0. -1.
    10030    2    1    2    0    0  0.00000000000E+00  0.00000000000E+00 -0.56532114908E+03  0.18096695395E+04  0.17191032083E+04 0.  0.
        5    1    3    3  502    0 -0.21198812204E+03  0.48373540106E+03 -0.99652198472E+03  0.11278373367E+04  0.46999998093E+01 0. -1.
       -5    1    3    3    0  502  0.21198812204E+03 -0.48373540106E+03  0.43120083563E+03  0.68183220280E+03  0.46999998093E+01 0.  1.
</event>
<event>
 5   0  0.7049044E-04  0.1692336E+04  0.7818609E-02  0.8765748E-01
        2   -1    0    0  501    0  0.00000000000E+00  0.00000000000E+00  0.91374378096E+03  0.91374378096E+03  0.25500000920E-02 0.  1.
       -2   -1    0    0    0  501  0.00000000000E+00  0.00000000000E+00 -0.78358931292E+03  0.78358931292E+03  0.25500000920E-02 0. -1.
    10030    2    1    2    0    0  0.00000000000E+00  0.00000000000E+00  0.13015446804E+03  0.16973330939E+04  0.16923355004E+04 0.  0.
        4    1    3    3  502    0 -0.26241863216E+03 -0.54355671285E+03  0.65985530728E+03  0.89427516908E+03  0.12699999809E+01 0.  1.
       -4    1    3    3    0  502  0.26241863216E+03  0.54355671285E+03 -0.52970083924E+03  0.80305792480E+03  0.12699999809E+01 0. -1.
</event>
<event>
 5   0  0.7233728E-04  0.1676583E+04  0.7818609E-02  0.8774834E-01
        2   -1    0    0  501    0  0.00000000000E+00  0.00000000000E+00  0.12399718378E+04  0.12399718379E+04  0.25500000920E-02 0.  1.
       -2   -1    0    0    0  501  0.00000000000E+00  0.00000000000E+00 -0.56673288495E+03  0.56673288496E+03  0.25500000920E-02 0. -1.
    10030    2    1    2    0    0  0.00000000000E+00  0.00000000000E+00  0.67323895290E+03  0.18067047228E+04  0.16765832123E+04 0.  0.
        1    1    3    3  502    0 -0.60784966602E+03 -0.10709308219E+03  0.94790399018E+03  0.11311375334E+04  0.50400001928E-02 0.  1.
       -1    1    3    3    0  502  0.60784966602E+03  0.10709308219E+03 -0.27466503728E+03  0.67556718945E+03  0.50400001928E-02 0. -1.
</event>
<event>
 5   0  0.7025426E-04  0.1683143E+04  0.7818609E-02  0.8771037E-01
        2   -1    0    0  501    0  0.00000000000E+00  0.00000000000E+00  0.13829116757E+04  0.13829116758E+04  0.25500000920E-02 0. -1.
       -2   -1    0    0    0  501  0.00000000000E+00  0.00000000000E+00 -0.51213899600E+03  0.51213899600E+03  0.25500000920E-02 0.  1.
    10030    2    1    2    0    0  0.00000000000E+00  0.00000000000E+00  0.87077267975E+03  0.18950506718E+04  0.16831434843E+04 0.  0.
        2    1    3    3  502    0 -0.20704941226E+03  0.67747459929E+02  0.13506145267E+04  0.13680711887E+04  0.25500000920E-02 0. -1.
       -2    1    3    3    0  502  0.20704941226E+03 -0.67747459929E+02 -0.47984184700E+03  0.52697948307E+03  0.25500000920E-02 0.  1.
</event>
<event>
 5   0  0.6746664E-04  0.1872551E+04  0.7818609E-02  0.8668641E-01
       -2   -1    0    0    0  501  0.00000000000E+00  0.00000000000E+00  0.45190584816E+03  0.45190584816E+03  0.25500000920E-02 0. -1.
        2   -1    0    0  501    0  0.00000000000E+00  0.00000000000E+00 -0.19398113691E+04  0.19398113691E+04  0.25500000920E-02 0.  1.
    10030    2    1    2    0    0  0.00000000000E+00  0.00000000000E+00 -0.14879055209E+04  0.23917172173E+04  0.18725513099E+04 0.  0.
        5    1    3    3  502    0 -0.76892817047E+03  0.23129724378E+03 -0.12895818450E+03  0.81326579275E+03  0.46999998093E+01 0.  1.
       -5    1    3    3    0  502  0.76892817047E+03 -0.23129724378E+03 -0.13589473364E+04  0.15784514245E+04  0.46999998093E+01 0. -1.
</event>
<event>
 5   0  0.7025426E-04  0.2218660E+04  0.7818609E-02  0.8510701E-01
       -2   -1    0    0    0  501  0.00000000000E+00  0.00000000000E+00  0.19096209613E+04  0.19096209613E+04  0.25500000920E-02 0. -1.
        2   -1    0    0  501    0  0.00000000000E+00  0.00000000000E+00 -0.64442812595E+03  0.64442812595E+03  0.25500000920E-02 0.  1.
    10030    2    1    2    0    0  0.00000000000E+00  0.00000000000E+00  0.12651928354E+04  0.25540490873E+04  0.22186603682E+04 0.  0.
        2    1    3    3  502    0 -0.35873160952E+03  0.44201692241E+03 -0.46346115850E+03  0.73407327482E+03  0.25500000920E-02 0.  1.
       -2    1    3    3    0  502  0.35873160952E+03 -0.44201692241E+03  0.17286539939E+04  0.18199758125E+04  0.25500000920E-02 0. -1.
</event>
<event>
 5   0  0.3635143E-04  0.1629280E+04  0.7818609E-02  0.8802759E-01
       -1   -1    0    0    0  501  0.00000000000E+00  0.00000000000E+00  0.74223419054E+03  0.74223419056E+03  0.50400001928E-02 0. -1.
        1   -1    0    0  501    0  0.00000000000E+00  0.00000000000E+00 -0.89410945468E+03  0.89410945469E+03  0.50400001928E-02 0.  1.
    10030    2    1    2    0    0  0.00000000000E+00  0.00000000000E+00 -0.15187526414E+03  0.16363436452E+04  0.16292803410E+04 0.  0.
        3    1    3    3  502    0 -0.24952155540E+03 -0.56571453985E+03 -0.60865643678E+03  0.86761547672E+03  0.10100000352E+00 0.  1.
       -3    1    3    3    0  502  0.24952155540E+03  0.56571453985E+03  0.45678117264E+03  0.76872816853E+03  0.10100000352E+00 0. -1.
</event>
<event>
 5   0  0.7233728E-04  0.1702046E+04  0.7818609E-02  0.8760198E-01
        2   -1    0    0  501    0  0.00000000000E+00  0.00000000000E+00  0.73243949219E+03  0.73243949220E+03  0.25500000920E-02 0.  1.
       -2   -1    0    0    0  501  0.00000000000E+00  0.00000000000E+00 -0.98880535583E+03  0.98880535583E+03  0.25500000920E-02 0. -1.
    10030    2    1    2    0    0  0.00000000000E+00  0.00000000000E+00 -0.25636586364E+03  0.17212448480E+04  0.17020459368E+04 0.  0.
        1    1    3    3  502    0 -0.16998571832E+03  0.56251117844E+03  0.49433038893E+03  0.76790396779E+03  0.50400001928E-02 0.  1.
       -1    1    3    3    0  502  0.16998571832E+03 -0.56251117844E+03 -0.75069625256E+03  0.95334088024E+03  0.50400001928E-02 0. -1.
</event>
<event>
 5   0  0.3915701E-04  0.1205726E+04  0.7818609E-02  0.9107859E-01
       -1   -1    0    0    0  501  0.00000000000E+00  0.00000000000E+00  0.10176863538E+04  0.10176863538E+04  0.50400001928E-02 0. -1.
        1   -1    0    0  501    0  0.00000000000E+00  0.00000000000E+00 -0.35712774780E+03  0.35712774784E+03  0.50400001928E-02 0.  1.
    10030    2    1    2    0    0  0.00000000000E+00  0.00000000000E+00  0.66055860601E+03  0.13748141017E+04  0.12057263961E+04 0.  0.
        2    1    3    3  502    0 -0.89179394665E+02  0.14594733139E+03  0.98944139801E+03  0.10041154655E+04  0.25500000920E-02 0. -1.
       -2    1    3    3    0  502  0.89179394665E+02 -0.14594733139E+03 -0.32888279200E+03  0.37069863616E+03  0.25500000920E-02 0.  1.
</event>
<event>
 5   0  0.3803253E-04  0.1367460E+04  0.7818609E-02  0.8977716E-01
       -1   -1    0    0    0  501  0.00000000000E+00  0.00000000000E+00  0.20881407513E+03  0.20881407519E+03  0.50400001928E-02 0.  1.
        1   -1    0    0  501    0  0.00000000000E+00  0.00000000000E+00 -0.22387693202E+04  0.22387693203E+04  0.50400001928E-02 0. -1.
    10030    2    1    2    0    0  0.00000000000E+00  0.00000000000E+00 -0.20299552451E+04  0.24475833954E+04  0.13674597546E+04 0.  0.
        4    1    3    3  502    0 -0.45224214527E+03 -0.20765111835E+03 -0.17575099872E+03  0.52776128256E+03  0.12699999809E+01 0.  1.
       -4    1    3    3    0  502  0.45224214527E+03  0.20765111835E+03 -0.18542042464E+04  0.19198221129E+04  0.12699999809E+01 0. -1.
</event>
<event>
 5   0  0.7242144E-04  0.1670197E+04  0.7818609E-02  0.8778547E-01
        2   -1    0    0  501    0  0.00000000000E+00  0.00000000000E+00  0.22828513599E+04  0.22828513599E+04  0.25500000920E-02 0. -1.
       -2   -1    0    0    0  501  0.00000000000E+00  0.00000000000E+00 -0.30549068410E+03  0.30549068411E+03  0.25500000920E-02 0.  1.
    10030    2    1    2    0    0  0.00000000000E+00  0.00000000000E+00  0.19773606758E+04  0.25883420441E+04  0.16701973819E+04 0.  0.
        3    1    3    3  502    0 -0.59235853262E+03 -0.90210939118E+02  0.18901381570E+04  0.19828385984E+04  0.10100000352E+00 0. -1.
       -3    1    3    3    0  502  0.59235853262E+03  0.90210939118E+02  0.87222518894E+02  0.60550344566E+03  0.10100000352E+00 0.  1.
</event>
<event>
 5   0  0.6746664E-04  0.1938744E+04  0.7818609E-02  0.8635808E-01
       -2   -1    0    0    0  501  0.00000000000E+00  0.00000000000E+00  0.33911743514E+04  0.33911743514E+04  0.25500000920E-02 0.  1.
        2   -1    0    0  501    0  0.00000000000E+00  0.00000000000E+00 -0.27709647909E+03  0.27709647910E+03  0.25500000920E-02 0. -1.
    10030    2    1    2    0    0  0.00000000000E+00  0.00000000000E+00  0.31140778723E+04  0.36682708305E+04  0.19387444110E+04 0.  0.
        5    1    3    3  502    0 -0.11988602887E+03 -0.75837756126E+03  0.26766537640E+04  0.27846017036E+04  0.46999998093E+01 0.  1.
       -5    1    3    3    0  502  0.11988602887E+03  0.75837756126E+03  0.43742410835E+03  0.88366912694E+03  0.46999998093E+01 0. -1.
</event>
<event>
 5   0  0.2639750E-04  0.1705423E+04  0.7818609E-02  0.8758277E-01
       -3   -1    0    0    0  501  0.00000000000E+00  0.00000000000E+00  0.51344278920E+03  0.51344279914E+03  0.10100000352E+00 0. -1.
        3   -1    0    0  501    0  0.00000000000E+00  0.00000000000E+00 -0.14161598715E+04  0.14161598751E+04  0.10100000352E+00 0.  1.
    10030    2    1    2    0    0  0.00000000000E+00  0.00000000000E+00 -0.90271708232E+03  0.19296026743E+04  0.17054232172E+04 0.  0.
        1    1    3    3  502    0 -0.85038121102E+03  0.31724847718E+02 -0.38977582407E+03  0.93599137981E+03  0.50400001928E-02 0.  1.
       -1    1    3    3    0  502  0.85038121102E+03 -0.31724847718E+02 -0.51294125825E+03  0.99361129445E+03  0.50400001928E-02 0. -1.
</event>
<event>
 5   0  0.6746664E-04  0.1732432E+04  0.7818609E-02  0.8743080E-01
        2   -1    0    0  501    0  0.00000000000E+00  0.00000000000E+00  0.13764262420E+04  0.13764262420E+04  0.25500000920E-02 0. -1.
       -2   -1    0    0    0  501  0.00000000000E+00  0.00000000000E+00 -0.54512916733E+03  0.54512916733E+03  0.25500000920E-02 0.  1.
    10030    2    1    2    0    0  0.00000000000E+00  0.00000000000E+00  0.83129707463E+03  0.19215554093E+04  0.17324319221E+04 0.  0.
        5    1    3    3  502    0  0.61054697224E+03 -0.55128167815E+03  0.11468012867E+03  0.83057372694E+03  0.46999998093E+01 0.  1.
       -5    1    3    3    0  502 -0.61054697224E+03  0.55128167815E+03  0.71661694596E+03  0.10909816823E+04  0.46999998093E+01 0. -1.
</event>
<event>
 5   0  0.7233728E-04  0.1706147E+04  0.7818609E-02  0.8757866E-01
        2   -1    0    0  501    0  0.00000000000E+00  0.00000000000E+00  0.61269892504E+03  0.61269892504E+03  0.25500000920E-02 0.  1.
       -2   -1    0    0    0  501  0.00000000000E+00  0.00000000000E+00 -0.11877527332E+04  0.11877527332E+04  0.25500000920E-02 0. -1.
    10030    2    1    2    0    0  0.00000000000E+00  0.00000000000E+00 -0.57505380819E+03  0.18004516583E+04  0.17061474999E+04 0.  0.
        1    1    3    3  502    0 -0.12575261798E+03 -0.73027442022E+03  0.15846850383E+03  0.75777748481E+03  0.50400001928E-02 0.  1.
       -1    1    3    3    0  502  0.12575261798E+03  0.73027442022E+03 -0.73352231203E+03  0.10426741735E+04  0.50400001928E-02 0. -1.
</event>
<event>
 5   0  0.3803253E-04  0.1710234E+04  0.7818609E-02  0.8755549E-01
        1   -1    0    0  501    0  0.00000000000E+00  0.00000000000E+00  0.81993451993E+03  0.81993451995E+03  0.50400001928E-02 0.  1.
       -1   -1    0    0    0  501  0.00000000000E+00  0.00000000000E+00 -0.89180893105E+03  0.89180893107E+03  0.50400001928E-02 0. -1.
    10030    2    1    2    0    0  0.00000000000E+00  0.00000000000E+00 -0.71874411125E+02  0.17117434510E+04  0.17102338177E+04 0.  0.
        4    1    3    3  502    0  0.42042195760E+03 -0.38914581832E+03  0.59947294534E+03  0.82919148298E+03  0.12699999809E+01 0.  1.
       -4    1    3    3    0  502 -0.42042195760E+03  0.38914581832E+03 -0.67134735646E+03  0.88255196804E+03  0.12699999809E+01 0. -1.
</event>
<event>
 5   0  0.3713516E-04  0.1563835E+04  0.7818609E-02  0.8843079E-01
        1   -1    0    0  501    0  0.00000000000E+00  0.00000000000E+00  0.68447949828E+03  0.68447949830E+03  0.50400001928E-02 0.  1.
       -1   -1    0    0    0  501  0.00000000000E+00  0.00000000000E+00 -0.89322670352E+03  0.89322670354E+03  0.50400001928E-02 0. -1.
    10030    2    1    2    0    0  0.00000000000E+00  0.00000000000E+00 -0.20874720524E+03  0.15777062018E+04  0.15638354976E+04 0.  0.
        5    1    3    3  502    0  0.40702592825E+03  0.26141138715E+03 -0.72412451223E+03  0.87085269639E+03  0.46999998093E+01 0. -1.
       -5    1    3    3    0  502 -0.40702592825E+03 -0.26141138715E+03  0.51537730699E+03  0.70685350545E+03  0.46999998093E+01 0.  1.
</event>
<event>
 5   0  0.6746664E-04  0.1770152E+04  0.7818609E-02  0.8722335E-01
        2   -1    0    0  501    0  0.00000000000E+00  0.00000000000E+00  0.21205762869E+04  0.21205762869E+04  0.25500000920E-02 0. -1.
       -2   -1    0    0    0  501  0.00000000000E+00  0.00000000000E+00 -0.36940878408E+03  0.36940878409E+03  0.25500000920E-02 0.  1.
    10030    2    1    2    0    0  0.00000000000E+00  0.00000000000E+00  0.17511675029E+04  0.24899850710E+04  0.17701519796E+04 0.  0.
        5    1    3    3  502    0 -0.84494231296E+03 -0.24980404692E+03  0.75782901358E+03  0.11621774726E+04  0.46999998093E+01 0. -1.
       -5    1    3    3    0  502  0.84494231296E+03  0.24980404692E+03  0.99333848928E+03  0.13278075984E+04  0.46999998093E+01 0.  1.
</event>
<event>
 5   0  0.7025426E-04  0.1717315E+04  0.7818609E-02  0.8751550E-01
       -2   -1    0    0    0  501  0.00000000000E+00  0.00000000000E+00  0.48135002059E+03  0.48135002059E+03  0.25500000920E-02 0.  1.
        2   -1    0    0  501    0  0.00000000000E+00  0.00000000000E+00 -0.15317192189E+04  0.15317192189E+04  0.25500000920E-02 0. -1.
    10030    2    1    2    0    0  0.00000000000E+00  0.00000000000E+00 -0.10503691983E+04  0.20130692394E+04  0.17173154370E+04 0.  0.
        2    1    3    3  502    0 -0.44488733368E+03 -0.38545186178E+03 -0.12579808679E+04  0.13888893913E+04  0.25500000920E-02 0. -1.
       -2    1    3    3    0  502  0.44488733368E+03  0.38545186178E+03  0.20761166961E+03  0.62417984811E+03  0.25500000920E-02 0.  1.
</event>
<event>
 5   0  0.7242144E-04  0.1695361E+04  0.7818609E-02  0.8764015E-01
       -2   -1    0    0    0  501  0.00000000000E+00  0.00000000000E+00  0.44684216619E+03  0.44684216620E+03  0.25500000920E-02 0.  1.
        2   -1    0    0  501    0  0.00000000000E+00  0.00000000000E+00 -0.16080887693E+04  0.16080887693E+04  0.25500000920E-02 0. -1.
    10030    2    1    2    0    0  0.00000000000E+00  0.00000000000E+00 -0.11612466031E+04  0.20549309355E+04  0.16953605742E+04 0.  0.
        3    1    3    3  502    0  0.59158047875E+03 -0.49263972184E+03 -0.10107029372E+04  0.12705045438E+04  0.10100000352E+00 0. -1.
       -3    1    3    3    0  502 -0.59158047875E+03  0.49263972184E+03 -0.15054366584E+03  0.78442639164E+03  0.10100000352E+00 0.  1.
</event>
<event>
 5   0  0.3723500E-04  0.1690741E+04  0.7818609E-02  0.8766663E-01
       -1   -1    0    0    0  501  0.00000000000E+00  0.00000000000E+00  0.42959230107E+03  0.42959230110E+03  0.50400001928E-02 0.  1.
        1   -1    0    0  501    0  0.00000000000E+00  0.00000000000E+00 -0.16635579642E+04  0.16635579642E+04  0.50400001928E-02 0. -1.
    10030    2    1    2    0    0  0.00000000000E+00  0.00000000000E+00 -0.12339656631E+04  0.20931502653E+04  0.16907414869E+04 0.  0.
        1    1    3    3  502    0 -0.12452758671E+03  0.20456479122E+03 -0.16206836856E+04  0.16382824795E+04  0.50400001928E-02 0. -1.
       -1    1    3    3    0  502  0.12452758671E+03 -0.20456479122E+03  0.38671802248E+03  0.45486778584E+03  0.50400001928E-02 0.  1.
</event>
<event>
 5   0  0.7242144E-04  0.1789032E+04  0.7818609E-02  0.8712154E-01
        2   -1    0    0  501    0  0.00000000000E+00  0.00000000000E+00  0.20961524672E+04  0.20961524672E+04  0.25500000920E-02 0.  1.
       -2   -1    0    0    0  501  0.00000000000E+00  0.00000000000E+00 -0.38172733209E+03  0.38172733210E+03  0.25500000920E-02 0. -1.
    10030    2    1    2    0    0  0.00000000000E+00  0.00000000000E+00  0.17144251351E+04  0.24778797993E+04  0.17890317929E+04 0.  0.
        3    1    3    3  502    0 -0.13726906229E+03  0.88228645451E+03  0.78279977237E+03  0.11874542842E+04  0.10100000352E+00 0. -1.
       -3    1    3    3    0  502  0.13726906229E+03 -0.88228645451E+03  0.93162536272E+03  0.12904255151E+04  0.10100000352E+00 0.  1.
</event>
<event>
 5   0  0.6746664E-04  0.1693665E+04  0.7818609E-02  0.8764986E-01
       -2   -1    0    0    0  501  0.00000000000E+00  0.00000000000E+00  0.76600690112E+03  0.76600690112E+03  0.25500000920E-02 0. -1.
        2   -1    0    0  501    0  0.00000000000E+00  0.00000000000E+00 -0.93618598894E+03  0.93618598894E+03  0.25500000920E-02 0.  1.
    10030    2    1    2    0    0  0.00000000000E+00  0.00000000000E+00 -0.17017908782E+03  0.17021928901E+04  0.16936645810E+04 0.  0.
        5    1    3    3  502    0  0.49576927973E+03 -0.67062280035E+03  0.62553953303E+02  0.83633558225E+03  0.46999998093E+01 0.  1.
       -5    1    3    3    0  502 -0.49576927973E+03  0.67062280035E+03 -0.23273304112E+03  0.86585730781E+03  0.46999998093E+01 0. -1.
</event>
<event>
 5   0  0.3723500E-04  0.1690540E+04  0.7818609E-02  0.8766778E-01
       -1   -1    0    0    0  501  0.00000000000E+00  0.00000000000E+00  0.70660294663E+03  0.70660294665E+03  0.50400001928E-02 0. -1.
        1   -1    0    0  501    0  0.00000000000E+00  0.00000000000E+00 -0.10111498005E+04  0.10111498005E+04  0.50400001928E-02 0.  1.
    10030    2    1    2    0    0  0.00000000000E+00  0.00000000000E+00 -0.30454685382E+03  0.17177527471E+04  0.16905400658E+04 0.  0.
        1    1    3    3  502    0  0.52148410389E+03  0.16671722496E+03 -0.80664395986E+03  0.97489218979E+03  0.50400001928E-02 0.  1.
       -1    1    3    3    0  502 -0.52148410389E+03 -0.16671722496E+03  0.50209710604E+03  0.74286055732E+03  0.50400001928E-02 0. -1.
</event>
<event>
 5   0  0.3915701E-04  0.1233419E+04  0.7818609E-02  0.9084098E-01
        1   -1    0    0  501    0  0.00000000000E+00  0.00000000000E+00  0.99827128119E+03  0.99827128120E+03  0.50400001928E-02 0.  1.
       -1   -1    0    0    0  501  0.00000000000E+00  0.00000000000E+00 -0.38098906503E+03  0.38098906506E+03  0.50400001928E-02 0. -1.
    10030    2    1    2    0    0  0.00000000000E+00  0.00000000000E+00  0.61728221616E+03  0.13792603463E+04  0.12334187320E+04 0.  0.
        2    1    3    3  502    0  0.28359855693E+03 -0.21219662244E+03  0.87318698473E+03  0.94229032595E+03  0.25500000920E-02 0.  1.
       -2    1    3    3    0  502 -0.28359855693E+03  0.21219662244E+03 -0.25590476857E+03  0.43697002031E+03  0.25500000920E-02 0. -1.
</event>
<event>
 5   0  0.7049044E-04  0.1671292E+04  0.7818609E-02  0.8777909E-01
       -2   -1    0    0    0  501  0.00000000000E+00  0.00000000000E+00  0.54470657777E+03  0.54470657777E+03  0.25500000920E-02 0.  1.
        2   -1    0    0  501    0  0.00000000000E+00  0.00000000000E+00 -0.12819819626E+04  0.12819819626E+04  0.25500000920E-02 0. -1.
    10030    2    1    2    0    0  0.00000000000E+00  0.00000000000E+00 -0.73727538482E+03  0.18266885404E+04  0.16712917251E+04 0.  0.
        4    1    3    3  502    0  0.22584560411E+03 -0.80063643375E+03 -0.28204042745E+03  0.87839248150E+03  0.12699999809E+01 0. -1.
       -4    1    3    3    0  502 -0.22584560411E+03  0.80063643375E+03 -0.45523495737E+03  0.94829605886E+03  0.12699999809E+01 0.  1.
</event>
<event>
 5   0  0.7049044E-04  0.1736942E+04  0.7818609E-02  0.8740571E-01
        2   -1    0    0  501    0  0.00000000000E+00  0.00000000000E+00  0.11489546458E+04  0.11489546458E+04  0.25500000920E-02 0.  1.
       -2   -1    0    0    0  501  0.00000000000E+00  0.00000000000E+00 -0.65645957493E+03  0.65645957494E+03  0.25500000920E-02 0. -1.
    10030    2    1    2    0    0  0.00000000000E+00  0.00000000000E+00  0.49249507090E+03  0.18054142208E+04  0.17369424613E+04 0.  0.
        4    1    3    3  502    0  0.80971107216E+03  0.38268041798E+02 -0.77718789799E+02  0.81433303175E+03  0.12699999809E+01 0.  1.
       -4    1    3    3    0  502 -0.80971107216E+03 -0.38268041798E+02  0.57021386070E+03  0.99108118902E+03  0.12699999809E+01 0. -1.
</event>
<event>
 5   0  0.7025426E-04  0.1701990E+04  0.7818609E-02  0.8760230E-01
       -2   -1    0    0    0  501  0.00000000000E+00  0.00000000000E+00  0.89966451184E+03  0.89966451184E+03  0.25500000920E-02 0.  1.
        2   -1    0    0  501    0  0.00000000000E+00  0.00000000000E+00 -0.80495833414E+03  0.80495833414E+03  0.25500000920E-02 0. -1.
    10030    2    1    2    0    0  0.00000000000E+00  0.00000000000E+00  0.94706177699E+02  0.17046228460E+04  0.17019899491E+04 0.  0.
        2    1    3    3  502    0 -0.77776119009E+02 -0.75012550004E+03 -0.34753473229E+03  0.83037207362E+03  0.25500000920E-02 0. -1.
       -2    1    3    3    0  502  0.77776119009E+02  0.75012550004E+03  0.44224090999E+03  0.87425077236E+03  0.25500000920E-02 0.  1.
</event>
<event>
 5   0  0.7233728E-04  0.1715314E+04  0.7818609E-02  0.8752678E-01
       -2   -1    0    0    0  501  0.00000000000E+00  0.00000000000E+00  0.69837109668E+03  0.69837109668E+03  0.25500000920E-02 0. -1.
        2   -1    0    0  501    0  0.00000000000E+00  0.00000000000E+00 -0.10532731167E+04  0.10532731167E+04  0.25500000920E-02 0.  1.
    10030    2    1    2    0    0  0.00000000000E+00  0.00000000000E+00 -0.35490201998E+03  0.17516442133E+04  0.17153139673E+04 0.  0.
        1    1    3    3  502    0 -0.24052131617E+03  0.64148649249E+03 -0.70434431218E+03  0.98257637551E+03  0.50400001928E-02 0.  1.
       -1    1    3    3    0  502  0.24052131617E+03 -0.64148649249E+03  0.34944229220E+03  0.76906783783E+03  0.50400001928E-02 0. -1.
</event>
<event>
 5   0  0.7049044E-04  0.1728656E+04  0.7818609E-02  0.8745187E-01
       -2   -1    0    0    0  501  0.00000000000E+00  0.00000000000E+00  0.13377122940E+04  0.13377122940E+04  0.25500000920E-02 0.  1.
        2   -1    0    0  501    0  0.00000000000E+00  0.00000000000E+00 -0.55846323355E+03  0.55846323356E+03  0.25500000920E-02 0. -1.
    10030    2    1    2    0    0  0.00000000000E+00  0.00000000000E+00  0.77924906041E+03  0.18961755275E+04  0.17286562796E+04 0.  0.
        4    1    3    3  502    0  0.75233582344E+03 -0.28202181461E+03  0.73911649193E+03  0.10917143842E+04  0.12699999809E+01 0. -1.
       -4    1    3    3    0  502 -0.75233582344E+03  0.28202181461E+03  0.40132568477E+02  0.80446114331E+03  0.12699999809E+01 0.  1.
</event>
<event>
 5   0  0.7242144E-04  0.1777481E+04  0.7818609E-02  0.8718367E-01
        2   -1    0    0  501    0  0.00000000000E+00  0.00000000000E+00  0.88673222736E+03  0.88673222736E+03  0.25500000920E-02 0.  1.
       -2   -1    0    0    0  501  0.00000000000E+00  0.00000000000E+00 -0.89075355782E+03  0.89075355782E+03  0.25500000920E-02 0. -1.
    10030    2    1    2    0    0  0.00000000000E+00  0.00000000000E+00 -0.40213304593E+01  0.17774857852E+04  0.17774812363E+04 0.  0.
        3    1    3    3  502    0 -0.49516277704E+03 -0.23520937321E+03 -0.70154819517E+03  0.89032550529E+03  0.10100000352E+00 0. -1.
       -3    1    3    3    0  502  0.49516277704E+03  0.23520937321E+03  0.69752686471E+03  0.88716027989E+03  0.10100000352E+00 0.  1.
</event>
<event>
 5   0  0.3635143E-04  0.1702109E+04  0.7818609E-02  0.8760162E-01
        1   -1    0    0  501    0  0.00000000000E+00  0.00000000000E+00  0.86953159233E+03  0.86953159235E+03  0.50400001928E-02 0.  1.
       -1   -1    0    0    0  501  0.00000000000E+00  0.00000000000E+00 -0.83297033692E+03  0.83297033694E+03  0.50400001928E-02 0. -1.
    10030    2    1    2    0    0  0.00000000000E+00  0.00000000000E+00  0.36561255414E+02  0.17025019293E+04  0.17021093072E+04 0.  0.
        3    1    3    3  502    0 -0.40221640661E+03 -0.74920115018E+03  0.53125598929E+02  0.85199926094E+03  0.10100000352E+00 0.  1.
       -3    1    3    3    0  502  0.40221640661E+03  0.74920115018E+03 -0.16564343515E+02  0.85050266834E+03  0.10100000352E+00 0. -1.
</event>
<event>
 5   0  0.3635143E-04  0.1691079E+04  0.7818609E-02  0.8766468E-01
        1   -1    0    0  501    0  0.00000000000E+00  0.00000000000E+00  0.17209549848E+04  0.17209549848E+04  0.50400001928E-02 0. -1.
       -1   -1    0    0    0  501  0.00000000000E+00  0.00000000000E+00 -0.41543065090E+03  0.41543065093E+03  0.50400001928E-02 0.  1.
    10030    2    1    2    0    0  0.00000000000E+00  0.00000000000E+00  0.13055243339E+04  0.21363856358E+04  0.16910794772E+04 0.  0.
        3    1    3    3  502    0 -0.20330199929E+03  0.41514777945E+03 -0.24166774304E+03  0.52161546174E+03  0.10100000352E+00 0. -1.
       -3    1    3    3    0  502  0.20330199929E+03 -0.41514777945E+03  0.15471920770E+04  0.16147701740E+04  0.10100000352E+00 0.  1.
</event>
<event>
 5   0  0.3803253E-04  0.1602809E+04  0.7818609E-02  0.8818824E-01
        1   -1    0    0  501    0  0.00000000000E+00  0.00000000000E+00  0.13655892425E+04  0.13655892425E+04  0.50400001928E-02 0. -1.
       -1   -1    0    0    0  501  0.00000000000E+00  0.00000000000E+00 -0.47030913665E+03  0.47030913667E+03  0.50400001928E-02 0.  1.
    10030    2    1    2    0    0  0.00000000000E+00  0.00000000000E+00  0.89528010581E+03  0.18358983791E+04  0.16028089065E+04 0.  0.
        4    1    3    3  502    0 -0.43924185953E+03 -0.18488992472E+03 -0.29036415982E+03  0.55805972229E+03  0.12699999809E+01 0.  1.
       -4    1    3    3    0  502  0.43924185953E+03  0.18488992472E+03  0.11856442656E+04  0.12778386569E+04  0.12699999809E+01 0. -1.
</event>
<event>
 5   0  0.3723500E-04  0.1772969E+04  0.7818609E-02  0.8720808E-01
        1   -1    0    0  501    0  0.00000000000E+00  0.00000000000E+00  0.15389856522E+04  0.15389856523E+04  0.50400001928E-02 0.  1.
       -1   -1    0    0    0  501  0.00000000000E+00  0.00000000000E+00 -0.51063185828E+03  0.51063185830E+03  0.50400001928E-02 0. -1.
    10030    2    1    2    0    0  0.00000000000E+00  0.00000000000E+00  0.10283537940E+04  0.20496175106E+04  0.17729693776E+04 0.  0.
        1    1    3    3  502    0  0.49747981274E+03  0.53591380014E+03 -0.65187015848E+02  0.73412472531E+03  0.50400001928E-02 0. -1.
       -1    1    3    3    0  502 -0.49747981274E+03 -0.53591380014E+03  0.10935408098E+04  0.13154927852E+04  0.50400001928E-02 0.  1.
</event>
<event>
 5   0  0.7233728E-04  0.1720463E+04  0.7818609E-02  0.8749779E-01
        2   -1    0    0  501    0  0.00000000000E+00  0.00000000000E+00  0.17058196877E+04  0.17058196877E+04  0.25500000920E-02 0. -1.
       -2   -1    0    0    0  501  0.00000000000E+00  0.00000000000E+00 -0.43380820039E+03  0.43380820040E+03  0.25500000920E-02 0.  1.
    10030    2    1    2    0    0  0.00000000000E+00  0.00000000000E+00  0.12720114873E+04  0.21396278881E+04  0.17204633898E+04 0.  0.
        1    1    3    3  502    0 -0.21364909924E+03 -0.25747834329E+02  0.16718046096E+04  0.16855976808E+04  0.50400001928E-02 0. -1.
       -1    1    3    3    0  502  0.21364909924E+03  0.25747834329E+02 -0.39979312228E+03  0.45403020739E+03  0.50400001928E-02 0.  1.
</event>
<event>
 5   0  0.7049044E-04  0.1744605E+04  0.7818609E-02  0.8736326E-01
        2   -1    0    0  501    0  0.00000000000E+00  0.00000000000E+00  0.10914739019E+04  0.10914739019E+04  0.25500000920E-02 0. -1.
       -2   -1    0    0    0  501  0.00000000000E+00  0.00000000000E+00 -0.69714137144E+03  0.69714137144E+03  0.25500000920E-02 0.  1.
    10030    2    1    2    0    0  0.00000000000E+00  0.00000000000E+00  0.39433253046E+03  0.17886152734E+04  0.17446049557E+04 0.  0.
        4    1    3    3  502    0 -0.90866824068E+02 -0.14259097373E+02 -0.69215489747E+03  0.69824072966E+03  0.12699999809E+01 0.  1.
       -4    1    3    3    0  502  0.90866824068E+02  0.14259097373E+02  0.10864874279E+04  0.10903745437E+04  0.12699999809E+01 0. -1.
</event>
<event>
 5   0  0.7025426E-04  0.1677778E+04  0.7818609E-02  0.8774141E-01
        2   -1    0    0  501    0  0.00000000000E+00  0.00000000000E+00  0.71764172015E+03  0.71764172015E+03  0.25500000920E-02 0.  1.
       -2   -1    0    0    0  501  0.00000000000E+00  0.00000000000E+00 -0.98062078543E+03  0.98062078543E+03  0.25500000920E-02 0. -1.
    10030    2    1    2    0    0  0.00000000000E+00  0.00000000000E+00 -0.26297906528E+03  0.16982625056E+04  0.16777775625E+04 0.  0.
        2    1    3    3  502    0  0.82695742864E+03  0.65135810532E+02 -0.49304451426E+01  0.82953334586E+03  0.25500000920E-02 0.  1.
       -2    1    3    3    0  502 -0.82695742864E+03 -0.65135810532E+02 -0.25804862014E+03  0.86872915972E+03  0.25500000920E-02 0. -1.
</event>
<event>
 5   0  0.3713516E-04  0.1661199E+04  0.7818609E-02  0.8783809E-01
        1   -1    0    0  501    0  0.00000000000E+00  0.00000000000E+00  0.50863008650E+03  0.50863008653E+03  0.50400001928E-02 0.  1.
       -1   -1    0    0    0  501  0.00000000000E+00  0.00000000000E+00 -0.13563802946E+04  0.13563802946E+04  0.50400001928E-02 0. -1.
    10030    2    1    2    0    0  0.00000000000E+00  0.00000000000E+00 -0.84775020811E+03  0.18650103811E+04  0.16611993578E+04 0.  0.
        5    1    3    3  502    0 -0.72607806024E+03  0.32462075931E+03 -0.15511883829E+03  0.81034062648E+03  0.46999998093E+01 0.  1.
       -5    1    3    3    0  502  0.72607806024E+03 -0.32462075931E+03 -0.69263136982E+03  0.10546697547E+04  0.46999998093E+01 0. -1.
</event>
<event>
 5   0  0.3635143E-04  0.1737522E+04  0.7818609E-02  0.8740249E-01
        1   -1    0    0  501    0  0.00000000000E+00  0.00000000000E+00  0.13107696808E+04  0.13107696808E+04  0.50400001928E-02 0.  1.
       -1   -1    0    0    0  501  0.00000000000E+00  0.00000000000E+00 -0.57580353278E+03  0.57580353281E+03  0.50400001928E-02 0. -1.
    10030    2    1    2    0    0  0.00000000000E+00  0.00000000000E+00  0.73496614798E+03  0.18865732136E+04  0.17375221586E+04 0.  0.
        3    1    3    3  502    0 -0.21138726840E+03 -0.91820560220E+02  0.12769720768E+04  0.12976029006E+04  0.10100000352E+00 0.  1.
       -3    1    3    3    0  502  0.21138726840E+03  0.91820560220E+02 -0.54200592881E+03  0.58897031299E+03  0.10100000352E+00 0. -1.
</event>
<event>
 5   0  0.7233728E-04  0.1690046E+04  0.7818609E-02  0.8767062E-01
       -2   -1    0    0    0  501  0.00000000000E+00  0.00000000000E+00  0.95194674694E+03  0.95194674694E+03  0.25500000920E-02 0.  1.
        2   -1    0    0  501    0  0.00000000000E+00  0.00000000000E+00 -0.75010871612E+03  0.75010871612E+03  0.25500000920E-02 0. -1.
    10030    2    1    2    0    0  0.00000000000E+00  0.00000000000E+00  0.20183803082E+03  0.17020554631E+04  0.16900456232E+04 0.  0.
        1    1    3    3  502    0 -0.61305686955E+03 -0.12304142459E+03 -0.47152642883E+03  0.78314436126E+03  0.50400001928E-02 0. -1.
       -1    1    3    3    0  502  0.61305686955E+03  0.12304142459E+03  0.67336445965E+03  0.91891110180E+03  0.50400001928E-02 0.  1.
</event>
<event>
 5   0  0.3803253E-04  0.1536916E+04  0.7818609E-02  0.8860269E-01
       -1   -1    0    0    0  501  0.00000000000E+00  0.00000000000E+00  0.54195627777E+03  0.54195627780E+03  0.50400001928E-02 0. -1.
        1   -1    0    0  501    0  0.00000000000E+00  0.00000000000E+00 -0.10896222426E+04  0.10896222427E+04  0.50400001928E-02 0.  1.
    10030    2    1    2    0    0  0.00000000000E+00  0.00000000000E+00 -0.54766596487E+03  0.16315785204E+04  0.15369158921E+04 0.  0.
        4    1    3    3  502    0  0.22655535108E+03  0.68469809682E+03  0.78137356418E+01  0.72124994160E+03  0.12699999809E+01 0. -1.
       -4    1    3    3    0  502 -0.22655535108E+03 -0.68469809682E+03 -0.55547970051E+03  0.91032857885E+03  0.12699999809E+01 0.  1.
</event>
<event>
 5   0  0.3635143E-04  0.1613703E+04  0.7818609E-02  0.8812174E-01
        1   -1    0    0  501    0  0.00000000000E+00  0.00000000000E+00  0.51929659151E+03  0.51929659153E+03  0.50400001928E-02 0.  1.
       -1   -1    0    0    0  501  0.00000000000E+00  0.00000000000E+00 -0.12536362631E+04  0.12536362631E+04  0.50400001928E-02 0. -1.
    10030    2    1    2    0    0  0.00000000000E+00  0.00000000000E+00 -0.73433967158E+03  0.17729328546E+04  0.16137026225E+04 0.  0.
        3    1    3    3  502    0 -0.29590106001E+03 -0.73351025172E+03 -0.19202075088E+03  0.81392057700E+03  0.10100000352E+00 0.  1.
       -3    1    3    3    0  502  0.29590106001E+03  0.73351025172E+03 -0.54231892070E+03  0.95901227763E+03  0.10100000352E+00 0. -1.
</event>
<event>
 5   0  0.3723500E-04  0.1699453E+04  0.7818609E-02  0.8761676E-01
       -1   -1    0    0    0  501  0.00000000000E+00  0.00000000000E+00  0.43361498976E+03  0.43361498979E+03  0.50400001928E-02 0.  1.
        1   -1    0    0  501    0  0.00000000000E+00  0.00000000000E+00 -0.16651528591E+04  0.16651528591E+04  0.50400001928E-02 0. -1.
    10030    2    1    2    0    0  0.00000000000E+00  0.00000000000E+00 -0.12315378693E+04  0.20987678489E+04  0.16994531356E+04 0.  0.
        1    1    3    3  502    0  0.82810681114E+03  0.11107461596E+03 -0.80683698174E+03  0.11615009152E+04  0.50400001928E-02 0. -1.
       -1    1    3    3    0  502 -0.82810681114E+03 -0.11107461596E+03 -0.42470088759E+03  0.93726693365E+03  0.50400001928E-02 0.  1.
</event>
<event>
 5   0  0.3713516E-04  0.1739146E+04  0.7818609E-02  0.8739347E-01
        1   -1    0    0  501    0  0.00000000000E+00  0.00000000000E+00  0.84512218144E+03  0.84512218145E+03  0.50400001928E-02 0. -1.
       -1   -1    0    0    0  501  0.00000000000E+00  0.00000000000E+00 -0.89473144064E+03  0.89473144065E+03  0.50400001928E-02 0.  1.
    10030    2    1    2    0    0  0.00000000000E+00  0.00000000000E+00 -0.49609259201E+02  0.17398536221E+04  0.17391462123E+04 0.  0.
        5    1    3    3  502    0  0.69083407299E+03 -0.46742759118E+02 -0.55104016528E+03  0.88493161074E+03  0.46999998093E+01 0.  1.
       -5    1    3    3    0  502 -0.69083407299E+03  0.46742759118E+02  0.50143090608E+03  0.85492201136E+03  0.46999998093E+01 0. -1.
</event>
<event>
 5   0  0.3635143E-04  0.1648993E+04  0.7818609E-02  0.8791003E-01
        1   -1    0    0  501    0  0.00000000000E+00  0.00000000000E+00  0.17238891117E+04  0.17238891117E+04  0.50400001928E-02 0.  1.
       -1   -1    0    0    0  501  0.00000000000E+00  0.00000000000E+00 -0.39433751548E+03  0.39433751551E+03  0.50400001928E-02 0. -1.
    10030    2    1    2    0    0  0.00000000000E+00  0.00000000000E+00  0.13295515963E+04  0.21182266273E+04  0.16489926007E+04 0.  0.
        3    1    3    3  502    0  0.35266822618E+03  0.66416334308E+02  0.16183021950E+04  0.16576151579E+04  0.10100000352E+00 0.  1.
       -3    1    3    3    0  502 -0.35266822618E+03 -0.66416334308E+02 -0.28875059873E+03  0.46061146934E+03  0.10100000352E+00 0. -1.
</event>
<event>
 5   0  0.7049044E-04  0.1651134E+04  0.7818609E-02  0.8789736E-01
        2   -1    0    0  501    0  0.00000000000E+00  0.00000000000E+00  0.12948294335E+04  0.12948294335E+04  0.25500000920E-02 0.  1.
       -2   -1    0    0    0  501  0.00000000000E+00  0.00000000000E+00 -0.52637121531E+03  0.52637121531E+03  0.25500000920E-02 0. -1.
    10030    2    1    2    0    0  0.00000000000E+00  0.00000000000E+00  0.76845821819E+03  0.18212006488E+04  0.16511340861E+04 0.  0.
        4    1    3    3  502    0  0.68534029049E+03 -0.22643468118E+02  0.89131556819E+03  0.11245661810E+04  0.12699999809E+01 0.  1.
       -4    1    3    3    0  502 -0.68534029049E+03  0.22643468118E+02 -0.12285734999E+03  0.69663446783E+03  0.12699999809E+01 0. -1.
</event>
<event>
 5   0  0.7233728E-04  0.1715787E+04  0.7818609E-02  0.8752412E-01
       -2   -1    0    0    0  501  0.00000000000E+00  0.00000000000E+00  0.45840065679E+03  0.45840065680E+03  0.25500000920E-02 0. -1.
        2   -1    0    0  501    0  0.00000000000E+00  0.00000000000E+00 -0.16055407878E+04  0.16055407878E+04  0.25500000920E-02 0.  1.
    10030    2    1    2    0    0  0.00000000000E+00  0.00000000000E+00 -0.11471401310E+04  0.20639414446E+04  0.17157866436E+04 0.  0.
        1    1    3    3  502    0 -0.15879675182E+03  0.10160688044E+03 -0.15803156654E+04  0.15915206467E+04  0.50400001928E-02 0.  1.
       -1    1    3    3    0  502  0.15879675182E+03 -0.10160688044E+03  0.43317553446E+03  0.47242079783E+03  0.50400001928E-02 0. -1.
</event>
<event>
 5   0  0.3803253E-04  0.1699109E+04  0.7818609E-02  0.8761873E-01
        1   -1    0    0  501    0  0.00000000000E+00  0.00000000000E+00  0.25932067160E+04  0.25932067160E+04  0.50400001928E-02 0. -1.
       -1   -1    0    0    0  501  0.00000000000E+00  0.00000000000E+00 -0.27832051866E+03  0.27832051871E+03  0.50400001928E-02 0.  1.
    10030    2    1    2    0    0  0.00000000000E+00  0.00000000000E+00  0.23148861973E+04  0.28715272347E+04  0.16991087526E+04 0.  0.
        4    1    3    3  502    0 -0.73725526916E+03  0.18018492490E+03  0.18025993110E+04  0.19558573128E+04  0.12699999809E+01 0. -1.
       -4    1    3    3    0  502  0.73725526916E+03 -0.18018492490E+03  0.51228688629E+03  0.91566992188E+03  0.12699999809E+01 0.  1.
</event>
<event>
 5   0  0.6746664E-04  0.1771988E+04  0.7818609E-02  0.8721339E-01
       -2   -1    0    0    0  501  0.00000000000E+00  0.00000000000E+00  0.91824028384E+03  0.91824028384E+03  0.25500000920E-02 0.  1.
        2   -1    0    0  501    0  0.00000000000E+00  0.00000000000E+00 -0.85488029157E+03  0.85488029157E+03  0.25500000920E-02 0. -1.
    10030    2    1    2    0    0  0.00000000000E+00  0.00000000000E+00  0.63359992268E+02  0.17731205754E+04  0.17719881733E+04 0.  0.
        5    1    3    3  502    0 -0.90375018485E+02 -0.55897055196E+03 -0.65018611166E+03  0.86219475278E+03  0.46999998093E+01 0. -1.
       -5    1    3    3    0  502  0.90375018485E+02  0.55897055196E+03  0.71354610393E+03  0.91092582264E+03  0.46999998093E+01 0.  1.
</event>
<event>
 5   0  0.3803253E-04  0.1423412E+04  0.7818609E-02  0.8937044E-01
       -1   -1    0    0    0  501  0.00000000000E+00  0.00000000000E+00  0.28178525134E+03  0.28178525139E+03  0.50400001928E-02 0. -1.
        1   -1    0    0  501    0  0.00000000000E+00  0.00000000000E+00 -0.17975595765E+04  0.17975595765E+04  0.50400001928E-02 0.  1.
    10030    2    1    2    0    0  0.00000000000E+00  0.00000000000E+00 -0.15157743251E+04  0.20793448279E+04  0.14234124871E+04 0.  0.
        4    1    3    3  502    0  0.47207845670E+02 -0.13889726777E+03  0.25945727964E+03  0.29806161199E+03  0.12699999809E+01 0. -1.
       -4    1    3    3    0  502 -0.47207845670E+02  0.13889726777E+03 -0.17752316048E+04  0.17812832159E+04  0.12699999809E+01 0.  1.
</event>
<event>
 5   0  0.3723500E-04  0.1739604E+04  0.7818609E-02  0.8739094E-01
       -1   -1    0    0    0  501  0.00000000000E+00  0.00000000000E+00  0.18124388404E+04  0.18124388404E+04  0.50400001928E-02 0. -1.
        1   -1    0    0  501    0  0.00000000000E+00  0.00000000000E+00 -0.41742399531E+03  0.41742399534E+03  0.50400001928E-02 0.  1.
    10030    2    1    2    0    0  0.00000000000E+00  0.00000000000E+00  0.13950148451E+04  0.22298628357E+04  0.17396039343E+04 0.  0.
        1    1    3    3  502    0 -0.92794060184E+02  0.85458363345E+03  0.52730220662E+03  0.10084500688E+04  0.50400001928E-02 0.  1.
       -1    1    3    3    0  502  0.92794060184E+02 -0.85458363345E+03  0.86771263843E+03  0.12214127669E+04  0.50400001928E-02 0. -1.
</event>
<event>
 5   0  0.3723500E-04  0.1576384E+04  0.7818609E-02  0.8835189E-01
        1   -1    0    0  501    0  0.00000000000E+00  0.00000000000E+00  0.14552423335E+04  0.14552423335E+04  0.50400001928E-02 0. -1.
       -1   -1    0    0    0  501  0.00000000000E+00  0.00000000000E+00 -0.42690265136E+03  0.42690265139E+03  0.50400001928E-02 0.  1.
    10030    2    1    2    0    0  0.00000000000E+00  0.00000000000E+00  0.10283396821E+04  0.18821449849E+04  0.15763842305E+04 0.  0.
        1    1    3    3  502    0 -0.44307239613E+03 -0.47967243484E+03 -0.12864590458E+02  0.65311889475E+03  0.50400001928E-02 0.  1.
       -1    1    3    3    0  502  0.44307239613E+03  0.47967243484E+03  0.10412042726E+04  0.12290260901E+04  0.50400001928E-02 0. -1.
</event>
<event>
 5   0  0.3635143E-04  0.1683591E+04  0.7818609E-02  0.8770778E-01
       -1   -1    0    0    0  501  0.00000000000E+00  0.00000000000E+00  0.30824037792E+03  0.30824037796E+03  0.50400001928E-02 0. -1.
        1   -1    0    0  501    0  0.00000000000E+00  0.00000000000E+00 -0.22989203059E+04  0.22989203059E+04  0.50400001928E-02 0.  1.
    10030    2    1    2    0    0  0.00000000000E+00  0.00000000000E+00 -0.19906799280E+04  0.26071606838E+04  0.16835914753E+04 0.  0.
        3    1    3    3  502    0 -0.70981267611E+03 -0.45227025279E+03 -0.97146800129E+03  0.12853530661E+04  0.10100000352E+00 0. -1.
       -3    1    3    3    0  502  0.70981267611E+03  0.45227025279E+03 -0.10192119267E+04  0.13218076178E+04  0.10100000352E+00 0.  1.
</event>
<event>
 5   0  0.6746664E-04  0.1684130E+04  0.7818609E-02  0.8770468E-01
       -2   -1    0    0    0  501  0.00000000000E+00  0.00000000000E+00  0.43360600082E+03  0.43360600083E+03  0.25500000920E-02 0.  1.
        2   -1    0    0  501    0  0.00000000000E+00  0.00000000000E+00 -0.16352944334E+04  0.16352944334E+04  0.25500000920E-02 0. -1.
    10030    2    1    2    0    0  0.00000000000E+00  0.00000000000E+00 -0.12016884326E+04  0.20689004342E+04  0.16841300181E+04 0.  0.
        5    1    3    3  502    0  0.28593376896E+03  0.21871435033E+03 -0.15359800389E+04  0.15776092219E+04  0.46999998093E+01 0. -1.
       -5    1    3    3    0  502 -0.28593376896E+03 -0.21871435033E+03  0.33429160628E+03  0.49129121232E+03  0.46999998093E+01 0.  1.
</event>
<event>
 5   0  0.7233728E-04  0.1622113E+04  0.7818609E-02  0.8807077E-01
        2   -1    0    0  501    0  0.00000000000E+00  0.00000000000E+00  0.79043982015E+03  0.79043982016E+03  0.25500000920E-02 0. -1.
       -2   -1    0    0    0  501  0.00000000000E+00  0.00000000000E+00 -0.83221074238E+03  0.83221074239E+03  0.25500000920E-02 0.  1.
    10030    2    1    2    0    0  0.00000000000E+00  0.00000000000E+00 -0.41770922229E+02  0.16226505625E+04  0.16221128315E+04 0.  0.
        1    1    3    3  502    0 -0.26020800123E+02 -0.75598306605E+03 -0.31360001525E+03  0.81886045684E+03  0.50400001928E-02 0.  1.
       -1    1    3    3    0  502  0.26020800123E+02  0.75598306605E+03  0.27182909302E+03  0.80379010570E+03  0.50400001928E-02 0. -1.
</event>
<event>
 5   0  0.3803253E-04  0.1785481E+04  0.7818609E-02  0.8714059E-01
       -1   -1    0    0    0  501  0.00000000000E+00  0.00000000000E+00  0.48641856473E+03  0.48641856475E+03  0.50400001928E-02 0. -1.
        1   -1    0    0  501    0  0.00000000000E+00  0.00000000000E+00 -0.16384771269E+04  0.16384771269E+04  0.50400001928E-02 0.  1.
    10030    2    1    2    0    0  0.00000000000E+00  0.00000000000E+00 -0.11520585621E+04  0.21248956916E+04  0.17854811032E+04 0.  0.
        4    1    3    3  502    0  0.35567704499E+03 -0.81114801183E+03 -0.70917567164E+03  0.11346360666E+04  0.12699999809E+01 0.  1.
       -4    1    3    3    0  502 -0.35567704499E+03  0.81114801183E+03 -0.44288289051E+03  0.99025962506E+03  0.12699999809E+01 0. -1.
</event>
<event>
 5   0  0.3635143E-04  0.1799780E+04  0.7818609E-02  0.8706417E-01
       -1   -1    0    0    0  501  0.00000000000E+00  0.00000000000E+00  0.44282443803E+03  0.44282443806E+03  0.50400001928E-02 0. -1.
        1   -1    0    0  501    0  0.00000000000E+00  0.00000000000E+00 -0.18287200275E+04  0.18287200276E+04  0.50400001928E-02 0.  1.
    10030    2    1    2    0    0  0.00000000000E+00  0.00000000000E+00 -0.13858955895E+04  0.22715444656E+04  0.17997798960E+04 0.  0.
        3    1    3    3  502    0 -0.45782906089E+03 -0.64829915824E+03 -0.12282766330E+04  0.14623825577E+04  0.10100000352E+00 0.  1.
       -3    1    3    3    0  502  0.45782906089E+03  0.64829915824E+03 -0.15761895647E+03  0.80916190791E+03  0.10100000352E+00 0. -1.
</event>
<event>
 5   0  0.6746664E-04  0.1561842E+04  0.7818609E-02  0.8844339E-01
       -2   -1    0    0    0  501  0.00000000000E+00  0.00000000000E+00  0.25446239836E+03  0.25446239838E+03  0.25500000920E-02 0.  1.
        2   -1    0    0  501    0  0.00000000000E+00  0.00000000000E+00 -0.23965727132E+04  0.23965727132E+04  0.25500000920E-02 0. -1.
    10030    2    1    2    0    0  0.00000000000E+00  0.00000000000E+00 -0.21421103149E+04  0.26510351116E+04  0.15618420413E+04 0.  0.
        5    1    3    3  502    0 -0.51638726479E+03 -0.52229573570E+02 -0.80694359780E+02  0.52527840741E+03  0.46999998093E+01 0.  1.
       -5    1    3    3    0  502  0.51638726479E+03  0.52229573570E+02 -0.20614159551E+04  0.21257567042E+04  0.46999998093E+01 0. -1.
</event>
<event>
 5   0  0.3635143E-04  0.1748293E+04  0.7818609E-02  0.8734291E-01
        1   -1    0    0  501    0  0.00000000000E+00  0.00000000000E+00  0.41045560387E+03  0.41045560390E+03  0.50400001928E-02 0. -1.
       -1   -1    0    0    0  501  0.00000000000E+00  0.00000000000E+00 -0.18616677669E+04  0.18616677669E+04  0.50400001928E-02 0.  1.
    10030    2    1    2    0    0  0.00000000000E+00  0.00000000000E+00 -0.14512121631E+04  0.22721233708E+04  0.17482928445E+04 0.  0.
        3    1    3    3  502    0 -0.72375544552E+03  0.44736915760E+03 -0.46512677006E+03  0.96969275058E+03  0.10100000352E+00 0. -1.
       -3    1    3    3    0  502  0.72375544552E+03 -0.44736915760E+03 -0.98608539301E+03  0.13024306203E+04  0.10100000352E+00 0.  1.
</event>
<event>
 5   0  0.3635143E-04  0.1673269E+04  0.7818609E-02  0.8776759E-01
       -1   -1    0    0    0  501  0.00000000000E+00  0.00000000000E+00  0.95416173284E+03  0.95416173285E+03  0.50400001928E-02 0.  1.
        1   -1    0    0  501    0  0.00000000000E+00  0.00000000000E+00 -0.73358322646E+03  0.73358322647E+03  0.50400001928E-02 0. -1.
    10030    2    1    2    0    0  0.00000000000E+00  0.00000000000E+00  0.22057850638E+03  0.16877449593E+04  0.16732687083E+04 0.  0.
        3    1    3    3  502    0  0.42536405064E+01  0.80159845112E+02  0.95026846725E+03  0.95365290555E+03  0.10100000352E+00 0.  1.
       -3    1    3    3    0  502 -0.42536405064E+01 -0.80159845112E+02 -0.72968996086E+03  0.73409205377E+03  0.10100000352E+00 0. -1.
</event>
<event>
 5   0  0.7049044E-04  0.1684361E+04  0.7818609E-02  0.8770335E-01
        2   -1    0    0  501    0  0.00000000000E+00  0.00000000000E+00  0.13816897978E+04  0.13816897978E+04  0.25500000920E-02 0.  1.
       -2   -1    0    0    0  501  0.00000000000E+00  0.00000000000E+00 -0.51333347562E+03  0.51333347563E+03  0.25500000920E-02 0. -1.
    10030    2    1    2    0    0  0.00000000000E+00  0.00000000000E+00  0.86835632218E+03  0.18950232734E+04  0.16843605625E+04 0.  0.
        4    1    3    3  502    0  0.22681485721E+03 -0.52642409789E+03  0.11283551005E+04  0.12656042652E+04  0.12699999809E+01 0.  1.
       -4    1    3    3    0  502 -0.22681485721E+03  0.52642409789E+03 -0.25999877835E+03  0.62941900824E+03  0.12699999809E+01 0. -1.
</event>
<event>
 5   0  0.7025426E-04  0.1541384E+04  0.7818609E-02  0.8857390E-01
        2   -1    0    0  501    0  0.00000000000E+00  0.00000000000E+00  0.14772439647E+04  0.14772439647E+04  0.25500000920E-02 0.  1.
       -2   -1    0    0    0  501  0.00000000000E+00  0.00000000000E+00 -0.40207702522E+03  0.40207702523E+03  0.25500000920E-02 0. -1.
    10030    2    1    2    0    0  0.00000000000E+00  0.00000000000E+00  0.10751669395E+04  0.18793209899E+04  0.15413836107E+04 0.  0.
        2    1    3    3  502    0  0.11397168694E+03  0.73675940971E+03  0.77576338714E+03  0.10759241637E+04  0.25500000920E-02 0.  1.
       -2    1    3    3    0  502 -0.11397168694E+03 -0.73675940971E+03  0.29940355232E+03  0.80339682621E+03  0.25500000920E-02 0. -1.
</event>
<event>
 5   0  0.3915701E-04  0.1665081E+04  0.7818609E-02  0.8781534E-01
        1   -1    0    0  501    0  0.00000000000E+00  0.00000000000E+00  0.15571719830E+04  0.15571719830E+04  0.50400001928E-02 0.  1.
       -1   -1    0    0    0  501  0.00000000000E+00  0.00000000000E+00 -0.44511703598E+03  0.44511703601E+03  0.50400001928E-02 0. -1.
    10030    2    1    2    0    0  0.00000000000E+00  0.00000000000E+00  0.11120549470E+04  0.20022890190E+04  0.16650811123E+04 0.  0.
        2    1    3    3  502    0  0.49920780665E+03  0.65547335115E+03  0.41237807759E+03  0.92136280974E+03  0.25500000920E-02 0. -1.
       -2    1    3    3    0  502 -0.49920780665E+03 -0.65547335115E+03  0.69967686946E+03  0.10809262093E+04  0.25500000920E-02 0.  1.
</event>
<event>
 5   0  0.7025426E-04  0.1690420E+04  0.7818609E-02  0.8766847E-01
        2   -1    0    0  501    0  0.00000000000E+00  0.00000000000E+00  0.64763073089E+03  0.64763073089E+03  0.25500000920E-02 0.  1.
       -2   -1    0    0    0  501  0.00000000000E+00  0.00000000000E+00 -0.11030668557E+04  0.11030668557E+04  0.25500000920E-02 0. -1.
    10030    2    1    2    0    0  0.00000000000E+00  0.00000000000E+00 -0.45543612481E+03  0.17506975866E+04  0.16904200590E+04 0.  0.
        2    1    3    3  502    0 -0.91491443156E+02  0.39192346282E+03 -0.99746047629E+03  0.10755938298E+04  0.25500000920E-02 0. -1.
       -2    1    3    3    0  502  0.91491443156E+02 -0.39192346282E+03  0.54202435148E+03  0.67510375682E+03  0.25500000920E-02 0.  1.
</event>
<event>
 5   0  0.3915701E-04  0.1693511E+04  0.7818609E-02  0.8765074E-01
       -1   -1    0    0    0  501  0.00000000000E+00  0.00000000000E+00  0.50484296749E+03  0.50484296751E+03  0.50400001928E-02 0.  1.
        1   -1    0    0  501    0  0.00000000000E+00  0.00000000000E+00 -0.14202329753E+04  0.14202329753E+04  0.50400001928E-02 0. -1.
    10030    2    1    2    0    0  0.00000000000E+00  0.00000000000E+00 -0.91539000784E+03  0.19250759428E+04  0.16935107083E+04 0.  0.
        2    1    3    3  502    0  0.80639828233E+03 -0.18060891998E+03 -0.24779275062E+03  0.86272766211E+03  0.25500000920E-02 0.  1.
       -2    1    3    3    0  502 -0.80639828233E+03  0.18060891998E+03 -0.66759725722E+03  0.10623482807E+04  0.25500000920E-02 0. -1.
</event>
<event>
 5   0  0.2639750E-04  0.1727154E+04  0.7818609E-02  0.8746027E-01
        3   -1    0    0  501    0  0.00000000000E+00  0.00000000000E+00  0.55968286118E+03  0.55968287030E+03  0.10100000352E+00 0.  1.
       -3   -1    0    0    0  501  0.00000000000E+00  0.00000000000E+00 -0.13324774826E+04  0.13324774865E+04  0.10100000352E+00 0. -1.
    10030    2    1    2    0    0  0.00000000000E+00  0.00000000000E+00 -0.77279462144E+03  0.18921603567E+04  0.17271535220E+04 0.  0.
        1    1    3    3  502    0 -0.16569961215E+03 -0.82251386983E+03 -0.16246948249E+03  0.85462375364E+03  0.50400001928E-02 0.  1.
       -1    1    3    3    0  502  0.16569961215E+03  0.82251386983E+03 -0.61032513895E+03  0.10375366031E+04  0.50400001928E-02 0. -1.
</event>
<event>
 5   0  0.3723500E-04  0.1682998E+04  0.7818609E-02  0.8771121E-01
       -1   -1    0    0    0  501  0.00000000000E+00  0.00000000000E+00  0.61425841706E+03  0.61425841708E+03  0.50400001928E-02 0. -1.
        1   -1    0    0  501    0  0.00000000000E+00  0.00000000000E+00 -0.11528049971E+04  0.11528049972E+04  0.50400001928E-02 0.  1.
    10030    2    1    2    0    0  0.00000000000E+00  0.00000000000E+00 -0.53854658009E+03  0.17670634142E+04  0.16829975315E+04 0.  0.
        1    1    3    3  502    0  0.81318937518E+03 -0.21414040190E+03 -0.23628578491E+03  0.87347813013E+03  0.50400001928E-02 0. -1.
       -1    1    3    3    0  502 -0.81318937518E+03  0.21414040190E+03 -0.30226079518E+03  0.89358528410E+03  0.50400001928E-02 0.  1.
</event>
<event>
 5   0  0.7025426E-04  0.1753983E+04  0.7818609E-02  0.8731161E-01
       -2   -1    0    0    0  501  0.00000000000E+00  0.00000000000E+00  0.79813403377E+03  0.79813403378E+03  0.25500000920E-02 0. -1.
        2   -1    0    0  501    0  0.00000000000E+00  0.00000000000E+00 -0.96363984642E+03  0.96363984643E+03  0.25500000920E-02 0.  1.
    10030    2    1    2    0    0  0.00000000000E+00  0.00000000000E+00 -0.16550581265E+03  0.17617738802E+04  0.17539826199E+04 0.  0.
        2    1    3    3  502    0 -0.12775028400E+02  0.49362582903E+03  0.64523138444E+03  0.81249812302E+03  0.25500000920E-02 0. -1.
       -2    1    3    3    0  502  0.12775028400E+02 -0.49362582903E+03 -0.81073719709E+03  0.94927575719E+03  0.25500000920E-02 0.  1.
</event>
<event>
 5   0  0.7049044E-04  0.1671810E+04  0.7818609E-02  0.8777607E-01
        2   -1    0    0  501    0  0.00000000000E+00  0.00000000000E+00  0.10104910136E+04  0.10104910136E+04  0.25500000920E-02 0.  1.
       -2   -1    0    0    0  501  0.00000000000E+00  0.00000000000E+00 -0.69148280554E+03  0.69148280554E+03  0.25500000920E-02 0. -1.
    10030    2    1    2    0    0  0.00000000000E+00  0.00000000000E+00  0.31900820804E+03  0.17019738191E+04  0.16718099905E+04 0.  0.
        4    1    3    3  502    0  0.10417707175E+03 -0.82716509585E+03  0.22126657807E+03  0.86256331335E+03  0.12699999809E+01 0. -1.
       -4    1    3    3    0  502 -0.10417707175E+03  0.82716509585E+03  0.97741629970E+02  0.83941050577E+03  0.12699999809E+01 0.  1.
</event>
<event>
 5   0  0.7233728E-04  0.1718165E+04  0.7818609E-02  0.8751072E-01
       -2   -1    0    0    0  501  0.00000000000E+00  0.00000000000E+00  0.65722281054E+03  0.65722281055E+03  0.25500000920E-02 0. -1.
        2   -1    0    0  501    0  0.00000000000E+00  0.00000000000E+00 -0.11229413682E+04  0.11229413682E+04  0.25500000920E-02 0.  1.
    10030    2    1    2    0    0  0.00000000000E+00  0.00000000000E+00 -0.46571855765E+03  0.17801641787E+04  0.17181649305E+04 0.  0.
        1    1    3    3  502    0 -0.14255678058E+03  0.13389695269E+03 -0.10995685497E+04  0.11168266764E+04  0.50400001928E-02 0.  1.
       -1    1    3    3    0  502  0.14255678058E+03 -0.13389695269E+03  0.63384999202E+03  0.66333750236E+03  0.50400001928E-02 0. -1.
</event>
<event>
 5   0  0.7233728E-04  0.1691654E+04  0.7818609E-02  0.8766139E-01
       -2   -1    0    0    0  501  0.00000000000E+00  0.00000000000E+00  0.75810833135E+03  0.75810833136E+03  0.25500000920E-02 0.  1.
        2   -1    0    0  501    0  0.00000000000E+00  0.00000000000E+00 -0.94369535628E+03  0.94369535628E+03  0.25500000920E-02 0. -1.
    10030    2    1    2    0    0  0.00000000000E+00  0.00000000000E+00 -0.18558702493E+03  0.17018036876E+04  0.16916539976E+04 0.  0.
        1    1    3    3  502    0 -0.32071772673E+02  0.26885946378E+03  0.71333150942E+03  0.76299138410E+03  0.50400001928E-02 0.  1.
       -1    1    3    3    0  502  0.32071772673E+02 -0.26885946378E+03 -0.89891853434E+03  0.93881230354E+03  0.50400001928E-02 0. -1.
</event>
<event>
 5   0  0.3915701E-04  0.1657535E+04  0.7818609E-02  0.8785961E-01
       -1   -1    0    0    0  501  0.00000000000E+00  0.00000000000E+00  0.52120370388E+03  0.52120370390E+03  0.50400001928E-02 0. -1.
        1   -1    0    0  501    0  0.00000000000E+00  0.00000000000E+00 -0.13178262754E+04  0.13178262754E+04  0.50400001928E-02 0.  1.
    10030    2    1    2    0    0  0.00000000000E+00  0.00000000000E+00 -0.79662257156E+03  0.18390299793E+04  0.16575354426E+04 0.  0.
        2    1    3    3  502    0 -0.19903158244E+03 -0.37122147628E+03  0.39359031218E+03  0.57648268760E+03  0.25500000920E-02 0. -1.
       -2    1    3    3    0  502  0.19903158244E+03  0.37122147628E+03 -0.11902128837E+04  0.12625472917E+04  0.25500000920E-02 0.  1.
</event>
<event>
 5   0  0.6746664E-04  0.1200430E+04  0.7818609E-02  0.9112480E-01
        2   -1    0    0  501    0  0.00000000000E+00  0.00000000000E+00  0.12542286574E+04  0.12542286574E+04  0.25500000920E-02 0. -1.
       -2   -1    0    0    0  501  0.00000000000E+00  0.00000000000E+00 -0.28723488326E+03  0.28723488327E+03  0.25500000920E-02 0.  1.
    10030    2    1    2    0    0  0.00000000000E+00  0.00000000000E+00  0.96699377411E+03  0.15414635406E+04  0.12004302928E+04 0.  0.
        5    1    3    3  502    0  0.30792350080E+03 -0.33839247423E+03  0.98232969393E+03  0.10836604941E+04  0.46999998093E+01 0. -1.
       -5    1    3    3    0  502 -0.30792350080E+03  0.33839247423E+03 -0.15335919816E+02  0.45780304651E+03  0.46999998093E+01 0.  1.
</event>
<event>
 5   0  0.7233728E-04  0.1635330E+04  0.7818609E-02  0.8799133E-01
       -2   -1    0    0    0  501  0.00000000000E+00  0.00000000000E+00  0.10229031194E+04  0.10229031194E+04  0.25500000920E-02 0.  1.
        2   -1    0    0  501    0  0.00000000000E+00  0.00000000000E+00 -0.65360660087E+03  0.65360660088E+03  0.25500000920E-02 0. -1.
    10030    2    1    2    0    0  0.00000000000E+00  0.00000000000E+00  0.36929651852E+03  0.16765097203E+04  0.16353302185E+04 0.  0.
        1    1    3    3  502    0  0.54125017394E+02 -0.78820444049E+03 -0.31323307497E+02  0.79068129302E+03  0.50400001928E-02 0. -1.
       -1    1    3    3    0  502 -0.54125017394E+02  0.78820444049E+03  0.40061982601E+03  0.88582842725E+03  0.50400001928E-02 0.  1.
</event>
<event>
 5   0  0.6746664E-04  0.1701469E+04  0.7818609E-02  0.8760527E-01
        2   -1    0    0  501    0  0.00000000000E+00  0.00000000000E+00  0.13531495357E+04  0.13531495357E+04  0.25500000920E-02 0.  1.
       -2   -1    0    0    0  501  0.00000000000E+00  0.00000000000E+00 -0.53486267229E+03  0.53486267230E+03  0.25500000920E-02 0. -1.
    10030    2    1    2    0    0  0.00000000000E+00  0.00000000000E+00  0.81828686339E+03  0.18880122080E+04  0.17014689849E+04 0.  0.
        5    1    3    3  502    0 -0.25720870321E+03  0.79518593432E+02 -0.48633229213E+03  0.55589631414E+03  0.46999998093E+01 0. -1.
       -5    1    3    3    0  502  0.25720870321E+03 -0.79518593432E+02  0.13046191555E+04  0.13321158939E+04  0.46999998093E+01 0.  1.
</event>
<event>
 5   0  0.7049044E-04  0.1727198E+04  0.7818609E-02  0.8746003E-01
        2   -1    0    0  501    0  0.00000000000E+00  0.00000000000E+00  0.60369652688E+03  0.60369652689E+03  0.25500000920E-02 0.  1.
       -2   -1    0    0    0  501  0.00000000000E+00  0.00000000000E+00 -0.12353942611E+04  0.12353942611E+04  0.25500000920E-02 0. -1.
    10030    2    1    2    0    0  0.00000000000E+00  0.00000000000E+00 -0.63169773418E+03  0.18390907880E+04  0.17271979907E+04 0.  0.
        4    1    3    3  502    0  0.84463610510E+03 -0.17994771875E+03 -0.31243486023E+03  0.91837273822E+03  0.12699999809E+01 0.  1.
       -4    1    3    3    0  502 -0.84463610510E+03  0.17994771875E+03 -0.31926287395E+03  0.92071804973E+03  0.12699999809E+01 0. -1.
</event>
<event>
 5   0  0.3723500E-04  0.1732281E+04  0.7818609E-02  0.8743165E-01
       -1   -1    0    0    0  501  0.00000000000E+00  0.00000000000E+00  0.38885247190E+03  0.38885247194E+03  0.50400001928E-02 0.  1.
        1   -1    0    0  501    0  0.00000000000E+00  0.00000000000E+00 -0.19292642585E+04  0.19292642585E+04  0.50400001928E-02 0. -1.
    10030    2    1    2    0    0  0.00000000000E+00  0.00000000000E+00 -0.15404117866E+04  0.23181167304E+04  0.17322807808E+04 0.  0.
        1    1    3    3  502    0 -0.79296894877E+03  0.19187229826E+03 -0.38101536519E+03  0.90043736100E+03  0.50400001928E-02 0.  1.
       -1    1    3    3    0  502  0.79296894877E+03 -0.19187229826E+03 -0.11593964214E+04  0.14176793694E+04  0.50400001928E-02 0. -1.
</event>
<event>
 5   0  0.7242144E-04  0.1709337E+04  0.7818609E-02  0.8756057E-01
        2   -1    0    0  501    0  0.00000000000E+00  0.00000000000E+00  0.13096544745E+04  0.13096544745E+04  0.25500000920E-02 0. -1.
       -2   -1    0    0    0  501  0.00000000000E+00  0.00000000000E+00 -0.55774909900E+03  0.55774909900E+03  0.25500000920E-02 0.  1.
    10030    2    1    2    0    0  0.00000000000E+00  0.00000000000E+00  0.75190537552E+03  0.18674035735E+04  0.17093374192E+04 0.  0.
        3    1    3    3  502    0 -0.64069060929E+03  0.41643379875E+02  0.99224641114E+03  0.11818509121E+04  0.10100000352E+00 0. -1.
       -3    1    3    3    0  502  0.64069060929E+03 -0.41643379875E+02 -0.24034103562E+03  0.68555266138E+03  0.10100000352E+00 0.  1.
</event>
<event>
 5   0  0.7233728E-04  0.1711139E+04  0.7818609E-02  0.8755037E-01
       -2   -1    0    0    0  501  0.00000000000E+00  0.00000000000E+00  0.60924820309E+03  0.60924820310E+03  0.25500000920E-02 0.  1.
        2   -1    0    0  501    0  0.00000000000E+00  0.00000000000E+00 -0.12014798863E+04  0.12014798863E+04  0.25500000920E-02 0. -1.
    10030    2    1    2    0    0  0.00000000000E+00  0.00000000000E+00 -0.59223168323E+03  0.18107280894E+04  0.17111393418E+04 0.  0.
        1    1    3    3  502    0  0.46989396361E+03 -0.55957971351E+03  0.17483638018E+03  0.75133052159E+03  0.50400001928E-02 0.  1.
       -1    1    3    3    0  502 -0.46989396361E+03  0.55957971351E+03 -0.76706806341E+03  0.10593975678E+04  0.50400001928E-02 0. -1.
</event>
<event>
 5   0  0.3803253E-04  0.1686140E+04  0.7818609E-02  0.8769309E-01
        1   -1    0    0  501    0  0.00000000000E+00  0.00000000000E+00  0.72462198726E+03  0.72462198728E+03  0.50400001928E-02 0.  1.
       -1   -1    0    0    0  501  0.00000000000E+00  0.00000000000E+00 -0.98087971899E+03  0.98087971900E+03  0.50400001928E-02 0. -1.
    10030    2    1    2    0    0  0.00000000000E+00  0.00000000000E+00 -0.25625773173E+03  0.17055017063E+04  0.16861399838E+04 0.  0.
        4    1    3    3  502    0 -0.84205824845E+03 -0.40985107797E+02 -0.13303487235E+03  0.85348799816E+03  0.12699999809E+01 0.  1.
       -4    1    3    3    0  502  0.84205824845E+03  0.40985107797E+02 -0.12322285938E+03  0.85201370812E+03  0.12699999809E+01 0. -1.
</event>
<event>
 5   0  0.7242144E-04  0.1721777E+04  0.7818609E-02  0.8749041E-01
       -2   -1    0    0    0  501  0.00000000000E+00  0.00000000000E+00  0.43855577174E+03  0.43855577175E+03  0.25500000920E-02 0.  1.
        2   -1    0    0  501    0  0.00000000000E+00  0.00000000000E+00 -0.16899312078E+04  0.16899312078E+04  0.25500000920E-02 0. -1.
    10030    2    1    2    0    0  0.00000000000E+00  0.00000000000E+00 -0.12513754360E+04  0.21284869795E+04  0.17217770878E+04 0.  0.
        3    1    3    3  502    0 -0.48556099064E+03  0.13109814133E+03 -0.14894234702E+04  0.15720491348E+04  0.10100000352E+00 0. -1.
       -3    1    3    3    0  502  0.48556099064E+03 -0.13109814133E+03  0.23804803419E+03  0.55643784475E+03  0.10100000352E+00 0.  1.
</event>
<event>
 5   0  0.7233728E-04  0.1534408E+04  0.7818609E-02  0.8861889E-01
        2   -1    0    0  501    0  0.00000000000E+00  0.00000000000E+00  0.84612287768E+03  0.84612287768E+03  0.25500000920E-02 0. -1.
       -2   -1    0    0    0  501  0.00000000000E+00  0.00000000000E+00 -0.69564622390E+03  0.69564622391E+03  0.25500000920E-02 0.  1.
    10030    2    1    2    0    0  0.00000000000E+00  0.00000000000E+00  0.15047665378E+03  0.15417691016E+04  0.15344082701E+04 0.  0.
        1    1    3    3  502    0 -0.41362609033E+03 -0.11884104270E+03 -0.56294035010E+03  0.70859831628E+03  0.50400001928E-02 0.  1.
       -1    1    3    3    0  502  0.41362609033E+03  0.11884104270E+03  0.71341700388E+03  0.83317078531E+03  0.50400001928E-02 0. -1.
</event>
<event>
 5   0  0.3915701E-04  0.1753614E+04  0.7818609E-02  0.8731364E-01
       -1   -1    0    0    0  501  0.00000000000E+00  0.00000000000E+00  0.43167520363E+03  0.43167520366E+03  0.50400001928E-02 0.  1.
        1   -1    0    0  501    0  0.00000000000E+00  0.00000000000E+00 -0.17809458722E+04  0.17809458722E+04  0.50400001928E-02 0. -1.
    10030    2    1    2    0    0  0.00000000000E+00  0.00000000000E+00 -0.13492706686E+04  0.22126210759E+04  0.17536136086E+04 0.  0.
        2    1    3    3  502    0 -0.54334095567E+03 -0.64835002750E+03 -0.38357562548E+03  0.92882044160E+03  0.25500000920E-02 0.  1.
       -2    1    3    3    0  502  0.54334095567E+03  0.64835002750E+03 -0.96569504311E+03  0.12838006343E+04  0.25500000920E-02 0. -1.
</event>
<event>
 5   0  0.6746664E-04  0.1648831E+04  0.7818609E-02  0.8791098E-01
       -2   -1    0    0    0  501  0.00000000000E+00  0.00000000000E+00  0.26600167259E+03  0.26600167260E+03  0.25500000920E-02 0.  1.
        2   -1    0    0  501    0  0.00000000000E+00  0.00000000000E+00 -0.25551015991E+04  0.25551015991E+04  0.25500000920E-02 0. -1.
    10030    2    1    2    0    0  0.00000000000E+00  0.00000000000E+00 -0.22890999265E+04  0.28211032717E+04  0.16488314638E+04 0.  0.
        5    1    3    3  502    0 -0.32247444822E+03  0.57331346304E+03 -0.19948202539E+04  0.21004780485E+04  0.46999998093E+01 0. -1.
       -5    1    3    3    0  502  0.32247444822E+03 -0.57331346304E+03 -0.29427967260E+03  0.72062522324E+03  0.46999998093E+01 0.  1.
</event>
<event>
 5   0  0.3723500E-04  0.1732988E+04  0.7818609E-02  0.8742771E-01
        1   -1    0    0  501    0  0.00000000000E+00  0.00000000000E+00  0.98504057036E+03  0.98504057038E+03  0.50400001928E-02 0. -1.
       -1   -1    0    0    0  501  0.00000000000E+00  0.00000000000E+00 -0.76221400573E+03  0.76221400574E+03  0.50400001928E-02 0.  1.
    10030    2    1    2    0    0  0.00000000000E+00  0.00000000000E+00  0.22282656464E+03  0.17472545761E+04  0.17329878464E+04 0.  0.
        1    1    3    3  502    0  0.82551132199E+03 -0.12232369575E+03 -0.12370101099E+03  0.84364327143E+03  0.50400001928E-02 0. -1.
       -1    1    3    3    0  502 -0.82551132199E+03  0.12232369575E+03  0.34652757562E+03  0.90361130469E+03  0.50400001928E-02 0.  1.
</event>
<event>
 5   0  0.7233728E-04  0.1546201E+04  0.7818609E-02  0.8854298E-01
       -2   -1    0    0    0  501  0.00000000000E+00  0.00000000000E+00  0.39945259455E+03  0.39945259456E+03  0.25500000920E-02 0.  1.
        2   -1    0    0  501    0  0.00000000000E+00  0.00000000000E+00 -0.14962582488E+04  0.14962582488E+04  0.25500000920E-02 0. -1.
    10030    2    1    2    0    0  0.00000000000E+00  0.00000000000E+00 -0.10968056542E+04  0.18957108433E+04  0.15462008144E+04 0.  0.
        1    1    3    3  502    0 -0.11272294349E+02 -0.59149565639E+02 -0.14933788846E+04  0.14945923286E+04  0.50400001928E-02 0. -1.
       -1    1    3    3    0  502  0.11272294349E+02  0.59149565639E+02  0.39657323040E+03  0.40111851470E+03  0.50400001928E-02 0.  1.
</event>
<event>
 5   0  0.7025426E-04  0.1685759E+04  0.7818609E-02  0.8769528E-01
       -2   -1    0    0    0  501  0.00000000000E+00  0.00000000000E+00  0.75610141640E+03  0.75610141640E+03  0.25500000920E-02 0.  1.
        2   -1    0    0  501    0  0.00000000000E+00  0.00000000000E+00 -0.93961751417E+03  0.93961751418E+03  0.25500000920E-02 0. -1.
    10030    2    1    2    0    0  0.00000000000E+00  0.00000000000E+00 -0.18351609778E+03  0.16957189306E+04  0.16857593344E+04 0.  0.
        2    1    3    3  502    0 -0.17943175904E+03 -0.31564384728E+03  0.67340637212E+03  0.76505093719E+03  0.25500000920E-02 0.  1.
       -2    1    3    3    0  502  0.17943175904E+03  0.31564384728E+03 -0.85692246990E+03  0.93066799338E+03  0.25500000920E-02 0. -1.
</event>
<event>
 5   0  0.3713516E-04  0.1694384E+04  0.7818609E-02  0.8764574E-01
       -1   -1    0    0    0  501  0.00000000000E+00  0.00000000000E+00  0.72760181499E+03  0.72760181501E+03  0.50400001928E-02 0.  1.
        1   -1    0    0  501    0  0.00000000000E+00  0.00000000000E+00 -0.98643822640E+03  0.98643822641E+03  0.50400001928E-02 0. -1.
    10030    2    1    2    0    0  0.00000000000E+00  0.00000000000E+00 -0.25883641141E+03  0.17140400414E+04  0.16943839517E+04 0.  0.
        5    1    3    3  502    0  0.14301936445E+03  0.38292388780E+03  0.62123241926E+03  0.74366460935E+03  0.46999998093E+01 0.  1.
       -5    1    3    3    0  502 -0.14301936445E+03 -0.38292388780E+03 -0.88006883067E+03  0.97037543207E+03  0.46999998093E+01 0. -1.
</event>
<event>
 5   0  0.3635143E-04  0.1713078E+04  0.7818609E-02  0.8753941E-01
       -1   -1    0    0    0  501  0.00000000000E+00  0.00000000000E+00  0.84527581413E+03  0.84527581414E+03  0.50400001928E-02 0. -1.
        1   -1    0    0  501    0  0.00000000000E+00  0.00000000000E+00 -0.86795187584E+03  0.86795187585E+03  0.50400001928E-02 0.  1.
    10030    2    1    2    0    0  0.00000000000E+00  0.00000000000E+00 -0.22676061710E+02  0.17132276900E+04  0.17130776147E+04 0.  0.
        3    1    3    3  502    0 -0.24982280935E+03  0.30927139616E+03  0.74741050558E+03  0.84657114680E+03  0.10100000352E+00 0. -1.
       -3    1    3    3    0  502  0.24982280935E+03 -0.30927139616E+03 -0.77008656729E+03  0.86665654320E+03  0.10100000352E+00 0.  1.
</event>
<event>
 5   0  0.7242144E-04  0.1738561E+04  0.7818609E-02  0.8739672E-01
        2   -1    0    0  501    0  0.00000000000E+00  0.00000000000E+00  0.14081260846E+04  0.14081260846E+04  0.25500000920E-02 0. -1.
       -2   -1    0    0    0  501  0.00000000000E+00  0.00000000000E+00 -0.53663392983E+03  0.53663392983E+03  0.25500000920E-02 0.  1.
    10030    2    1    2    0    0  0.00000000000E+00  0.00000000000E+00  0.87149215473E+03  0.19447600144E+04  0.17385605937E+04 0.  0.
        3    1    3    3  502    0  0.37778107206E+03 -0.42426346673E+03  0.11717584655E+04  0.13022042618E+04  0.10100000352E+00 0. -1.
       -3    1    3    3    0  502 -0.37778107206E+03  0.42426346673E+03 -0.30026631082E+03  0.64255575262E+03  0.10100000352E+00 0.  1.
</event>
<event>
 5   0  0.6746664E-04  0.1765065E+04  0.7818609E-02  0.8725101E-01
       -2   -1    0    0    0  501  0.00000000000E+00  0.00000000000E+00  0.37221261223E+03  0.37221261223E+03  0.25500000920E-02 0. -1.
        2   -1    0    0  501    0  0.00000000000E+00  0.00000000000E+00 -0.20925226688E+04  0.20925226688E+04  0.25500000920E-02 0.  1.
    10030    2    1    2    0    0  0.00000000000E+00  0.00000000000E+00 -0.17203100566E+04  0.24647352810E+04  0.17650646772E+04 0.  0.
        5    1    3    3  502    0  0.46387813267E+03 -0.61452217574E+03 -0.25788614427E+03  0.81200232749E+03  0.46999998093E+01 0. -1.
       -5    1    3    3    0  502 -0.46387813267E+03  0.61452217574E+03 -0.14624239123E+04  0.16527329536E+04  0.46999998093E+01 0.  1.
</event>
<event>
 5   0  0.3713516E-04  0.1698213E+04  0.7818609E-02  0.8762384E-01
       -1   -1    0    0    0  501  0.00000000000E+00  0.00000000000E+00  0.59335840620E+03  0.59335840622E+03  0.50400001928E-02 0.  1.
        1   -1    0    0  501    0  0.00000000000E+00  0.00000000000E+00 -0.12150860477E+04  0.12150860477E+04  0.50400001928E-02 0. -1.
    10030    2    1    2    0    0  0.00000000000E+00  0.00000000000E+00 -0.62172764154E+03  0.18084444540E+04  0.16982126141E+04 0.  0.
        5    1    3    3  502    0  0.10991680740E+03 -0.65002374630E+03  0.25898456274E+03  0.70831325630E+03  0.46999998093E+01 0. -1.
       -5    1    3    3    0  502 -0.10991680740E+03  0.65002374630E+03 -0.88071220428E+03  0.11001311977E+04  0.46999998093E+01 0.  1.
</event>
<event>
 5   0  0.7233728E-04  0.1492468E+04  0.7818609E-02  0.8889477E-01
       -2   -1    0    0    0  501  0.00000000000E+00  0.00000000000E+00  0.40408399801E+03  0.40408399802E+03  0.25500000920E-02 0. -1.
        2   -1    0    0  501    0  0.00000000000E+00  0.00000000000E+00 -0.13780917334E+04  0.13780917334E+04  0.25500000920E-02 0.  1.
    10030    2    1    2    0    0  0.00000000000E+00  0.00000000000E+00 -0.97400773534E+03  0.17821757314E+04  0.14924675102E+04 0.  0.
        1    1    3    3  502    0  0.52080027124E+03 -0.48505605986E+03 -0.21905235260E+03  0.74464504090E+03  0.50400001928E-02 0. -1.
       -1    1    3    3    0  502 -0.52080027124E+03  0.48505605986E+03 -0.75495538274E+03  0.10375306905E+04  0.50400001928E-02 0.  1.
</event>
<event>
 5   0  0.3723500E-04  0.1672889E+04  0.7818609E-02  0.8776980E-01
       -1   -1    0    0    0  501  0.00000000000E+00  0.00000000000E+00  0.97142371452E+03  0.97142371454E+03  0.50400001928E-02 0.  1.
        1   -1    0    0  501    0  0.00000000000E+00  0.00000000000E+00 -0.72022055977E+03  0.72022055979E+03  0.50400001928E-02 0. -1.
    10030    2    1    2    0    0  0.00000000000E+00  0.00000000000E+00  0.25120315475E+03  0.16916442743E+04  0.16728889162E+04 0.  0.
        1    1    3    3  502    0 -0.66643823646E+03  0.45346055933E+03 -0.10022464995E+03  0.81228774604E+03  0.50400001928E-02 0.  1.
       -1    1    3    3    0  502  0.66643823646E+03 -0.45346055933E+03  0.35142780470E+03  0.87935652828E+03  0.50400001928E-02 0. -1.
</event>
<event>
 5   0  0.7242144E-04  0.1692467E+04  0.7818609E-02  0.8765672E-01
       -2   -1    0    0    0  501  0.00000000000E+00  0.00000000000E+00  0.37793018486E+03  0.37793018487E+03  0.25500000920E-02 0.  1.
        2   -1    0    0  501    0  0.00000000000E+00  0.00000000000E+00 -0.18948244403E+04  0.18948244403E+04  0.25500000920E-02 0. -1.
    10030    2    1    2    0    0  0.00000000000E+00  0.00000000000E+00 -0.15168942554E+04  0.22727546252E+04  0.16924672535E+04 0.  0.
        3    1    3    3  502    0  0.49306052070E+03 -0.26095551355E+02 -0.16813398446E+04  0.17523393901E+04  0.10100000352E+00 0. -1.
       -3    1    3    3    0  502 -0.49306052070E+03  0.26095551355E+02  0.16444558918E+03  0.52041523505E+03  0.10100000352E+00 0.  1.
</event>
<event>
 5   0  0.7049044E-04  0.1647694E+04  0.7818609E-02  0.8791772E-01
       -2   -1    0    0    0  501  0.00000000000E+00  0.00000000000E+00  0.44980465604E+03  0.44980465605E+03  0.25500000920E-02 0. -1.
        2   -1    0    0  501    0  0.00000000000E+00  0.00000000000E+00 -0.15089294970E+04  0.15089294970E+04  0.25500000920E-02 0.  1.
    10030    2    1    2    0    0  0.00000000000E+00  0.00000000000E+00 -0.10591248409E+04  0.19587341530E+04  0.16476935557E+04 0.  0.
        4    1    3    3  502    0  0.11047332034E+01 -0.30584672567E+03  0.37981301521E+03  0.48765046853E+03  0.12699999809E+01 0. -1.
       -4    1    3    3    0  502 -0.11047332034E+01  0.30584672567E+03 -0.14389378561E+04  0.14710836845E+04  0.12699999809E+01 0.  1.
</event>
<event>
 5   0  0.7025426E-04  0.1733859E+04  0.7818609E-02  0.8742285E-01
       -2   -1    0    0    0  501  0.00000000000E+00  0.00000000000E+00  0.50934139216E+03  0.50934139217E+03  0.25500000920E-02 0. -1.
        2   -1    0    0  501    0  0.00000000000E+00  0.00000000000E+00 -0.14755663483E+04  0.14755663483E+04  0.25500000920E-02 0.  1.
    10030    2    1    2    0    0  0.00000000000E+00  0.00000000000E+00 -0.96622495610E+03  0.19849077404E+04  0.17338593000E+04 0.  0.
        2    1    3    3  502    0 -0.68672083372E+02 -0.32846445296E+03  0.43197808976E+03  0.54700075131E+03  0.25500000920E-02 0. -1.
       -2    1    3    3    0  502  0.68672083372E+02  0.32846445296E+03 -0.13982030459E+04  0.14379069891E+04  0.25500000920E-02 0.  1.
</event>
<event>
 5   0  0.7025426E-04  0.1533195E+04  0.7818609E-02  0.8862674E-01
       -2   -1    0    0    0  501  0.00000000000E+00  0.00000000000E+00  0.32734820701E+03  0.32734820702E+03  0.25500000920E-02 0. -1.
        2   -1    0    0  501    0  0.00000000000E+00  0.00000000000E+00 -0.17952504048E+04  0.17952504048E+04  0.25500000920E-02 0.  1.
    10030    2    1    2    0    0  0.00000000000E+00  0.00000000000E+00 -0.14679021978E+04  0.21225986118E+04  0.15331953576E+04 0.  0.
        2    1    3    3  502    0 -0.99839576781E+02 -0.68656670585E+03 -0.11853897436E+04  0.13734957688E+04  0.25500000920E-02 0.  1.
       -2    1    3    3    0  502  0.99839576781E+02  0.68656670585E+03 -0.28251245421E+03  0.74910284305E+03  0.25500000920E-02 0. -1.
</event>
<event>
 5   0  0.7233728E-04  0.1725035E+04  0.7818609E-02  0.8747213E-01
       -2   -1    0    0    0  501  0.00000000000E+00  0.00000000000E+00  0.98730011402E+03  0.98730011403E+03  0.25500000920E-02 0. -1.
        2   -1    0    0  501    0  0.00000000000E+00  0.00000000000E+00 -0.75350594269E+03  0.75350594270E+03  0.25500000920E-02 0.  1.
    10030    2    1    2    0    0  0.00000000000E+00  0.00000000000E+00  0.23379417133E+03  0.17408060567E+04  0.17250350758E+04 0.  0.
        1    1    3    3  502    0 -0.70499683895E+03 -0.87858359681E+02 -0.37665183218E+03  0.80411829790E+03  0.50400001928E-02 0.  1.
       -1    1    3    3    0  502  0.70499683895E+03  0.87858359681E+02  0.61044600351E+03  0.93668775883E+03  0.50400001928E-02 0. -1.
</event>
<event>
 5   0  0.3713516E-04  0.1702344E+04  0.7818609E-02  0.8760029E-01
       -1   -1    0    0    0  501  0.00000000000E+00  0.00000000000E+00  0.12018917622E+04  0.12018917622E+04  0.50400001928E-02 0.  1.
        1   -1    0    0  501    0  0.00000000000E+00  0.00000000000E+00 -0.60279442508E+03  0.60279442510E+03  0.50400001928E-02 0. -1.
    10030    2    1    2    0    0  0.00000000000E+00  0.00000000000E+00  0.59909733708E+03  0.18046861873E+04  0.17023438593E+04 0.  0.
        5    1    3    3  502    0  0.38044095597E+03 -0.69180006483E+03 -0.37610532582E+02  0.79041716380E+03  0.46999998093E+01 0. -1.
       -5    1    3    3    0  502 -0.38044095597E+03  0.69180006483E+03  0.63670786967E+03  0.10142690235E+04  0.46999998093E+01 0.  1.
</event>
<event>
 5   0  0.3723500E-04  0.1672219E+04  0.7818609E-02  0.8777370E-01
       -1   -1    0    0    0  501  0.00000000000E+00  0.00000000000E+00  0.73006549982E+03  0.73006549984E+03  0.50400001928E-02 0.  1.
        1   -1    0    0  501    0  0.00000000000E+00  0.00000000000E+00 -0.95755638827E+03  0.95755638829E+03  0.50400001928E-02 0. -1.
    10030    2    1    2    0    0  0.00000000000E+00  0.00000000000E+00 -0.22749088845E+03  0.16876218881E+04  0.16722187455E+04 0.  0.
        1    1    3    3  502    0  0.47134951193E+03 -0.65105506704E+03 -0.34616181103E+03  0.87514059565E+03  0.50400001928E-02 0.  1.
       -1    1    3    3    0  502 -0.47134951193E+03  0.65105506704E+03  0.11867092258E+03  0.81248129247E+03  0.50400001928E-02 0. -1.
</event>
<event>
 5   0  0.7233728E-04  0.1892827E+04  0.7818609E-02  0.8658435E-01
        2   -1    0    0  501    0  0.00000000000E+00  0.00000000000E+00  0.18631709742E+04  0.18631709742E+04  0.25500000920E-02 0. -1.
       -2   -1    0    0    0  501  0.00000000000E+00  0.00000000000E+00 -0.48073887226E+03  0.48073887227E+03  0.25500000920E-02 0.  1.
    10030    2    1    2    0    0  0.00000000000E+00  0.00000000000E+00  0.13824321020E+04  0.23439098465E+04  0.18928272113E+04 0.  0.
        1    1    3    3  502    0  0.31470626677E+03 -0.88954632725E+03  0.60050594297E+03  0.11184543309E+04  0.50400001928E-02 0. -1.
       -1    1    3    3    0  502 -0.31470626677E+03  0.88954632725E+03  0.78192615901E+03  0.12254555156E+04  0.50400001928E-02 0.  1.
</event>
<event>
 5   0  0.3915701E-04  0.1654191E+04  0.7818609E-02  0.8787931E-01
       -1   -1    0    0    0  501  0.00000000000E+00  0.00000000000E+00  0.10118410442E+04  0.10118410442E+04  0.50400001928E-02 0.  1.
        1   -1    0    0  501    0  0.00000000000E+00  0.00000000000E+00 -0.67608142426E+03  0.67608142428E+03  0.50400001928E-02 0. -1.
    10030    2    1    2    0    0  0.00000000000E+00  0.00000000000E+00  0.33575961994E+03  0.16879224685E+04  0.16541909616E+04 0.  0.
        2    1    3    3  502    0  0.24684587891E+03 -0.12371296462E+03 -0.62766520214E+03  0.68571232419E+03  0.25500000920E-02 0. -1.
       -2    1    3    3    0  502 -0.24684587891E+03  0.12371296462E+03  0.96342482209E+03  0.10022101443E+04  0.25500000920E-02 0.  1.
</event>
<event>
 5   0  0.3635143E-04  0.1761184E+04  0.7818609E-02  0.8727218E-01
        1   -1    0    0  501    0  0.00000000000E+00  0.00000000000E+00  0.77665544897E+03  0.77665544899E+03  0.50400001928E-02 0.  1.
       -1   -1    0    0    0  501  0.00000000000E+00  0.00000000000E+00 -0.99843827820E+03  0.99843827822E+03  0.50400001928E-02 0. -1.
    10030    2    1    2    0    0  0.00000000000E+00  0.00000000000E+00 -0.22178282924E+03  0.17750937272E+04  0.17611842939E+04 0.  0.
        3    1    3    3  502    0  0.32279043030E+03 -0.27515898394E+03  0.66691341909E+03  0.79036678011E+03  0.10100000352E+00 0.  1.
       -3    1    3    3    0  502 -0.32279043030E+03  0.27515898394E+03 -0.88869624833E+03  0.98472694709E+03  0.10100000352E+00 0. -1.
</event>
<event>
 5   0  0.3803253E-04  0.1785647E+04  0.7818609E-02  0.8713970E-01
        1   -1    0    0  501    0  0.00000000000E+00  0.00000000000E+00  0.16848728918E+04  0.16848728918E+04  0.50400001928E-02 0. -1.
       -1   -1    0    0    0  501  0.00000000000E+00  0.00000000000E+00 -0.47311228072E+03  0.47311228075E+03  0.50400001928E-02 0.  1.
    10030    2    1    2    0    0  0.00000000000E+00  0.00000000000E+00  0.12117606111E+04  0.21579851725E+04  0.17856472850E+04 0.  0.
        4    1    3    3  502    0 -0.28760088291E+03  0.81957533116E+03  0.35611034797E+03  0.93874074383E+03  0.12699999809E+01 0. -1.
       -4    1    3    3    0  502  0.28760088291E+03 -0.81957533116E+03  0.85565026310E+03  0.12192444287E+04  0.12699999809E+01 0.  1.
</event>
<event>
 5   0  0.7233728E-04  0.1719857E+04  0.7818609E-02  0.8750119E-01
        2   -1    0    0  501    0  0.00000000000E+00  0.00000000000E+00  0.33753983387E+03  0.33753983388E+03  0.25500000920E-02 0. -1.
       -2   -1    0    0    0  501  0.00000000000E+00  0.00000000000E+00 -0.21907856693E+04  0.21907856693E+04  0.25500000920E-02 0.  1.
    10030    2    1    2    0    0  0.00000000000E+00  0.00000000000E+00 -0.18532458354E+04  0.25283255031E+04  0.17198574718E+04 0.  0.
        1    1    3    3  502    0 -0.81566229699E+03  0.22222314580E+03 -0.69516456996E+03  0.10945053169E+04  0.50400001928E-02 0. -1.
       -1    1    3    3    0  502  0.81566229699E+03 -0.22222314580E+03 -0.11580812654E+04  0.14338201863E+04  0.50400001928E-02 0.  1.
</event>
<event>
 5   0  0.3915701E-04  0.1629519E+04  0.7818609E-02  0.8802616E-01
       -1   -1    0    0    0  501  0.00000000000E+00  0.00000000000E+00  0.79510754899E+03  0.79510754901E+03  0.50400001928E-02 0. -1.
        1   -1    0    0  501    0  0.00000000000E+00  0.00000000000E+00 -0.83489741403E+03  0.83489741405E+03  0.50400001928E-02 0.  1.
    10030    2    1    2    0    0  0.00000000000E+00  0.00000000000E+00 -0.39789865038E+02  0.16300049631E+04  0.16295192378E+04 0.  0.
        2    1    3    3  502    0 -0.17311511983E+03 -0.50375612395E+03  0.59680660736E+03  0.79994825065E+03  0.25500000920E-02 0. -1.
       -2    1    3    3    0  502  0.17311511983E+03  0.50375612395E+03 -0.63659647239E+03  0.83005671240E+03  0.25500000920E-02 0.  1.
</event>
<event>
 5   0  0.3635143E-04  0.1604410E+04  0.7818609E-02  0.8817843E-01
       -1   -1    0    0    0  501  0.00000000000E+00  0.00000000000E+00  0.12149532377E+04  0.12149532378E+04  0.50400001928E-02 0.  1.
        1   -1    0    0  501    0  0.00000000000E+00  0.00000000000E+00 -0.52967695964E+03  0.52967695966E+03  0.50400001928E-02 0. -1.
    10030    2    1    2    0    0  0.00000000000E+00  0.00000000000E+00  0.68527627810E+03  0.17446301974E+04  0.16044098443E+04 0.  0.
        3    1    3    3  502    0 -0.30774988922E+03 -0.24055020122E+03 -0.41928363552E+03  0.57303854219E+03  0.10100000352E+00 0. -1.
       -3    1    3    3    0  502  0.30774988922E+03  0.24055020122E+03  0.11045599136E+04  0.11715916552E+04  0.10100000352E+00 0.  1.
</event>
<event>
 5   0  0.3713516E-04  0.1673127E+04  0.7818609E-02  0.8776841E-01
       -1   -1    0    0    0  501  0.00000000000E+00  0.00000000000E+00  0.62311823140E+03  0.62311823142E+03  0.50400001928E-02 0.  1.
        1   -1    0    0  501    0  0.00000000000E+00  0.00000000000E+00 -0.11231227788E+04  0.11231227788E+04  0.50400001928E-02 0. -1.
    10030    2    1    2    0    0  0.00000000000E+00  0.00000000000E+00 -0.50000454744E+03  0.17462410103E+04  0.16731267491E+04 0.  0.
        5    1    3    3  502    0 -0.68038113707E+03  0.46732832949E+03 -0.10803643183E+03  0.83247115255E+03  0.46999998093E+01 0. -1.
       -5    1    3    3    0  502  0.68038113707E+03 -0.46732832949E+03 -0.39196811560E+03  0.91376985772E+03  0.46999998093E+01 0.  1.
</event>
<event>
 5   0  0.7233728E-04  0.1667303E+04  0.7818609E-02  0.8780235E-01
        2   -1    0    0  501    0  0.00000000000E+00  0.00000000000E+00  0.66132935801E+03  0.66132935802E+03  0.25500000920E-02 0.  1.
       -2   -1    0    0    0  501  0.00000000000E+00  0.00000000000E+00 -0.10508756523E+04  0.10508756523E+04  0.25500000920E-02 0. -1.
    10030    2    1    2    0    0  0.00000000000E+00  0.00000000000E+00 -0.38954629426E+03  0.17122050103E+04  0.16673031164E+04 0.  0.
        1    1    3    3  502    0  0.79826954446E+03 -0.12980972055E+03 -0.40243190013E+03  0.90334725517E+03  0.50400001928E-02 0.  1.
       -1    1    3    3    0  502 -0.79826954446E+03  0.12980972055E+03  0.12885605875E+02  0.80885775512E+03  0.50400001928E-02 0. -1.
</event>
<event>
 5   0  0.2639750E-04  0.1757243E+04  0.7818609E-02  0.8729374E-01
       -3   -1    0    0    0  501  0.00000000000E+00  0.00000000000E+00  0.50814924973E+03  0.50814925977E+03  0.10100000352E+00 0. -1.
        3   -1    0    0  501    0  0.00000000000E+00  0.00000000000E+00 -0.15191903672E+04  0.15191903706E+04  0.10100000352E+00 0.  1.
    10030    2    1    2    0    0  0.00000000000E+00  0.00000000000E+00 -0.10110411175E+04  0.20273396303E+04  0.17572426797E+04 0.  0.
        5    1    3    3  502    0 -0.36274322431E+03  0.63677033227E+03  0.53632847553E+02  0.73481812388E+03  0.46999998093E+01 0. -1.
       -5    1    3    3    0  502  0.36274322431E+03 -0.63677033227E+03 -0.10646739650E+04  0.12925215065E+04  0.46999998093E+01 0.  1.
</event>
<event>
 5   0  0.3713516E-04  0.1737387E+04  0.7818609E-02  0.8740324E-01
       -1   -1    0    0    0  501  0.00000000000E+00  0.00000000000E+00  0.76197224358E+03  0.76197224360E+03  0.50400001928E-02 0.  1.
        1   -1    0    0  501    0  0.00000000000E+00  0.00000000000E+00 -0.99036158702E+03  0.99036158704E+03  0.50400001928E-02 0. -1.
    10030    2    1    2    0    0  0.00000000000E+00  0.00000000000E+00 -0.22838934344E+03  0.17523338306E+04  0.17373865896E+04 0.  0.
        5    1    3    3  502    0 -0.26976197180E+03 -0.74914793100E+03 -0.46447463193E+03  0.92182043677E+03  0.46999998093E+01 0. -1.
       -5    1    3    3    0  502  0.26976197180E+03  0.74914793100E+03  0.23608528849E+03  0.83051339386E+03  0.46999998093E+01 0.  1.
</event>
<event>
 5   0  0.7025426E-04  0.1699914E+04  0.7818609E-02  0.8761414E-01
        2   -1    0    0  501    0  0.00000000000E+00  0.00000000000E+00  0.66895926402E+03  0.66895926403E+03  0.25500000920E-02 0. -1.
       -2   -1    0    0    0  501  0.00000000000E+00  0.00000000000E+00 -0.10799262583E+04  0.10799262583E+04  0.25500000920E-02 0.  1.
    10030    2    1    2    0    0  0.00000000000E+00  0.00000000000E+00 -0.41096699429E+03  0.17488855223E+04  0.16999137331E+04 0.  0.
        2    1    3    3  502    0 -0.24295030988E+03  0.78445256322E+03 -0.43096862821E+03  0.92742904608E+03  0.25500000920E-02 0.  1.
       -2    1    3    3    0  502  0.24295030988E+03 -0.78445256322E+03  0.20001633919E+02  0.82145647625E+03  0.25500000920E-02 0. -1.
</event>
<event>
 5   0  0.3915701E-04  0.1685561E+04  0.7818609E-02  0.8769642E-01
       -1   -1    0    0    0  501  0.00000000000E+00  0.00000000000E+00  0.54836185998E+03  0.54836186000E+03  0.50400001928E-02 0. -1.
        1   -1    0    0  501    0  0.00000000000E+00  0.00000000000E+00 -0.12952745648E+04  0.12952745648E+04  0.50400001928E-02 0.  1.
    10030    2    1    2    0    0  0.00000000000E+00  0.00000000000E+00 -0.74691270483E+03  0.18436364248E+04  0.16855612354E+04 0.  0.
        2    1    3    3  502    0 -0.65002625180E+03 -0.34473633458E+03  0.76062607386E+02  0.73970452794E+03  0.25500000920E-02 0.  1.
       -2    1    3    3    0  502  0.65002625180E+03  0.34473633458E+03 -0.82297531222E+03  0.11039318969E+04  0.25500000920E-02 0. -1.
</event>
<event>
 5   0  0.6746664E-04  0.1650963E+04  0.7818609E-02  0.8789837E-01
       -2   -1    0    0    0  501  0.00000000000E+00  0.00000000000E+00  0.70574649833E+03  0.70574649833E+03  0.25500000920E-02 0. -1.
        2   -1    0    0  501    0  0.00000000000E+00  0.00000000000E+00 -0.96553011007E+03  0.96553011008E+03  0.25500000920E-02 0.  1.
    10030    2    1    2    0    0  0.00000000000E+00  0.00000000000E+00 -0.25978361175E+03  0.16712766084E+04  0.16509627424E+04 0.  0.
        5    1    3    3  502    0  0.11903138591E+03 -0.14023167380E+03  0.68472321595E+03  0.70901436207E+03  0.46999998093E+01 0. -1.
       -5    1    3    3    0  502 -0.11903138591E+03  0.14023167380E+03 -0.94450682769E+03  0.96226224634E+03  0.46999998093E+01 0.  1.
</event>
<event>
 5   0  0.7049044E-04  0.1744487E+04  0.7818609E-02  0.8736391E-01
       -2   -1    0    0    0  501  0.00000000000E+00  0.00000000000E+00  0.12065269043E+04  0.12065269043E+04  0.25500000920E-02 0. -1.
        2   -1    0    0  501    0  0.00000000000E+00  0.00000000000E+00 -0.63057772971E+03  0.63057772971E+03  0.25500000920E-02 0.  1.
    10030    2    1    2    0    0  0.00000000000E+00  0.00000000000E+00  0.57594917455E+03  0.18371046340E+04  0.17444873128E+04 0.  0.
        4    1    3    3  502    0 -0.54563850788E+03 -0.39597065812E+03 -0.29484586449E+03  0.73583275279E+03  0.12699999809E+01 0.  1.
       -4    1    3    3    0  502  0.54563850788E+03  0.39597065812E+03  0.87079503904E+03  0.11012718812E+04  0.12699999809E+01 0. -1.
</event>
<event>
 5   0  0.7049044E-04  0.1709172E+04  0.7818609E-02  0.8756150E-01
        2   -1    0    0  501    0  0.00000000000E+00  0.00000000000E+00  0.65152972197E+03  0.65152972197E+03  0.25500000920E-02 0. -1.
       -2   -1    0    0    0  501  0.00000000000E+00  0.00000000000E+00 -0.11209272319E+04  0.11209272319E+04  0.25500000920E-02 0.  1.
    10030    2    1    2    0    0  0.00000000000E+00  0.00000000000E+00 -0.46939750989E+03  0.17724569538E+04  0.17091722063E+04 0.  0.
        4    1    3    3  502    0  0.35631927028E+03 -0.19123178129E+03 -0.10154239549E+04  0.10929869338E+04  0.12699999809E+01 0.  1.
       -4    1    3    3    0  502 -0.35631927028E+03  0.19123178129E+03  0.54602644498E+03  0.67947001999E+03  0.12699999809E+01 0. -1.
</event>
<event>
 5   0  0.3713516E-04  0.1693207E+04  0.7818609E-02  0.8765248E-01
        1   -1    0    0  501    0  0.00000000000E+00  0.00000000000E+00  0.20438264751E+04  0.20438264751E+04  0.50400001928E-02 0. -1.
       -1   -1    0    0    0  501  0.00000000000E+00  0.00000000000E+00 -0.35068411470E+03  0.35068411473E+03  0.50400001928E-02 0.  1.
    10030    2    1    2    0    0  0.00000000000E+00  0.00000000000E+00  0.16931423604E+04  0.23945105899E+04  0.16932069904E+04 0.  0.
        5    1    3    3  502    0  0.33449369396E+02  0.63168725810E+03  0.50888262826E+02  0.63463324657E+03  0.46999998093E+01 0.  1.
       -5    1    3    3    0  502 -0.33449369396E+02 -0.63168725810E+03  0.16422540976E+04  0.17598773433E+04  0.46999998093E+01 0. -1.
</event>
<event>
 5   0  0.3713516E-04  0.1729998E+04  0.7818609E-02  0.8744438E-01
       -1   -1    0    0    0  501  0.00000000000E+00  0.00000000000E+00  0.48584497944E+03  0.48584497947E+03  0.50400001928E-02 0. -1.
        1   -1    0    0  501    0  0.00000000000E+00  0.00000000000E+00 -0.15400451799E+04  0.15400451799E+04  0.50400001928E-02 0.  1.
    10030    2    1    2    0    0  0.00000000000E+00  0.00000000000E+00 -0.10542002004E+04  0.20258901593E+04  0.17299979408E+04 0.  0.
        5    1    3    3  502    0  0.64792904620E+03  0.65169200957E+02 -0.11938116817E+04  0.13598777500E+04  0.46999998093E+01 0.  1.
       -5    1    3    3    0  502 -0.64792904620E+03 -0.65169200957E+02  0.13961148127E+03  0.66601240932E+03  0.46999998093E+01 0. -1.
</event>
<event>
 5   0  0.3713516E-04  0.1680232E+04  0.7818609E-02  0.8772720E-01
       -1   -1    0    0    0  501  0.00000000000E+00  0.00000000000E+00  0.17089301170E+04  0.17089301170E+04  0.50400001928E-02 0. -1.
        1   -1    0    0  501    0  0.00000000000E+00  0.00000000000E+00 -0.41300404322E+03  0.41300404325E+03  0.50400001928E-02 0.  1.
    10030    2    1    2    0    0  0.00000000000E+00  0.00000000000E+00  0.12959260738E+04  0.21219341603E+04  0.16802321839E+04 0.  0.
        5    1    3    3  502    0  0.47311957737E+03  0.24607427139E+03  0.14677455999E+04  0.15616318124E+04  0.46999998093E+01 0. -1.
       -5    1    3    3    0  502 -0.47311957737E+03 -0.24607427139E+03 -0.17181952605E+03  0.56030234790E+03  0.46999998093E+01 0.  1.
</event>
<event>
 5   0  0.7049044E-04  0.1625625E+04  0.7818609E-02  0.8804958E-01
        2   -1    0    0  501    0  0.00000000000E+00  0.00000000000E+00  0.13963173020E+04  0.13963173020E+04  0.25500000920E-02 0.  1.
       -2   -1    0    0    0  501  0.00000000000E+00  0.00000000000E+00 -0.47314763124E+03  0.47314763125E+03  0.25500000920E-02 0. -1.
    10030    2    1    2    0    0  0.00000000000E+00  0.00000000000E+00  0.92316967079E+03  0.18694649333E+04  0.16256250785E+04 0.  0.
        4    1    3    3  502    0  0.70146588501E+03 -0.22526967849E+03  0.85639057570E+03  0.11296934305E+04  0.12699999809E+01 0.  1.
       -4    1    3    3    0  502 -0.70146588501E+03  0.22526967849E+03  0.66779095090E+02  0.73977150278E+03  0.12699999809E+01 0. -1.
</event>
<event>
 5   0  0.6746664E-04  0.1711086E+04  0.7818609E-02  0.8755067E-01
       -2   -1    0    0    0  501  0.00000000000E+00  0.00000000000E+00  0.44902246544E+03  0.44902246545E+03  0.25500000920E-02 0.  1.
        2   -1    0    0  501    0  0.00000000000E+00  0.00000000000E+00 -0.16301054456E+04  0.16301054456E+04  0.25500000920E-02 0. -1.
    10030    2    1    2    0    0  0.00000000000E+00  0.00000000000E+00 -0.11810829802E+04  0.20791279111E+04  0.17110861651E+04 0.  0.
        5    1    3    3  502    0  0.19374793095E+03 -0.37095093789E+03 -0.14972227904E+04  0.15546192566E+04  0.46999998093E+01 0. -1.
       -5    1    3    3    0  502 -0.19374793095E+03  0.37095093789E+03  0.31613981015E+03  0.52450865448E+03  0.46999998093E+01 0.  1.
</event>
<event>
 5   0  0.3635143E-04  0.1705975E+04  0.7818609E-02  0.8757964E-01
       -1   -1    0    0    0  501  0.00000000000E+00  0.00000000000E+00  0.78241072927E+03  0.78241072929E+03  0.50400001928E-02 0. -1.
        1   -1    0    0  501    0  0.00000000000E+00  0.00000000000E+00 -0.92993107808E+03  0.92993107809E+03  0.50400001928E-02 0.  1.
    10030    2    1    2    0    0  0.00000000000E+00  0.00000000000E+00 -0.14752034881E+03  0.17123418074E+04  0.17059754430E+04 0.  0.
        3    1    3    3  502    0 -0.77492450294E+03 -0.25227480362E+03 -0.32656807938E+03  0.87795061505E+03  0.10100000352E+00 0.  1.
       -3    1    3    3    0  502  0.77492450294E+03  0.25227480362E+03  0.17904773058E+03  0.83439119232E+03  0.10100000352E+00 0. -1.
</event>
<event>
 5   0  0.7049044E-04  0.1675012E+04  0.7818609E-02  0.8775746E-01
       -2   -1    0    0    0  501  0.00000000000E+00  0.00000000000E+00  0.91304797377E+03  0.91304797378E+03  0.25500000920E-02 0.  1.
        2   -1    0    0  501    0  0.00000000000E+00  0.00000000000E+00 -0.76821366529E+03  0.76821366530E+03  0.25500000920E-02 0. -1.
    10030    2    1    2    0    0  0.00000000000E+00  0.00000000000E+00  0.14483430848E+03  0.16812616391E+04  0.16750115588E+04 0.  0.
        4    1    3    3  502    0  0.46087854015E+03  0.36831220513E+03 -0.52423458223E+03  0.78923153721E+03  0.12699999809E+01 0. -1.
       -4    1    3    3    0  502 -0.46087854015E+03 -0.36831220513E+03  0.66906889071E+03  0.89203010187E+03  0.12699999809E+01 0.  1.
</event>
<event>
 5   0  0.7233728E-04  0.1649111E+04  0.7818609E-02  0.8790932E-01
        2   -1    0    0  501    0  0.00000000000E+00  0.00000000000E+00  0.13984101469E+04  0.13984101469E+04  0.25500000920E-02 0.  1.
       -2   -1    0    0    0  501  0.00000000000E+00  0.00000000000E+00 -0.48618930811E+03  0.48618930812E+03  0.25500000920E-02 0. -1.
    10030    2    1    2    0    0  0.00000000000E+00  0.00000000000E+00  0.91222083881E+03  0.18845994550E+04  0.16491113508E+04 0.  0.
        1    1    3    3  502    0 -0.27914790983E+03 -0.21916307236E+03 -0.39443771578E+03  0.53060071570E+03  0.50400001928E-02 0. -1.
       -1    1    3    3    0  502  0.27914790983E+03  0.21916307236E+03  0.13066585546E+04  0.13539987393E+04  0.50400001928E-02 0.  1.
</event>
<event>
 5   0  0.3635143E-04  0.1723723E+04  0.7818609E-02  0.8747949E-01
       -1   -1    0    0    0  501  0.00000000000E+00  0.00000000000E+00  0.10754590857E+04  0.10754590857E+04  0.50400001928E-02 0. -1.
        1   -1    0    0  501    0  0.00000000000E+00  0.00000000000E+00 -0.69068682213E+03  0.69068682215E+03  0.50400001928E-02 0.  1.
    10030    2    1    2    0    0  0.00000000000E+00  0.00000000000E+00  0.38477226355E+03  0.17661459078E+04  0.17237232008E+04 0.  0.
        3    1    3    3  502    0  0.20886686255E+03  0.59564693277E+03 -0.40889977233E+03  0.75207690352E+03  0.10100000352E+00 0.  1.
       -3    1    3    3    0  502 -0.20886686255E+03 -0.59564693277E+03  0.79367203588E+03  0.10140690043E+04  0.10100000352E+00 0. -1.
</event>
<event>
 5   0  0.7242144E-04  0.1659541E+04  0.7818609E-02  0.8784782E-01
        2   -1    0    0  501    0  0.00000000000E+00  0.00000000000E+00  0.91565371735E+03  0.91565371735E+03  0.25500000920E-02 0. -1.
       -2   -1    0    0    0  501  0.00000000000E+00  0.00000000000E+00 -0.75194278615E+03  0.75194278615E+03  0.25500000920E-02 0.  1.
    10030    2    1    2    0    0  0.00000000000E+00  0.00000000000E+00  0.16371093120E+03  0.16675965035E+04  0.16595411503E+04 0.  0.
        3    1    3    3  502    0  0.42391941578E+03  0.13935318132E+03 -0.62110593593E+03  0.76478727374E+03  0.10100000352E+00 0.  1.
       -3    1    3    3    0  502 -0.42391941578E+03 -0.13935318132E+03  0.78481686713E+03  0.90280922977E+03  0.10100000352E+00 0. -1.
</event>
<event>
 5   0  0.3635143E-04  0.1702265E+04  0.7818609E-02  0.8760074E-01
        1   -1    0    0  501    0  0.00000000000E+00  0.00000000000E+00  0.99072968742E+03  0.99072968743E+03  0.50400001928E-02 0. -1.
       -1   -1    0    0    0  501  0.00000000000E+00  0.00000000000E+00 -0.73120489664E+03  0.73120489666E+03  0.50400001928E-02 0.  1.
    10030    2    1    2    0    0  0.00000000000E+00  0.00000000000E+00  0.25952479077E+03  0.17219345841E+04  0.17022648427E+04 0.  0.
        3    1    3    3  502    0  0.67784475197E+03  0.50470625562E+03  0.23204694919E+03  0.87638331172E+03  0.10100000352E+00 0.  1.
       -3    1    3    3    0  502 -0.67784475197E+03 -0.50470625562E+03  0.27477841578E+02  0.84555127237E+03  0.10100000352E+00 0. -1.
</event>
<event>
 5   0  0.3713516E-04  0.1563693E+04  0.7818609E-02  0.8843168E-01
       -1   -1    0    0    0  501  0.00000000000E+00  0.00000000000E+00  0.32509509190E+03  0.32509509194E+03  0.50400001928E-02 0. -1.
        1   -1    0    0  501    0  0.00000000000E+00  0.00000000000E+00 -0.18803247064E+04  0.18803247064E+04  0.50400001928E-02 0.  1.
    10030    2    1    2    0    0  0.00000000000E+00  0.00000000000E+00 -0.15552296145E+04  0.22054197983E+04  0.15636934908E+04 0.  0.
        5    1    3    3  502    0  0.57374798004E+03 -0.36334241324E+03 -0.23126736680E+03  0.71743371736E+03  0.46999998093E+01 0.  1.
       -5    1    3    3    0  502 -0.57374798004E+03  0.36334241324E+03 -0.13239622477E+04  0.14879860810E+04  0.46999998093E+01 0. -1.
</event>
<event>
 5   0  0.3723500E-04  0.1711183E+04  0.7818609E-02  0.8755012E-01
       -1   -1    0    0    0  501  0.00000000000E+00  0.00000000000E+00  0.74076918688E+03  0.74076918690E+03  0.50400001928E-02 0.  1.
        1   -1    0    0  501    0  0.00000000000E+00  0.00000000000E+00 -0.98821195570E+03  0.98821195572E+03  0.50400001928E-02 0. -1.
    10030    2    1    2    0    0  0.00000000000E+00  0.00000000000E+00 -0.24744276882E+03  0.17289811426E+04  0.17111831777E+04 0.  0.
        1    1    3    3  502    0  0.73300742936E+03 -0.37662249694E+03  0.10865451839E+03  0.83123414336E+03  0.50400001928E-02 0.  1.
       -1    1    3    3    0  502 -0.73300742936E+03  0.37662249694E+03 -0.35609728721E+03  0.89774699926E+03  0.50400001928E-02 0. -1.
</event>
<event>
 5   0  0.3723500E-04  0.1705252E+04  0.7818609E-02  0.8758375E-01
       -1   -1    0    0    0  501  0.00000000000E+00  0.00000000000E+00  0.50757466021E+03  0.50757466024E+03  0.50400001928E-02 0. -1.
        1   -1    0    0  501    0  0.00000000000E+00  0.00000000000E+00 -0.14322444355E+04  0.14322444355E+04  0.50400001928E-02 0.  1.
    10030    2    1    2    0    0  0.00000000000E+00  0.00000000000E+00 -0.92466977532E+03  0.19398190958E+04  0.17052518673E+04 0.  0.
        1    1    3    3  502    0 -0.81659645888E+03  0.67220939643E+02 -0.73062097339E+03  0.10977957179E+04  0.50400001928E-02 0.  1.
       -1    1    3    3    0  502  0.81659645888E+03 -0.67220939643E+02 -0.19404880193E+03  0.84202337791E+03  0.50400001928E-02 0. -1.
</event>
<event>
 5   0  0.7242144E-04  0.1676365E+04  0.7818609E-02  0.8774960E-01
        2   -1    0    0  501    0  0.00000000000E+00  0.00000000000E+00  0.17660608723E+04  0.17660608723E+04  0.25500000920E-02 0. -1.
       -2   -1    0    0    0  501  0.00000000000E+00  0.00000000000E+00 -0.39780622642E+03  0.39780622643E+03  0.25500000920E-02 0.  1.
    10030    2    1    2    0    0  0.00000000000E+00  0.00000000000E+00  0.13682546459E+04  0.21638670987E+04  0.16763651288E+04 0.  0.
        3    1    3    3  502    0 -0.64989928089E+03  0.45381485294E+03  0.10358177006E+04  0.13043141167E+04  0.10100000352E+00 0. -1.
       -3    1    3    3    0  502  0.64989928089E+03 -0.45381485294E+03  0.33243694528E+03  0.85955298198E+03  0.10100000352E+00 0.  1.
</event>
<event>
 5   0  0.3723500E-04  0.1672862E+04  0.7818609E-02  0.8776995E-01
       -1   -1    0    0    0  501  0.00000000000E+00  0.00000000000E+00  0.10779275213E+04  0.10779275213E+04  0.50400001928E-02 0. -1.
        1   -1    0    0  501    0  0.00000000000E+00  0.00000000000E+00 -0.64903900936E+03  0.64903900938E+03  0.50400001928E-02 0.  1.
    10030    2    1    2    0    0  0.00000000000E+00  0.00000000000E+00  0.42888851194E+03  0.17269665307E+04  0.16728622306E+04 0.  0.
        1    1    3    3  502    0  0.82453281774E+03 -0.13647764756E+03  0.24924651765E+03  0.87212633397E+03  0.50400001928E-02 0. -1.
       -1    1    3    3    0  502 -0.82453281774E+03  0.13647764756E+03  0.17964199429E+03  0.85484019673E+03  0.50400001928E-02 0.  1.
</event>
<event>
 5   0  0.3915701E-04  0.1071663E+04  0.7818609E-02  0.9233259E-01
        1   -1    0    0  501    0  0.00000000000E+00  0.00000000000E+00  0.66484135795E+03  0.66484135796E+03  0.50400001928E-02 0. -1.
       -1   -1    0    0    0  501  0.00000000000E+00  0.00000000000E+00 -0.43185586039E+03  0.43185586042E+03  0.50400001928E-02 0.  1.
    10030    2    1    2    0    0  0.00000000000E+00  0.00000000000E+00  0.23298549755E+03  0.10966972184E+04  0.10716634484E+04 0.  0.
        2    1    3    3  502    0 -0.19535172915E+03  0.28090919107E+03 -0.30550309039E+03  0.45869860470E+03  0.25500000920E-02 0.  1.
       -2    1    3    3    0  502  0.19535172915E+03 -0.28090919107E+03  0.53848858794E+03  0.63799861368E+03  0.25500000920E-02 0. -1.
</event>
<event>
 5   0  0.3713516E-04  0.1665061E+04  0.7818609E-02  0.8781546E-01
       -1   -1    0    0    0  501  0.00000000000E+00  0.00000000000E+00  0.21766357001E+03  0.21766357007E+03  0.50400001928E-02 0.  1.
        1   -1    0    0  501    0  0.00000000000E+00  0.00000000000E+00 -0.31843050248E+04  0.31843050248E+04  0.50400001928E-02 0. -1.
    10030    2    1    2    0    0  0.00000000000E+00  0.00000000000E+00 -0.29666414548E+04  0.34019685949E+04  0.16650611999E+04 0.  0.
        5    1    3    3  502    0  0.12259581584E+03  0.82340419914E+03 -0.14992652260E+04  0.17148884854E+04  0.46999998093E+01 0.  1.
       -5    1    3    3    0  502 -0.12259581584E+03 -0.82340419914E+03 -0.14673762288E+04  0.16870801095E+04  0.46999998093E+01 0. -1.
</event>
<event>
 5   0  0.7049044E-04  0.1694939E+04  0.7818609E-02  0.8764256E-01
        2   -1    0    0  501    0  0.00000000000E+00  0.00000000000E+00  0.96269729420E+03  0.96269729420E+03  0.25500000920E-02 0.  1.
       -2   -1    0    0    0  501  0.00000000000E+00  0.00000000000E+00 -0.74603378042E+03  0.74603378043E+03  0.25500000920E-02 0. -1.
    10030    2    1    2    0    0  0.00000000000E+00  0.00000000000E+00  0.21666351378E+03  0.17087310746E+04  0.16949391751E+04 0.  0.
        4    1    3    3  502    0 -0.49984641914E+03 -0.11274600436E+03 -0.57217571334E+03  0.76807861842E+03  0.12699999809E+01 0. -1.
       -4    1    3    3    0  502  0.49984641914E+03  0.11274600436E+03  0.78883922712E+03  0.94065245621E+03  0.12699999809E+01 0.  1.
</event>
<event>
 5   0  0.7242144E-04  0.1747968E+04  0.7818609E-02  0.8734470E-01
        2   -1    0    0  501    0  0.00000000000E+00  0.00000000000E+00  0.13874382501E+04  0.13874382501E+04  0.25500000920E-02 0. -1.
       -2   -1    0    0    0  501  0.00000000000E+00  0.00000000000E+00 -0.55054560453E+03  0.55054560454E+03  0.25500000920E-02 0.  1.
    10030    2    1    2    0    0  0.00000000000E+00  0.00000000000E+00  0.83689264554E+03  0.19379838546E+04  0.17479679976E+04 0.  0.
        3    1    3    3  502    0  0.73209699486E+03  0.74091974619E+02  0.94129575157E+03  0.11947775244E+04  0.10100000352E+00 0. -1.
       -3    1    3    3    0  502 -0.73209699486E+03 -0.74091974619E+02 -0.10440310603E+03  0.74320633026E+03  0.10100000352E+00 0.  1.
</event>
<event>
 5   0  0.3803253E-04  0.1696127E+04  0.7818609E-02  0.8763576E-01
        1   -1    0    0  501    0  0.00000000000E+00  0.00000000000E+00  0.78195823707E+03  0.78195823708E+03  0.50400001928E-02 0.  1.
       -1   -1    0    0    0  501  0.00000000000E+00  0.00000000000E+00 -0.91975762394E+03  0.91975762396E+03  0.50400001928E-02 0. -1.
    10030    2    1    2    0    0  0.00000000000E+00  0.00000000000E+00 -0.13779938687E+03  0.17017158610E+04  0.16961274129E+04 0.  0.
        4    1    3    3  502    0  0.63851260075E+03 -0.37144382894E+01  0.49105954361E+03  0.80551426222E+03  0.12699999809E+01 0.  1.
       -4    1    3    3    0  502 -0.63851260075E+03  0.37144382894E+01 -0.62885893049E+03  0.89620159882E+03  0.12699999809E+01 0. -1.
</event>
<event>
 5   0  0.3915701E-04  0.1617424E+04  0.7818609E-02  0.8809915E-01
       -1   -1    0    0    0  501  0.00000000000E+00  0.00000000000E+00  0.51297759027E+03  0.51297759030E+03  0.50400001928E-02 0. -1.
        1   -1    0    0  501    0  0.00000000000E+00  0.00000000000E+00 -0.12749386749E+04  0.12749386749E+04  0.50400001928E-02 0.  1.
    10030    2    1    2    0    0  0.00000000000E+00  0.00000000000E+00 -0.76196108462E+03  0.17879162652E+04  0.16174238396E+04 0.  0.
        2    1    3    3  502    0  0.78946574210E+03  0.13231219927E+03 -0.25372730102E+03  0.83972627642E+03  0.25500000920E-02 0.  1.
       -2    1    3    3    0  502 -0.78946574210E+03 -0.13231219927E+03 -0.50823378360E+03  0.94818998878E+03  0.25500000920E-02 0. -1.
</event>
<event>
 5   0  0.3803253E-04  0.1646689E+04  0.7818609E-02  0.8792368E-01
        1   -1    0    0  501    0  0.00000000000E+00  0.00000000000E+00  0.13547776171E+04  0.13547776171E+04  0.50400001928E-02 0. -1.
       -1   -1    0    0    0  501  0.00000000000E+00  0.00000000000E+00 -0.50037452928E+03  0.50037452931E+03  0.50400001928E-02 0.  1.
    10030    2    1    2    0    0  0.00000000000E+00  0.00000000000E+00  0.85440308781E+03  0.18551521464E+04  0.16466890568E+04 0.  0.
        4    1    3    3  502    0  0.79978607242E+03  0.17477009271E+03  0.32839295367E+03  0.88206909699E+03  0.12699999809E+01 0. -1.
       -4    1    3    3    0  502 -0.79978607242E+03 -0.17477009271E+03  0.52601013414E+03  0.97308304942E+03  0.12699999809E+01 0.  1.
</event>
<event>
 5   0  0.3723500E-04  0.1705974E+04  0.7818609E-02  0.8757964E-01
        1   -1    0    0  501    0  0.00000000000E+00  0.00000000000E+00  0.78589107783E+03  0.78589107784E+03  0.50400001928E-02 0.  1.
       -1   -1    0    0    0  501  0.00000000000E+00  0.00000000000E+00 -0.92581169653E+03  0.92581169654E+03  0.50400001928E-02 0. -1.
    10030    2    1    2    0    0  0.00000000000E+00  0.00000000000E+00 -0.13992061870E+03  0.17117027744E+04  0.17059743868E+04 0.  0.
        1    1    3    3  502    0  0.10242581184E+03  0.42639213318E+03  0.66412871583E+03  0.79584436254E+03  0.50400001928E-02 0.  1.
       -1    1    3    3    0  502 -0.10242581184E+03 -0.42639213318E+03 -0.80404933453E+03  0.91585841185E+03  0.50400001928E-02 0. -1.
</event>
<event>
 5   0  0.2639750E-04  0.1713032E+04  0.7818609E-02  0.8753966E-01
        3   -1    0    0  501    0  0.00000000000E+00  0.00000000000E+00  0.11466984763E+04  0.11466984807E+04  0.10100000352E+00 0.  1.
       -3   -1    0    0    0  501  0.00000000000E+00  0.00000000000E+00 -0.63976703780E+03  0.63976704577E+03  0.10100000352E+00 0. -1.
    10030    2    1    2    0    0  0.00000000000E+00  0.00000000000E+00  0.50693143849E+03  0.17864655265E+04  0.17130322805E+04 0.  0.
        1    1    3    3  502    0  0.21054537451E+03  0.22750181425E+03 -0.57921898564E+03  0.65694829596E+03  0.50400001928E-02 0. -1.
       -1    1    3    3    0  502 -0.21054537451E+03 -0.22750181425E+03  0.10861504241E+04  0.11295172305E+04  0.50400001928E-02 0.  1.
</event>
<event>
 5   0  0.3803253E-04  0.1766248E+04  0.7818609E-02  0.8724457E-01
        1   -1    0    0  501    0  0.00000000000E+00  0.00000000000E+00  0.80283695953E+03  0.80283695955E+03  0.50400001928E-02 0.  1.
       -1   -1    0    0    0  501  0.00000000000E+00  0.00000000000E+00 -0.97144058980E+03  0.97144058981E+03  0.50400001928E-02 0. -1.
    10030    2    1    2    0    0  0.00000000000E+00  0.00000000000E+00 -0.16860363027E+03  0.17742775494E+04  0.17662484644E+04 0.  0.
        4    1    3    3  502    0  0.85836599187E+03 -0.10503528672E+03 -0.26423111615E+03  0.90423685122E+03  0.12699999809E+01 0. -1.
       -4    1    3    3    0  502 -0.85836599187E+03  0.10503528672E+03  0.95627485888E+02  0.87004069814E+03  0.12699999809E+01 0.  1.
</event>
<event>
 5   0  0.7049044E-04  0.1731574E+04  0.7818609E-02  0.8743559E-01
       -2   -1    0    0    0  501  0.00000000000E+00  0.00000000000E+00  0.84462677363E+03  0.84462677363E+03  0.25500000920E-02 0.  1.
        2   -1    0    0  501    0  0.00000000000E+00  0.00000000000E+00 -0.88747746884E+03  0.88747746884E+03  0.25500000920E-02 0. -1.
    10030    2    1    2    0    0  0.00000000000E+00  0.00000000000E+00 -0.42850695211E+02  0.17321042425E+04  0.17315741176E+04 0.  0.
        4    1    3    3  502    0 -0.82415672139E+03  0.20898977678E+03  0.14194822897E+03  0.86201040645E+03  0.12699999809E+01 0. -1.
       -4    1    3    3    0  502  0.82415672139E+03 -0.20898977678E+03 -0.18479892418E+03  0.87009383603E+03  0.12699999809E+01 0.  1.
</event>
<event>
 5   0  0.7049044E-04  0.1677788E+04  0.7818609E-02  0.8774135E-01
        2   -1    0    0  501    0  0.00000000000E+00  0.00000000000E+00  0.10502415298E+04  0.10502415298E+04  0.25500000920E-02 0. -1.
       -2   -1    0    0    0  501  0.00000000000E+00  0.00000000000E+00 -0.67007769875E+03  0.67007769875E+03  0.25500000920E-02 0.  1.
    10030    2    1    2    0    0  0.00000000000E+00  0.00000000000E+00  0.38016383102E+03  0.17203192285E+04  0.16777883387E+04 0.  0.
        4    1    3    3  502    0  0.30929544541E+03 -0.70675725779E+03 -0.14777392586E+03  0.78549872060E+03  0.12699999809E+01 0.  1.
       -4    1    3    3    0  502 -0.30929544541E+03  0.70675725779E+03  0.52793775688E+03  0.93482050793E+03  0.12699999809E+01 0. -1.
</event>
<event>
 5   0  0.3723500E-04  0.1769276E+04  0.7818609E-02  0.8722811E-01
        1   -1    0    0  501    0  0.00000000000E+00  0.00000000000E+00  0.42189268608E+03  0.42189268611E+03  0.50400001928E-02 0.  1.
       -1   -1    0    0    0  501  0.00000000000E+00  0.00000000000E+00 -0.18549369235E+04  0.18549369235E+04  0.50400001928E-02 0. -1.
    10030    2    1    2    0    0  0.00000000000E+00  0.00000000000E+00 -0.14330442375E+04  0.22768296097E+04  0.17692759211E+04 0.  0.
        1    1    3    3  502    0  0.12141698663E+03  0.37839235611E+03 -0.17336072844E+04  0.17785716393E+04  0.50400001928E-02 0. -1.
       -1    1    3    3    0  502 -0.12141698663E+03 -0.37839235611E+03  0.30056304690E+03  0.49825797032E+03  0.50400001928E-02 0.  1.
</event>
<event>
 5   0  0.3803253E-04  0.1718546E+04  0.7818609E-02  0.8750857E-01
       -1   -1    0    0    0  501  0.00000000000E+00  0.00000000000E+00  0.71222589331E+03  0.71222589332E+03  0.50400001928E-02 0. -1.
        1   -1    0    0  501    0  0.00000000000E+00  0.00000000000E+00 -0.10366795471E+04  0.10366795471E+04  0.50400001928E-02 0.  1.
    10030    2    1    2    0    0  0.00000000000E+00  0.00000000000E+00 -0.32445365379E+03  0.17489054404E+04  0.17185459162E+04 0.  0.
        4    1    3    3  502    0 -0.53925076195E+03 -0.40238454415E+03  0.38167123599E+03  0.77354977274E+03  0.12699999809E+01 0. -1.
       -4    1    3    3    0  502  0.53925076195E+03  0.40238454415E+03 -0.70612488978E+03  0.97535566769E+03  0.12699999809E+01 0.  1.
</event>
<event>
 5   0  0.7049044E-04  0.1865290E+04  0.7818609E-02  0.8672329E-01
        2   -1    0    0  501    0  0.00000000000E+00  0.00000000000E+00  0.13395640662E+04  0.13395640662E+04  0.25500000920E-02 0. -1.
       -2   -1    0    0    0  501  0.00000000000E+00  0.00000000000E+00 -0.64933572183E+03  0.64933572183E+03  0.25500000920E-02 0.  1.
    10030    2    1    2    0    0  0.00000000000E+00  0.00000000000E+00  0.69022834434E+03  0.19888997880E+04  0.18652901113E+04 0.  0.
        4    1    3    3  502    0  0.92177245309E+03 -0.61817436201E+02  0.20881798128E+03  0.94714962541E+03  0.12699999809E+01 0. -1.
       -4    1    3    3    0  502 -0.92177245309E+03  0.61817436201E+02  0.48141036306E+03  0.10417501626E+04  0.12699999809E+01 0.  1.
</event>
<event>
 5   0  0.7049044E-04  0.1756975E+04  0.7818609E-02  0.8729520E-01
       -2   -1    0    0    0  501  0.00000000000E+00  0.00000000000E+00  0.70741150014E+03  0.70741150014E+03  0.25500000920E-02 0.  1.
        2   -1    0    0  501    0  0.00000000000E+00  0.00000000000E+00 -0.10909360452E+04  0.10909360452E+04  0.25500000920E-02 0. -1.
    10030    2    1    2    0    0  0.00000000000E+00  0.00000000000E+00 -0.38352454504E+03  0.17983475453E+04  0.17569754742E+04 0.  0.
        4    1    3    3  502    0  0.27722442776E+03 -0.78584195541E+03  0.92883513189E+02  0.83846879617E+03  0.12699999809E+01 0. -1.
       -4    1    3    3    0  502 -0.27722442776E+03  0.78584195541E+03 -0.47640805823E+03  0.95987874915E+03  0.12699999809E+01 0.  1.
</event>
<event>
 5   0  0.6746664E-04  0.1669755E+04  0.7818609E-02  0.8778805E-01
        2   -1    0    0  501    0  0.00000000000E+00  0.00000000000E+00  0.14604645577E+04  0.14604645578E+04  0.25500000920E-02 0.  1.
       -2   -1    0    0    0  501  0.00000000000E+00  0.00000000000E+00 -0.47725932419E+03  0.47725932420E+03  0.25500000920E-02 0. -1.
    10030    2    1    2    0    0  0.00000000000E+00  0.00000000000E+00  0.98320523355E+03  0.19377238820E+04  0.16697548657E+04 0.  0.
        5    1    3    3  502    0 -0.60893085881E+03  0.48026785581E+03  0.13289432564E+03  0.78685258843E+03  0.46999998093E+01 0. -1.
       -5    1    3    3    0  502  0.60893085881E+03 -0.48026785581E+03  0.85031090792E+03  0.11508712935E+04  0.46999998093E+01 0.  1.
</event>
<event>
 5   0  0.7233728E-04  0.1700756E+04  0.7818609E-02  0.8760933E-01
       -2   -1    0    0    0  501  0.00000000000E+00  0.00000000000E+00  0.34561219163E+03  0.34561219164E+03  0.25500000920E-02 0.  1.
        2   -1    0    0  501    0  0.00000000000E+00  0.00000000000E+00 -0.20923539336E+04  0.20923539336E+04  0.25500000920E-02 0. -1.
    10030    2    1    2    0    0  0.00000000000E+00  0.00000000000E+00 -0.17467417420E+04  0.24379661253E+04  0.17007563361E+04 0.  0.
        1    1    3    3  502    0  0.88457987252E+02 -0.84221299961E+03 -0.76237740328E+03  0.11394590196E+04  0.50400001928E-02 0.  1.
       -1    1    3    3    0  502 -0.88457987252E+02  0.84221299961E+03 -0.98436433871E+03  0.12985071057E+04  0.50400001928E-02 0. -1.
</event>
<event>
 5   0  0.3713516E-04  0.1698011E+04  0.7818609E-02  0.8762499E-01
        1   -1    0    0  501    0  0.00000000000E+00  0.00000000000E+00  0.91335211847E+03  0.91335211848E+03  0.50400001928E-02 0.  1.
       -1   -1    0    0    0  501  0.00000000000E+00  0.00000000000E+00 -0.78919237522E+03  0.78919237524E+03  0.50400001928E-02 0. -1.
    10030    2    1    2    0    0  0.00000000000E+00  0.00000000000E+00  0.12415974324E+03  0.17025444937E+04  0.16980112224E+04 0.  0.
        5    1    3    3  502    0 -0.90633528571E+02  0.20306411286E+02  0.90822957413E+03  0.91297855186E+03  0.46999998093E+01 0.  1.
       -5    1    3    3    0  502  0.90633528571E+02 -0.20306411286E+02 -0.78406983088E+03  0.78956594186E+03  0.46999998093E+01 0. -1.
</event>
<event>
 5   0  0.6746664E-04  0.1654232E+04  0.7818609E-02  0.8787907E-01
        2   -1    0    0  501    0  0.00000000000E+00  0.00000000000E+00  0.14788031687E+04  0.14788031687E+04  0.25500000920E-02 0. -1.
       -2   -1    0    0    0  501  0.00000000000E+00  0.00000000000E+00 -0.46261774687E+03  0.46261774687E+03  0.25500000920E-02 0.  1.
    10030    2    1    2    0    0  0.00000000000E+00  0.00000000000E+00  0.10161854218E+04  0.19414209155E+04  0.16542316524E+04 0.  0.
        5    1    3    3  502    0  0.28122088226E+03  0.69824014881E+02  0.14172706996E+04  0.14465956254E+04  0.46999998093E+01 0. -1.
       -5    1    3    3    0  502 -0.28122088226E+03 -0.69824014881E+02 -0.40108527778E+03  0.49482529010E+03  0.46999998093E+01 0.  1.
</event>
<event>
 5   0  0.2639750E-04  0.1685436E+04  0.7818609E-02  0.8769715E-01
        4   -1    0    0  501    0  0.00000000000E+00  0.00000000000E+00  0.50944096700E+03  0.50944255000E+03  0.12699999809E+01 0.  1.
       -4   -1    0    0    0  501  0.00000000000E+00  0.00000000000E+00 -0.13940212094E+04  0.13940217879E+04  0.12699999809E+01 0. -1.
    10030    2    1    2    0    0  0.00000000000E+00  0.00000000000E+00 -0.88458024237E+03  0.19034643379E+04  0.16854359319E+04 0.  0.
        5    1    3    3  502    0 -0.23816259882E+03 -0.79232009420E+03 -0.62319560189E+03  0.10358027821E+04  0.46999998093E+01 0. -1.
       -5    1    3    3    0  502  0.23816259882E+03  0.79232009420E+03 -0.26138464048E+03  0.86766155580E+03  0.46999998093E+01 0.  1.
</event>
<event>
 5   0  0.6746664E-04  0.1702369E+04  0.7818609E-02  0.8760015E-01
       -2   -1    0    0    0  501  0.00000000000E+00  0.00000000000E+00  0.62579463112E+03  0.62579463113E+03  0.25500000920E-02 0.  1.
        2   -1    0    0  501    0  0.00000000000E+00  0.00000000000E+00 -0.11577518118E+04  0.11577518118E+04  0.25500000920E-02 0. -1.
    10030    2    1    2    0    0  0.00000000000E+00  0.00000000000E+00 -0.53195718064E+03  0.17835464429E+04  0.17023687826E+04 0.  0.
        5    1    3    3  502    0 -0.71058536564E+03 -0.17447204754E+03  0.18963884292E+03  0.75588162961E+03  0.46999998093E+01 0.  1.
       -5    1    3    3    0  502  0.71058536564E+03  0.17447204754E+03 -0.72159602357E+03  0.10276648133E+04  0.46999998093E+01 0. -1.
</event>
<event>
 5   0  0.3635143E-04  0.1706105E+04  0.7818609E-02  0.8757890E-01
        1   -1    0    0  501    0  0.00000000000E+00  0.00000000000E+00  0.10427963587E+04  0.10427963587E+04  0.50400001928E-02 0.  1.
       -1   -1    0    0    0  501  0.00000000000E+00  0.00000000000E+00 -0.69783358281E+03  0.69783358283E+03  0.50400001928E-02 0. -1.
    10030    2    1    2    0    0  0.00000000000E+00  0.00000000000E+00  0.34496277585E+03  0.17406299415E+04  0.17061047086E+04 0.  0.
        3    1    3    3  502    0  0.60271726632E+03  0.59516085530E+03  0.27558969063E+03  0.89074925461E+03  0.10100000352E+00 0.  1.
       -3    1    3    3    0  502 -0.60271726632E+03 -0.59516085530E+03  0.69373085219E+02  0.84988068690E+03  0.10100000352E+00 0. -1.
</event>
<event>
 5   0  0.3803253E-04  0.1670494E+04  0.7818609E-02  0.8778374E-01
       -1   -1    0    0    0  501  0.00000000000E+00  0.00000000000E+00  0.35556535785E+03  0.35556535789E+03  0.50400001928E-02 0.  1.
        1   -1    0    0  501    0  0.00000000000E+00  0.00000000000E+00 -0.19620508189E+04  0.19620508189E+04  0.50400001928E-02 0. -1.
    10030    2    1    2    0    0  0.00000000000E+00  0.00000000000E+00 -0.16064854610E+04  0.23176161768E+04  0.16704937014E+04 0.  0.
        4    1    3    3  502    0 -0.31253094726E+03 -0.12312772880E+03  0.25772023898E+03  0.42338796048E+03  0.12699999809E+01 0.  1.
       -4    1    3    3    0  502  0.31253094726E+03  0.12312772880E+03 -0.18642057000E+04  0.18942282163E+04  0.12699999809E+01 0. -1.
</event>
<event>
 5   0  0.3635143E-04  0.1459909E+04  0.7818609E-02  0.8911560E-01
       -1   -1    0    0    0  501  0.00000000000E+00  0.00000000000E+00  0.25302589907E+03  0.25302589912E+03  0.50400001928E-02 0. -1.
        1   -1    0    0  501    0  0.00000000000E+00  0.00000000000E+00 -0.21058450161E+04  0.21058450161E+04  0.50400001928E-02 0.  1.
    10030    2    1    2    0    0  0.00000000000E+00  0.00000000000E+00 -0.18528191170E+04  0.23588709153E+04  0.14599086664E+04 0.  0.
        3    1    3    3  502    0  0.35506836246E+03  0.62538398784E+03 -0.11285718206E+04  0.13382275736E+04  0.10100000352E+00 0. -1.
       -3    1    3    3    0  502 -0.35506836246E+03 -0.62538398784E+03 -0.72424729648E+03  0.10206433417E+04  0.10100000352E+00 0.  1.
</event>
<event>
 5   0  0.3635143E-04  0.1661182E+04  0.7818609E-02  0.8783818E-01
        1   -1    0    0  501    0  0.00000000000E+00  0.00000000000E+00  0.18108663106E+04  0.18108663106E+04  0.50400001928E-02 0.  1.
       -1   -1    0    0    0  501  0.00000000000E+00  0.00000000000E+00 -0.38096778539E+03  0.38096778542E+03  0.50400001928E-02 0. -1.
    10030    2    1    2    0    0  0.00000000000E+00  0.00000000000E+00  0.14298985252E+04  0.21918340960E+04  0.16611823838E+04 0.  0.
        3    1    3    3  502    0 -0.13445453456E+03 -0.42429626107E+03  0.16402314336E+04  0.16995483238E+04  0.10100000352E+00 0.  1.
       -3    1    3    3    0  502  0.13445453456E+03  0.42429626107E+03 -0.21033290835E+03  0.49228577225E+03  0.10100000352E+00 0. -1.
</event>
<event>
 5   0  0.7025426E-04  0.1692251E+04  0.7818609E-02  0.8765796E-01
        2   -1    0    0  501    0  0.00000000000E+00  0.00000000000E+00  0.85257152127E+03  0.85257152128E+03  0.25500000920E-02 0.  1.
       -2   -1    0    0    0  501  0.00000000000E+00  0.00000000000E+00 -0.83972865087E+03  0.83972865088E+03  0.25500000920E-02 0. -1.
    10030    2    1    2    0    0  0.00000000000E+00  0.00000000000E+00  0.12842870401E+02  0.16923001722E+04  0.16922514392E+04 0.  0.
        2    1    3    3  502    0 -0.19704716480E+03  0.22348538404E+03  0.79837569721E+03  0.85216022903E+03  0.25500000920E-02 0.  1.
       -2    1    3    3    0  502  0.19704716480E+03 -0.22348538404E+03 -0.78553282681E+03  0.84013994313E+03  0.25500000920E-02 0. -1.
</event>
<event>
 5   0  0.3713516E-04  0.1803897E+04  0.7818609E-02  0.8704230E-01
        1   -1    0    0  501    0  0.00000000000E+00  0.00000000000E+00  0.30775889241E+03  0.30775889246E+03  0.50400001928E-02 0. -1.
       -1   -1    0    0    0  501  0.00000000000E+00  0.00000000000E+00 -0.26433386225E+04  0.26433386225E+04  0.50400001928E-02 0.  1.
    10030    2    1    2    0    0  0.00000000000E+00  0.00000000000E+00 -0.23355797301E+04  0.29510975149E+04  0.18038968560E+04 0.  0.
        5    1    3    3  502    0 -0.43290856122E+03 -0.78171315440E+03 -0.13681768810E+04  0.16341405527E+04  0.46999998093E+01 0.  1.
       -5    1    3    3    0  502  0.43290856122E+03  0.78171315440E+03 -0.96740284907E+03  0.13169569623E+04  0.46999998093E+01 0. -1.
</event>
<event>
 5   0  0.3915701E-04  0.1472428E+04  0.7818609E-02  0.8902998E-01
       -1   -1    0    0    0  501  0.00000000000E+00  0.00000000000E+00  0.89383012326E+03  0.89383012328E+03  0.50400001928E-02 0.  1.
        1   -1    0    0  501    0  0.00000000000E+00  0.00000000000E+00 -0.60639138934E+03  0.60639138936E+03  0.50400001928E-02 0. -1.
    10030    2    1    2    0    0  0.00000000000E+00  0.00000000000E+00  0.28743873393E+03  0.15002215126E+04  0.14724277779E+04 0.  0.
        2    1    3    3  502    0  0.24463496660E+03  0.52581913131E+03  0.60579835441E+03  0.83864394825E+03  0.25500000920E-02 0.  1.
       -2    1    3    3    0  502 -0.24463496660E+03 -0.52581913131E+03 -0.31835962048E+03  0.66157756438E+03  0.25500000920E-02 0. -1.
</event>
<event>
 5   0  0.3635143E-04  0.1720407E+04  0.7818609E-02  0.8749810E-01
       -1   -1    0    0    0  501  0.00000000000E+00  0.00000000000E+00  0.24699720669E+03  0.24699720674E+03  0.50400001928E-02 0. -1.
        1   -1    0    0  501    0  0.00000000000E+00  0.00000000000E+00 -0.29957836159E+04  0.29957836159E+04  0.50400001928E-02 0.  1.
    10030    2    1    2    0    0  0.00000000000E+00  0.00000000000E+00 -0.27487864092E+04  0.32427808226E+04  0.17204071437E+04 0.  0.
        3    1    3    3  502    0  0.15014089656E+03  0.83489001629E+03 -0.16433887313E+04  0.18494080568E+04  0.10100000352E+00 0. -1.
       -3    1    3    3    0  502 -0.15014089656E+03 -0.83489001629E+03 -0.11053976779E+04  0.13933727658E+04  0.10100000352E+00 0.  1.
</event>
<event>
 5   0  0.7233728E-04  0.1693686E+04  0.7818609E-02  0.8764974E-01
       -2   -1    0    0    0  501  0.00000000000E+00  0.00000000000E+00  0.10644727262E+04  0.10644727262E+04  0.25500000920E-02 0. -1.
        2   -1    0    0  501    0  0.00000000000E+00  0.00000000000E+00 -0.67370717903E+03  0.67370717904E+03  0.25500000920E-02 0.  1.
    10030    2    1    2    0    0  0.00000000000E+00  0.00000000000E+00  0.39076554719E+03  0.17381799053E+04  0.16936858239E+04 0.  0.
        1    1    3    3  502    0 -0.61057092696E+03 -0.33172596022E+03 -0.30138301094E+03  0.75741051540E+03  0.50400001928E-02 0.  1.
       -1    1    3    3    0  502  0.61057092696E+03  0.33172596022E+03  0.69214855813E+03  0.98076938986E+03  0.50400001928E-02 0. -1.
</event>
<event>
 5   0  0.7025426E-04  0.1729119E+04  0.7818609E-02  0.8744929E-01
        2   -1    0    0  501    0  0.00000000000E+00  0.00000000000E+00  0.14956783533E+04  0.14956783533E+04  0.25500000920E-02 0. -1.
       -2   -1    0    0    0  501  0.00000000000E+00  0.00000000000E+00 -0.49974876567E+03  0.49974876568E+03  0.25500000920E-02 0.  1.
    10030    2    1    2    0    0  0.00000000000E+00  0.00000000000E+00  0.99592958765E+03  0.19954271190E+04  0.17291193260E+04 0.  0.
        2    1    3    3  502    0 -0.82063457888E+03 -0.26800374551E+03  0.44388240445E+03  0.97072071609E+03  0.25500000920E-02 0.  1.
       -2    1    3    3    0  502  0.82063457888E+03  0.26800374551E+03  0.55204718321E+03  0.10247064029E+04  0.25500000920E-02 0. -1.
</event>
<event>
 5   0  0.3635143E-04  0.1694800E+04  0.7818609E-02  0.8764336E-01
        1   -1    0    0  501    0  0.00000000000E+00  0.00000000000E+00  0.14366877734E+04  0.14366877734E+04  0.50400001928E-02 0. -1.
       -1   -1    0    0    0  501  0.00000000000E+00  0.00000000000E+00 -0.49982113737E+03  0.49982113740E+03  0.50400001928E-02 0.  1.
    10030    2    1    2    0    0  0.00000000000E+00  0.00000000000E+00  0.93686663602E+03  0.19365089108E+04  0.16948001852E+04 0.  0.
        3    1    3    3  502    0  0.56600137489E+03 -0.59847869413E+03  0.69567528111E+03  0.10781921956E+04  0.10100000352E+00 0. -1.
       -3    1    3    3    0  502 -0.56600137489E+03  0.59847869413E+03  0.24119135491E+03  0.85831671520E+03  0.10100000352E+00 0.  1.
</event>
<event>
 5   0  0.7233728E-04  0.1734178E+04  0.7818609E-02  0.8742108E-01
        2   -1    0    0  501    0  0.00000000000E+00  0.00000000000E+00  0.17233610679E+04  0.17233610679E+04  0.25500000920E-02 0. -1.
       -2   -1    0    0    0  501  0.00000000000E+00  0.00000000000E+00 -0.43626553737E+03  0.43626553738E+03  0.25500000920E-02 0.  1.
    10030    2    1    2    0    0  0.00000000000E+00  0.00000000000E+00  0.12870955305E+04  0.21596266053E+04  0.17341776638E+04 0.  0.
        1    1    3    3  502    0  0.81845303003E+03 -0.18403411018E+03  0.37039926788E+03  0.91702210101E+03  0.50400001928E-02 0.  1.
       -1    1    3    3    0  502 -0.81845303003E+03  0.18403411018E+03  0.91669626266E+03  0.12426045043E+04  0.50400001928E-02 0. -1.
</event>
<event>
 5   0  0.3723500E-04  0.1755202E+04  0.7818609E-02  0.8730492E-01
        1   -1    0    0  501    0  0.00000000000E+00  0.00000000000E+00  0.12363835504E+04  0.12363835504E+04  0.50400001928E-02 0. -1.
       -1   -1    0    0    0  501  0.00000000000E+00  0.00000000000E+00 -0.62293256452E+03  0.62293256454E+03  0.50400001928E-02 0.  1.
    10030    2    1    2    0    0  0.00000000000E+00  0.00000000000E+00  0.61345098587E+03  0.18593161149E+04  0.17552020691E+04 0.  0.
        1    1    3    3  502    0  0.86142373865E+03  0.77896954469E+02  0.14937216257E+03  0.87774189601E+03  0.50400001928E-02 0.  1.
       -1    1    3    3    0  502 -0.86142373865E+03 -0.77896954469E+02  0.46407882330E+03  0.98157421894E+03  0.50400001928E-02 0. -1.
</event>
<event>
 5   0  0.3635143E-04  0.1752595E+04  0.7818609E-02  0.8731923E-01
       -1   -1    0    0    0  501  0.00000000000E+00  0.00000000000E+00  0.30385219698E+03  0.30385219702E+03  0.50400001928E-02 0. -1.
        1   -1    0    0  501    0  0.00000000000E+00  0.00000000000E+00 -0.25272060082E+04  0.25272060082E+04  0.50400001928E-02 0.  1.
    10030    2    1    2    0    0  0.00000000000E+00  0.00000000000E+00 -0.22233538113E+04  0.28310582053E+04  0.17525947596E+04 0.  0.
        3    1    3    3  502    0  0.81839835199E+03  0.52610235894E+02 -0.61286667265E+03  0.10237916136E+04  0.10100000352E+00 0.  1.
       -3    1    3    3    0  502 -0.81839835199E+03 -0.52610235894E+02 -0.16104871386E+04  0.18072665916E+04  0.10100000352E+00 0. -1.
</event>
<event>
 5   0  0.7049044E-04  0.1590047E+04  0.7818609E-02  0.8826686E-01
       -2   -1    0    0    0  501  0.00000000000E+00  0.00000000000E+00  0.55171754505E+03  0.55171754506E+03  0.25500000920E-02 0. -1.
        2   -1    0    0  501    0  0.00000000000E+00  0.00000000000E+00 -0.11456268047E+04  0.11456268047E+04  0.25500000920E-02 0.  1.
    10030    2    1    2    0    0  0.00000000000E+00  0.00000000000E+00 -0.59390925966E+03  0.16973443498E+04  0.15900470537E+04 0.  0.
        4    1    3    3  502    0 -0.32423708038E+03 -0.39394855628E+03 -0.94779890114E+03  0.10764058339E+04  0.12699999809E+01 0.  1.
       -4    1    3    3    0  502  0.32423708038E+03  0.39394855628E+03  0.35388964148E+03  0.62093851590E+03  0.12699999809E+01 0. -1.
</event>
<event>
 5   0  0.6746664E-04  0.1685209E+04  0.7818609E-02  0.8769846E-01
       -2   -1    0    0    0  501  0.00000000000E+00  0.00000000000E+00  0.98639615451E+03  0.98639615451E+03  0.25500000920E-02 0.  1.
        2   -1    0    0  501    0  0.00000000000E+00  0.00000000000E+00 -0.71977366481E+03  0.71977366482E+03  0.25500000920E-02 0. -1.
    10030    2    1    2    0    0  0.00000000000E+00  0.00000000000E+00  0.26662248969E+03  0.17061698193E+04  0.16852085629E+04 0.  0.
        5    1    3    3  502    0  0.76335638502E+03 -0.24018006512E+03 -0.13371244466E+03  0.81135722225E+03  0.46999998093E+01 0. -1.
       -5    1    3    3    0  502 -0.76335638502E+03  0.24018006512E+03  0.40033493436E+03  0.89481259708E+03  0.46999998093E+01 0.  1.
</event>
<event>
 5   0  0.2639750E-04  0.1683266E+04  0.7818609E-02  0.8770966E-01
        3   -1    0    0  501    0  0.00000000000E+00  0.00000000000E+00  0.49130389240E+03  0.49130390278E+03  0.10100000352E+00 0.  1.
       -3   -1    0    0    0  501  0.00000000000E+00  0.00000000000E+00 -0.14417679003E+04  0.14417679039E+04  0.10100000352E+00 0. -1.
    10030    2    1    2    0    0  0.00000000000E+00  0.00000000000E+00 -0.95046400793E+03  0.19330718066E+04  0.16832661047E+04 0.  0.
        3    1    3    3  502    0 -0.37967365873E+03 -0.47346233749E+03 -0.11448887337E+04  0.12957966256E+04  0.10100000352E+00 0. -1.
       -3    1    3    3    0  502  0.37967365873E+03  0.47346233749E+03  0.19442472579E+03  0.63727518102E+03  0.10100000352E+00 0.  1.
</event>
<event>
 5   0  0.7233728E-04  0.1699976E+04  0.7818609E-02  0.8761378E-01
        2   -1    0    0  501    0  0.00000000000E+00  0.00000000000E+00  0.58005064847E+03  0.58005064847E+03  0.25500000920E-02 0. -1.
       -2   -1    0    0    0  501  0.00000000000E+00  0.00000000000E+00 -0.12455455188E+04  0.12455455188E+04  0.25500000920E-02 0.  1.
    10030    2    1    2    0    0  0.00000000000E+00  0.00000000000E+00 -0.66549487036E+03  0.18255961673E+04  0.16999758656E+04 0.  0.
        1    1    3    3  502    0  0.30958810221E+03 -0.24911897211E+03 -0.11396527241E+04  0.12069438210E+04  0.50400001928E-02 0.  1.
       -1    1    3    3    0  502 -0.30958810221E+03  0.24911897211E+03  0.47415785379E+03  0.61865234634E+03  0.50400001928E-02 0. -1.
</event>
<event>
 5   0  0.6746664E-04  0.1630909E+04  0.7818609E-02  0.8801781E-01
        2   -1    0    0  501    0  0.00000000000E+00  0.00000000000E+00  0.22374974791E+04  0.22374974791E+04  0.25500000920E-02 0.  1.
       -2   -1    0    0    0  501  0.00000000000E+00  0.00000000000E+00 -0.29719176656E+03  0.29719176657E+03  0.25500000920E-02 0. -1.
    10030    2    1    2    0    0  0.00000000000E+00  0.00000000000E+00  0.19403057125E+04  0.25346892456E+04  0.16309087387E+04 0.  0.
        5    1    3    3  502    0  0.74097714425E+03  0.16147973331E+03  0.50436970160E+03  0.91078741672E+03  0.46999998093E+01 0. -1.
       -5    1    3    3    0  502 -0.74097714425E+03 -0.16147973331E+03  0.14359360109E+04  0.16239018289E+04  0.46999998093E+01 0.  1.
</event>
<event>
 5   0  0.7049044E-04  0.1563013E+04  0.7818609E-02  0.8843598E-01
        2   -1    0    0  501    0  0.00000000000E+00  0.00000000000E+00  0.15659701005E+04  0.15659701005E+04  0.25500000920E-02 0.  1.
       -2   -1    0    0    0  501  0.00000000000E+00  0.00000000000E+00 -0.39001533768E+03  0.39001533769E+03  0.25500000920E-02 0. -1.
    10030    2    1    2    0    0  0.00000000000E+00  0.00000000000E+00  0.11759547628E+04  0.19559854382E+04  0.15630129335E+04 0.  0.
        4    1    3    3  502    0  0.25958054513E+03  0.73713024076E+03  0.59144844176E+03  0.98007954953E+03  0.12699999809E+01 0.  1.
       -4    1    3    3    0  502 -0.25958054513E+03 -0.73713024076E+03  0.58450632104E+03  0.97590588865E+03  0.12699999809E+01 0. -1.
</event>
<event>
 5   0  0.3635143E-04  0.1674983E+04  0.7818609E-02  0.8775763E-01
        1   -1    0    0  501    0  0.00000000000E+00  0.00000000000E+00  0.54670821926E+03  0.54670821928E+03  0.50400001928E-02 0.  1.
       -1   -1    0    0    0  501  0.00000000000E+00  0.00000000000E+00 -0.12829360840E+04  0.12829360840E+04  0.50400001928E-02 0. -1.
    10030    2    1    2    0    0  0.00000000000E+00  0.00000000000E+00 -0.73622786474E+03  0.18296443033E+04  0.16749826291E+04 0.  0.
        3    1    3    3  502    0  0.39877685061E+03 -0.29538179974E+03  0.36880296216E+03  0.61829525253E+03  0.10100000352E+00 0.  1.
       -3    1    3    3    0  502 -0.39877685061E+03  0.29538179974E+03 -0.11050308269E+04  0.12113490508E+04  0.10100000352E+00 0. -1.
</event>
<event>
 5   0  0.3635143E-04  0.1704183E+04  0.7818609E-02  0.8758982E-01
        1   -1    0    0  501    0  0.00000000000E+00  0.00000000000E+00  0.76591656242E+03  0.76591656243E+03  0.50400001928E-02 0.  1.
       -1   -1    0    0    0  501  0.00000000000E+00  0.00000000000E+00 -0.94796255046E+03  0.94796255048E+03  0.50400001928E-02 0. -1.
    10030    2    1    2    0    0  0.00000000000E+00  0.00000000000E+00 -0.18204598805E+03  0.17138791129E+04  0.17041833446E+04 0.  0.
        3    1    3    3  502    0 -0.40036034862E+03 -0.19325252337E+02  0.66518476941E+03  0.77661616117E+03  0.10100000352E+00 0.  1.
       -3    1    3    3    0  502  0.40036034862E+03  0.19325252337E+02 -0.84723075746E+03  0.93726295174E+03  0.10100000352E+00 0. -1.
</event>
<event>
 5   0  0.7242144E-04  0.1691546E+04  0.7818609E-02  0.8766201E-01
        2   -1    0    0  501    0  0.00000000000E+00  0.00000000000E+00  0.13180789804E+04  0.13180789804E+04  0.25500000920E-02 0. -1.
       -2   -1    0    0    0  501  0.00000000000E+00  0.00000000000E+00 -0.54270776761E+03  0.54270776762E+03  0.25500000920E-02 0.  1.
    10030    2    1    2    0    0  0.00000000000E+00  0.00000000000E+00  0.77537121274E+03  0.18607867480E+04  0.16915456848E+04 0.  0.
        3    1    3    3  502    0 -0.22928760233E+03  0.10826321828E+03 -0.49991180975E+03  0.56054041490E+03  0.10100000352E+00 0.  1.
       -3    1    3    3    0  502  0.22928760233E+03 -0.10826321828E+03  0.12752830225E+04  0.13002463331E+04  0.10100000352E+00 0. -1.
</event>
<event>
 5   0  0.7049044E-04  0.1677959E+04  0.7818609E-02  0.8774036E-01
       -2   -1    0    0    0  501  0.00000000000E+00  0.00000000000E+00  0.15368393347E+04  0.15368393347E+04  0.25500000920E-02 0. -1.
        2   -1    0    0  501    0  0.00000000000E+00  0.00000000000E+00 -0.45800933225E+03  0.45800933226E+03  0.25500000920E-02 0.  1.
    10030    2    1    2    0    0  0.00000000000E+00  0.00000000000E+00  0.10788300025E+04  0.19948486670E+04  0.16779591860E+04 0.  0.
        4    1    3    3  502    0 -0.12368407095E+03 -0.55043809351E+03 -0.19882922542E+03  0.59817599248E+03  0.12699999809E+01 0.  1.
       -4    1    3    3    0  502  0.12368407095E+03  0.55043809351E+03  0.12776592279E+04  0.13966726745E+04  0.12699999809E+01 0. -1.
</event>
<event>
 5   0  0.3915701E-04  0.1684101E+04  0.7818609E-02  0.8770484E-01
        1   -1    0    0  501    0  0.00000000000E+00  0.00000000000E+00  0.10684821860E+04  0.10684821860E+04  0.50400001928E-02 0.  1.
       -1   -1    0    0    0  501  0.00000000000E+00  0.00000000000E+00 -0.66360395240E+03  0.66360395242E+03  0.50400001928E-02 0. -1.
    10030    2    1    2    0    0  0.00000000000E+00  0.00000000000E+00  0.40487823362E+03  0.17320861385E+04  0.16841009492E+04 0.  0.
        2    1    3    3  502    0  0.51022282425E+03 -0.81512027518E+02 -0.48139466596E+03  0.70619569911E+03  0.25500000920E-02 0. -1.
       -2    1    3    3    0  502 -0.51022282425E+03  0.81512027518E+02  0.88627289959E+03  0.10258904394E+04  0.25500000920E-02 0.  1.
</event>
<event>
 5   0  0.3723500E-04  0.1717342E+04  0.7818609E-02  0.8751535E-01
       -1   -1    0    0    0  501  0.00000000000E+00  0.00000000000E+00  0.11024691475E+04  0.11024691475E+04  0.50400001928E-02 0. -1.
        1   -1    0    0  501    0  0.00000000000E+00  0.00000000000E+00 -0.66878632524E+03  0.66878632526E+03  0.50400001928E-02 0.  1.
    10030    2    1    2    0    0  0.00000000000E+00  0.00000000000E+00  0.43368282224E+03  0.17712554728E+04  0.17173424701E+04 0.  0.
        1    1    3    3  502    0 -0.46014867238E+03 -0.69217776092E+03 -0.54936722741E+01  0.83119013100E+03  0.50400001928E-02 0.  1.
       -1    1    3    3    0  502  0.46014867238E+03  0.69217776092E+03  0.43917649452E+03  0.94006534176E+03  0.50400001928E-02 0. -1.
</event>
<event>
 5   0  0.3915701E-04  0.1688294E+04  0.7818609E-02  0.8768069E-01
       -1   -1    0    0    0  501  0.00000000000E+00  0.00000000000E+00  0.12747522588E+04  0.12747522589E+04  0.50400001928E-02 0.  1.
        1   -1    0    0  501    0  0.00000000000E+00  0.00000000000E+00 -0.55899804175E+03  0.55899804178E+03  0.50400001928E-02 0. -1.
    10030    2    1    2    0    0  0.00000000000E+00  0.00000000000E+00  0.71575421709E+03  0.18337503006E+04  0.16882938328E+04 0.  0.
        2    1    3    3  502    0  0.22948602078E+03  0.20057495668E+03 -0.49714897241E+03  0.58313913241E+03  0.25500000920E-02 0. -1.
       -2    1    3    3    0  502 -0.22948602078E+03 -0.20057495668E+03  0.12129031895E+04  0.12506111682E+04  0.25500000920E-02 0.  1.
</event>
<event>
 5   0  0.7049044E-04  0.1605814E+04  0.7818609E-02  0.8816984E-01
       -2   -1    0    0    0  501  0.00000000000E+00  0.00000000000E+00  0.33054576366E+03  0.33054576367E+03  0.25500000920E-02 0.  1.
        2   -1    0    0  501    0  0.00000000000E+00  0.00000000000E+00 -0.19502892050E+04  0.19502892050E+04  0.25500000920E-02 0. -1.
    10030    2    1    2    0    0  0.00000000000E+00  0.00000000000E+00 -0.16197434413E+04  0.22808349687E+04  0.16058142292E+04 0.  0.
        4    1    3    3  502    0 -0.53460335567E+03 -0.57572787561E+03 -0.57478217408E+03  0.97346776792E+03  0.12699999809E+01 0.  1.
       -4    1    3    3    0  502  0.53460335567E+03  0.57572787561E+03 -0.10449612673E+04  0.13073672008E+04  0.12699999809E+01 0. -1.
</event>
<event>
 5   0  0.7049044E-04  0.1723545E+04  0.7818609E-02  0.8748048E-01
        2   -1    0    0  501    0  0.00000000000E+00  0.00000000000E+00  0.11493414105E+04  0.11493414106E+04  0.25500000920E-02 0. -1.
       -2   -1    0    0    0  501  0.00000000000E+00  0.00000000000E+00 -0.64615436526E+03  0.64615436527E+03  0.25500000920E-02 0.  1.
    10030    2    1    2    0    0  0.00000000000E+00  0.00000000000E+00  0.50318704528E+03  0.17954957758E+04  0.17235451484E+04 0.  0.
        4    1    3    3  502    0 -0.40577148909E+03 -0.70054928605E+02 -0.53703768325E+03  0.67673427615E+03  0.12699999809E+01 0.  1.
       -4    1    3    3    0  502  0.40577148909E+03  0.70054928605E+02  0.10402247285E+04  0.11187614997E+04  0.12699999809E+01 0. -1.
</event>
<event>
 5   0  0.6746664E-04  0.1694866E+04  0.7818609E-02  0.8764298E-01
        2   -1    0    0  501    0  0.00000000000E+00  0.00000000000E+00  0.12861550736E+04  0.12861550736E+04  0.25500000920E-02 0.  1.
       -2   -1    0    0    0  501  0.00000000000E+00  0.00000000000E+00 -0.55836418784E+03  0.55836418785E+03  0.25500000920E-02 0. -1.
    10030    2    1    2    0    0  0.00000000000E+00  0.00000000000E+00  0.72779088573E+03  0.18445192614E+04  0.16948662875E+04 0.  0.
        5    1    3    3  502    0 -0.14380469450E+03 -0.53555233311E+03 -0.33348588558E+03  0.64709428799E+03  0.46999998093E+01 0. -1.
       -5    1    3    3    0  502  0.14380469450E+03  0.53555233311E+03  0.10612767713E+04  0.11974249734E+04  0.46999998093E+01 0.  1.
</event>
<event>
 5   0  0.3635143E-04  0.1669280E+04  0.7818609E-02  0.8779082E-01
       -1   -1    0    0    0  501  0.00000000000E+00  0.00000000000E+00  0.10340257925E+04  0.10340257926E+04  0.50400001928E-02 0.  1.
        1   -1    0    0  501    0  0.00000000000E+00  0.00000000000E+00 -0.67370047729E+03  0.67370047731E+03  0.50400001928E-02 0. -1.
    10030    2    1    2    0    0  0.00000000000E+00  0.00000000000E+00  0.36032531525E+03  0.17077262699E+04  0.16692796890E+04 0.  0.
        3    1    3    3  502    0 -0.75479919383E+03 -0.33939614856E+03  0.69447681269E+02  0.83050259439E+03  0.10100000352E+00 0. -1.
       -3    1    3    3    0  502  0.75479919383E+03  0.33939614856E+03  0.29087763399E+03  0.87722367547E+03  0.10100000352E+00 0.  1.
</event>
<event>
 5   0  0.3915701E-04  0.1677624E+04  0.7818609E-02  0.8774230E-01
        1   -1    0    0  501    0  0.00000000000E+00  0.00000000000E+00  0.11917640569E+04  0.11917640569E+04  0.50400001928E-02 0. -1.
       -1   -1    0    0    0  501  0.00000000000E+00  0.00000000000E+00 -0.59038978298E+03  0.59038978300E+03  0.50400001928E-02 0.  1.
    10030    2    1    2    0    0  0.00000000000E+00  0.00000000000E+00  0.60137427391E+03  0.17821538399E+04  0.16776237039E+04 0.  0.
        2    1    3    3  502    0 -0.35801829522E+03  0.65257885823E+03  0.71152599617E+03  0.10297113718E+04  0.25500000920E-02 0. -1.
       -2    1    3    3    0  502  0.35801829522E+03 -0.65257885823E+03 -0.11015172226E+03  0.75244246813E+03  0.25500000920E-02 0.  1.
</event>
<event>
 5   0  0.7233728E-04  0.1673692E+04  0.7818609E-02  0.8776512E-01
        2   -1    0    0  501    0  0.00000000000E+00  0.00000000000E+00  0.65503256342E+03  0.65503256343E+03  0.25500000920E-02 0. -1.
       -2   -1    0    0    0  501  0.00000000000E+00  0.00000000000E+00 -0.10691248764E+04  0.10691248764E+04  0.25500000920E-02 0.  1.
    10030    2    1    2    0    0  0.00000000000E+00  0.00000000000E+00 -0.41409231299E+03  0.17241574398E+04  0.16736924549E+04 0.  0.
        1    1    3    3  502    0  0.12474112404E+03  0.50731915239E+03  0.46640734720E+03  0.70033483703E+03  0.50400001928E-02 0. -1.
       -1    1    3    3    0  502 -0.12474112404E+03 -0.50731915239E+03 -0.88049966019E+03  0.10238226028E+04  0.50400001928E-02 0.  1.
</event>
<event>
 5   0  0.3803253E-04  0.1701015E+04  0.7818609E-02  0.8760786E-01
        1   -1    0    0  501    0  0.00000000000E+00  0.00000000000E+00  0.63086921235E+03  0.63086921237E+03  0.50400001928E-02 0. -1.
       -1   -1    0    0    0  501  0.00000000000E+00  0.00000000000E+00 -0.11466131827E+04  0.11466131827E+04  0.50400001928E-02 0.  1.
    10030    2    1    2    0    0  0.00000000000E+00  0.00000000000E+00 -0.51574397035E+03  0.17774823951E+04  0.17010149387E+04 0.  0.
        4    1    3    3  502    0 -0.96442353523E+01 -0.13158141427E+03  0.62010996125E+03  0.63399105419E+03  0.12699999809E+01 0. -1.
       -4    1    3    3    0  502  0.96442353523E+01  0.13158141427E+03 -0.11358539316E+04  0.11434913409E+04  0.12699999809E+01 0.  1.
</event>
<event>
 5   0  0.7049044E-04  0.1659896E+04  0.7818609E-02  0.8784573E-01
       -2   -1    0    0    0  501  0.00000000000E+00  0.00000000000E+00  0.95055522546E+03  0.95055522546E+03  0.25500000920E-02 0.  1.
        2   -1    0    0  501    0  0.00000000000E+00  0.00000000000E+00 -0.72464368242E+03  0.72464368242E+03  0.25500000920E-02 0. -1.
    10030    2    1    2    0    0  0.00000000000E+00  0.00000000000E+00  0.22591154304E+03  0.16751989079E+04  0.16598961882E+04 0.  0.
        4    1    3    3  502    0  0.79219405357E+03 -0.21134560799E+03 -0.16970520443E+02  0.82007804263E+03  0.12699999809E+01 0.  1.
       -4    1    3    3    0  502 -0.79219405357E+03  0.21134560799E+03  0.24288206348E+03  0.85512086525E+03  0.12699999809E+01 0. -1.
</event>
<event>
 5   0  0.2639750E-04  0.1663174E+04  0.7818609E-02  0.8782651E-01
       -3   -1    0    0    0  501  0.00000000000E+00  0.00000000000E+00  0.46271254191E+03  0.46271255294E+03  0.10100000352E+00 0.  1.
        3   -1    0    0  501    0  0.00000000000E+00  0.00000000000E+00 -0.14945286080E+04  0.14945286114E+04  0.10100000352E+00 0. -1.
    10030    2    1    2    0    0  0.00000000000E+00  0.00000000000E+00 -0.10318160661E+04  0.19572411644E+04  0.16631742486E+04 0.  0.
        1    1    3    3  502    0 -0.82351330943E+03 -0.29308115890E+02 -0.38431550667E+03  0.90924779085E+03  0.50400001928E-02 0.  1.
       -1    1    3    3    0  502  0.82351330943E+03  0.29308115890E+02 -0.64750055944E+03  0.10479933735E+04  0.50400001928E-02 0. -1.
</event>
<event>
 5   0  0.7025426E-04  0.1730731E+04  0.7818609E-02  0.8744029E-01
       -2   -1    0    0    0  501  0.00000000000E+00  0.00000000000E+00  0.94653452824E+03  0.94653452824E+03  0.25500000920E-02 0. -1.
        2   -1    0    0  501    0  0.00000000000E+00  0.00000000000E+00 -0.79115705435E+03  0.79115705435E+03  0.25500000920E-02 0.  1.
    10030    2    1    2    0    0  0.00000000000E+00  0.00000000000E+00  0.15537747389E+03  0.17376915826E+04  0.17307310238E+04 0.  0.
        2    1    3    3  502    0  0.78362062793E+03 -0.36344276890E+03  0.12991267897E+03  0.87351544860E+03  0.25500000920E-02 0. -1.
       -2    1    3    3    0  502 -0.78362062793E+03  0.36344276890E+03  0.25464794918E+02  0.86417613399E+03  0.25500000920E-02 0.  1.
</event>
<event>
 5   0  0.3803253E-04  0.1697844E+04  0.7818609E-02  0.8762595E-01
       -1   -1    0    0    0  501  0.00000000000E+00  0.00000000000E+00  0.10533399503E+04  0.10533399503E+04  0.50400001928E-02 0. -1.
        1   -1    0    0  501    0  0.00000000000E+00  0.00000000000E+00 -0.68417436240E+03  0.68417436242E+03  0.50400001928E-02 0.  1.
    10030    2    1    2    0    0  0.00000000000E+00  0.00000000000E+00  0.36916558790E+03  0.17375143127E+04  0.16978435604E+04 0.  0.
        4    1    3    3  502    0 -0.57048213935E+03  0.61331919551E+03  0.43312887491E+02  0.83874187092E+03  0.12699999809E+01 0.  1.
       -4    1    3    3    0  502  0.57048213935E+03 -0.61331919551E+03  0.32585270041E+03  0.89877244182E+03  0.12699999809E+01 0. -1.
</event>
<event>
 5   0  0.7049044E-04  0.1649685E+04  0.7818609E-02  0.8790593E-01
        2   -1    0    0  501    0  0.00000000000E+00  0.00000000000E+00  0.64422366201E+03  0.64422366202E+03  0.25500000920E-02 0. -1.
       -2   -1    0    0    0  501  0.00000000000E+00  0.00000000000E+00 -0.10561002501E+04  0.10561002501E+04  0.25500000920E-02 0.  1.
    10030    2    1    2    0    0  0.00000000000E+00  0.00000000000E+00 -0.41187658807E+03  0.17003239121E+04  0.16496845402E+04 0.  0.
        4    1    3    3  502    0 -0.80151694001E+03 -0.93398538741E+02 -0.38209533113E+03  0.89283321350E+03  0.12699999809E+01 0.  1.
       -4    1    3    3    0  502  0.80151694001E+03  0.93398538741E+02 -0.29781256937E+02  0.80749069860E+03  0.12699999809E+01 0. -1.
</event>
<event>
 5   0  0.3635143E-04  0.1697487E+04  0.7818609E-02  0.8762799E-01
       -1   -1    0    0    0  501  0.00000000000E+00  0.00000000000E+00  0.68026176841E+03  0.68026176843E+03  0.50400001928E-02 0.  1.
        1   -1    0    0  501    0  0.00000000000E+00  0.00000000000E+00 -0.10589532573E+04  0.10589532573E+04  0.50400001928E-02 0. -1.
    10030    2    1    2    0    0  0.00000000000E+00  0.00000000000E+00 -0.37869148892E+03  0.17392150258E+04  0.16974868666E+04 0.  0.
        3    1    3    3  502    0  0.81986264589E+03  0.18512012067E+03 -0.31023424959E+03  0.89592941520E+03  0.10100000352E+00 0. -1.
       -3    1    3    3    0  502 -0.81986264589E+03 -0.18512012067E+03 -0.68457239334E+02  0.84328561058E+03  0.10100000352E+00 0.  1.
</event>
<event>
 5   0  0.6746664E-04  0.1707384E+04  0.7818609E-02  0.8757164E-01
       -2   -1    0    0    0  501  0.00000000000E+00  0.00000000000E+00  0.73557603558E+03  0.73557603559E+03  0.25500000920E-02 0.  1.
        2   -1    0    0  501    0  0.00000000000E+00  0.00000000000E+00 -0.99077511999E+03  0.99077511999E+03  0.25500000920E-02 0. -1.
    10030    2    1    2    0    0  0.00000000000E+00  0.00000000000E+00 -0.25519908441E+03  0.17263511556E+04  0.17073844733E+04 0.  0.
        5    1    3    3  502    0  0.63463833292E+03 -0.13634550835E+03  0.43300747123E+03  0.78030344828E+03  0.46999998093E+01 0.  1.
       -5    1    3    3    0  502 -0.63463833292E+03  0.13634550835E+03 -0.68820655564E+03  0.94604770730E+03  0.46999998093E+01 0. -1.
</event>
<event>
 5   0  0.6746664E-04  0.1701128E+04  0.7818609E-02  0.8760721E-01
        2   -1    0    0  501    0  0.00000000000E+00  0.00000000000E+00  0.14439962232E+04  0.14439962232E+04  0.25500000920E-02 0. -1.
       -2   -1    0    0    0  501  0.00000000000E+00  0.00000000000E+00 -0.50101198418E+03  0.50101198419E+03  0.25500000920E-02 0.  1.
    10030    2    1    2    0    0  0.00000000000E+00  0.00000000000E+00  0.94298423898E+03  0.19450082074E+04  0.17011283466E+04 0.  0.
        5    1    3    3  502    0 -0.13185578775E+03  0.48966918008E+03  0.12522306991E+04  0.13510239333E+04  0.46999998093E+01 0. -1.
       -5    1    3    3    0  502  0.13185578775E+03 -0.48966918008E+03 -0.30924646012E+03  0.59398427401E+03  0.46999998093E+01 0.  1.
</event>
<event>
 5   0  0.7233728E-04  0.1664175E+04  0.7818609E-02  0.8782065E-01
        2   -1    0    0  501    0  0.00000000000E+00  0.00000000000E+00  0.10008085613E+04  0.10008085613E+04  0.25500000920E-02 0. -1.
       -2   -1    0    0    0  501  0.00000000000E+00  0.00000000000E+00 -0.69180987846E+03  0.69180987846E+03  0.25500000920E-02 0.  1.
    10030    2    1    2    0    0  0.00000000000E+00  0.00000000000E+00  0.30899868287E+03  0.16926184398E+04  0.16641745692E+04 0.  0.
        1    1    3    3  502    0  0.63875968867E+02  0.82917084032E+03  0.18262753741E+03  0.85144420797E+03  0.50400001928E-02 0.  1.
       -1    1    3    3    0  502 -0.63875968867E+02 -0.82917084032E+03  0.12637114546E+03  0.84117423182E+03  0.50400001928E-02 0. -1.
</event>
<event>
 5   0  0.3915701E-04  0.1732761E+04  0.7818609E-02  0.8742897E-01
       -1   -1    0    0    0  501  0.00000000000E+00  0.00000000000E+00  0.71866889273E+03  0.71866889274E+03  0.50400001928E-02 0.  1.
        1   -1    0    0  501    0  0.00000000000E+00  0.00000000000E+00 -0.10444517936E+04  0.10444517936E+04  0.50400001928E-02 0. -1.
    10030    2    1    2    0    0  0.00000000000E+00  0.00000000000E+00 -0.32578290090E+03  0.17631206864E+04  0.17327608191E+04 0.  0.
        2    1    3    3  502    0  0.30992764585E+03  0.59743580823E+03  0.39222233165E+03  0.77898847749E+03  0.25500000920E-02 0.  1.
       -2    1    3    3    0  502 -0.30992764585E+03 -0.59743580823E+03 -0.71800523255E+03  0.98413220890E+03  0.25500000920E-02 0. -1.
</event>
<event>
 5   0  0.3635143E-04  0.1682254E+04  0.7818609E-02  0.8771551E-01
       -1   -1    0    0    0  501  0.00000000000E+00  0.00000000000E+00  0.60558386108E+03  0.60558386110E+03  0.50400001928E-02 0. -1.
        1   -1    0    0  501    0  0.00000000000E+00  0.00000000000E+00 -0.11682849111E+04  0.11682849111E+04  0.50400001928E-02 0.  1.
    10030    2    1    2    0    0  0.00000000000E+00  0.00000000000E+00 -0.56270105003E+03  0.17738687722E+04  0.16822538302E+04 0.  0.
        3    1    3    3  502    0 -0.64387903525E+03 -0.30303713227E+03  0.19149293107E+03  0.73694047821E+03  0.10100000352E+00 0. -1.
       -3    1    3    3    0  502  0.64387903525E+03  0.30303713227E+03 -0.75419398110E+03  0.10369282940E+04  0.10100000352E+00 0.  1.
</event>
<event>
 5   0  0.3635143E-04  0.1700771E+04  0.7818609E-02  0.8760925E-01
       -1   -1    0    0    0  501  0.00000000000E+00  0.00000000000E+00  0.44874879523E+03  0.44874879525E+03  0.50400001928E-02 0.  1.
        1   -1    0    0  501    0  0.00000000000E+00  0.00000000000E+00 -0.16114936015E+04  0.16114936015E+04  0.50400001928E-02 0. -1.
    10030    2    1    2    0    0  0.00000000000E+00  0.00000000000E+00 -0.11627448063E+04  0.20602423968E+04  0.17007713688E+04 0.  0.
        3    1    3    3  502    0  0.62871554337E+03 -0.56304852715E+03 -0.45519961219E+03  0.95891270485E+03  0.10100000352E+00 0. -1.
       -3    1    3    3    0  502 -0.62871554337E+03  0.56304852715E+03 -0.70754519408E+03  0.11013296919E+04  0.10100000352E+00 0.  1.
</event>
<event>
 5   0  0.7049044E-04  0.1685650E+04  0.7818609E-02  0.8769591E-01
       -2   -1    0    0    0  501  0.00000000000E+00  0.00000000000E+00  0.42201002355E+03  0.42201002356E+03  0.25500000920E-02 0. -1.
        2   -1    0    0  501    0  0.00000000000E+00  0.00000000000E+00 -0.16832628906E+04  0.16832628906E+04  0.25500000920E-02 0.  1.
    10030    2    1    2    0    0  0.00000000000E+00  0.00000000000E+00 -0.12612528670E+04  0.21052729141E+04  0.16856498001E+04 0.  0.
        4    1    3    3  502    0  0.54789653140E+02 -0.30914362540E+03 -0.16075011491E+04  0.16378746119E+04  0.12699999809E+01 0.  1.
       -4    1    3    3    0  502 -0.54789653140E+02  0.30914362540E+03  0.34624828203E+03  0.46739830223E+03  0.12699999809E+01 0. -1.
</event>
<event>
 5   0  0.3713516E-04  0.1731105E+04  0.7818609E-02  0.8743820E-01
        1   -1    0    0  501    0  0.00000000000E+00  0.00000000000E+00  0.12567678814E+04  0.12567678814E+04  0.50400001928E-02 0.  1.
       -1   -1    0    0    0  501  0.00000000000E+00  0.00000000000E+00 -0.59611731685E+03  0.59611731687E+03  0.50400001928E-02 0. -1.
    10030    2    1    2    0    0  0.00000000000E+00  0.00000000000E+00  0.66065056451E+03  0.18528851982E+04  0.17311049620E+04 0.  0.
        5    1    3    3  502    0 -0.42067313221E+02  0.53906750623E+02 -0.59320815317E+03  0.59715458600E+03  0.46999998093E+01 0. -1.
       -5    1    3    3    0  502  0.42067313221E+02 -0.53906750623E+02  0.12538587177E+04  0.12557306122E+04  0.46999998093E+01 0.  1.
</event>
<event>
 5   0  0.3803253E-04  0.1147183E+04  0.7818609E-02  0.9160386E-01
        1   -1    0    0  501    0  0.00000000000E+00  0.00000000000E+00  0.10783317125E+04  0.10783317125E+04  0.50400001928E-02 0. -1.
       -1   -1    0    0    0  501  0.00000000000E+00  0.00000000000E+00 -0.30510784102E+03  0.30510784107E+03  0.50400001928E-02 0.  1.
    10030    2    1    2    0    0  0.00000000000E+00  0.00000000000E+00  0.77322387151E+03  0.13834395536E+04  0.11471834391E+04 0.  0.
        4    1    3    3  502    0 -0.28553616925E+03  0.34820933414E+03 -0.41838273530E+02  0.45225291415E+03  0.12699999809E+01 0.  1.
       -4    1    3    3    0  502  0.28553616925E+03 -0.34820933414E+03  0.81506214504E+03  0.93118663946E+03  0.12699999809E+01 0. -1.
</event>
<event>
 5   0  0.3915701E-04  0.1631312E+04  0.7818609E-02  0.8801539E-01
        1   -1    0    0  501    0  0.00000000000E+00  0.00000000000E+00  0.71923018774E+03  0.71923018776E+03  0.50400001928E-02 0. -1.
       -1   -1    0    0    0  501  0.00000000000E+00  0.00000000000E+00 -0.92500989570E+03  0.92500989571E+03  0.50400001928E-02 0.  1.
    10030    2    1    2    0    0  0.00000000000E+00  0.00000000000E+00 -0.20577970796E+03  0.16442400835E+04  0.16313124054E+04 0.  0.
        2    1    3    3  502    0  0.76062397644E+02 -0.29373186513E+03  0.66023040193E+03  0.72661412081E+03  0.25500000920E-02 0. -1.
       -2    1    3    3    0  502 -0.76062397644E+02  0.29373186513E+03 -0.86601010988E+03  0.91762596266E+03  0.25500000920E-02 0.  1.
</event>
<event>
 5   0  0.7242144E-04  0.1669169E+04  0.7818609E-02  0.8779146E-01
        2   -1    0    0  501    0  0.00000000000E+00  0.00000000000E+00  0.13706538021E+04  0.13706538021E+04  0.25500000920E-02 0. -1.
       -2   -1    0    0    0  501  0.00000000000E+00  0.00000000000E+00 -0.50817449209E+03  0.50817449210E+03  0.25500000920E-02 0.  1.
    10030    2    1    2    0    0  0.00000000000E+00  0.00000000000E+00  0.86247930997E+03  0.18788282942E+04  0.16691690145E+04 0.  0.
        3    1    3    3  502    0 -0.71560132821E+03 -0.23965987604E+03  0.83238736814E+03  0.11235616841E+04  0.10100000352E+00 0. -1.
       -3    1    3    3    0  502  0.71560132821E+03  0.23965987604E+03  0.30091941830E+02  0.75526661007E+03  0.10100000352E+00 0.  1.
</event>
<event>
 5   0  0.7049044E-04  0.1695823E+04  0.7818609E-02  0.8763750E-01
        2   -1    0    0  501    0  0.00000000000E+00  0.00000000000E+00  0.96372371490E+03  0.96372371491E+03  0.25500000920E-02 0. -1.
       -2   -1    0    0    0  501  0.00000000000E+00  0.00000000000E+00 -0.74601680713E+03  0.74601680713E+03  0.25500000920E-02 0.  1.
    10030    2    1    2    0    0  0.00000000000E+00  0.00000000000E+00  0.21770690778E+03  0.17097405220E+04  0.16958232087E+04 0.  0.
        4    1    3    3  502    0 -0.41650209888E+02  0.68744651628E+03 -0.38981161432E+03  0.79137359084E+03  0.12699999809E+01 0.  1.
       -4    1    3    3    0  502  0.41650209888E+02 -0.68744651628E+03  0.60751852210E+03  0.91836693120E+03  0.12699999809E+01 0. -1.
</event>
<event>
 5   0  0.7233728E-04  0.1695276E+04  0.7818609E-02  0.8764063E-01
       -2   -1    0    0    0  501  0.00000000000E+00  0.00000000000E+00  0.90859426860E+03  0.90859426860E+03  0.25500000920E-02 0. -1.
        2   -1    0    0  501    0  0.00000000000E+00  0.00000000000E+00 -0.79077143468E+03  0.79077143468E+03  0.25500000920E-02 0.  1.
    10030    2    1    2    0    0  0.00000000000E+00  0.00000000000E+00  0.11782283392E+03  0.16993657033E+04  0.16952762528E+04 0.  0.
        1    1    3    3  502    0 -0.55114001038E+03  0.63851658175E+03 -0.25145839772E+02  0.84385487466E+03  0.50400001928E-02 0.  1.
       -1    1    3    3    0  502  0.55114001038E+03 -0.63851658175E+03  0.14296867369E+03  0.85551082862E+03  0.50400001928E-02 0. -1.
</event>
<event>
 5   0  0.7242144E-04  0.1658658E+04  0.7818609E-02  0.8785301E-01
       -2   -1    0    0    0  501  0.00000000000E+00  0.00000000000E+00  0.53440739698E+03  0.53440739699E+03  0.25500000920E-02 0.  1.
        2   -1    0    0  501    0  0.00000000000E+00  0.00000000000E+00 -0.12870085983E+04  0.12870085983E+04  0.25500000920E-02 0. -1.
    10030    2    1    2    0    0  0.00000000000E+00  0.00000000000E+00 -0.75260120129E+03  0.18214159953E+04  0.16586583915E+04 0.  0.
        3    1    3    3  502    0 -0.27174310062E+03 -0.60806423369E+03  0.16635645267E+03  0.68648445326E+03  0.10100000352E+00 0.  1.
       -3    1    3    3    0  502  0.27174310062E+03  0.60806423369E+03 -0.91895765396E+03  0.11349315420E+04  0.10100000352E+00 0. -1.
</event>
<event>
 5   0  0.3713516E-04  0.1605588E+04  0.7818609E-02  0.8817123E-01
       -1   -1    0    0    0  501  0.00000000000E+00  0.00000000000E+00  0.10747118579E+04  0.10747118579E+04  0.50400001928E-02 0.  1.
        1   -1    0    0  501    0  0.00000000000E+00  0.00000000000E+00 -0.59967521047E+03  0.59967521049E+03  0.50400001928E-02 0. -1.
    10030    2    1    2    0    0  0.00000000000E+00  0.00000000000E+00  0.47503664743E+03  0.16743870684E+04  0.16055878171E+04 0.  0.
        5    1    3    3  502    0  0.14212607329E+03  0.40995425319E+03  0.94188113691E+03  0.10370267482E+04  0.46999998093E+01 0.  1.
       -5    1    3    3    0  502 -0.14212607329E+03 -0.40995425319E+03 -0.46684448948E+03  0.63736032021E+03  0.46999998093E+01 0. -1.
</event>
<event>
 5   0  0.3803253E-04  0.1711681E+04  0.7818609E-02  0.8754730E-01
       -1   -1    0    0    0  501  0.00000000000E+00  0.00000000000E+00  0.11949649349E+04  0.11949649349E+04  0.50400001928E-02 0. -1.
        1   -1    0    0  501    0  0.00000000000E+00  0.00000000000E+00 -0.61295752260E+03  0.61295752262E+03  0.50400001928E-02 0.  1.
    10030    2    1    2    0    0  0.00000000000E+00  0.00000000000E+00  0.58200741226E+03  0.18079224575E+04  0.17116807484E+04 0.  0.
        4    1    3    3  502    0 -0.12269886421E+02 -0.61612321298E+03 -0.33627633354E+03  0.70202688630E+03  0.12699999809E+01 0.  1.
       -4    1    3    3    0  502  0.12269886421E+02  0.61612321298E+03  0.91828374580E+03  0.11058955712E+04  0.12699999809E+01 0. -1.
</event>
<event>
 5   0  0.3713516E-04  0.1694003E+04  0.7818609E-02  0.8764792E-01
       -1   -1    0    0    0  501  0.00000000000E+00  0.00000000000E+00  0.38161838109E+03  0.38161838112E+03  0.50400001928E-02 0. -1.
        1   -1    0    0  501    0  0.00000000000E+00  0.00000000000E+00 -0.18799194270E+04  0.18799194270E+04  0.50400001928E-02 0.  1.
    10030    2    1    2    0    0  0.00000000000E+00  0.00000000000E+00 -0.14983010459E+04  0.22615378082E+04  0.16940033157E+04 0.  0.
        5    1    3    3  502    0 -0.11954964822E+03 -0.13190306315E+03  0.35634353416E+03  0.39836332762E+03  0.46999998093E+01 0. -1.
       -5    1    3    3    0  502  0.11954964822E+03  0.13190306315E+03 -0.18546445801E+04  0.18631744805E+04  0.46999998093E+01 0.  1.
</event>
<event>
 5   0  0.3723500E-04  0.1708956E+04  0.7818609E-02  0.8756273E-01
        1   -1    0    0  501    0  0.00000000000E+00  0.00000000000E+00  0.90691495580E+03  0.90691495581E+03  0.50400001928E-02 0. -1.
       -1   -1    0    0    0  501  0.00000000000E+00  0.00000000000E+00 -0.80507284779E+03  0.80507284781E+03  0.50400001928E-02 0.  1.
    10030    2    1    2    0    0  0.00000000000E+00  0.00000000000E+00  0.10184210801E+03  0.17119878036E+04  0.17089559458E+04 0.  0.
        1    1    3    3  502    0 -0.30438892222E+03  0.69985211481E+03  0.43590351505E+03  0.87889559848E+03  0.50400001928E-02 0. -1.
       -1    1    3    3    0  502  0.30438892222E+03 -0.69985211481E+03 -0.33406140704E+03  0.83309220514E+03  0.50400001928E-02 0.  1.
</event>
<event>
 5   0  0.7049044E-04  0.1725389E+04  0.7818609E-02  0.8747015E-01
        2   -1    0    0  501    0  0.00000000000E+00  0.00000000000E+00  0.60484130321E+03  0.60484130322E+03  0.25500000920E-02 0.  1.
       -2   -1    0    0    0  501  0.00000000000E+00  0.00000000000E+00 -0.12304739360E+04  0.12304739360E+04  0.25500000920E-02 0. -1.
    10030    2    1    2    0    0  0.00000000000E+00  0.00000000000E+00 -0.62563263275E+03  0.18353152392E+04  0.17253886044E+04 0.  0.
        4    1    3    3  502    0  0.54792267261E+03  0.40397034857E+00 -0.10216187840E+04  0.11592782112E+04  0.12699999809E+01 0. -1.
       -4    1    3    3    0  502 -0.54792267261E+03 -0.40397034857E+00  0.39598615121E+03  0.67603702798E+03  0.12699999809E+01 0.  1.
</event>
<event>
 5   0  0.7233728E-04  0.1708944E+04  0.7818609E-02  0.8756280E-01
       -2   -1    0    0    0  501  0.00000000000E+00  0.00000000000E+00  0.51664918363E+03  0.51664918364E+03  0.25500000920E-02 0.  1.
        2   -1    0    0  501    0  0.00000000000E+00  0.00000000000E+00 -0.14131873455E+04  0.14131873455E+04  0.25500000920E-02 0. -1.
    10030    2    1    2    0    0  0.00000000000E+00  0.00000000000E+00 -0.89653816188E+03  0.19298365292E+04  0.17089436367E+04 0.  0.
        1    1    3    3  502    0  0.56438300812E+01 -0.81122239873E+03 -0.75129831695E+03  0.11056956155E+04  0.50400001928E-02 0. -1.
       -1    1    3    3    0  502 -0.56438300812E+01  0.81122239873E+03 -0.14523984493E+03  0.82414091368E+03  0.50400001928E-02 0.  1.
</event>
<event>
 5   0  0.7025426E-04  0.1720618E+04  0.7818609E-02  0.8749692E-01
        2   -1    0    0  501    0  0.00000000000E+00  0.00000000000E+00  0.46061182361E+03  0.46061182361E+03  0.25500000920E-02 0.  1.
       -2   -1    0    0    0  501  0.00000000000E+00  0.00000000000E+00 -0.16068439774E+04  0.16068439774E+04  0.25500000920E-02 0. -1.
    10030    2    1    2    0    0  0.00000000000E+00  0.00000000000E+00 -0.11462321538E+04  0.20674558010E+04  0.17206177201E+04 0.  0.
        2    1    3    3  502    0  0.11865504682E+03 -0.71287381106E+03 -0.11339623336E+04  0.13446704669E+04  0.25500000920E-02 0. -1.
       -2    1    3    3    0  502 -0.11865504682E+03  0.71287381106E+03 -0.12269820173E+02  0.72278533405E+03  0.25500000920E-02 0.  1.
</event>
<event>
 5   0  0.3635143E-04  0.1682671E+04  0.7818609E-02  0.8771310E-01
       -1   -1    0    0    0  501  0.00000000000E+00  0.00000000000E+00  0.44621311177E+03  0.44621311180E+03  0.50400001928E-02 0. -1.
        1   -1    0    0  501    0  0.00000000000E+00  0.00000000000E+00 -0.15863399494E+04  0.15863399494E+04  0.50400001928E-02 0.  1.
    10030    2    1    2    0    0  0.00000000000E+00  0.00000000000E+00 -0.11401268376E+04  0.20325530612E+04  0.16826713110E+04 0.  0.
        3    1    3    3  502    0 -0.20856464492E+03  0.75537050895E+03 -0.93993903733E+03  0.12237521077E+04  0.10100000352E+00 0. -1.
       -3    1    3    3    0  502  0.20856464492E+03 -0.75537050895E+03 -0.20018780032E+03  0.80880095357E+03  0.10100000352E+00 0.  1.
</event>
<event>
 5   0  0.7242144E-04  0.1720734E+04  0.7818609E-02  0.8749627E-01
        2   -1    0    0  501    0  0.00000000000E+00  0.00000000000E+00  0.12115869987E+04  0.12115869987E+04  0.25500000920E-02 0.  1.
       -2   -1    0    0    0  501  0.00000000000E+00  0.00000000000E+00 -0.61095987094E+03  0.61095987094E+03  0.25500000920E-02 0. -1.
    10030    2    1    2    0    0  0.00000000000E+00  0.00000000000E+00  0.60062712777E+03  0.18225468696E+04  0.17207336068E+04 0.  0.
        3    1    3    3  502    0  0.79473839611E+03  0.29672612694E+03  0.45224246837E+03  0.96134217272E+03  0.10100000352E+00 0.  1.
       -3    1    3    3    0  502 -0.79473839611E+03 -0.29672612694E+03  0.14838465940E+03  0.86120469692E+03  0.10100000352E+00 0. -1.
</event>
<event>
 5   0  0.6746664E-04  0.1805864E+04  0.7818609E-02  0.8703187E-01
        2   -1    0    0  501    0  0.00000000000E+00  0.00000000000E+00  0.16729068118E+04  0.16729068118E+04  0.25500000920E-02 0.  1.
       -2   -1    0    0    0  501  0.00000000000E+00  0.00000000000E+00 -0.48734683945E+03  0.48734683946E+03  0.25500000920E-02 0. -1.
    10030    2    1    2    0    0  0.00000000000E+00  0.00000000000E+00  0.11855599723E+04  0.21602536512E+04  0.18058636133E+04 0.  0.
        5    1    3    3  502    0 -0.74554731047E+03 -0.12188964317E+03  0.11941952105E+01  0.75546104688E+03  0.46999998093E+01 0. -1.
       -5    1    3    3    0  502  0.74554731047E+03  0.12188964317E+03  0.11843657771E+04  0.14047926044E+04  0.46999998093E+01 0.  1.
</event>
<event>
 5   0  0.7233728E-04  0.1689736E+04  0.7818609E-02  0.8767240E-01
        2   -1    0    0  501    0  0.00000000000E+00  0.00000000000E+00  0.87499612184E+03  0.87499612185E+03  0.25500000920E-02 0.  1.
       -2   -1    0    0    0  501  0.00000000000E+00  0.00000000000E+00 -0.81577715236E+03  0.81577715236E+03  0.25500000920E-02 0. -1.
    10030    2    1    2    0    0  0.00000000000E+00  0.00000000000E+00  0.59218969484E+02  0.16907732742E+04  0.16897358901E+04 0.  0.
        1    1    3    3  502    0 -0.20717699035E+03  0.92811017310E+02  0.84390616101E+03  0.87390720267E+03  0.50400001928E-02 0.  1.
       -1    1    3    3    0  502  0.20717699035E+03 -0.92811017310E+02 -0.78468719152E+03  0.81686607154E+03  0.50400001928E-02 0. -1.
</event>
<event>
 5   0  0.3635143E-04  0.1709109E+04  0.7818609E-02  0.8756186E-01
       -1   -1    0    0    0  501  0.00000000000E+00  0.00000000000E+00  0.37732901498E+03  0.37732901502E+03  0.50400001928E-02 0.  1.
        1   -1    0    0  501    0  0.00000000000E+00  0.00000000000E+00 -0.19353482912E+04  0.19353482912E+04  0.50400001928E-02 0. -1.
    10030    2    1    2    0    0  0.00000000000E+00  0.00000000000E+00 -0.15580192762E+04  0.23126773062E+04  0.17091086149E+04 0.  0.
        3    1    3    3  502    0 -0.14108289827E+03  0.21069052419E+03 -0.18832716008E+04  0.19002649325E+04  0.10100000352E+00 0. -1.
       -3    1    3    3    0  502  0.14108289827E+03 -0.21069052419E+03  0.32525232456E+03  0.41241237373E+03  0.10100000352E+00 0.  1.
</event>
<event>
 5   0  0.3803253E-04  0.1706928E+04  0.7818609E-02  0.8757423E-01
        1   -1    0    0  501    0  0.00000000000E+00  0.00000000000E+00  0.16717581759E+04  0.16717581759E+04  0.50400001928E-02 0.  1.
       -1   -1    0    0    0  501  0.00000000000E+00  0.00000000000E+00 -0.43570967561E+03  0.43570967564E+03  0.50400001928E-02 0. -1.
    10030    2    1    2    0    0  0.00000000000E+00  0.00000000000E+00  0.12360485003E+04  0.21074678515E+04  0.17069284842E+04 0.  0.
        4    1    3    3  502    0 -0.16906762903E+03 -0.60021958894E+02 -0.41216432291E+03  0.44951923286E+03  0.12699999809E+01 0. -1.
       -4    1    3    3    0  502  0.16906762903E+03  0.60021958894E+02  0.16482128232E+04  0.16579486187E+04  0.12699999809E+01 0.  1.
</event>
<event>
 5   0  0.3635143E-04  0.1706386E+04  0.7818609E-02  0.8757731E-01
        1   -1    0    0  501    0  0.00000000000E+00  0.00000000000E+00  0.95000795692E+03  0.95000795693E+03  0.50400001928E-02 0. -1.
       -1   -1    0    0    0  501  0.00000000000E+00  0.00000000000E+00 -0.76624439690E+03  0.76624439692E+03  0.50400001928E-02 0.  1.
    10030    2    1    2    0    0  0.00000000000E+00  0.00000000000E+00  0.18376356002E+03  0.17162523538E+04  0.17063859751E+04 0.  0.
        3    1    3    3  502    0 -0.29458064060E+03  0.68539459337E+02  0.89428082546E+03  0.94404110943E+03  0.10100000352E+00 0. -1.
       -3    1    3    3    0  502  0.29458064060E+03 -0.68539459337E+02 -0.71051726545E+03  0.77221124442E+03  0.10100000352E+00 0.  1.
</event>
<event>
 5   0  0.7049044E-04  0.1612577E+04  0.7818609E-02  0.8812859E-01
        2   -1    0    0  501    0  0.00000000000E+00  0.00000000000E+00  0.12300367825E+04  0.12300367825E+04  0.25500000920E-02 0. -1.
       -2   -1    0    0    0  501  0.00000000000E+00  0.00000000000E+00 -0.52852141166E+03  0.52852141166E+03  0.25500000920E-02 0.  1.
    10030    2    1    2    0    0  0.00000000000E+00  0.00000000000E+00  0.70151537084E+03  0.17585581942E+04  0.16125765429E+04 0.  0.
        4    1    3    3  502    0 -0.68419198889E+03  0.42408649919E+03  0.30041445198E+03  0.85919642243E+03  0.12699999809E+01 0.  1.
       -4    1    3    3    0  502  0.68419198889E+03 -0.42408649919E+03  0.40110091887E+03  0.89936177174E+03  0.12699999809E+01 0. -1.
</event>
<event>
 5   0  0.6746664E-04  0.1703519E+04  0.7818609E-02  0.8759360E-01
        2   -1    0    0  501    0  0.00000000000E+00  0.00000000000E+00  0.18519040449E+04  0.18519040449E+04  0.25500000920E-02 0.  1.
       -2   -1    0    0    0  501  0.00000000000E+00  0.00000000000E+00 -0.39175567395E+03  0.39175567396E+03  0.25500000920E-02 0. -1.
    10030    2    1    2    0    0  0.00000000000E+00  0.00000000000E+00  0.14601483709E+04  0.22436597188E+04  0.17035186142E+04 0.  0.
        5    1    3    3  502    0  0.53589847622E+02 -0.56455337071E+03  0.15670944722E+04  0.16665531960E+04  0.46999998093E+01 0.  1.
       -5    1    3    3    0  502 -0.53589847622E+02  0.56455337071E+03 -0.10694610130E+03  0.57710652286E+03  0.46999998093E+01 0. -1.
</event>
<event>
 5   0  0.7025426E-04  0.1749782E+04  0.7818609E-02  0.8733470E-01
        2   -1    0    0  501    0  0.00000000000E+00  0.00000000000E+00  0.13244826621E+04  0.13244826621E+04  0.25500000920E-02 0.  1.
       -2   -1    0    0    0  501  0.00000000000E+00  0.00000000000E+00 -0.57791177302E+03  0.57791177302E+03  0.25500000920E-02 0. -1.
    10030    2    1    2    0    0  0.00000000000E+00  0.00000000000E+00  0.74657088903E+03  0.19023944351E+04  0.17497818419E+04 0.  0.
        2    1    3    3  502    0 -0.42336153785E+03 -0.17692366104E+03 -0.43659872226E+03  0.63336831137E+03  0.25500000920E-02 0. -1.
       -2    1    3    3    0  502  0.42336153785E+03  0.17692366104E+03  0.11831696113E+04  0.12690261237E+04  0.25500000920E-02 0.  1.
</event>
<event>
 5   0  0.7242144E-04  0.1616080E+04  0.7818609E-02  0.8810730E-01
        2   -1    0    0  501    0  0.00000000000E+00  0.00000000000E+00  0.60614269847E+03  0.60614269848E+03  0.25500000920E-02 0. -1.
       -2   -1    0    0    0  501  0.00000000000E+00  0.00000000000E+00 -0.10771868169E+04  0.10771868169E+04  0.25500000920E-02 0.  1.
    10030    2    1    2    0    0  0.00000000000E+00  0.00000000000E+00 -0.47104411843E+03  0.16833295154E+04  0.16160803494E+04 0.  0.
        3    1    3    3  502    0  0.26457365834E+02  0.62216772819E+03 -0.77186273519E+03  0.99174833823E+03  0.10100000352E+00 0.  1.
       -3    1    3    3    0  502 -0.26457365834E+02 -0.62216772819E+03  0.30081861675E+03  0.69158117716E+03  0.10100000352E+00 0. -1.
</event>
<event>
 5   0  0.7025426E-04  0.1684652E+04  0.7818609E-02  0.8770167E-01
       -2   -1    0    0    0  501  0.00000000000E+00  0.00000000000E+00  0.27056352640E+03  0.27056352641E+03  0.25500000920E-02 0. -1.
        2   -1    0    0  501    0  0.00000000000E+00  0.00000000000E+00 -0.26223521651E+04  0.26223521651E+04  0.25500000920E-02 0.  1.
    10030    2    1    2    0    0  0.00000000000E+00  0.00000000000E+00 -0.23517886387E+04  0.28929156915E+04  0.16846517139E+04 0.  0.
        2    1    3    3  502    0  0.23105441092E+03 -0.63783241634E+03 -0.31849377567E+03  0.74943619962E+03  0.25500000920E-02 0. -1.
       -2    1    3    3    0  502 -0.23105441092E+03  0.63783241634E+03 -0.20332948630E+04  0.21434794919E+04  0.25500000920E-02 0.  1.
</event>
<event>
 5   0  0.7242144E-04  0.1707208E+04  0.7818609E-02  0.8757264E-01
       -2   -1    0    0    0  501  0.00000000000E+00  0.00000000000E+00  0.35414084912E+03  0.35414084913E+03  0.25500000920E-02 0.  1.
        2   -1    0    0  501    0  0.00000000000E+00  0.00000000000E+00 -0.20574869463E+04  0.20574869463E+04  0.25500000920E-02 0. -1.
    10030    2    1    2    0    0  0.00000000000E+00  0.00000000000E+00 -0.17033460972E+04  0.24116277955E+04  0.17072084515E+04 0.  0.
        3    1    3    3  502    0 -0.49420866409E+02  0.80976782139E+03 -0.47666755737E+03  0.94094543787E+03  0.10100000352E+00 0.  1.
       -3    1    3    3    0  502  0.49420866409E+02 -0.80976782139E+03 -0.12266785398E+04  0.14706823576E+04  0.10100000352E+00 0. -1.
</event>
<event>
 5   0  0.7242144E-04  0.1710177E+04  0.7818609E-02  0.8755581E-01
       -2   -1    0    0    0  501  0.00000000000E+00  0.00000000000E+00  0.66794714817E+03  0.66794714817E+03  0.25500000920E-02 0.  1.
        2   -1    0    0  501    0  0.00000000000E+00  0.00000000000E+00 -0.10946614771E+04  0.10946614771E+04  0.25500000920E-02 0. -1.
    10030    2    1    2    0    0  0.00000000000E+00  0.00000000000E+00 -0.42671432895E+03  0.17626086253E+04  0.17101766129E+04 0.  0.
        3    1    3    3  502    0  0.52410935288E+03  0.48574977908E+03 -0.69736374652E+03  0.99847867620E+03  0.10100000352E+00 0. -1.
       -3    1    3    3    0  502 -0.52410935288E+03 -0.48574977908E+03  0.27064941757E+03  0.76412994909E+03  0.10100000352E+00 0.  1.
</event>
<event>
 5   0  0.7049044E-04  0.1706970E+04  0.7818609E-02  0.8757399E-01
        2   -1    0    0  501    0  0.00000000000E+00  0.00000000000E+00  0.97895463298E+03  0.97895463298E+03  0.25500000920E-02 0. -1.
       -2   -1    0    0    0  501  0.00000000000E+00  0.00000000000E+00 -0.74409635104E+03  0.74409635104E+03  0.25500000920E-02 0.  1.
    10030    2    1    2    0    0  0.00000000000E+00  0.00000000000E+00  0.23485828194E+03  0.17230509840E+04  0.17069699121E+04 0.  0.
        4    1    3    3  502    0  0.64994751584E+02 -0.16406395376E+02 -0.74143404886E+03  0.74445923277E+03  0.12699999809E+01 0.  1.
       -4    1    3    3    0  502 -0.64994751584E+02  0.16406395376E+02  0.97629233080E+03  0.97859175126E+03  0.12699999809E+01 0. -1.
</event>
<event>
 5   0  0.3635143E-04  0.1693399E+04  0.7818609E-02  0.8765138E-01
       -1   -1    0    0    0  501  0.00000000000E+00  0.00000000000E+00  0.52764913797E+03  0.52764913800E+03  0.50400001928E-02 0. -1.
        1   -1    0    0  501    0  0.00000000000E+00  0.00000000000E+00 -0.13586688690E+04  0.13586688690E+04  0.50400001928E-02 0.  1.
    10030    2    1    2    0    0  0.00000000000E+00  0.00000000000E+00 -0.83101973099E+03  0.18863180070E+04  0.16933994892E+04 0.  0.
        3    1    3    3  502    0  0.25414741974E+03  0.26710939986E+03 -0.12645522847E+04  0.13172056914E+04  0.10100000352E+00 0.  1.
       -3    1    3    3    0  502 -0.25414741974E+03 -0.26710939986E+03  0.43353255370E+03  0.56911231560E+03  0.10100000352E+00 0. -1.
</event>
<event>
 5   0  0.3915701E-04  0.1701270E+04  0.7818609E-02  0.8760640E-01
       -1   -1    0    0    0  501  0.00000000000E+00  0.00000000000E+00  0.37774368292E+03  0.37774368295E+03  0.50400001928E-02 0. -1.
        1   -1    0    0  501    0  0.00000000000E+00  0.00000000000E+00 -0.19155312374E+04  0.19155312374E+04  0.50400001928E-02 0.  1.
    10030    2    1    2    0    0  0.00000000000E+00  0.00000000000E+00 -0.15377875545E+04  0.22932749204E+04  0.17012699073E+04 0.  0.
        2    1    3    3  502    0  0.71232370803E+03 -0.44146634046E+03 -0.57224490340E+03  0.10147718090E+04  0.25500000920E-02 0. -1.
       -2    1    3    3    0  502 -0.71232370803E+03  0.44146634046E+03 -0.96554265109E+03  0.12785031114E+04  0.25500000920E-02 0.  1.
</event>
<event>
 5   0  0.3915701E-04  0.1673586E+04  0.7818609E-02  0.8776574E-01
       -1   -1    0    0    0  501  0.00000000000E+00  0.00000000000E+00  0.62023152918E+03  0.62023152920E+03  0.50400001928E-02 0. -1.
        1   -1    0    0  501    0  0.00000000000E+00  0.00000000000E+00 -0.11289701070E+04  0.11289701070E+04  0.50400001928E-02 0.  1.
    10030    2    1    2    0    0  0.00000000000E+00  0.00000000000E+00 -0.50873857782E+03  0.17492016362E+04  0.16735863956E+04 0.  0.
        2    1    3    3  502    0 -0.36643608642E+03 -0.10956598164E+03  0.52353143899E+03  0.64835582621E+03  0.25500000920E-02 0. -1.
       -2    1    3    3    0  502  0.36643608642E+03  0.10956598164E+03 -0.10322700168E+04  0.11008458100E+04  0.25500000920E-02 0.  1.
</event>
<event>
 5   0  0.3635143E-04  0.1728182E+04  0.7818609E-02  0.8745452E-01
       -1   -1    0    0    0  501  0.00000000000E+00  0.00000000000E+00  0.40007291698E+03  0.40007291701E+03  0.50400001928E-02 0. -1.
        1   -1    0    0  501    0  0.00000000000E+00  0.00000000000E+00 -0.18662932691E+04  0.18662932691E+04  0.50400001928E-02 0.  1.
    10030    2    1    2    0    0  0.00000000000E+00  0.00000000000E+00 -0.14662203521E+04  0.22663661861E+04  0.17281821572E+04 0.  0.
        3    1    3    3  502    0 -0.35206719519E+03 -0.44038385890E+03  0.12560628319E+03  0.57763846971E+03  0.10100000352E+00 0. -1.
       -3    1    3    3    0  502  0.35206719519E+03  0.44038385890E+03 -0.15918266353E+04  0.16887277164E+04  0.10100000352E+00 0.  1.
</event>
<event>
 5   0  0.7233728E-04  0.1626606E+04  0.7818609E-02  0.8804368E-01
       -2   -1    0    0    0  501  0.00000000000E+00  0.00000000000E+00  0.34385278780E+03  0.34385278781E+03  0.25500000920E-02 0.  1.
        2   -1    0    0  501    0  0.00000000000E+00  0.00000000000E+00 -0.19236768614E+04  0.19236768614E+04  0.25500000920E-02 0. -1.
    10030    2    1    2    0    0  0.00000000000E+00  0.00000000000E+00 -0.15798240736E+04  0.22675296492E+04  0.16266058547E+04 0.  0.
        1    1    3    3  502    0  0.28075620956E+03  0.74051887074E+03 -0.10479739555E+04  0.13135606794E+04  0.50400001928E-02 0. -1.
       -1    1    3    3    0  502 -0.28075620956E+03 -0.74051887074E+03 -0.53185011807E+03  0.95396896975E+03  0.50400001928E-02 0.  1.
</event>
<event>
 5   0  0.3635143E-04  0.1714565E+04  0.7818609E-02  0.8753101E-01
        1   -1    0    0  501    0  0.00000000000E+00  0.00000000000E+00  0.91117695844E+03  0.91117695845E+03  0.50400001928E-02 0. -1.
       -1   -1    0    0    0  501  0.00000000000E+00  0.00000000000E+00 -0.80657616255E+03  0.80657616256E+03  0.50400001928E-02 0.  1.
    10030    2    1    2    0    0  0.00000000000E+00  0.00000000000E+00  0.10460079589E+03  0.17177531210E+04  0.17145653847E+04 0.  0.
        3    1    3    3  502    0 -0.50431782047E+03 -0.26050939142E+03 -0.59133624996E+03  0.81968297395E+03  0.10100000352E+00 0.  1.
       -3    1    3    3    0  502  0.50431782047E+03  0.26050939142E+03  0.69593704585E+03  0.89807014707E+03  0.10100000352E+00 0. -1.
</event>
<event>
 5   0  0.7242144E-04  0.1720408E+04  0.7818609E-02  0.8749810E-01
       -2   -1    0    0    0  501  0.00000000000E+00  0.00000000000E+00  0.10250168378E+04  0.10250168378E+04  0.25500000920E-02 0. -1.
        2   -1    0    0  501    0  0.00000000000E+00  0.00000000000E+00 -0.72189144059E+03  0.72189144059E+03  0.25500000920E-02 0.  1.
    10030    2    1    2    0    0  0.00000000000E+00  0.00000000000E+00  0.30312539717E+03  0.17469082784E+04  0.17204079535E+04 0.  0.
        3    1    3    3  502    0 -0.13450945094E+03 -0.56473511301E+03  0.79610988873E+03  0.98529665858E+03  0.10100000352E+00 0. -1.
       -3    1    3    3    0  502  0.13450945094E+03  0.56473511301E+03 -0.49298449156E+03  0.76161161978E+03  0.10100000352E+00 0.  1.
</event>
<event>
 5   0  0.3723500E-04  0.1708007E+04  0.7818609E-02  0.8756811E-01
        1   -1    0    0  501    0  0.00000000000E+00  0.00000000000E+00  0.10962316831E+04  0.10962316831E+04  0.50400001928E-02 0. -1.
       -1   -1    0    0    0  501  0.00000000000E+00  0.00000000000E+00 -0.66529941642E+03  0.66529941644E+03  0.50400001928E-02 0.  1.
    10030    2    1    2    0    0  0.00000000000E+00  0.00000000000E+00  0.43093226671E+03  0.17615310996E+04  0.17080073759E+04 0.  0.
        1    1    3    3  502    0 -0.49850823663E+03  0.21401006588E+03  0.89568857605E+03  0.10471718080E+04  0.50400001928E-02 0. -1.
       -1    1    3    3    0  502  0.49850823663E+03 -0.21401006588E+03 -0.46475630934E+03  0.71435929152E+03  0.50400001928E-02 0.  1.
</event>
<event>
 5   0  0.7049044E-04  0.1789426E+04  0.7818609E-02  0.8711943E-01
        2   -1    0    0  501    0  0.00000000000E+00  0.00000000000E+00  0.16277565389E+04  0.16277565389E+04  0.25500000920E-02 0.  1.
       -2   -1    0    0    0  501  0.00000000000E+00  0.00000000000E+00 -0.49178817322E+03  0.49178817322E+03  0.25500000920E-02 0. -1.
    10030    2    1    2    0    0  0.00000000000E+00  0.00000000000E+00  0.11359683656E+04  0.21195447121E+04  0.17894260697E+04 0.  0.
        4    1    3    3  502    0 -0.32751133789E+03 -0.46952827590E+03 -0.24646248859E+03  0.62327028607E+03  0.12699999809E+01 0. -1.
       -4    1    3    3    0  502  0.32751133789E+03  0.46952827590E+03  0.13824308542E+04  0.14962744260E+04  0.12699999809E+01 0.  1.
</event>
<event>
 5   0  0.7049044E-04  0.1708986E+04  0.7818609E-02  0.8756256E-01
       -2   -1    0    0    0  501  0.00000000000E+00  0.00000000000E+00  0.10050354523E+04  0.10050354523E+04  0.25500000920E-02 0.  1.
        2   -1    0    0  501    0  0.00000000000E+00  0.00000000000E+00 -0.72649982476E+03  0.72649982476E+03  0.25500000920E-02 0. -1.
    10030    2    1    2    0    0  0.00000000000E+00  0.00000000000E+00  0.27853562754E+03  0.17315352771E+04  0.17089857577E+04 0.  0.
        4    1    3    3  502    0 -0.79372356435E+03  0.31647842136E+03  0.13837338925E+03  0.86562376096E+03  0.12699999809E+01 0.  1.
       -4    1    3    3    0  502  0.79372356435E+03 -0.31647842136E+03  0.14016223829E+03  0.86591151611E+03  0.12699999809E+01 0. -1.
</event>
<event>
 5   0  0.3713516E-04  0.1730456E+04  0.7818609E-02  0.8744183E-01
       -1   -1    0    0    0  501  0.00000000000E+00  0.00000000000E+00  0.41970133847E+03  0.41970133850E+03  0.50400001928E-02 0.  1.
        1   -1    0    0  501    0  0.00000000000E+00  0.00000000000E+00 -0.17836950265E+04  0.17836950265E+04  0.50400001928E-02 0. -1.
    10030    2    1    2    0    0  0.00000000000E+00  0.00000000000E+00 -0.13639936880E+04  0.22033963650E+04  0.17304556511E+04 0.  0.
        5    1    3    3  502    0 -0.30141232695E+03 -0.72328499086E+03 -0.21483730464E+03  0.81250706231E+03  0.46999998093E+01 0. -1.
       -5    1    3    3    0  502  0.30141232695E+03  0.72328499086E+03 -0.11491563834E+04  0.13908893027E+04  0.46999998093E+01 0.  1.
</event>
<event>
 5   0  0.3635143E-04  0.1730841E+04  0.7818609E-02  0.8743967E-01
       -1   -1    0    0    0  501  0.00000000000E+00  0.00000000000E+00  0.70350031794E+03  0.70350031796E+03  0.50400001928E-02 0. -1.
        1   -1    0    0  501    0  0.00000000000E+00  0.00000000000E+00 -0.10646088229E+04  0.10646088229E+04  0.50400001928E-02 0.  1.
    10030    2    1    2    0    0  0.00000000000E+00  0.00000000000E+00 -0.36110850497E+03  0.17681091409E+04  0.17308410042E+04 0.  0.
        3    1    3    3  502    0 -0.84599929421E+03 -0.17140759939E+03 -0.11711010110E+03  0.87109709959E+03  0.10100000352E+00 0. -1.
       -3    1    3    3    0  502  0.84599929421E+03  0.17140759939E+03 -0.24399840387E+03  0.89701204130E+03  0.10100000352E+00 0.  1.
</event>
<event>
 5   0  0.3915701E-04  0.1805888E+04  0.7818609E-02  0.8703174E-01
        1   -1    0    0  501    0  0.00000000000E+00  0.00000000000E+00  0.73149280249E+03  0.73149280251E+03  0.50400001928E-02 0.  1.
       -1   -1    0    0    0  501  0.00000000000E+00  0.00000000000E+00 -0.11145813253E+04  0.11145813253E+04  0.50400001928E-02 0. -1.
    10030    2    1    2    0    0  0.00000000000E+00  0.00000000000E+00 -0.38308852277E+03  0.18460741278E+04  0.18058883877E+04 0.  0.
        2    1    3    3  502    0 -0.81587740446E+03 -0.20894433080E+03  0.14126851291E+03  0.85397333988E+03  0.25500000920E-02 0.  1.
       -2    1    3    3    0  502  0.81587740446E+03  0.20894433080E+03 -0.52435703568E+03  0.99210078790E+03  0.25500000920E-02 0. -1.
</event>
<event>
 5   0  0.7049044E-04  0.1704383E+04  0.7818609E-02  0.8758869E-01
        2   -1    0    0  501    0  0.00000000000E+00  0.00000000000E+00  0.17717891033E+04  0.17717891033E+04  0.25500000920E-02 0. -1.
       -2   -1    0    0    0  501  0.00000000000E+00  0.00000000000E+00 -0.40988525832E+03  0.40988525833E+03  0.25500000920E-02 0.  1.
    10030    2    1    2    0    0  0.00000000000E+00  0.00000000000E+00  0.13619038450E+04  0.21816743616E+04  0.17043828611E+04 0.  0.
        4    1    3    3  502    0 -0.74581737803E+03 -0.39095603376E+03  0.84852660682E+03  0.11954451878E+04  0.12699999809E+01 0. -1.
       -4    1    3    3    0  502  0.74581737803E+03  0.39095603376E+03  0.51337723816E+03  0.98622917381E+03  0.12699999809E+01 0.  1.
</event>
<event>
 5   0  0.3635143E-04  0.1704284E+04  0.7818609E-02  0.8758925E-01
       -1   -1    0    0    0  501  0.00000000000E+00  0.00000000000E+00  0.91857771132E+03  0.91857771134E+03  0.50400001928E-02 0. -1.
        1   -1    0    0  501    0  0.00000000000E+00  0.00000000000E+00 -0.79051104997E+03  0.79051104998E+03  0.50400001928E-02 0.  1.
    10030    2    1    2    0    0  0.00000000000E+00  0.00000000000E+00  0.12806666136E+03  0.17090887613E+04  0.17042838157E+04 0.  0.
        3    1    3    3  502    0  0.52005876196E+03 -0.66170772084E+03 -0.69863132246E+02  0.84451115514E+03  0.10100000352E+00 0. -1.
       -3    1    3    3    0  502 -0.52005876196E+03  0.66170772084E+03  0.19792979360E+03  0.86457760618E+03  0.10100000352E+00 0.  1.
</event>
<event>
 5   0  0.7025426E-04  0.1743843E+04  0.7818609E-02  0.8736747E-01
        2   -1    0    0  501    0  0.00000000000E+00  0.00000000000E+00  0.88283927849E+03  0.88283927850E+03  0.25500000920E-02 0.  1.
       -2   -1    0    0    0  501  0.00000000000E+00  0.00000000000E+00 -0.86113829253E+03  0.86113829253E+03  0.25500000920E-02 0. -1.
    10030    2    1    2    0    0  0.00000000000E+00  0.00000000000E+00  0.21700985966E+02  0.17439775710E+04  0.17438425489E+04 0.  0.
        2    1    3    3  502    0 -0.25025174317E+03  0.54061530757E+03  0.64757542360E+03  0.87991179956E+03  0.25500000920E-02 0.  1.
       -2    1    3    3    0  502  0.25025174317E+03 -0.54061530757E+03 -0.62587443763E+03  0.86406577147E+03  0.25500000920E-02 0. -1.
</event>
<event>
 5   0  0.7049044E-04  0.1703465E+04  0.7818609E-02  0.8759391E-01
        2   -1    0    0  501    0  0.00000000000E+00  0.00000000000E+00  0.12243666914E+04  0.12243666914E+04  0.25500000920E-02 0. -1.
       -2   -1    0    0    0  501  0.00000000000E+00  0.00000000000E+00 -0.59250869103E+03  0.59250869104E+03  0.25500000920E-02 0.  1.
    10030    2    1    2    0    0  0.00000000000E+00  0.00000000000E+00  0.63185800038E+03  0.18168753825E+04  0.17034645939E+04 0.  0.
        4    1    3    3  502    0  0.41819919768E+03  0.27131046030E+03  0.10525206608E+04  0.11646034901E+04  0.12699999809E+01 0. -1.
       -4    1    3    3    0  502 -0.41819919768E+03 -0.27131046030E+03 -0.42066266042E+03  0.65227189237E+03  0.12699999809E+01 0.  1.
</event>
<event>
 5   0  0.3713516E-04  0.1660539E+04  0.7818609E-02  0.8784196E-01
        1   -1    0    0  501    0  0.00000000000E+00  0.00000000000E+00  0.14191961042E+04  0.14191961042E+04  0.50400001928E-02 0.  1.
       -1   -1    0    0    0  501  0.00000000000E+00  0.00000000000E+00 -0.48573117956E+03  0.48573117958E+03  0.50400001928E-02 0. -1.
    10030    2    1    2    0    0  0.00000000000E+00  0.00000000000E+00  0.93346492469E+03  0.19049272838E+04  0.16605394277E+04 0.  0.
        5    1    3    3  502    0 -0.79955126884E+03  0.21034385894E+03  0.55409060975E+03  0.99527145258E+03  0.46999998093E+01 0. -1.
       -5    1    3    3    0  502  0.79955126884E+03 -0.21034385894E+03  0.37937431494E+03  0.90965583125E+03  0.46999998093E+01 0.  1.
</event>
<event>
 5   0  0.2639750E-04  0.1693659E+04  0.7818609E-02  0.8764989E-01
       -4   -1    0    0    0  501  0.00000000000E+00  0.00000000000E+00  0.75123133718E+03  0.75123241068E+03  0.12699999809E+01 0.  1.
        4   -1    0    0  501    0  0.00000000000E+00  0.00000000000E+00 -0.95459035946E+03  0.95459120427E+03  0.12699999809E+01 0. -1.
    10030    2    1    2    0    0  0.00000000000E+00  0.00000000000E+00 -0.20335902228E+03  0.17058236149E+04  0.16936585587E+04 0.  0.
        4    1    3    3  502    0 -0.75919495764E+03  0.23099287653E+03 -0.39940981150E+03  0.88840559608E+03  0.12699999809E+01 0.  1.
       -4    1    3    3    0  502  0.75919495764E+03 -0.23099287653E+03  0.19605078922E+03  0.81741801887E+03  0.12699999809E+01 0. -1.
</event>
<event>
 5   0  0.7025426E-04  0.1570068E+04  0.7818609E-02  0.8839150E-01
       -2   -1    0    0    0  501  0.00000000000E+00  0.00000000000E+00  0.66360520090E+03  0.66360520091E+03  0.25500000920E-02 0. -1.
        2   -1    0    0  501    0  0.00000000000E+00  0.00000000000E+00 -0.92868214877E+03  0.92868214877E+03  0.25500000920E-02 0.  1.
    10030    2    1    2    0    0  0.00000000000E+00  0.00000000000E+00 -0.26507694787E+03  0.15922873497E+04  0.15700679016E+04 0.  0.
        2    1    3    3  502    0  0.16435276654E+03 -0.71051142481E+03 -0.42723640663E+03  0.84520368185E+03  0.25500000920E-02 0.  1.
       -2    1    3    3    0  502 -0.16435276654E+03  0.71051142481E+03  0.16215945877E+03  0.74708366783E+03  0.25500000920E-02 0. -1.
</event>
<event>
 5   0  0.7242144E-04  0.1707700E+04  0.7818609E-02  0.8756985E-01
       -2   -1    0    0    0  501  0.00000000000E+00  0.00000000000E+00  0.89443976795E+03  0.89443976795E+03  0.25500000920E-02 0.  1.
        2   -1    0    0  501    0  0.00000000000E+00  0.00000000000E+00 -0.81510228364E+03  0.81510228365E+03  0.25500000920E-02 0. -1.
    10030    2    1    2    0    0  0.00000000000E+00  0.00000000000E+00  0.79337484310E+02  0.17095420516E+04  0.17077000878E+04 0.  0.
        3    1    3    3  502    0 -0.49331713498E+03 -0.69004000899E+03 -0.58124279052E+02  0.85023258682E+03  0.10100000352E+00 0.  1.
       -3    1    3    3    0  502  0.49331713498E+03  0.69004000899E+03  0.13746176336E+03  0.85930946478E+03  0.10100000352E+00 0. -1.
</event>
<event>
 5   0  0.6746664E-04  0.1694308E+04  0.7818609E-02  0.8764617E-01
        2   -1    0    0  501    0  0.00000000000E+00  0.00000000000E+00  0.86434023961E+03  0.86434023961E+03  0.25500000920E-02 0.  1.
       -2   -1    0    0    0  501  0.00000000000E+00  0.00000000000E+00 -0.83030968160E+03  0.83030968160E+03  0.25500000920E-02 0. -1.
    10030    2    1    2    0    0  0.00000000000E+00  0.00000000000E+00  0.34030558011E+02  0.16946499212E+04  0.16943082000E+04 0.  0.
        5    1    3    3  502    0 -0.49074456954E+03 -0.67318348606E+03  0.17080499964E+03  0.85041323857E+03  0.46999998093E+01 0.  1.
       -5    1    3    3    0  502  0.49074456954E+03  0.67318348606E+03 -0.13677444163E+03  0.84423668264E+03  0.46999998093E+01 0. -1.
</event>
<event>
 5   0  0.3915701E-04  0.1696704E+04  0.7818609E-02  0.8763246E-01
        1   -1    0    0  501    0  0.00000000000E+00  0.00000000000E+00  0.14734825204E+04  0.14734825204E+04  0.50400001928E-02 0.  1.
       -1   -1    0    0    0  501  0.00000000000E+00  0.00000000000E+00 -0.48843568365E+03  0.48843568368E+03  0.50400001928E-02 0. -1.
    10030    2    1    2    0    0  0.00000000000E+00  0.00000000000E+00  0.98504683677E+03  0.19619182041E+04  0.16967043847E+04 0.  0.
        2    1    3    3  502    0  0.71522475077E+03 -0.37094702892E+02  0.10183322911E+04  0.12449590821E+04  0.25500000920E-02 0. -1.
       -2    1    3    3    0  502 -0.71522475077E+03  0.37094702892E+02 -0.33285454340E+02  0.71695912197E+03  0.25500000920E-02 0.  1.
</event>
<event>
 5   0  0.7025426E-04  0.1711996E+04  0.7818609E-02  0.8754552E-01
        2   -1    0    0  501    0  0.00000000000E+00  0.00000000000E+00  0.10862805707E+04  0.10862805707E+04  0.25500000920E-02 0.  1.
       -2   -1    0    0    0  501  0.00000000000E+00  0.00000000000E+00 -0.67453380830E+03  0.67453380831E+03  0.25500000920E-02 0. -1.
    10030    2    1    2    0    0  0.00000000000E+00  0.00000000000E+00  0.41174676238E+03  0.17608143790E+04  0.17119964605E+04 0.  0.
        2    1    3    3  502    0  0.11787070920E+03 -0.42097597729E+03  0.96280654902E+03  0.10574075508E+04  0.25500000920E-02 0.  1.
       -2    1    3    3    0  502 -0.11787070920E+03  0.42097597729E+03 -0.55105978665E+03  0.70340682824E+03  0.25500000920E-02 0. -1.
</event>
<event>
 5   0  0.3915701E-04  0.1689626E+04  0.7818609E-02  0.8767303E-01
        1   -1    0    0  501    0  0.00000000000E+00  0.00000000000E+00  0.16838569364E+04  0.16838569364E+04  0.50400001928E-02 0. -1.
       -1   -1    0    0    0  501  0.00000000000E+00  0.00000000000E+00 -0.42385370564E+03  0.42385370567E+03  0.50400001928E-02 0.  1.
    10030    2    1    2    0    0  0.00000000000E+00  0.00000000000E+00  0.12600032307E+04  0.21077106420E+04  0.16896259968E+04 0.  0.
        2    1    3    3  502    0  0.20251959936E+03 -0.68595405884E+03  0.11908816743E+04  0.13891530949E+04  0.25500000920E-02 0. -1.
       -2    1    3    3    0  502 -0.20251959936E+03  0.68595405884E+03  0.69121556448E+02  0.71855754713E+03  0.25500000920E-02 0.  1.
</event>
<event>
 5   0  0.6746664E-04  0.1653262E+04  0.7818609E-02  0.8788479E-01
        2   -1    0    0  501    0  0.00000000000E+00  0.00000000000E+00  0.91424333306E+03  0.91424333307E+03  0.25500000920E-02 0. -1.
       -2   -1    0    0    0  501  0.00000000000E+00  0.00000000000E+00 -0.74741499041E+03  0.74741499042E+03  0.25500000920E-02 0.  1.
    10030    2    1    2    0    0  0.00000000000E+00  0.00000000000E+00  0.16682834265E+03  0.16616583235E+04  0.16532624378E+04 0.  0.
        5    1    3    3  502    0  0.61090454762E+03 -0.24538716134E+03 -0.41900223739E+03  0.78038720529E+03  0.46999998093E+01 0.  1.
       -5    1    3    3    0  502 -0.61090454762E+03  0.24538716134E+03  0.58583058004E+03  0.88127111819E+03  0.46999998093E+01 0. -1.
</event>
<event>
 5   0  0.3723500E-04  0.1697176E+04  0.7818609E-02  0.8762977E-01
        1   -1    0    0  501    0  0.00000000000E+00  0.00000000000E+00  0.69706914750E+03  0.69706914752E+03  0.50400001928E-02 0. -1.
       -1   -1    0    0    0  501  0.00000000000E+00  0.00000000000E+00 -0.10330418883E+04  0.10330418883E+04  0.50400001928E-02 0.  1.
    10030    2    1    2    0    0  0.00000000000E+00  0.00000000000E+00 -0.33597274076E+03  0.17301110358E+04  0.16971760408E+04 0.  0.
        1    1    3    3  502    0 -0.68313585478E+03  0.79914466822E+02  0.33869081324E+03  0.76666314969E+03  0.50400001928E-02 0. -1.
       -1    1    3    3    0  502  0.68313585478E+03 -0.79914466822E+02 -0.67466355400E+03  0.96344788609E+03  0.50400001928E-02 0.  1.
</event>
<event>
 5   0  0.3915701E-04  0.1166392E+04  0.7818609E-02  0.9142793E-01
        1   -1    0    0  501    0  0.00000000000E+00  0.00000000000E+00  0.70876049147E+03  0.70876049149E+03  0.50400001928E-02 0. -1.
       -1   -1    0    0    0  501  0.00000000000E+00  0.00000000000E+00 -0.47987623218E+03  0.47987623220E+03  0.50400001928E-02 0.  1.
    10030    2    1    2    0    0  0.00000000000E+00  0.00000000000E+00  0.22888425929E+03  0.11886367237E+04  0.11663915538E+04 0.  0.
        2    1    3    3  502    0  0.27616118600E+03  0.20754257594E+03 -0.36438975477E+03  0.50211434441E+03  0.25500000920E-02 0.  1.
       -2    1    3    3    0  502 -0.27616118600E+03 -0.20754257594E+03  0.59327401406E+03  0.68652237928E+03  0.25500000920E-02 0. -1.
</event>
<event>
 5   0  0.3723500E-04  0.1713757E+04  0.7818609E-02  0.8753557E-01
        1   -1    0    0  501    0  0.00000000000E+00  0.00000000000E+00  0.10268970078E+04  0.10268970078E+04  0.50400001928E-02 0. -1.
       -1   -1    0    0    0  501  0.00000000000E+00  0.00000000000E+00 -0.71500905138E+03  0.71500905139E+03  0.50400001928E-02 0.  1.
    10030    2    1    2    0    0  0.00000000000E+00  0.00000000000E+00  0.31188795639E+03  0.17419060592E+04  0.17137568735E+04 0.  0.
        1    1    3    3  502    0 -0.24755397997E+03  0.49484510502E+03  0.82097366862E+03  0.99002647215E+03  0.50400001928E-02 0. -1.
       -1    1    3    3    0  502  0.24755397997E+03 -0.49484510502E+03 -0.50908571223E+03  0.75187958702E+03  0.50400001928E-02 0.  1.
</event>
<event>
 5   0  0.6746664E-04  0.1686211E+04  0.7818609E-02  0.8769268E-01
        2   -1    0    0  501    0  0.00000000000E+00  0.00000000000E+00  0.52777099058E+03  0.52777099059E+03  0.25500000920E-02 0. -1.
       -2   -1    0    0    0  501  0.00000000000E+00  0.00000000000E+00 -0.13468475303E+04  0.13468475303E+04  0.25500000920E-02 0.  1.
    10030    2    1    2    0    0  0.00000000000E+00  0.00000000000E+00 -0.81907653969E+03  0.18746185209E+04  0.16862112029E+04 0.  0.
        5    1    3    3  502    0 -0.50146596474E+03  0.35451487147E+03 -0.10517089012E+04  0.12178926926E+04  0.46999998093E+01 0.  1.
       -5    1    3    3    0  502  0.50146596474E+03 -0.35451487147E+03  0.23263236149E+03  0.65672582826E+03  0.46999998093E+01 0. -1.
</event>
<event>
 5   0  0.3713516E-04  0.1667043E+04  0.7818609E-02  0.8780387E-01
       -1   -1    0    0    0  501  0.00000000000E+00  0.00000000000E+00  0.71806252663E+03  0.71806252664E+03  0.50400001928E-02 0. -1.
        1   -1    0    0  501    0  0.00000000000E+00  0.00000000000E+00 -0.96754553591E+03  0.96754553592E+03  0.50400001928E-02 0.  1.
    10030    2    1    2    0    0  0.00000000000E+00  0.00000000000E+00 -0.24948300928E+03  0.16856080626E+04  0.16670431214E+04 0.  0.
        5    1    3    3  502    0  0.41726454032E+03  0.39629239279E+03  0.48494840727E+03  0.75256521638E+03  0.46999998093E+01 0. -1.
       -5    1    3    3    0  502 -0.41726454032E+03 -0.39629239279E+03 -0.73443141655E+03  0.93304284618E+03  0.46999998093E+01 0.  1.
</event>
<event>
 5   0  0.3635143E-04  0.1688217E+04  0.7818609E-02  0.8768113E-01
        1   -1    0    0  501    0  0.00000000000E+00  0.00000000000E+00  0.13446677236E+04  0.13446677236E+04  0.50400001928E-02 0. -1.
       -1   -1    0    0    0  501  0.00000000000E+00  0.00000000000E+00 -0.52988472871E+03  0.52988472874E+03  0.50400001928E-02 0.  1.
    10030    2    1    2    0    0  0.00000000000E+00  0.00000000000E+00  0.81478299492E+03  0.18745524524E+04  0.16882166827E+04 0.  0.
        3    1    3    3  502    0  0.25923946130E+03 -0.46656864252E+03 -0.31871816340E+03  0.62166926445E+03  0.10100000352E+00 0.  1.
       -3    1    3    3    0  502 -0.25923946130E+03  0.46656864252E+03  0.11335011583E+04  0.12528831879E+04  0.10100000352E+00 0. -1.
</event>
<event>
 5   0  0.7233728E-04  0.1724794E+04  0.7818609E-02  0.8747349E-01
       -2   -1    0    0    0  501  0.00000000000E+00  0.00000000000E+00  0.12238717633E+04  0.12238717633E+04  0.25500000920E-02 0. -1.
        2   -1    0    0  501    0  0.00000000000E+00  0.00000000000E+00 -0.60768497256E+03  0.60768497256E+03  0.25500000920E-02 0.  1.
    10030    2    1    2    0    0  0.00000000000E+00  0.00000000000E+00  0.61618679073E+03  0.18315567359E+04  0.17247938763E+04 0.  0.
        1    1    3    3  502    0 -0.63947363393E+02  0.18285409089E+03 -0.58428312880E+03  0.61555800577E+03  0.50400001928E-02 0.  1.
       -1    1    3    3    0  502  0.63947363393E+02 -0.18285409089E+03  0.12004699195E+04  0.12159987301E+04  0.50400001928E-02 0. -1.
</event>
<event>
 5   0  0.3635143E-04  0.1726817E+04  0.7818609E-02  0.8746216E-01
        1   -1    0    0  501    0  0.00000000000E+00  0.00000000000E+00  0.13124111256E+04  0.13124111256E+04  0.50400001928E-02 0. -1.
       -1   -1    0    0    0  501  0.00000000000E+00  0.00000000000E+00 -0.56801889301E+03  0.56801889304E+03  0.50400001928E-02 0.  1.
    10030    2    1    2    0    0  0.00000000000E+00  0.00000000000E+00  0.74439223262E+03  0.18804300187E+04  0.17268170891E+04 0.  0.
        3    1    3    3  502    0  0.82980895686E+03 -0.16943909428E+03  0.18938813700E+03  0.86784813660E+03  0.10100000352E+00 0.  1.
       -3    1    3    3    0  502 -0.82980895686E+03  0.16943909428E+03  0.55500409562E+03  0.10125818821E+04  0.10100000352E+00 0. -1.
</event>
<event>
 5   0  0.7242144E-04  0.1754630E+04  0.7818609E-02  0.8730806E-01
       -2   -1    0    0    0  501  0.00000000000E+00  0.00000000000E+00  0.99963107207E+03  0.99963107207E+03  0.25500000920E-02 0. -1.
        2   -1    0    0  501    0  0.00000000000E+00  0.00000000000E+00 -0.76996529385E+03  0.76996529386E+03  0.25500000920E-02 0.  1.
    10030    2    1    2    0    0  0.00000000000E+00  0.00000000000E+00  0.22966577821E+03  0.17695963659E+04  0.17546295702E+04 0.  0.
        3    1    3    3  502    0  0.40308771387E+03  0.72284582893E+03  0.40834008151E+03  0.92289080061E+03  0.10100000352E+00 0. -1.
       -3    1    3    3    0  502 -0.40308771387E+03 -0.72284582893E+03 -0.17867430329E+03  0.84670556532E+03  0.10100000352E+00 0.  1.
</event>
<event>
 5   0  0.3723500E-04  0.1694959E+04  0.7818609E-02  0.8764244E-01
        1   -1    0    0  501    0  0.00000000000E+00  0.00000000000E+00  0.47261076034E+03  0.47261076036E+03  0.50400001928E-02 0. -1.
       -1   -1    0    0    0  501  0.00000000000E+00  0.00000000000E+00 -0.15196901626E+04  0.15196901626E+04  0.50400001928E-02 0.  1.
    10030    2    1    2    0    0  0.00000000000E+00  0.00000000000E+00 -0.10470794023E+04  0.19923009230E+04  0.16949594960E+04 0.  0.
        1    1    3    3  502    0 -0.46479017907E+03 -0.45746028519E+03  0.11262809603E+03  0.66180428461E+03  0.50400001928E-02 0. -1.
       -1    1    3    3    0  502  0.46479017907E+03  0.45746028519E+03 -0.11597074983E+04  0.13304966384E+04  0.50400001928E-02 0.  1.
</event>
<event>
 5   0  0.3723500E-04  0.1653053E+04  0.7818609E-02  0.8788603E-01
        1   -1    0    0  501    0  0.00000000000E+00  0.00000000000E+00  0.56788973970E+03  0.56788973972E+03  0.50400001928E-02 0.  1.
       -1   -1    0    0    0  501  0.00000000000E+00  0.00000000000E+00 -0.12029547363E+04  0.12029547363E+04  0.50400001928E-02 0. -1.
    10030    2    1    2    0    0  0.00000000000E+00  0.00000000000E+00 -0.63506499656E+03  0.17708444760E+04  0.16530525123E+04 0.  0.
        1    1    3    3  502    0  0.41157936066E+03 -0.14795425912E+03  0.43376764681E+03  0.61598896448E+03  0.50400001928E-02 0.  1.
       -1    1    3    3    0  502 -0.41157936066E+03  0.14795425912E+03 -0.10688326434E+04  0.11548555115E+04  0.50400001928E-02 0. -1.
</event>
<event>
 5   0  0.7233728E-04  0.1751772E+04  0.7818609E-02  0.8732376E-01
        2   -1    0    0  501    0  0.00000000000E+00  0.00000000000E+00  0.16069238841E+04  0.16069238841E+04  0.25500000920E-02 0. -1.
       -2   -1    0    0    0  501  0.00000000000E+00  0.00000000000E+00 -0.47741898291E+03  0.47741898292E+03  0.25500000920E-02 0.  1.
    10030    2    1    2    0    0  0.00000000000E+00  0.00000000000E+00  0.11295049012E+04  0.20843428670E+04  0.17517716362E+04 0.  0.
        1    1    3    3  502    0  0.18999766442E+03  0.65565378040E+03 -0.88251081810E+02  0.68830897546E+03  0.50400001928E-02 0.  1.
       -1    1    3    3    0  502 -0.18999766442E+03 -0.65565378040E+03  0.12177559830E+04  0.13960338916E+04  0.50400001928E-02 0. -1.
</event>
<event>
 5   0  0.3723500E-04  0.1731512E+04  0.7818609E-02  0.8743593E-01
        1   -1    0    0  501    0  0.00000000000E+00  0.00000000000E+00  0.84912258276E+03  0.84912258277E+03  0.50400001928E-02 0. -1.
       -1   -1    0    0    0  501  0.00000000000E+00  0.00000000000E+00 -0.88271476965E+03  0.88271476967E+03  0.50400001928E-02 0.  1.
    10030    2    1    2    0    0  0.00000000000E+00  0.00000000000E+00 -0.33592186894E+02  0.17318373524E+04  0.17315115305E+04 0.  0.
        1    1    3    3  502    0  0.85969878577E+03 -0.95601880883E+02 -0.53015103924E+02  0.86662121088E+03  0.50400001928E-02 0. -1.
       -1    1    3    3    0  502 -0.85969878577E+03  0.95601880883E+02  0.19422917030E+02  0.86521614156E+03  0.50400001928E-02 0.  1.
</event>
<event>
 5   0  0.3723500E-04  0.1712433E+04  0.7818609E-02  0.8754305E-01
       -1   -1    0    0    0  501  0.00000000000E+00  0.00000000000E+00  0.33670496676E+03  0.33670496680E+03  0.50400001928E-02 0. -1.
        1   -1    0    0  501    0  0.00000000000E+00  0.00000000000E+00 -0.21772957401E+04  0.21772957401E+04  0.50400001928E-02 0.  1.
    10030    2    1    2    0    0  0.00000000000E+00  0.00000000000E+00 -0.18405907734E+04  0.25140007069E+04  0.17124325270E+04 0.  0.
        1    1    3    3  502    0 -0.64833864962E+03 -0.37261497911E+03 -0.15325448197E+04  0.17052502900E+04  0.50400001928E-02 0.  1.
       -1    1    3    3    0  502  0.64833864962E+03  0.37261497911E+03 -0.30804595367E+03  0.80875041690E+03  0.50400001928E-02 0. -1.
</event>
<event>
 5   0  0.7242144E-04  0.1694147E+04  0.7818609E-02  0.8764710E-01
       -2   -1    0    0    0  501  0.00000000000E+00  0.00000000000E+00  0.11486370867E+04  0.11486370867E+04  0.25500000920E-02 0.  1.
        2   -1    0    0  501    0  0.00000000000E+00  0.00000000000E+00 -0.62468238076E+03  0.62468238076E+03  0.25500000920E-02 0. -1.
    10030    2    1    2    0    0  0.00000000000E+00  0.00000000000E+00  0.52395470595E+03  0.17733194675E+04  0.16941468059E+04 0.  0.
        3    1    3    3  502    0 -0.93631183927E+02 -0.83117841244E+03  0.12189885981E+03  0.84527137307E+03  0.10100000352E+00 0. -1.
       -3    1    3    3    0  502  0.93631183927E+02  0.83117841244E+03  0.40205584614E+03  0.92804809440E+03  0.10100000352E+00 0.  1.
</event>
<event>
 5   0  0.6746664E-04  0.1744950E+04  0.7818609E-02  0.8736135E-01
        2   -1    0    0  501    0  0.00000000000E+00  0.00000000000E+00  0.89032031412E+03  0.89032031412E+03  0.25500000920E-02 0. -1.
       -2   -1    0    0    0  501  0.00000000000E+00  0.00000000000E+00 -0.85498774906E+03  0.85498774906E+03  0.25500000920E-02 0.  1.
    10030    2    1    2    0    0  0.00000000000E+00  0.00000000000E+00  0.35332565054E+02  0.17453080632E+04  0.17449503848E+04 0.  0.
        5    1    3    3  502    0  0.81903231346E+03  0.29880178437E+03  0.50755301855E+02  0.87332389610E+03  0.46999998093E+01 0.  1.
       -5    1    3    3    0  502 -0.81903231346E+03 -0.29880178437E+03 -0.15422736801E+02  0.87198416708E+03  0.46999998093E+01 0. -1.
</event>
<event>
 5   0  0.7025426E-04  0.1714667E+04  0.7818609E-02  0.8753043E-01
        2   -1    0    0  501    0  0.00000000000E+00  0.00000000000E+00  0.23274529652E+04  0.23274529652E+04  0.25500000920E-02 0. -1.
       -2   -1    0    0    0  501  0.00000000000E+00  0.00000000000E+00 -0.31580472335E+03  0.31580472336E+03  0.25500000920E-02 0.  1.
    10030    2    1    2    0    0  0.00000000000E+00  0.00000000000E+00  0.20116482419E+04  0.26432576886E+04  0.17146668945E+04 0.  0.
        2    1    3    3  502    0  0.75257317423E+03 -0.23163739138E+03  0.15285880280E+04  0.17194777181E+04  0.25500000920E-02 0. -1.
       -2    1    3    3    0  502 -0.75257317423E+03  0.23163739138E+03  0.48306021389E+03  0.92377997051E+03  0.25500000920E-02 0.  1.
</event>
<event>
 5   0  0.7025426E-04  0.1623790E+04  0.7818609E-02  0.8806065E-01
        2   -1    0    0  501    0  0.00000000000E+00  0.00000000000E+00  0.72999112042E+03  0.72999112042E+03  0.25500000920E-02 0.  1.
       -2   -1    0    0    0  501  0.00000000000E+00  0.00000000000E+00 -0.90298860958E+03  0.90298860958E+03  0.25500000920E-02 0. -1.
    10030    2    1    2    0    0  0.00000000000E+00  0.00000000000E+00 -0.17299748916E+03  0.16329797300E+04  0.16237902165E+04 0.  0.
        2    1    3    3  502    0  0.53367536027E+03  0.36453168474E+03  0.40768936419E+03  0.76413569280E+03  0.25500000920E-02 0.  1.
       -2    1    3    3    0  502 -0.53367536027E+03 -0.36453168474E+03 -0.58068685335E+03  0.86884403721E+03  0.25500000920E-02 0. -1.
</event>
<event>
 5   0  0.7242144E-04  0.1693008E+04  0.7818609E-02  0.8765362E-01
        2   -1    0    0  501    0  0.00000000000E+00  0.00000000000E+00  0.55159337451E+03  0.55159337452E+03  0.25500000920E-02 0. -1.
       -2   -1    0    0    0  501  0.00000000000E+00  0.00000000000E+00 -0.12990893960E+04  0.12990893960E+04  0.25500000920E-02 0.  1.
    10030    2    1    2    0    0  0.00000000000E+00  0.00000000000E+00 -0.74749602150E+03  0.18506827705E+04  0.16930080966E+04 0.  0.
        3    1    3    3  502    0 -0.17033436562E+03  0.77482304482E+03 -0.69655468915E+03  0.10557239185E+04  0.10100000352E+00 0.  1.
       -3    1    3    3    0  502  0.17033436562E+03 -0.77482304482E+03 -0.50941332345E+02  0.79495885204E+03  0.10100000352E+00 0. -1.
</event>
<event>
 5   0  0.3915701E-04  0.1407322E+04  0.7818609E-02  0.8948536E-01
       -1   -1    0    0    0  501  0.00000000000E+00  0.00000000000E+00  0.76474795400E+03  0.76474795402E+03  0.50400001928E-02 0.  1.
        1   -1    0    0  501    0  0.00000000000E+00  0.00000000000E+00 -0.64745342590E+03  0.64745342592E+03  0.50400001928E-02 0. -1.
    10030    2    1    2    0    0  0.00000000000E+00  0.00000000000E+00  0.11729452810E+03  0.14122013799E+04  0.14073218293E+04 0.  0.
        2    1    3    3  502    0  0.65686923909E+03  0.49407694674E+02 -0.18963812630E+03  0.68547861857E+03  0.25500000920E-02 0. -1.
       -2    1    3    3    0  502 -0.65686923909E+03 -0.49407694674E+02  0.30693265440E+03  0.72672276138E+03  0.25500000920E-02 0.  1.
</event>
<event>
 5   0  0.7233728E-04  0.1705737E+04  0.7818609E-02  0.8758099E-01
        2   -1    0    0  501    0  0.00000000000E+00  0.00000000000E+00  0.13434389939E+04  0.13434389939E+04  0.25500000920E-02 0. -1.
       -2   -1    0    0    0  501  0.00000000000E+00  0.00000000000E+00 -0.54143491350E+03  0.54143491351E+03  0.25500000920E-02 0.  1.
    10030    2    1    2    0    0  0.00000000000E+00  0.00000000000E+00  0.80200408041E+03  0.18848739074E+04  0.17057371139E+04 0.  0.
        1    1    3    3  502    0  0.19102167557E+02  0.82919297239E+03  0.18149792078E+03  0.84903908834E+03  0.50400001928E-02 0.  1.
       -1    1    3    3    0  502 -0.19102167557E+02 -0.82919297239E+03  0.62050615963E+03  0.10358348191E+04  0.50400001928E-02 0. -1.
</event>
<event>
 5   0  0.3635143E-04  0.1716411E+04  0.7818609E-02  0.8752059E-01
        1   -1    0    0  501    0  0.00000000000E+00  0.00000000000E+00  0.72925884165E+03  0.72925884167E+03  0.50400001928E-02 0.  1.
       -1   -1    0    0    0  501  0.00000000000E+00  0.00000000000E+00 -0.10099525641E+04  0.10099525642E+04  0.50400001928E-02 0. -1.
    10030    2    1    2    0    0  0.00000000000E+00  0.00000000000E+00 -0.28069372248E+03  0.17392114058E+04  0.17164111828E+04 0.  0.
        3    1    3    3  502    0 -0.37151006491E+03  0.27173849827E+03 -0.87429955092E+03  0.98805933765E+03  0.10100000352E+00 0. -1.
       -3    1    3    3    0  502  0.37151006491E+03 -0.27173849827E+03  0.59360582844E+03  0.75115206818E+03  0.10100000352E+00 0.  1.
</event>
<event>
 5   0  0.3635143E-04  0.1762868E+04  0.7818609E-02  0.8726299E-01
       -1   -1    0    0    0  501  0.00000000000E+00  0.00000000000E+00  0.53340618979E+03  0.53340618982E+03  0.50400001928E-02 0.  1.
        1   -1    0    0  501    0  0.00000000000E+00  0.00000000000E+00 -0.14565367105E+04  0.14565367105E+04  0.50400001928E-02 0. -1.
    10030    2    1    2    0    0  0.00000000000E+00  0.00000000000E+00 -0.92313052066E+03  0.19899429003E+04  0.17628677739E+04 0.  0.
        3    1    3    3  502    0 -0.33238509662E+03 -0.62753515051E+03 -0.10509786789E+04  0.12683991529E+04  0.10100000352E+00 0.  1.
       -3    1    3    3    0  502  0.33238509662E+03  0.62753515051E+03  0.12784815819E+03  0.72154374734E+03  0.10100000352E+00 0. -1.
</event>
<event>
 5   0  0.3803253E-04  0.1716664E+04  0.7818609E-02  0.8751917E-01
        1   -1    0    0  501    0  0.00000000000E+00  0.00000000000E+00  0.15325615052E+04  0.15325615052E+04  0.50400001928E-02 0. -1.
       -1   -1    0    0    0  501  0.00000000000E+00  0.00000000000E+00 -0.48072058700E+03  0.48072058703E+03  0.50400001928E-02 0.  1.
    10030    2    1    2    0    0  0.00000000000E+00  0.00000000000E+00  0.10518409181E+04  0.20132820922E+04  0.17166640515E+04 0.  0.
        4    1    3    3  502    0  0.52367185020E+03 -0.14806741654E+03 -0.25252784810E+03  0.59994007492E+03  0.12699999809E+01 0.  1.
       -4    1    3    3    0  502 -0.52367185020E+03  0.14806741654E+03  0.13043687662E+04  0.14133420173E+04  0.12699999809E+01 0. -1.
</event>
<event>
 5   0  0.7049044E-04  0.1230406E+04  0.7818609E-02  0.9086651E-01
       -2   -1    0    0    0  501  0.00000000000E+00  0.00000000000E+00  0.41493247252E+03  0.41493247253E+03  0.25500000920E-02 0. -1.
        2   -1    0    0  501    0  0.00000000000E+00  0.00000000000E+00 -0.91213570991E+03  0.91213570992E+03  0.25500000920E-02 0.  1.
    10030    2    1    2    0    0  0.00000000000E+00  0.00000000000E+00 -0.49720323739E+03  0.13270681824E+04  0.12304059905E+04 0.  0.
        4    1    3    3  502    0 -0.19259177239E+03  0.40635197022E+03  0.20421378014E+03  0.49388095266E+03  0.12699999809E+01 0. -1.
       -4    1    3    3    0  502  0.19259177239E+03 -0.40635197022E+03 -0.70141701753E+03  0.83318722979E+03  0.12699999809E+01 0.  1.
</event>
<event>
 5   0  0.3635143E-04  0.1673504E+04  0.7818609E-02  0.8776622E-01
       -1   -1    0    0    0  501  0.00000000000E+00  0.00000000000E+00  0.95580464647E+03  0.95580464648E+03  0.50400001928E-02 0.  1.
        1   -1    0    0  501    0  0.00000000000E+00  0.00000000000E+00 -0.73252805310E+03  0.73252805312E+03  0.50400001928E-02 0. -1.
    10030    2    1    2    0    0  0.00000000000E+00  0.00000000000E+00  0.22327659336E+03  0.16883326996E+04  0.16735037698E+04 0.  0.
        3    1    3    3  502    0  0.54419083654E+03  0.63444567603E+03  0.72712414200E+02  0.83901852649E+03  0.10100000352E+00 0. -1.
       -3    1    3    3    0  502 -0.54419083654E+03 -0.63444567603E+03  0.15056417916E+03  0.84931417312E+03  0.10100000352E+00 0.  1.
</event>
<event>
 5   0  0.6746664E-04  0.1716590E+04  0.7818609E-02  0.8751959E-01
        2   -1    0    0  501    0  0.00000000000E+00  0.00000000000E+00  0.14046459126E+04  0.14046459126E+04  0.25500000920E-02 0. -1.
       -2   -1    0    0    0  501  0.00000000000E+00  0.00000000000E+00 -0.52445243511E+03  0.52445243512E+03  0.25500000920E-02 0.  1.
    10030    2    1    2    0    0  0.00000000000E+00  0.00000000000E+00  0.88019347746E+03  0.19290983477E+04  0.17165896065E+04 0.  0.
        5    1    3    3  502    0  0.48331850712E+03 -0.54750000404E+03 -0.66603459410E+02  0.73335608306E+03  0.46999998093E+01 0.  1.
       -5    1    3    3    0  502 -0.48331850712E+03  0.54750000404E+03  0.94679693687E+03  0.11957422646E+04  0.46999998093E+01 0. -1.
</event>
<event>
 5   0  0.3635143E-04  0.1743504E+04  0.7818609E-02  0.8736934E-01
       -1   -1    0    0    0  501  0.00000000000E+00  0.00000000000E+00  0.92563378679E+03  0.92563378680E+03  0.50400001928E-02 0. -1.
        1   -1    0    0  501    0  0.00000000000E+00  0.00000000000E+00 -0.82100679429E+03  0.82100679431E+03  0.50400001928E-02 0.  1.
    10030    2    1    2    0    0  0.00000000000E+00  0.00000000000E+00  0.10462699249E+03  0.17466405811E+04  0.17435040900E+04 0.  0.
        3    1    3    3  502    0 -0.84446230623E+02 -0.36227092060E+03  0.84213539856E+03  0.92063207933E+03  0.10100000352E+00 0. -1.
       -3    1    3    3    0  502  0.84446230623E+02  0.36227092060E+03 -0.73750840607E+03  0.82600850177E+03  0.10100000352E+00 0.  1.
</event>
<event>
 5   0  0.7233728E-04  0.1668570E+04  0.7818609E-02  0.8779496E-01
        2   -1    0    0  501    0  0.00000000000E+00  0.00000000000E+00  0.89057929131E+03  0.89057929132E+03  0.25500000920E-02 0.  1.
       -2   -1    0    0    0  501  0.00000000000E+00  0.00000000000E+00 -0.78154867012E+03  0.78154867012E+03  0.25500000920E-02 0. -1.
    10030    2    1    2    0    0  0.00000000000E+00  0.00000000000E+00  0.10903062120E+03  0.16721279614E+04  0.16685695200E+04 0.  0.
        1    1    3    3  502    0 -0.10339866358E+03  0.81920561227E+03 -0.65078804208E+02  0.82826588098E+03  0.50400001928E-02 0. -1.
       -1    1    3    3    0  502  0.10339866358E+03 -0.81920561227E+03  0.17410942540E+03  0.84386208046E+03  0.50400001928E-02 0.  1.
</event>
<event>
 5   0  0.3635143E-04  0.1999647E+04  0.7818609E-02  0.8606786E-01
       -1   -1    0    0    0  501  0.00000000000E+00  0.00000000000E+00  0.37754499154E+03  0.37754499157E+03  0.50400001928E-02 0.  1.
        1   -1    0    0  501    0  0.00000000000E+00  0.00000000000E+00 -0.26477563460E+04  0.26477563460E+04  0.50400001928E-02 0. -1.
    10030    2    1    2    0    0  0.00000000000E+00  0.00000000000E+00 -0.22702113544E+04  0.30253013375E+04  0.19996471162E+04 0.  0.
        3    1    3    3  502    0 -0.69481664621E+03 -0.50909342292E+03 -0.19031268723E+04  0.20889801788E+04  0.10100000352E+00 0. -1.
       -3    1    3    3    0  502  0.69481664621E+03  0.50909342292E+03 -0.36708448214E+03  0.93632115876E+03  0.10100000352E+00 0.  1.
</event>
<event>
 5   0  0.6746664E-04  0.1603138E+04  0.7818609E-02  0.8818622E-01
       -2   -1    0    0    0  501  0.00000000000E+00  0.00000000000E+00  0.36464618695E+03  0.36464618696E+03  0.25500000920E-02 0.  1.
        2   -1    0    0  501    0  0.00000000000E+00  0.00000000000E+00 -0.17620176038E+04  0.17620176038E+04  0.25500000920E-02 0. -1.
    10030    2    1    2    0    0  0.00000000000E+00  0.00000000000E+00 -0.13973714168E+04  0.21266637907E+04  0.16031381732E+04 0.  0.
        5    1    3    3  502    0  0.58667648984E+03 -0.48646214194E+03 -0.10280801209E+04  0.12797677697E+04  0.46999998093E+01 0. -1.
       -5    1    3    3    0  502 -0.58667648984E+03  0.48646214194E+03 -0.36929129592E+03  0.84689602108E+03  0.46999998093E+01 0.  1.
</event>
<event>
 5   0  0.7242144E-04  0.1698101E+04  0.7818609E-02  0.8762448E-01
       -2   -1    0    0    0  501  0.00000000000E+00  0.00000000000E+00  0.11310812461E+04  0.11310812461E+04  0.25500000920E-02 0. -1.
        2   -1    0    0  501    0  0.00000000000E+00  0.00000000000E+00 -0.63734282106E+03  0.63734282106E+03  0.25500000920E-02 0.  1.
    10030    2    1    2    0    0  0.00000000000E+00  0.00000000000E+00  0.49373842499E+03  0.17684240671E+04  0.16981007181E+04 0.  0.
        3    1    3    3  502    0 -0.83012737616E+03 -0.36665523594E+02  0.42853736722E+03  0.93493320969E+03  0.10100000352E+00 0. -1.
       -3    1    3    3    0  502  0.83012737616E+03  0.36665523594E+02  0.65201057776E+02  0.83349085743E+03  0.10100000352E+00 0.  1.
</event>
<event>
 5   0  0.7242144E-04  0.1686160E+04  0.7818609E-02  0.8769298E-01
       -2   -1    0    0    0  501  0.00000000000E+00  0.00000000000E+00  0.61041164753E+03  0.61041164754E+03  0.25500000920E-02 0. -1.
        2   -1    0    0  501    0  0.00000000000E+00  0.00000000000E+00 -0.11644333777E+04  0.11644333777E+04  0.25500000920E-02 0.  1.
    10030    2    1    2    0    0  0.00000000000E+00  0.00000000000E+00 -0.55402173020E+03  0.17748450253E+04  0.16861597748E+04 0.  0.
        3    1    3    3  502    0  0.23742755968E+03  0.19937845264E+03  0.54822712880E+03  0.62982268014E+03  0.10100000352E+00 0. -1.
       -3    1    3    3    0  502 -0.23742755968E+03 -0.19937845264E+03 -0.11022488590E+04  0.11450223451E+04  0.10100000352E+00 0.  1.
</event>
<event>
 5   0  0.3723500E-04  0.1665067E+04  0.7818609E-02  0.8781543E-01
       -1   -1    0    0    0  501  0.00000000000E+00  0.00000000000E+00  0.80791830469E+03  0.80791830471E+03  0.50400001928E-02 0. -1.
        1   -1    0    0  501    0  0.00000000000E+00  0.00000000000E+00 -0.85789863478E+03  0.85789863479E+03  0.50400001928E-02 0.  1.
    10030    2    1    2    0    0  0.00000000000E+00  0.00000000000E+00 -0.49980330086E+02  0.16658169395E+04  0.16650669784E+04 0.  0.
        1    1    3    3  502    0 -0.35030467457E+02  0.26515076865E+03  0.76376835523E+03  0.80924295749E+03  0.50400001928E-02 0. -1.
       -1    1    3    3    0  502  0.35030467457E+02 -0.26515076865E+03 -0.81374868532E+03  0.85657398201E+03  0.50400001928E-02 0.  1.
</event>
<event>
 5   0  0.3803253E-04  0.1746881E+04  0.7818609E-02  0.8735069E-01
        1   -1    0    0  501    0  0.00000000000E+00  0.00000000000E+00  0.75765058605E+03  0.75765058607E+03  0.50400001928E-02 0.  1.
       -1   -1    0    0    0  501  0.00000000000E+00  0.00000000000E+00 -0.10069260985E+04  0.10069260985E+04  0.50400001928E-02 0. -1.
    10030    2    1    2    0    0  0.00000000000E+00  0.00000000000E+00 -0.24927551248E+03  0.17645766846E+04  0.17468808187E+04 0.  0.
        4    1    3    3  502    0 -0.19566779181E+03 -0.73319658493E+03 -0.56149230959E+03  0.94400124128E+03  0.12699999809E+01 0.  1.
       -4    1    3    3    0  502  0.19566779181E+03  0.73319658493E+03  0.31221679712E+03  0.82057544333E+03  0.12699999809E+01 0. -1.
</event>
<event>
 5   0  0.3723500E-04  0.1581418E+04  0.7818609E-02  0.8832046E-01
        1   -1    0    0  501    0  0.00000000000E+00  0.00000000000E+00  0.10204497242E+04  0.10204497242E+04  0.50400001928E-02 0. -1.
       -1   -1    0    0    0  501  0.00000000000E+00  0.00000000000E+00 -0.61269144894E+03  0.61269144896E+03  0.50400001928E-02 0.  1.
    10030    2    1    2    0    0  0.00000000000E+00  0.00000000000E+00  0.40775827525E+03  0.16331411732E+04  0.15814181232E+04 0.  0.
        1    1    3    3  502    0 -0.36459733169E+02 -0.52397305806E+02  0.10177844318E+04  0.10197842612E+04  0.50400001928E-02 0. -1.
       -1    1    3    3    0  502  0.36459733169E+02  0.52397305806E+02 -0.61002615652E+03  0.61335691197E+03  0.50400001928E-02 0.  1.
</event>
<event>
 5   0  0.3713516E-04  0.1338883E+04  0.7818609E-02  0.8999286E-01
       -1   -1    0    0    0  501  0.00000000000E+00  0.00000000000E+00  0.25776273472E+03  0.25776273477E+03  0.50400001928E-02 0.  1.
        1   -1    0    0  501    0  0.00000000000E+00  0.00000000000E+00 -0.17386222533E+04  0.17386222533E+04  0.50400001928E-02 0. -1.
    10030    2    1    2    0    0  0.00000000000E+00  0.00000000000E+00 -0.14808595186E+04  0.19963849881E+04  0.13388831565E+04 0.  0.
        5    1    3    3  502    0  0.32303302752E+03  0.29148283688E+03 -0.14990043916E+04  0.15608807889E+04  0.46999998093E+01 0. -1.
       -5    1    3    3    0  502 -0.32303302752E+03 -0.29148283688E+03  0.18144873058E+02  0.43550419915E+03  0.46999998093E+01 0.  1.
</event>
<event>
 5   0  0.3635143E-04  0.1686673E+04  0.7818609E-02  0.8769002E-01
        1   -1    0    0  501    0  0.00000000000E+00  0.00000000000E+00  0.75829387995E+03  0.75829387996E+03  0.50400001928E-02 0. -1.
       -1   -1    0    0    0  501  0.00000000000E+00  0.00000000000E+00 -0.93791643128E+03  0.93791643130E+03  0.50400001928E-02 0.  1.
    10030    2    1    2    0    0  0.00000000000E+00  0.00000000000E+00 -0.17962255134E+03  0.16962103113E+04  0.16866728074E+04 0.  0.
        3    1    3    3  502    0  0.40345225289E+03  0.70249913992E+03  0.14590163543E+03  0.82314400889E+03  0.10100000352E+00 0.  1.
       -3    1    3    3    0  502 -0.40345225289E+03 -0.70249913992E+03 -0.32552418677E+03  0.87306630237E+03  0.10100000352E+00 0. -1.
</event>
<event>
 5   0  0.3803253E-04  0.1702647E+04  0.7818609E-02  0.8759856E-01
        1   -1    0    0  501    0  0.00000000000E+00  0.00000000000E+00  0.14923209454E+04  0.14923209454E+04  0.50400001928E-02 0. -1.
       -1   -1    0    0    0  501  0.00000000000E+00  0.00000000000E+00 -0.48565402031E+03  0.48565402034E+03  0.50400001928E-02 0.  1.
    10030    2    1    2    0    0  0.00000000000E+00  0.00000000000E+00  0.10066669251E+04  0.19779749658E+04  0.17026469590E+04 0.  0.
        4    1    3    3  502    0  0.42000255526E+03  0.57182527978E+03  0.10499080579E+04  0.12671601478E+04  0.12699999809E+01 0. -1.
       -4    1    3    3    0  502 -0.42000255526E+03 -0.57182527978E+03 -0.43241132863E+02  0.71081481800E+03  0.12699999809E+01 0.  1.
</event>
<event>
 5   0  0.3915701E-04  0.1711252E+04  0.7818609E-02  0.8754973E-01
       -1   -1    0    0    0  501  0.00000000000E+00  0.00000000000E+00  0.34898903594E+03  0.34898903597E+03  0.50400001928E-02 0. -1.
        1   -1    0    0  501    0  0.00000000000E+00  0.00000000000E+00 -0.20977615232E+04  0.20977615232E+04  0.50400001928E-02 0.  1.
    10030    2    1    2    0    0  0.00000000000E+00  0.00000000000E+00 -0.17487724873E+04  0.24467505592E+04  0.17112519063E+04 0.  0.
        2    1    3    3  502    0 -0.62599904073E+03  0.46891989352E+03 -0.37839738168E+03  0.86887585074E+03  0.25500000920E-02 0. -1.
       -2    1    3    3    0  502  0.62599904073E+03 -0.46891989352E+03 -0.13703751056E+04  0.15778747085E+04  0.25500000920E-02 0.  1.
</event>
<event>
 5   0  0.7025426E-04  0.1642318E+04  0.7818609E-02  0.8794964E-01
        2   -1    0    0  501    0  0.00000000000E+00  0.00000000000E+00  0.54768258304E+03  0.54768258305E+03  0.25500000920E-02 0. -1.
       -2   -1    0    0    0  501  0.00000000000E+00  0.00000000000E+00 -0.12311919959E+04  0.12311919959E+04  0.25500000920E-02 0.  1.
    10030    2    1    2    0    0  0.00000000000E+00  0.00000000000E+00 -0.68350941290E+03  0.17788745790E+04  0.16423183766E+04 0.  0.
        2    1    3    3  502    0 -0.25216877211E+03  0.10221095823E+03  0.49743459164E+03  0.56698971999E+03  0.25500000920E-02 0. -1.
       -2    1    3    3    0  502  0.25216877211E+03 -0.10221095823E+03 -0.11809440045E+04  0.12118848590E+04  0.25500000920E-02 0.  1.
</event>
<event>
 5   0  0.3713516E-04  0.1705201E+04  0.7818609E-02  0.8758403E-01
        1   -1    0    0  501    0  0.00000000000E+00  0.00000000000E+00  0.10302376432E+04  0.10302376432E+04  0.50400001928E-02 0. -1.
       -1   -1    0    0    0  501  0.00000000000E+00  0.00000000000E+00 -0.70559250478E+03  0.70559250480E+03  0.50400001928E-02 0.  1.
    10030    2    1    2    0    0  0.00000000000E+00  0.00000000000E+00  0.32464513842E+03  0.17358301480E+04  0.17052014065E+04 0.  0.
        5    1    3    3  502    0 -0.92977513989E+01 -0.80690497898E+02 -0.70163179726E+03  0.70633325956E+03  0.46999998093E+01 0.  1.
       -5    1    3    3    0  502  0.92977513989E+01  0.80690497898E+02  0.10262769357E+04  0.10294968885E+04  0.46999998093E+01 0. -1.
</event>
<event>
 5   0  0.3635143E-04  0.1732099E+04  0.7818609E-02  0.8743266E-01
       -1   -1    0    0    0  501  0.00000000000E+00  0.00000000000E+00  0.84615253860E+03  0.84615253861E+03  0.50400001928E-02 0. -1.
        1   -1    0    0  501    0  0.00000000000E+00  0.00000000000E+00 -0.88641402418E+03  0.88641402420E+03  0.50400001928E-02 0.  1.
    10030    2    1    2    0    0  0.00000000000E+00  0.00000000000E+00 -0.40261485583E+02  0.17325665628E+04  0.17320987002E+04 0.  0.
        3    1    3    3  502    0 -0.50796263470E+03  0.17116659929E+03  0.66028635688E+03  0.85047170808E+03  0.10100000352E+00 0. -1.
       -3    1    3    3    0  502  0.50796263470E+03 -0.17116659929E+03 -0.70054784246E+03  0.88209485473E+03  0.10100000352E+00 0.  1.
</event>
<event>
 5   0  0.7025426E-04  0.1841338E+04  0.7818609E-02  0.8684620E-01
        2   -1    0    0  501    0  0.00000000000E+00  0.00000000000E+00  0.13577159541E+04  0.13577159541E+04  0.25500000920E-02 0. -1.
       -2   -1    0    0    0  501  0.00000000000E+00  0.00000000000E+00 -0.62430702087E+03  0.62430702088E+03  0.25500000920E-02 0.  1.
    10030    2    1    2    0    0  0.00000000000E+00  0.00000000000E+00  0.73340893320E+03  0.19820229750E+04  0.18413382117E+04 0.  0.
        2    1    3    3  502    0  0.70922991863E+03  0.56788634527E+03  0.52683056974E+03  0.10502630279E+04  0.25500000920E-02 0. -1.
       -2    1    3    3    0  502 -0.70922991863E+03 -0.56788634527E+03  0.20657836346E+03  0.93175994702E+03  0.25500000920E-02 0.  1.
</event>
<event>
 5   0  0.3915701E-04  0.1707915E+04  0.7818609E-02  0.8756863E-01
        1   -1    0    0  501    0  0.00000000000E+00  0.00000000000E+00  0.25733046404E+04  0.25733046404E+04  0.50400001928E-02 0.  1.
       -1   -1    0    0    0  501  0.00000000000E+00  0.00000000000E+00 -0.28338785129E+03  0.28338785134E+03  0.50400001928E-02 0. -1.
    10030    2    1    2    0    0  0.00000000000E+00  0.00000000000E+00  0.22899167891E+04  0.28566924918E+04  0.17079148373E+04 0.  0.
        2    1    3    3  502    0  0.78638079048E+03 -0.33237216691E+03  0.11124704534E+04  0.14023040022E+04  0.25500000920E-02 0.  1.
       -2    1    3    3    0  502 -0.78638079048E+03  0.33237216691E+03  0.11774463358E+04  0.14543884896E+04  0.25500000920E-02 0. -1.
</event>
<event>
 5   0  0.3713516E-04  0.1719453E+04  0.7818609E-02  0.8750347E-01
       -1   -1    0    0    0  501  0.00000000000E+00  0.00000000000E+00  0.59776581091E+03  0.59776581093E+03  0.50400001928E-02 0.  1.
        1   -1    0    0  501    0  0.00000000000E+00  0.00000000000E+00 -0.12364874965E+04  0.12364874965E+04  0.50400001928E-02 0. -1.
    10030    2    1    2    0    0  0.00000000000E+00  0.00000000000E+00 -0.63872168559E+03  0.18342533074E+04  0.17194533446E+04 0.  0.
        5    1    3    3  502    0 -0.78551716720E+03 -0.24089439876E+03 -0.58931894876E+03  0.10111311709E+04  0.46999998093E+01 0. -1.
       -5    1    3    3    0  502  0.78551716720E+03  0.24089439876E+03 -0.49402736829E+02  0.82312213657E+03  0.46999998093E+01 0.  1.
</event>
<event>
 5   0  0.7233728E-04  0.1660685E+04  0.7818609E-02  0.8784110E-01
        2   -1    0    0  501    0  0.00000000000E+00  0.00000000000E+00  0.61985098558E+03  0.61985098559E+03  0.25500000920E-02 0.  1.
       -2   -1    0    0    0  501  0.00000000000E+00  0.00000000000E+00 -0.11123137938E+04  0.11123137938E+04  0.25500000920E-02 0. -1.
    10030    2    1    2    0    0  0.00000000000E+00  0.00000000000E+00 -0.49246280819E+03  0.17321647794E+04  0.16606851614E+04 0.  0.
        1    1    3    3  502    0  0.60572212936E+03  0.45387040745E+03  0.10988948687E+03  0.76483550133E+03  0.50400001928E-02 0.  1.
       -1    1    3    3    0  502 -0.60572212936E+03 -0.45387040745E+03 -0.60235229506E+03  0.96732927803E+03  0.50400001928E-02 0. -1.
</event>
<event>
 5   0  0.7025426E-04  0.1725660E+04  0.7818609E-02  0.8746863E-01
        2   -1    0    0  501    0  0.00000000000E+00  0.00000000000E+00  0.86335607087E+03  0.86335607087E+03  0.25500000920E-02 0. -1.
       -2   -1    0    0    0  501  0.00000000000E+00  0.00000000000E+00 -0.86230429678E+03  0.86230429679E+03  0.25500000920E-02 0.  1.
    10030    2    1    2    0    0  0.00000000000E+00  0.00000000000E+00  0.10517740831E+01  0.17256603677E+04  0.17256600471E+04 0.  0.
        2    1    3    3  502    0 -0.25035306666E+03  0.16871210291E+03 -0.80776580573E+03  0.86233753749E+03  0.25500000920E-02 0.  1.
       -2    1    3    3    0  502  0.25035306666E+03 -0.16871210291E+03  0.80881757982E+03  0.86332283016E+03  0.25500000920E-02 0. -1.
</event>
<event>
 5   0  0.7049044E-04  0.1651344E+04  0.7818609E-02  0.8789612E-01
       -2   -1    0    0    0  501  0.00000000000E+00  0.00000000000E+00  0.63308804259E+03  0.63308804259E+03  0.25500000920E-02 0.  1.
        2   -1    0    0  501    0  0.00000000000E+00  0.00000000000E+00 -0.10768391217E+04  0.10768391217E+04  0.25500000920E-02 0. -1.
    10030    2    1    2    0    0  0.00000000000E+00  0.00000000000E+00 -0.44375107915E+03  0.17099271643E+04  0.16513436611E+04 0.  0.
        4    1    3    3  502    0 -0.24037040318E+03  0.67751683698E+03 -0.64239284538E+03  0.96409396628E+03  0.12699999809E+01 0.  1.
       -4    1    3    3    0  502  0.24037040318E+03 -0.67751683698E+03  0.19864176624E+03  0.74583319805E+03  0.12699999809E+01 0. -1.
</event>
<event>
 5   0  0.6746664E-04  0.1672245E+04  0.7818609E-02  0.8777354E-01
        2   -1    0    0  501    0  0.00000000000E+00  0.00000000000E+00  0.81881767409E+03  0.81881767409E+03  0.25500000920E-02 0. -1.
       -2   -1    0    0    0  501  0.00000000000E+00  0.00000000000E+00 -0.85379310158E+03  0.85379310158E+03  0.25500000920E-02 0.  1.
    10030    2    1    2    0    0  0.00000000000E+00  0.00000000000E+00 -0.34975427488E+02  0.16726107757E+04  0.16722450557E+04 0.  0.
        5    1    3    3  502    0 -0.13722163598E+03 -0.11025329861E+03 -0.83503617118E+03  0.85340088142E+03  0.46999998093E+01 0.  1.
       -5    1    3    3    0  502  0.13722163598E+03  0.11025329861E+03  0.80006074369E+03  0.81920989425E+03  0.46999998093E+01 0. -1.
</event>
<event>
 5   0  0.7049044E-04  0.1717795E+04  0.7818609E-02  0.8751280E-01
       -2   -1    0    0    0  501  0.00000000000E+00  0.00000000000E+00  0.47984142108E+03  0.47984142109E+03  0.25500000920E-02 0.  1.
        2   -1    0    0  501    0  0.00000000000E+00  0.00000000000E+00 -0.15373934163E+04  0.15373934163E+04  0.25500000920E-02 0. -1.
    10030    2    1    2    0    0  0.00000000000E+00  0.00000000000E+00 -0.10575519953E+04  0.20172348374E+04  0.17177951469E+04 0.  0.
        4    1    3    3  502    0 -0.82746910758E+03 -0.23004033988E+03 -0.51828922774E+03  0.10031196431E+04  0.12699999809E+01 0.  1.
       -4    1    3    3    0  502  0.82746910758E+03  0.23004033988E+03 -0.53926276752E+03  0.10141151943E+04  0.12699999809E+01 0. -1.
</event>
<event>
 5   0  0.7233728E-04  0.1710370E+04  0.7818609E-02  0.8755472E-01
        2   -1    0    0  501    0  0.00000000000E+00  0.00000000000E+00  0.88337872620E+03  0.88337872620E+03  0.25500000920E-02 0. -1.
       -2   -1    0    0    0  501  0.00000000000E+00  0.00000000000E+00 -0.82789077182E+03  0.82789077182E+03  0.25500000920E-02 0.  1.
    10030    2    1    2    0    0  0.00000000000E+00  0.00000000000E+00  0.55487954380E+02  0.17112694980E+04  0.17103696623E+04 0.  0.
        1    1    3    3  502    0 -0.48836338023E+03 -0.21431607053E+03  0.69660965496E+03  0.87732273460E+03  0.50400001928E-02 0. -1.
       -1    1    3    3    0  502  0.48836338023E+03  0.21431607053E+03 -0.64112170058E+03  0.83394676342E+03  0.50400001928E-02 0.  1.
</event>
<event>
 5   0  0.3915701E-04  0.1692220E+04  0.7818609E-02  0.8765814E-01
       -1   -1    0    0    0  501  0.00000000000E+00  0.00000000000E+00  0.40375883304E+03  0.40375883307E+03  0.50400001928E-02 0.  1.
        1   -1    0    0  501    0  0.00000000000E+00  0.00000000000E+00 -0.17730935946E+04  0.17730935946E+04  0.50400001928E-02 0. -1.
    10030    2    1    2    0    0  0.00000000000E+00  0.00000000000E+00 -0.13693347616E+04  0.21768524277E+04  0.16922200810E+04 0.  0.
        2    1    3    3  502    0 -0.71096090118E+03 -0.40395658328E+03 -0.40502689013E+03  0.91252019480E+03  0.25500000920E-02 0.  1.
       -2    1    3    3    0  502  0.71096090118E+03  0.40395658328E+03 -0.96430787142E+03  0.12643322329E+04  0.25500000920E-02 0. -1.
</event>
<event>
 5   0  0.7025426E-04  0.1690434E+04  0.7818609E-02  0.8766839E-01
       -2   -1    0    0    0  501  0.00000000000E+00  0.00000000000E+00  0.28729138632E+03  0.28729138633E+03  0.25500000920E-02 0.  1.
        2   -1    0    0  501    0  0.00000000000E+00  0.00000000000E+00 -0.24866458567E+04  0.24866458567E+04  0.25500000920E-02 0. -1.
    10030    2    1    2    0    0  0.00000000000E+00  0.00000000000E+00 -0.21993544704E+04  0.27739372430E+04  0.16904341874E+04 0.  0.
        2    1    3    3  502    0 -0.37864552643E+03  0.22949759115E+03 -0.22811128669E+04  0.23236861859E+04  0.25500000920E-02 0. -1.
       -2    1    3    3    0  502  0.37864552643E+03 -0.22949759115E+03  0.81758396528E+02  0.45025105712E+03  0.25500000920E-02 0.  1.
</event>
<event>
 5   0  0.7242144E-04  0.1693163E+04  0.7818609E-02  0.8765273E-01
       -2   -1    0    0    0  501  0.00000000000E+00  0.00000000000E+00  0.47858269949E+03  0.47858269949E+03  0.25500000920E-02 0. -1.
        2   -1    0    0  501    0  0.00000000000E+00  0.00000000000E+00 -0.14975476147E+04  0.14975476147E+04  0.25500000920E-02 0.  1.
    10030    2    1    2    0    0  0.00000000000E+00  0.00000000000E+00 -0.10189649152E+04  0.19761303142E+04  0.16931631700E+04 0.  0.
        3    1    3    3  502    0 -0.77461761758E+03  0.30815248142E+03 -0.68144993671E+03  0.10767378658E+04  0.10100000352E+00 0.  1.
       -3    1    3    3    0  502  0.77461761758E+03 -0.30815248142E+03 -0.33751497852E+03  0.89939244838E+03  0.10100000352E+00 0. -1.
</event>
<event>
 5   0  0.6746664E-04  0.1740630E+04  0.7818609E-02  0.8738525E-01
        2   -1    0    0  501    0  0.00000000000E+00  0.00000000000E+00  0.14362702939E+04  0.14362702939E+04  0.25500000920E-02 0. -1.
       -2   -1    0    0    0  501  0.00000000000E+00  0.00000000000E+00 -0.52737183369E+03  0.52737183370E+03  0.25500000920E-02 0.  1.
    10030    2    1    2    0    0  0.00000000000E+00  0.00000000000E+00  0.90889846019E+03  0.19636421276E+04  0.17406303440E+04 0.  0.
        5    1    3    3  502    0 -0.26307619137E+03 -0.75228501502E+03  0.59954103264E+02  0.79922363003E+03  0.46999998093E+01 0.  1.
       -5    1    3    3    0  502  0.26307619137E+03  0.75228501502E+03  0.84894435693E+03  0.11644184976E+04  0.46999998093E+01 0. -1.
</event>
<event>
 5   0  0.7233728E-04  0.1687540E+04  0.7818609E-02  0.8768503E-01
       -2   -1    0    0    0  501  0.00000000000E+00  0.00000000000E+00  0.16821572087E+04  0.16821572087E+04  0.25500000920E-02 0.  1.
        2   -1    0    0  501    0  0.00000000000E+00  0.00000000000E+00 -0.42323487355E+03  0.42323487355E+03  0.25500000920E-02 0. -1.
    10030    2    1    2    0    0  0.00000000000E+00  0.00000000000E+00  0.12589223351E+04  0.21053920822E+04  0.16875397400E+04 0.  0.
        1    1    3    3  502    0 -0.17308026430E+01 -0.13866499761E+03  0.16678422779E+04  0.16735975745E+04  0.50400001928E-02 0.  1.
       -1    1    3    3    0  502  0.17308026430E+01  0.13866499761E+03 -0.40891994282E+03  0.43179450773E+03  0.50400001928E-02 0. -1.
</event>
<event>
 5   0  0.3723500E-04  0.1697932E+04  0.7818609E-02  0.8762545E-01
       -1   -1    0    0    0  501  0.00000000000E+00  0.00000000000E+00  0.71255891994E+03  0.71255891996E+03  0.50400001928E-02 0. -1.
        1   -1    0    0  501    0  0.00000000000E+00  0.00000000000E+00 -0.10114860971E+04  0.10114860971E+04  0.50400001928E-02 0.  1.
    10030    2    1    2    0    0  0.00000000000E+00  0.00000000000E+00 -0.29892717718E+03  0.17240450171E+04  0.16979322023E+04 0.  0.
        1    1    3    3  502    0 -0.15153914631E+02 -0.15020396097E+03 -0.99774746420E+03  0.10091039953E+04  0.50400001928E-02 0.  1.
       -1    1    3    3    0  502  0.15153914631E+02  0.15020396097E+03  0.69882028703E+03  0.71494102177E+03  0.50400001928E-02 0. -1.
</event>
<event>
 5   0  0.7025426E-04  0.1682743E+04  0.7818609E-02  0.8771268E-01
        2   -1    0    0  501    0  0.00000000000E+00  0.00000000000E+00  0.83291656222E+03  0.83291656223E+03  0.25500000920E-02 0. -1.
       -2   -1    0    0    0  501  0.00000000000E+00  0.00000000000E+00 -0.84991223999E+03  0.84991223999E+03  0.25500000920E-02 0.  1.
    10030    2    1    2    0    0  0.00000000000E+00  0.00000000000E+00 -0.16995677762E+02  0.16828288022E+04  0.16827429764E+04 0.  0.
        2    1    3    3  502    0  0.26337550434E+03  0.45987529996E+03  0.64502920491E+03  0.83481412482E+03  0.25500000920E-02 0. -1.
       -2    1    3    3    0  502 -0.26337550434E+03 -0.45987529996E+03 -0.66202488268E+03  0.84801467740E+03  0.25500000920E-02 0.  1.
</event>
<event>
 5   0  0.3635143E-04  0.1669059E+04  0.7818609E-02  0.8779211E-01
        1   -1    0    0  501    0  0.00000000000E+00  0.00000000000E+00  0.14479102865E+04  0.14479102865E+04  0.50400001928E-02 0. -1.
       -1   -1    0    0    0  501  0.00000000000E+00  0.00000000000E+00 -0.48099624747E+03  0.48099624750E+03  0.50400001928E-02 0.  1.
    10030    2    1    2    0    0  0.00000000000E+00  0.00000000000E+00  0.96691403900E+03  0.19289065340E+04  0.16690589139E+04 0.  0.
        3    1    3    3  502    0  0.28307977574E+02 -0.29444324634E+03 -0.41837823847E+03  0.51238513594E+03  0.10100000352E+00 0.  1.
       -3    1    3    3    0  502 -0.28307977574E+02  0.29444324634E+03  0.13852922775E+04  0.14165213980E+04  0.10100000352E+00 0. -1.
</event>
<event>
 5   0  0.6746664E-04  0.1459294E+04  0.7818609E-02  0.8911982E-01
        2   -1    0    0  501    0  0.00000000000E+00  0.00000000000E+00  0.84528155955E+03  0.84528155955E+03  0.25500000920E-02 0.  1.
       -2   -1    0    0    0  501  0.00000000000E+00  0.00000000000E+00 -0.62983119316E+03  0.62983119316E+03  0.25500000920E-02 0. -1.
    10030    2    1    2    0    0  0.00000000000E+00  0.00000000000E+00  0.21545036639E+03  0.14751127527E+04  0.14592939296E+04 0.  0.
        5    1    3    3  502    0 -0.56158827369E+03  0.11118893636E+03  0.56497612462E+03  0.80434102227E+03  0.46999998093E+01 0.  1.
       -5    1    3    3    0  502  0.56158827369E+03 -0.11118893636E+03 -0.34952575823E+03  0.67077173045E+03  0.46999998093E+01 0. -1.
</event>
<event>
 5   0  0.3803253E-04  0.1744274E+04  0.7818609E-02  0.8736508E-01
        1   -1    0    0  501    0  0.00000000000E+00  0.00000000000E+00  0.84866018724E+03  0.84866018726E+03  0.50400001928E-02 0. -1.
       -1   -1    0    0    0  501  0.00000000000E+00  0.00000000000E+00 -0.89626359856E+03  0.89626359857E+03  0.50400001928E-02 0.  1.
    10030    2    1    2    0    0  0.00000000000E+00  0.00000000000E+00 -0.47603411313E+02  0.17449237858E+04  0.17442743287E+04 0.  0.
        4    1    3    3  502    0 -0.51005750483E+03  0.69257951856E+03  0.12046215770E+03  0.86852621843E+03  0.12699999809E+01 0. -1.
       -4    1    3    3    0  502  0.51005750483E+03 -0.69257951856E+03 -0.16806556902E+03  0.87639756740E+03  0.12699999809E+01 0.  1.
</event>
<event>
 5   0  0.7049044E-04  0.1714358E+04  0.7818609E-02  0.8753217E-01
        2   -1    0    0  501    0  0.00000000000E+00  0.00000000000E+00  0.10311647956E+04  0.10311647956E+04  0.25500000920E-02 0.  1.
       -2   -1    0    0    0  501  0.00000000000E+00  0.00000000000E+00 -0.71254958732E+03  0.71254958732E+03  0.25500000920E-02 0. -1.
    10030    2    1    2    0    0  0.00000000000E+00  0.00000000000E+00  0.31861520826E+03  0.17437143829E+04  0.17143582468E+04 0.  0.
        4    1    3    3  502    0 -0.38900593796E+03  0.16296686607E+03 -0.59970837800E+03  0.73316817358E+03  0.12699999809E+01 0. -1.
       -4    1    3    3    0  502  0.38900593796E+03 -0.16296686607E+03  0.91832358626E+03  0.10105462093E+04  0.12699999809E+01 0.  1.
</event>
<event>
 5   0  0.3723500E-04  0.1710337E+04  0.7818609E-02  0.8755491E-01
        1   -1    0    0  501    0  0.00000000000E+00  0.00000000000E+00  0.21925142663E+04  0.21925142663E+04  0.50400001928E-02 0.  1.
       -1   -1    0    0    0  501  0.00000000000E+00  0.00000000000E+00 -0.33354994334E+03  0.33354994337E+03  0.50400001928E-02 0. -1.
    10030    2    1    2    0    0  0.00000000000E+00  0.00000000000E+00  0.18589643230E+04  0.25260642097E+04  0.17103368199E+04 0.  0.
        1    1    3    3  502    0  0.57532001954E+03  0.19918224081E+03  0.18164410546E+04  0.19157569770E+04  0.50400001928E-02 0.  1.
       -1    1    3    3    0  502 -0.57532001954E+03 -0.19918224081E+03  0.42523268369E+02  0.61030723272E+03  0.50400001928E-02 0. -1.
</event>
<event>
 5   0  0.7233728E-04  0.1688939E+04  0.7818609E-02  0.8767698E-01
       -2   -1    0    0    0  501  0.00000000000E+00  0.00000000000E+00  0.29625549826E+03  0.29625549827E+03  0.25500000920E-02 0. -1.
        2   -1    0    0  501    0  0.00000000000E+00  0.00000000000E+00 -0.24071420946E+04  0.24071420946E+04  0.25500000920E-02 0.  1.
    10030    2    1    2    0    0  0.00000000000E+00  0.00000000000E+00 -0.21108865964E+04  0.27033975929E+04  0.16889394076E+04 0.  0.
        1    1    3    3  502    0  0.30390105268E+03 -0.41496883348E+02 -0.23148301428E+04  0.23350624041E+04  0.50400001928E-02 0.  1.
       -1    1    3    3    0  502 -0.30390105268E+03  0.41496883348E+02  0.20394354642E+03  0.36833518879E+03  0.50400001928E-02 0. -1.
</event>
<event>
 5   0  0.3803253E-04  0.1694655E+04  0.7818609E-02  0.8764419E-01
       -1   -1    0    0    0  501  0.00000000000E+00  0.00000000000E+00  0.41629879007E+03  0.41629879010E+03  0.50400001928E-02 0.  1.
        1   -1    0    0  501    0  0.00000000000E+00  0.00000000000E+00 -0.17246363892E+04  0.17246363893E+04  0.50400001928E-02 0. -1.
    10030    2    1    2    0    0  0.00000000000E+00  0.00000000000E+00 -0.13083375992E+04  0.21409351794E+04  0.16946551770E+04 0.  0.
        4    1    3    3  502    0  0.19407950580E+03  0.40464768406E+03 -0.15621582613E+04  0.16253450861E+04  0.12699999809E+01 0. -1.
       -4    1    3    3    0  502 -0.19407950580E+03 -0.40464768406E+03  0.25382066214E+03  0.51559009321E+03  0.12699999809E+01 0.  1.
</event>
<event>
 5   0  0.2639750E-04  0.1686399E+04  0.7818609E-02  0.8769160E-01
       -3   -1    0    0    0  501  0.00000000000E+00  0.00000000000E+00  0.13472589397E+04  0.13472589435E+04  0.10100000352E+00 0.  1.
        3   -1    0    0  501    0  0.00000000000E+00  0.00000000000E+00 -0.52772719639E+03  0.52772720606E+03  0.10100000352E+00 0. -1.
    10030    2    1    2    0    0  0.00000000000E+00  0.00000000000E+00  0.81953174335E+03  0.18749861496E+04  0.16863987615E+04 0.  0.
        5    1    3    3  502    0  0.65639515113E+03  0.17914459324E+03 -0.14393779432E+03  0.69547649734E+03  0.46999998093E+01 0. -1.
       -5    1    3    3    0  502 -0.65639515113E+03 -0.17914459324E+03  0.96346953766E+03  0.11795096522E+04  0.46999998093E+01 0.  1.
</event>
<event>
 5   0  0.7242144E-04  0.1526007E+04  0.7818609E-02  0.8867340E-01
        2   -1    0    0  501    0  0.00000000000E+00  0.00000000000E+00  0.13221162188E+04  0.13221162188E+04  0.25500000920E-02 0.  1.
       -2   -1    0    0    0  501  0.00000000000E+00  0.00000000000E+00 -0.44033517527E+03  0.44033517528E+03  0.25500000920E-02 0. -1.
    10030    2    1    2    0    0  0.00000000000E+00  0.00000000000E+00  0.88178104352E+03  0.17624513941E+04  0.15260069160E+04 0.  0.
        3    1    3    3  502    0  0.71318444502E+03 -0.18028941672E+03  0.20692415847E+03  0.76416879285E+03  0.10100000352E+00 0. -1.
       -3    1    3    3    0  502 -0.71318444502E+03  0.18028941672E+03  0.67485688505E+03  0.99828260122E+03  0.10100000352E+00 0.  1.
</event>
<event>
 5   0  0.3635143E-04  0.1693210E+04  0.7818609E-02  0.8765246E-01
        1   -1    0    0  501    0  0.00000000000E+00  0.00000000000E+00  0.15263989451E+04  0.15263989451E+04  0.50400001928E-02 0. -1.
       -1   -1    0    0    0  501  0.00000000000E+00  0.00000000000E+00 -0.46956266533E+03  0.46956266536E+03  0.50400001928E-02 0.  1.
    10030    2    1    2    0    0  0.00000000000E+00  0.00000000000E+00  0.10568362798E+04  0.19959616105E+04  0.16932099185E+04 0.  0.
        3    1    3    3  502    0  0.75221869466E+03 -0.28569121926E+03  0.83870890888E+03  0.11622758198E+04  0.10100000352E+00 0.  1.
       -3    1    3    3    0  502 -0.75221869466E+03  0.28569121926E+03  0.21812737089E+03  0.83368579063E+03  0.10100000352E+00 0. -1.
</event>
<event>
 5   0  0.7233728E-04  0.1634749E+04  0.7818609E-02  0.8799480E-01
        2   -1    0    0  501    0  0.00000000000E+00  0.00000000000E+00  0.72831345563E+03  0.72831345564E+03  0.25500000920E-02 0. -1.
       -2   -1    0    0    0  501  0.00000000000E+00  0.00000000000E+00 -0.91732663746E+03  0.91732663746E+03  0.25500000920E-02 0.  1.
    10030    2    1    2    0    0  0.00000000000E+00  0.00000000000E+00 -0.18901318182E+03  0.16456400931E+04  0.16347493181E+04 0.  0.
        1    1    3    3  502    0  0.44658281852E+03 -0.43120351937E+02 -0.78229015831E+03  0.90181676097E+03  0.50400001928E-02 0.  1.
       -1    1    3    3    0  502 -0.44658281852E+03  0.43120351937E+02  0.59327697649E+03  0.74382333212E+03  0.50400001928E-02 0. -1.
</event>
<event>
 5   0  0.3803253E-04  0.1816509E+04  0.7818609E-02  0.8697569E-01
       -1   -1    0    0    0  501  0.00000000000E+00  0.00000000000E+00  0.10838237350E+04  0.10838237350E+04  0.50400001928E-02 0. -1.
        1   -1    0    0  501    0  0.00000000000E+00  0.00000000000E+00 -0.76112618124E+03  0.76112618125E+03  0.50400001928E-02 0.  1.
    10030    2    1    2    0    0  0.00000000000E+00  0.00000000000E+00  0.32269755378E+03  0.18449499163E+04  0.18165094226E+04 0.  0.
        4    1    3    3  502    0  0.49521480498E+03  0.68062634112E+03  0.50791709982E+03  0.98309272832E+03  0.12699999809E+01 0.  1.
       -4    1    3    3    0  502 -0.49521480498E+03 -0.68062634112E+03 -0.18521954605E+03  0.86185718795E+03  0.12699999809E+01 0. -1.
</event>
<event>
 5   0  0.7242144E-04  0.1699399E+04  0.7818609E-02  0.8761707E-01
       -2   -1    0    0    0  501  0.00000000000E+00  0.00000000000E+00  0.80636779801E+03  0.80636779801E+03  0.25500000920E-02 0. -1.
        2   -1    0    0  501    0  0.00000000000E+00  0.00000000000E+00 -0.89535984939E+03  0.89535984939E+03  0.25500000920E-02 0.  1.
    10030    2    1    2    0    0  0.00000000000E+00  0.00000000000E+00 -0.88992051380E+02  0.17017276474E+04  0.16993991293E+04 0.  0.
        3    1    3    3  502    0  0.69247934383E+03  0.43011826531E+03  0.19554052879E+03  0.83831108330E+03  0.10100000352E+00 0. -1.
       -3    1    3    3    0  502 -0.69247934383E+03 -0.43011826531E+03 -0.28453258017E+03  0.86341656410E+03  0.10100000352E+00 0.  1.
</event>
<event>
 5   0  0.3803253E-04  0.1691756E+04  0.7818609E-02  0.8766080E-01
        1   -1    0    0  501    0  0.00000000000E+00  0.00000000000E+00  0.18229126871E+04  0.18229126871E+04  0.50400001928E-02 0. -1.
       -1   -1    0    0    0  501  0.00000000000E+00  0.00000000000E+00 -0.39250903415E+03  0.39250903418E+03  0.50400001928E-02 0.  1.
    10030    2    1    2    0    0  0.00000000000E+00  0.00000000000E+00  0.14304036530E+04  0.22154217213E+04  0.16917561269E+04 0.  0.
        4    1    3    3  502    0  0.46399573710E+03 -0.63023696207E+03  0.11355159379E+04  0.13790898196E+04  0.12699999809E+01 0.  1.
       -4    1    3    3    0  502 -0.46399573710E+03  0.63023696207E+03  0.29488771508E+03  0.83633190170E+03  0.12699999809E+01 0. -1.
</event>
<event>
 5   0  0.3713516E-04  0.1535045E+04  0.7818609E-02  0.8861477E-01
        1   -1    0    0  501    0  0.00000000000E+00  0.00000000000E+00  0.12072581678E+04  0.12072581678E+04  0.50400001928E-02 0.  1.
       -1   -1    0    0    0  501  0.00000000000E+00  0.00000000000E+00 -0.48795748201E+03  0.48795748203E+03  0.50400001928E-02 0. -1.
    10030    2    1    2    0    0  0.00000000000E+00  0.00000000000E+00  0.71930068583E+03  0.16952156499E+04  0.15350448277E+04 0.  0.
        5    1    3    3  502    0 -0.69708212954E+03  0.31900006194E+03  0.31856595863E+03  0.83017521936E+03  0.46999998093E+01 0. -1.
       -5    1    3    3    0  502  0.69708212954E+03 -0.31900006194E+03  0.40073472720E+03  0.86504043052E+03  0.46999998093E+01 0.  1.
</event>
<event>
 5   0  0.3803253E-04  0.1738379E+04  0.7818609E-02  0.8739773E-01
        1   -1    0    0  501    0  0.00000000000E+00  0.00000000000E+00  0.19653752878E+04  0.19653752878E+04  0.50400001928E-02 0.  1.
       -1   -1    0    0    0  501  0.00000000000E+00  0.00000000000E+00 -0.38439990374E+03  0.38439990378E+03  0.50400001928E-02 0. -1.
    10030    2    1    2    0    0  0.00000000000E+00  0.00000000000E+00  0.15809753840E+04  0.23497751916E+04  0.17383786371E+04 0.  0.
        4    1    3    3  502    0  0.86164564504E+03 -0.10058412348E+03  0.86375553087E+03  0.12241836519E+04  0.12699999809E+01 0. -1.
       -4    1    3    3    0  502 -0.86164564504E+03  0.10058412348E+03  0.71721985316E+03  0.11255915397E+04  0.12699999809E+01 0.  1.
</event>
<event>
 5   0  0.3713516E-04  0.1706865E+04  0.7818609E-02  0.8757459E-01
       -1   -1    0    0    0  501  0.00000000000E+00  0.00000000000E+00  0.51242060038E+03  0.51242060040E+03  0.50400001928E-02 0. -1.
        1   -1    0    0  501    0  0.00000000000E+00  0.00000000000E+00 -0.14213853529E+04  0.14213853529E+04  0.50400001928E-02 0.  1.
    10030    2    1    2    0    0  0.00000000000E+00  0.00000000000E+00 -0.90896475249E+03  0.19338059533E+04  0.17068651217E+04 0.  0.
        5    1    3    3  502    0  0.60517208994E+02 -0.76833885152E+03 -0.86970498743E+03  0.11620739127E+04  0.46999998093E+01 0.  1.
       -5    1    3    3    0  502 -0.60517208994E+02  0.76833885152E+03 -0.39259765052E+02  0.77173204060E+03  0.46999998093E+01 0. -1.
</event>
<event>
 5   0  0.7025426E-04  0.1704386E+04  0.7818609E-02  0.8758867E-01
        2   -1    0    0  501    0  0.00000000000E+00  0.00000000000E+00  0.11443783460E+04  0.11443783460E+04  0.25500000920E-02 0.  1.
       -2   -1    0    0    0  501  0.00000000000E+00  0.00000000000E+00 -0.63460893745E+03  0.63460893745E+03  0.25500000920E-02 0. -1.
    10030    2    1    2    0    0  0.00000000000E+00  0.00000000000E+00  0.50976940851E+03  0.17789872834E+04  0.17043857852E+04 0.  0.
        2    1    3    3  502    0 -0.66563719796E+03  0.30643211586E+03 -0.19919641702E+03  0.75937654263E+03  0.25500000920E-02 0. -1.
       -2    1    3    3    0  502  0.66563719796E+03 -0.30643211586E+03  0.70896582552E+03  0.10196107408E+04  0.25500000920E-02 0.  1.
</event>
<event>
 5   0  0.7049044E-04  0.1696276E+04  0.7818609E-02  0.8763491E-01
        2   -1    0    0  501    0  0.00000000000E+00  0.00000000000E+00  0.24654736905E+04  0.24654736905E+04  0.25500000920E-02 0. -1.
       -2   -1    0    0    0  501  0.00000000000E+00  0.00000000000E+00 -0.29176461990E+03  0.29176461991E+03  0.25500000920E-02 0.  1.
    10030    2    1    2    0    0  0.00000000000E+00  0.00000000000E+00  0.21737090706E+04  0.27572383104E+04  0.16962759141E+04 0.  0.
        4    1    3    3  502    0 -0.26680042820E+03 -0.29364028590E+03  0.23053352102E+04  0.23392261820E+04  0.12699999809E+01 0. -1.
       -4    1    3    3    0  502  0.26680042820E+03  0.29364028590E+03 -0.13162613962E+03  0.41801212844E+03  0.12699999809E+01 0.  1.
</event>
<event>
 5   0  0.6746664E-04  0.1592223E+04  0.7818609E-02  0.8825340E-01
       -2   -1    0    0    0  501  0.00000000000E+00  0.00000000000E+00  0.52641998697E+03  0.52641998698E+03  0.25500000920E-02 0. -1.
        2   -1    0    0  501    0  0.00000000000E+00  0.00000000000E+00 -0.12039691870E+04  0.12039691870E+04  0.25500000920E-02 0.  1.
    10030    2    1    2    0    0  0.00000000000E+00  0.00000000000E+00 -0.67754920001E+03  0.17303891740E+04  0.15922229037E+04 0.  0.
        5    1    3    3  502    0 -0.24057190603E+03 -0.35016349964E+03 -0.10704596409E+04  0.11516923423E+04  0.46999998093E+01 0.  1.
       -5    1    3    3    0  502  0.24057190603E+03  0.35016349964E+03  0.39291044089E+03  0.57869683169E+03  0.46999998093E+01 0. -1.
</event>
<event>
 5   0  0.6746664E-04  0.1643333E+04  0.7818609E-02  0.8794361E-01
       -2   -1    0    0    0  501  0.00000000000E+00  0.00000000000E+00  0.51798841635E+03  0.51798841635E+03  0.25500000920E-02 0. -1.
        2   -1    0    0  501    0  0.00000000000E+00  0.00000000000E+00 -0.13033798119E+04  0.13033798119E+04  0.25500000920E-02 0.  1.
    10030    2    1    2    0    0  0.00000000000E+00  0.00000000000E+00 -0.78539139559E+03  0.18213682283E+04  0.16433327657E+04 0.  0.
        5    1    3    3  502    0 -0.74502981350E+03 -0.32063996025E+03 -0.53819708896E+03  0.97342570527E+03  0.46999998093E+01 0.  1.
       -5    1    3    3    0  502  0.74502981350E+03  0.32063996025E+03 -0.24719430663E+03  0.84794252302E+03  0.46999998093E+01 0. -1.
</event>
<event>
 5   0  0.3803253E-04  0.1683670E+04  0.7818609E-02  0.8770733E-01
        1   -1    0    0  501    0  0.00000000000E+00  0.00000000000E+00  0.82511126413E+03  0.82511126414E+03  0.50400001928E-02 0.  1.
       -1   -1    0    0    0  501  0.00000000000E+00  0.00000000000E+00 -0.85889780405E+03  0.85889780407E+03  0.50400001928E-02 0. -1.
    10030    2    1    2    0    0  0.00000000000E+00  0.00000000000E+00 -0.33786539924E+02  0.16840090682E+04  0.16836701017E+04 0.  0.
        4    1    3    3  502    0 -0.85869582409E+02 -0.31107211719E+03  0.76078830913E+03  0.82640178575E+03  0.12699999809E+01 0.  1.
       -4    1    3    3    0  502  0.85869582409E+02  0.31107211719E+03 -0.79457484906E+03  0.85760728246E+03  0.12699999809E+01 0. -1.
</event>
<event>
 5   0  0.3723500E-04  0.1699017E+04  0.7818609E-02  0.8761925E-01
        1   -1    0    0  501    0  0.00000000000E+00  0.00000000000E+00  0.75710972477E+03  0.75710972479E+03  0.50400001928E-02 0.  1.
       -1   -1    0    0    0  501  0.00000000000E+00  0.00000000000E+00 -0.95318351106E+03  0.95318351107E+03  0.50400001928E-02 0. -1.
    10030    2    1    2    0    0  0.00000000000E+00  0.00000000000E+00 -0.19607378629E+03  0.17102932359E+04  0.16990167812E+04 0.  0.
        1    1    3    3  502    0 -0.79208406853E+03  0.21380111827E+03  0.12378081873E+03  0.82971668713E+03  0.50400001928E-02 0.  1.
       -1    1    3    3    0  502  0.79208406853E+03 -0.21380111827E+03 -0.31985460502E+03  0.88057654873E+03  0.50400001928E-02 0. -1.
</event>
<event>
 5   0  0.7242144E-04  0.1719397E+04  0.7818609E-02  0.8750378E-01
       -2   -1    0    0    0  501  0.00000000000E+00  0.00000000000E+00  0.26893455568E+03  0.26893455569E+03  0.25500000920E-02 0. -1.
        2   -1    0    0  501    0  0.00000000000E+00  0.00000000000E+00 -0.27481829505E+04  0.27481829505E+04  0.25500000920E-02 0.  1.
    10030    2    1    2    0    0  0.00000000000E+00  0.00000000000E+00 -0.24792483948E+04  0.30171175062E+04  0.17193968253E+04 0.  0.
        3    1    3    3  502    0  0.25055639267E+03  0.25588011424E+03  0.13181212591E+03  0.38161182569E+03  0.10100000352E+00 0. -1.
       -3    1    3    3    0  502 -0.25055639267E+03 -0.25588011424E+03 -0.26110605207E+04  0.26355056805E+04  0.10100000352E+00 0.  1.
</event>
<event>
 5   0  0.7233728E-04  0.1702339E+04  0.7818609E-02  0.8760031E-01
       -2   -1    0    0    0  501  0.00000000000E+00  0.00000000000E+00  0.11719246448E+04  0.11719246449E+04  0.25500000920E-02 0. -1.
        2   -1    0    0  501    0  0.00000000000E+00  0.00000000000E+00 -0.61820498424E+03  0.61820498424E+03  0.25500000920E-02 0.  1.
    10030    2    1    2    0    0  0.00000000000E+00  0.00000000000E+00  0.55371966061E+03  0.17901296291E+04  0.17023391632E+04 0.  0.
        1    1    3    3  502    0 -0.67945970556E+03  0.30574616173E+03 -0.15587573652E+03  0.76121183133E+03  0.50400001928E-02 0.  1.
       -1    1    3    3    0  502  0.67945970556E+03 -0.30574616173E+03  0.70959539713E+03  0.10289177978E+04  0.50400001928E-02 0. -1.
</event>
<event>
 5   0  0.2639750E-04  0.1241203E+04  0.7818609E-02  0.9077537E-01
        3   -1    0    0  501    0  0.00000000000E+00  0.00000000000E+00  0.94443444275E+03  0.94443444815E+03  0.10100000352E+00 0.  1.
       -3   -1    0    0    0  501  0.00000000000E+00  0.00000000000E+00 -0.40780612589E+03  0.40780613840E+03  0.10100000352E+00 0. -1.
    10030    2    1    2    0    0  0.00000000000E+00  0.00000000000E+00  0.53662831686E+03  0.13522405865E+04  0.12412029058E+04 0.  0.
        3    1    3    3  502    0  0.48165486321E+03  0.37987066861E+03  0.16580635413E+03  0.63544070487E+03  0.10100000352E+00 0. -1.
       -3    1    3    3    0  502 -0.48165486321E+03 -0.37987066861E+03  0.37082196272E+03  0.71679988168E+03  0.10100000352E+00 0.  1.
</event>
<event>
 5   0  0.6746664E-04  0.1707142E+04  0.7818609E-02  0.8757301E-01
        2   -1    0    0  501    0  0.00000000000E+00  0.00000000000E+00  0.60992147938E+03  0.60992147939E+03  0.25500000920E-02 0. -1.
       -2   -1    0    0    0  501  0.00000000000E+00  0.00000000000E+00 -0.11945528606E+04  0.11945528606E+04  0.25500000920E-02 0.  1.
    10030    2    1    2    0    0  0.00000000000E+00  0.00000000000E+00 -0.58463138121E+03  0.18044743400E+04  0.17071419952E+04 0.  0.
        5    1    3    3  502    0  0.65465862587E+03  0.14349265380E+03 -0.85102905295E+03  0.10832546317E+04  0.46999998093E+01 0.  1.
       -5    1    3    3    0  502 -0.65465862587E+03 -0.14349265380E+03  0.26639767174E+03  0.72121970829E+03  0.46999998093E+01 0. -1.
</event>
<event>
 5   0  0.3635143E-04  0.1084998E+04  0.7818609E-02  0.9219939E-01
       -1   -1    0    0    0  501  0.00000000000E+00  0.00000000000E+00  0.20816797753E+03  0.20816797759E+03  0.50400001928E-02 0. -1.
        1   -1    0    0  501    0  0.00000000000E+00  0.00000000000E+00 -0.14137858918E+04  0.14137858918E+04  0.50400001928E-02 0.  1.
    10030    2    1    2    0    0  0.00000000000E+00  0.00000000000E+00 -0.12056179143E+04  0.16219538694E+04  0.10849976034E+04 0.  0.
        3    1    3    3  502    0  0.42304765775E+03 -0.19815597704E+03 -0.10151114260E+04  0.11174463430E+04  0.10100000352E+00 0.  1.
       -3    1    3    3    0  502 -0.42304765775E+03  0.19815597704E+03 -0.19050648824E+03  0.50450752644E+03  0.10100000352E+00 0. -1.
</event>
<event>
 5   0  0.7025426E-04  0.1606812E+04  0.7818609E-02  0.8816374E-01
       -2   -1    0    0    0  501  0.00000000000E+00  0.00000000000E+00  0.96790251557E+03  0.96790251558E+03  0.25500000920E-02 0.  1.
        2   -1    0    0  501    0  0.00000000000E+00  0.00000000000E+00 -0.66686567924E+03  0.66686567925E+03  0.25500000920E-02 0. -1.
    10030    2    1    2    0    0  0.00000000000E+00  0.00000000000E+00  0.30103683633E+03  0.16347681948E+04  0.16068117108E+04 0.  0.
        2    1    3    3  502    0  0.24938738110E+03  0.71894912098E+03  0.41264239834E+03  0.86565331012E+03  0.25500000920E-02 0.  1.
       -2    1    3    3    0  502 -0.24938738110E+03 -0.71894912098E+03 -0.11160556201E+03  0.76911488471E+03  0.25500000920E-02 0. -1.
</event>
<event>
 5   0  0.3723500E-04  0.1733100E+04  0.7818609E-02  0.8742708E-01
        1   -1    0    0  501    0  0.00000000000E+00  0.00000000000E+00  0.11452148785E+04  0.11452148785E+04  0.50400001928E-02 0.  1.
       -1   -1    0    0    0  501  0.00000000000E+00  0.00000000000E+00 -0.65569294510E+03  0.65569294512E+03  0.50400001928E-02 0. -1.
    10030    2    1    2    0    0  0.00000000000E+00  0.00000000000E+00  0.48952193335E+03  0.18009078236E+04  0.17331004777E+04 0.  0.
        1    1    3    3  502    0 -0.59141050653E+03 -0.47300075265E+03  0.68244502481E+03  0.10194249905E+04  0.50400001928E-02 0. -1.
       -1    1    3    3    0  502  0.59141050653E+03  0.47300075265E+03 -0.19292309146E+03  0.78148283313E+03  0.50400001928E-02 0.  1.
</event>
<event>
 5   0  0.7242144E-04  0.1659026E+04  0.7818609E-02  0.8785085E-01
       -2   -1    0    0    0  501  0.00000000000E+00  0.00000000000E+00  0.18226459398E+04  0.18226459399E+04  0.25500000920E-02 0. -1.
        2   -1    0    0  501    0  0.00000000000E+00  0.00000000000E+00 -0.37752349600E+03  0.37752349600E+03  0.25500000920E-02 0.  1.
    10030    2    1    2    0    0  0.00000000000E+00  0.00000000000E+00  0.14451224439E+04  0.22001694359E+04  0.16590258192E+04 0.  0.
        3    1    3    3  502    0  0.47687809861E+03  0.29420983009E+03  0.15337242764E+04  0.16328754733E+04  0.10100000352E+00 0. -1.
       -3    1    3    3    0  502 -0.47687809861E+03 -0.29420983009E+03 -0.88601832526E+02  0.56729396258E+03  0.10100000352E+00 0.  1.
</event>
<event>
 5   0  0.7025426E-04  0.1725870E+04  0.7818609E-02  0.8746746E-01
        2   -1    0    0  501    0  0.00000000000E+00  0.00000000000E+00  0.15298825837E+04  0.15298825837E+04  0.25500000920E-02 0. -1.
       -2   -1    0    0    0  501  0.00000000000E+00  0.00000000000E+00 -0.48674130202E+03  0.48674130202E+03  0.25500000920E-02 0.  1.
    10030    2    1    2    0    0  0.00000000000E+00  0.00000000000E+00  0.10431412817E+04  0.20166238857E+04  0.17258702625E+04 0.  0.
        2    1    3    3  502    0  0.54764114977E+03  0.72928529132E+02 -0.25299895764E+03  0.60764946463E+03  0.25500000920E-02 0.  1.
       -2    1    3    3    0  502 -0.54764114977E+03 -0.72928529132E+02  0.12961402393E+04  0.14089744211E+04  0.25500000920E-02 0. -1.
</event>
<event>
 5   0  0.3723500E-04  0.1633354E+04  0.7818609E-02  0.8800315E-01
        1   -1    0    0  501    0  0.00000000000E+00  0.00000000000E+00  0.98255779759E+03  0.98255779761E+03  0.50400001928E-02 0. -1.
       -1   -1    0    0    0  501  0.00000000000E+00  0.00000000000E+00 -0.67880127729E+03  0.67880127731E+03  0.50400001928E-02 0.  1.
    10030    2    1    2    0    0  0.00000000000E+00  0.00000000000E+00  0.30375652030E+03  0.16613590749E+04  0.16333542029E+04 0.  0.
        1    1    3    3  502    0 -0.17709652635E+03 -0.54146731446E+02  0.96091926293E+03  0.97860149093E+03  0.50400001928E-02 0. -1.
       -1    1    3    3    0  502  0.17709652635E+03  0.54146731446E+02 -0.65716274262E+03  0.68275758398E+03  0.50400001928E-02 0.  1.
</event>
<event>
 5   0  0.6746664E-04  0.1691387E+04  0.7818609E-02  0.8766292E-01
        2   -1    0    0  501    0  0.00000000000E+00  0.00000000000E+00  0.16931753191E+04  0.16931753191E+04  0.25500000920E-02 0.  1.
       -2   -1    0    0    0  501  0.00000000000E+00  0.00000000000E+00 -0.42240005066E+03  0.42240005067E+03  0.25500000920E-02 0. -1.
    10030    2    1    2    0    0  0.00000000000E+00  0.00000000000E+00  0.12707752684E+04  0.21155753697E+04  0.16913868163E+04 0.  0.
        5    1    3    3  502    0 -0.71130036199E+03  0.18047621917E+03  0.10967429698E+03  0.74200432079E+03  0.46999998093E+01 0. -1.
       -5    1    3    3    0  502  0.71130036199E+03 -0.18047621917E+03  0.11611009714E+04  0.13735710489E+04  0.46999998093E+01 0.  1.
</event>
<event>
 5   0  0.7025426E-04  0.1724400E+04  0.7818609E-02  0.8747569E-01
        2   -1    0    0  501    0  0.00000000000E+00  0.00000000000E+00  0.19104359229E+04  0.19104359229E+04  0.25500000920E-02 0. -1.
       -2   -1    0    0    0  501  0.00000000000E+00  0.00000000000E+00 -0.38911993508E+03  0.38911993508E+03  0.25500000920E-02 0.  1.
    10030    2    1    2    0    0  0.00000000000E+00  0.00000000000E+00  0.15213159878E+04  0.22995558579E+04  0.17243998403E+04 0.  0.
        2    1    3    3  502    0 -0.27207011929E+03 -0.28798980421E+03 -0.26054833102E+03  0.47417898514E+03  0.25500000920E-02 0.  1.
       -2    1    3    3    0  502  0.27207011929E+03  0.28798980421E+03  0.17818643188E+04  0.18253768728E+04  0.25500000920E-02 0. -1.
</event>
<event>
 5   0  0.6746664E-04  0.1689875E+04  0.7818609E-02  0.8767160E-01
        2   -1    0    0  501    0  0.00000000000E+00  0.00000000000E+00  0.19800964844E+04  0.19800964844E+04  0.25500000920E-02 0. -1.
       -2   -1    0    0    0  501  0.00000000000E+00  0.00000000000E+00 -0.36054780907E+03  0.36054780908E+03  0.25500000920E-02 0.  1.
    10030    2    1    2    0    0  0.00000000000E+00  0.00000000000E+00  0.16195486753E+04  0.23406442934E+04  0.16898750832E+04 0.  0.
        5    1    3    3  502    0 -0.79203236978E+03 -0.96447881208E+02  0.42472705203E+03  0.90389857135E+03  0.46999998093E+01 0.  1.
       -5    1    3    3    0  502  0.79203236978E+03  0.96447881208E+02  0.11948216233E+04  0.14367457221E+04  0.46999998093E+01 0. -1.
</event>
<event>
 5   0  0.3723500E-04  0.1657245E+04  0.7818609E-02  0.8786132E-01
       -1   -1    0    0    0  501  0.00000000000E+00  0.00000000000E+00  0.50901859851E+03  0.50901859854E+03  0.50400001928E-02 0. -1.
        1   -1    0    0  501    0  0.00000000000E+00  0.00000000000E+00 -0.13489008904E+04  0.13489008904E+04  0.50400001928E-02 0.  1.
    10030    2    1    2    0    0  0.00000000000E+00  0.00000000000E+00 -0.83988229185E+03  0.18579194889E+04  0.16572454746E+04 0.  0.
        1    1    3    3  502    0 -0.50225783728E+03 -0.54676723063E+03 -0.74195813726E+01  0.74247719818E+03  0.50400001928E-02 0. -1.
       -1    1    3    3    0  502  0.50225783728E+03  0.54676723063E+03 -0.83246271048E+03  0.11154422907E+04  0.50400001928E-02 0.  1.
</event>
<event>
 5   0  0.7049044E-04  0.1685092E+04  0.7818609E-02  0.8769913E-01
        2   -1    0    0  501    0  0.00000000000E+00  0.00000000000E+00  0.11792790949E+04  0.11792790949E+04  0.25500000920E-02 0.  1.
       -2   -1    0    0    0  501  0.00000000000E+00  0.00000000000E+00 -0.60196397268E+03  0.60196397268E+03  0.25500000920E-02 0. -1.
    10030    2    1    2    0    0  0.00000000000E+00  0.00000000000E+00  0.57731512226E+03  0.17812430676E+04  0.16850917232E+04 0.  0.
        4    1    3    3  502    0 -0.79223192433E+03 -0.24988867623E+03  0.13989295973E+03  0.84240573687E+03  0.12699999809E+01 0. -1.
       -4    1    3    3    0  502  0.79223192433E+03  0.24988867623E+03  0.43742216254E+03  0.93883733075E+03  0.12699999809E+01 0.  1.
</event>
<event>
 5   0  0.7242144E-04  0.1585101E+04  0.7818609E-02  0.8829754E-01
        2   -1    0    0  501    0  0.00000000000E+00  0.00000000000E+00  0.11187582388E+04  0.11187582388E+04  0.25500000920E-02 0.  1.
       -2   -1    0    0    0  501  0.00000000000E+00  0.00000000000E+00 -0.56145850480E+03  0.56145850481E+03  0.25500000920E-02 0. -1.
    10030    2    1    2    0    0  0.00000000000E+00  0.00000000000E+00  0.55729973404E+03  0.16802167437E+04  0.15851010416E+04 0.  0.
        3    1    3    3  502    0 -0.51540606681E+02  0.65975967201E+03 -0.18363561562E+03  0.68677602497E+03  0.10100000352E+00 0. -1.
       -3    1    3    3    0  502  0.51540606681E+02 -0.65975967201E+03  0.74093534967E+03  0.99344071868E+03  0.10100000352E+00 0.  1.
</event>
<event>
 5   0  0.6746664E-04  0.1712117E+04  0.7818609E-02  0.8754484E-01
        2   -1    0    0  501    0  0.00000000000E+00  0.00000000000E+00  0.70757778226E+03  0.70757778227E+03  0.25500000920E-02 0.  1.
       -2   -1    0    0    0  501  0.00000000000E+00  0.00000000000E+00 -0.10356968323E+04  0.10356968323E+04  0.25500000920E-02 0. -1.
    10030    2    1    2    0    0  0.00000000000E+00  0.00000000000E+00 -0.32811905002E+03  0.17432746146E+04  0.17121168975E+04 0.  0.
        5    1    3    3  502    0  0.41515833229E+03 -0.47281307240E+02 -0.92479885985E+03  0.10148236221E+04  0.46999998093E+01 0. -1.
       -5    1    3    3    0  502 -0.41515833229E+03  0.47281307240E+02  0.59667980983E+03  0.72845099241E+03  0.46999998093E+01 0.  1.
</event>
<event>
 5   0  0.7242144E-04  0.1771045E+04  0.7818609E-02  0.8721851E-01
        2   -1    0    0  501    0  0.00000000000E+00  0.00000000000E+00  0.25387028475E+04  0.25387028475E+04  0.25500000920E-02 0.  1.
       -2   -1    0    0    0  501  0.00000000000E+00  0.00000000000E+00 -0.30887818952E+03  0.30887818953E+03  0.25500000920E-02 0. -1.
    10030    2    1    2    0    0  0.00000000000E+00  0.00000000000E+00  0.22298246580E+04  0.28475810370E+04  0.17710448207E+04 0.  0.
        3    1    3    3  502    0 -0.80881620287E+03 -0.34113782077E+03  0.92746618937E+03  0.12770090859E+04  0.10100000352E+00 0. -1.
       -3    1    3    3    0  502  0.80881620287E+03  0.34113782077E+03  0.13023584686E+04  0.15705719512E+04  0.10100000352E+00 0.  1.
</event>
<event>
 5   0  0.3635143E-04  0.1789175E+04  0.7818609E-02  0.8712077E-01
        1   -1    0    0  501    0  0.00000000000E+00  0.00000000000E+00  0.63576344880E+03  0.63576344882E+03  0.50400001928E-02 0.  1.
       -1   -1    0    0    0  501  0.00000000000E+00  0.00000000000E+00 -0.12587814442E+04  0.12587814442E+04  0.50400001928E-02 0. -1.
    10030    2    1    2    0    0  0.00000000000E+00  0.00000000000E+00 -0.62301799543E+03  0.18945448931E+04  0.17891754887E+04 0.  0.
        3    1    3    3  502    0  0.16965472897E+03  0.26927942554E+03  0.57378679641E+03  0.65614436979E+03  0.10100000352E+00 0.  1.
       -3    1    3    3    0  502 -0.16965472897E+03 -0.26927942554E+03 -0.11968047918E+04  0.12384005233E+04  0.10100000352E+00 0. -1.
</event>
<event>
 5   0  0.3635143E-04  0.1335069E+04  0.7818609E-02  0.9002208E-01
        1   -1    0    0  501    0  0.00000000000E+00  0.00000000000E+00  0.54375449867E+03  0.54375449870E+03  0.50400001928E-02 0. -1.
       -1   -1    0    0    0  501  0.00000000000E+00  0.00000000000E+00 -0.81949154464E+03  0.81949154465E+03  0.50400001928E-02 0.  1.
    10030    2    1    2    0    0  0.00000000000E+00  0.00000000000E+00 -0.27573704597E+03  0.13632460434E+04  0.13350688582E+04 0.  0.
        3    1    3    3  502    0 -0.52138942305E+03 -0.41129966741E+03 -0.68705253543E+02  0.66763370867E+03  0.10100000352E+00 0. -1.
       -3    1    3    3    0  502  0.52138942305E+03  0.41129966741E+03 -0.20703179242E+03  0.69561233468E+03  0.10100000352E+00 0.  1.
</event>
<event>
 5   0  0.7049044E-04  0.1412361E+04  0.7818609E-02  0.8944919E-01
       -2   -1    0    0    0  501  0.00000000000E+00  0.00000000000E+00  0.47306385190E+03  0.47306385191E+03  0.25500000920E-02 0. -1.
        2   -1    0    0  501    0  0.00000000000E+00  0.00000000000E+00 -0.10541729535E+04  0.10541729535E+04  0.25500000920E-02 0.  1.
    10030    2    1    2    0    0  0.00000000000E+00  0.00000000000E+00 -0.58110910163E+03  0.15272368054E+04  0.14123613107E+04 0.  0.
        4    1    3    3  502    0  0.11252839605E+03 -0.41116756380E+03 -0.89934572469E+03  0.99526164945E+03  0.12699999809E+01 0.  1.
       -4    1    3    3    0  502 -0.11252839605E+03  0.41116756380E+03  0.31823662306E+03  0.53197515600E+03  0.12699999809E+01 0. -1.
</event>
<event>
 5   0  0.3713516E-04  0.1699182E+04  0.7818609E-02  0.8761831E-01
        1   -1    0    0  501    0  0.00000000000E+00  0.00000000000E+00  0.26982294077E+04  0.26982294077E+04  0.50400001928E-02 0.  1.
       -1   -1    0    0    0  501  0.00000000000E+00  0.00000000000E+00 -0.26751069043E+03  0.26751069048E+03  0.50400001928E-02 0. -1.
    10030    2    1    2    0    0  0.00000000000E+00  0.00000000000E+00  0.24307187173E+04  0.29657400982E+04  0.16991824056E+04 0.  0.
        5    1    3    3  502    0 -0.67478450626E+03  0.39904047220E+03  0.64385142159E+03  0.10144625037E+04  0.46999998093E+01 0. -1.
       -5    1    3    3    0  502  0.67478450626E+03 -0.39904047220E+03  0.17868672957E+04  0.19512775945E+04  0.46999998093E+01 0.  1.
</event>
<event>
 5   0  0.2639750E-04  0.1658773E+04  0.7818609E-02  0.8785234E-01
        3   -1    0    0  501    0  0.00000000000E+00  0.00000000000E+00  0.87692033080E+03  0.87692033662E+03  0.10100000352E+00 0.  1.
       -3   -1    0    0    0  501  0.00000000000E+00  0.00000000000E+00 -0.78442884773E+03  0.78442885423E+03  0.10100000352E+00 0. -1.
    10030    2    1    2    0    0  0.00000000000E+00  0.00000000000E+00  0.92491483073E+02  0.16613491908E+04  0.16587725762E+04 0.  0.
        3    1    3    3  502    0 -0.38931248149E+03 -0.54143339068E+03 -0.44764017926E+03  0.80317872548E+03  0.10100000352E+00 0. -1.
       -3    1    3    3    0  502  0.38931248149E+03  0.54143339068E+03  0.54013166233E+03  0.85817046537E+03  0.10100000352E+00 0.  1.
</event>
<event>
 5   0  0.3635143E-04  0.1710341E+04  0.7818609E-02  0.8755488E-01
       -1   -1    0    0    0  501  0.00000000000E+00  0.00000000000E+00  0.60964465895E+03  0.60964465897E+03  0.50400001928E-02 0.  1.
        1   -1    0    0  501    0  0.00000000000E+00  0.00000000000E+00 -0.11995781935E+04  0.11995781935E+04  0.50400001928E-02 0. -1.
    10030    2    1    2    0    0  0.00000000000E+00  0.00000000000E+00 -0.58993353451E+03  0.18092228524E+04  0.17103408300E+04 0.  0.
        3    1    3    3  502    0 -0.16532817551E+03 -0.40877385205E+03  0.48012090489E+03  0.65187848657E+03  0.10100000352E+00 0.  1.
       -3    1    3    3    0  502  0.16532817551E+03  0.40877385205E+03 -0.10700544394E+04  0.11573443659E+04  0.10100000352E+00 0. -1.
</event>
<event>
 5   0  0.2639750E-04  0.1701301E+04  0.7818609E-02  0.8760623E-01
        3   -1    0    0  501    0  0.00000000000E+00  0.00000000000E+00  0.12112135086E+04  0.12112135128E+04  0.10100000352E+00 0. -1.
       -3   -1    0    0    0  501  0.00000000000E+00  0.00000000000E+00 -0.59742251633E+03  0.59742252487E+03  0.10100000352E+00 0.  1.
    10030    2    1    2    0    0  0.00000000000E+00  0.00000000000E+00  0.61379099222E+03  0.18086360376E+04  0.17013009535E+04 0.  0.
        2    1    3    3  502    0 -0.24540074045E+03 -0.69566202680E+03 -0.14343205807E+03  0.75149180583E+03  0.25500000920E-02 0.  1.
       -2    1    3    3    0  502  0.24540074045E+03  0.69566202680E+03  0.75722305029E+03  0.10571442318E+04  0.25500000920E-02 0. -1.
</event>
<event>
 5   0  0.3635143E-04  0.1744017E+04  0.7818609E-02  0.8736650E-01
       -1   -1    0    0    0  501  0.00000000000E+00  0.00000000000E+00  0.82807871517E+03  0.82807871518E+03  0.50400001928E-02 0. -1.
        1   -1    0    0  501    0  0.00000000000E+00  0.00000000000E+00 -0.91826886904E+03  0.91826886905E+03  0.50400001928E-02 0.  1.
    10030    2    1    2    0    0  0.00000000000E+00  0.00000000000E+00 -0.90190153872E+02  0.17463475842E+04  0.17440170931E+04 0.  0.
        3    1    3    3  502    0 -0.16991163296E+03  0.27392510076E+03  0.76623078853E+03  0.83127285252E+03  0.10100000352E+00 0. -1.
       -3    1    3    3    0  502  0.16991163296E+03 -0.27392510076E+03 -0.85642094240E+03  0.91507473172E+03  0.10100000352E+00 0.  1.
</event>
<event>
 5   0  0.7233728E-04  0.1684390E+04  0.7818609E-02  0.8770318E-01
        2   -1    0    0  501    0  0.00000000000E+00  0.00000000000E+00  0.84193701078E+03  0.84193701079E+03  0.25500000920E-02 0. -1.
       -2   -1    0    0    0  501  0.00000000000E+00  0.00000000000E+00 -0.84245340139E+03  0.84245340139E+03  0.25500000920E-02 0.  1.
    10030    2    1    2    0    0  0.00000000000E+00  0.00000000000E+00 -0.51639060467E+00  0.16843904122E+04  0.16843903330E+04 0.  0.
        1    1    3    3  502    0  0.46512635789E+03 -0.21295165049E+03 -0.66928869258E+03  0.84240031357E+03  0.50400001928E-02 0.  1.
       -1    1    3    3    0  502 -0.46512635789E+03  0.21295165049E+03  0.66877230198E+03  0.84199009862E+03  0.50400001928E-02 0. -1.
</event>
<event>
 5   0  0.3915701E-04  0.1077607E+04  0.7818609E-02  0.9227296E-01
        1   -1    0    0  501    0  0.00000000000E+00  0.00000000000E+00  0.66395968466E+03  0.66395968468E+03  0.50400001928E-02 0.  1.
       -1   -1    0    0    0  501  0.00000000000E+00  0.00000000000E+00 -0.43723937701E+03  0.43723937704E+03  0.50400001928E-02 0. -1.
    10030    2    1    2    0    0  0.00000000000E+00  0.00000000000E+00  0.22672030766E+03  0.11011990617E+04  0.10776071991E+04 0.  0.
        2    1    3    3  502    0  0.28108481971E+03 -0.42566197464E+03  0.29068881911E+03  0.58710883326E+03  0.25500000920E-02 0. -1.
       -2    1    3    3    0  502 -0.28108481971E+03  0.42566197464E+03 -0.63968511458E+02  0.51409022846E+03  0.25500000920E-02 0.  1.
</event>
<event>
 5   0  0.3635143E-04  0.1675805E+04  0.7818609E-02  0.8775285E-01
       -1   -1    0    0    0  501  0.00000000000E+00  0.00000000000E+00  0.11650648428E+04  0.11650648428E+04  0.50400001928E-02 0.  1.
        1   -1    0    0  501    0  0.00000000000E+00  0.00000000000E+00 -0.60261099886E+03  0.60261099888E+03  0.50400001928E-02 0. -1.
    10030    2    1    2    0    0  0.00000000000E+00  0.00000000000E+00  0.56245384390E+03  0.17676758417E+04  0.16758053451E+04 0.  0.
        3    1    3    3  502    0  0.59204067818E+03  0.40330388726E+03  0.73969797289E+03  0.10297180640E+04  0.10100000352E+00 0.  1.
       -3    1    3    3    0  502 -0.59204067818E+03 -0.40330388726E+03 -0.17724412899E+03  0.73795777762E+03  0.10100000352E+00 0. -1.
</event>
<event>
 5   0  0.3915701E-04  0.1705705E+04  0.7818609E-02  0.8758117E-01
       -1   -1    0    0    0  501  0.00000000000E+00  0.00000000000E+00  0.90417740712E+03  0.90417740713E+03  0.50400001928E-02 0.  1.
        1   -1    0    0  501    0  0.00000000000E+00  0.00000000000E+00 -0.80444080203E+03  0.80444080204E+03  0.50400001928E-02 0. -1.
    10030    2    1    2    0    0  0.00000000000E+00  0.00000000000E+00  0.99736605088E+02  0.17086182092E+04  0.17057047794E+04 0.  0.
        2    1    3    3  502    0  0.47472397638E+03  0.20244820870E+03  0.73000451396E+03  0.89401047050E+03  0.25500000920E-02 0.  1.
       -2    1    3    3    0  502 -0.47472397638E+03 -0.20244820870E+03 -0.63026790887E+03  0.81460773868E+03  0.25500000920E-02 0. -1.
</event>
<event>
 5   0  0.3635143E-04  0.1732816E+04  0.7818609E-02  0.8742867E-01
        1   -1    0    0  501    0  0.00000000000E+00  0.00000000000E+00  0.17356471918E+04  0.17356471919E+04  0.50400001928E-02 0.  1.
       -1   -1    0    0    0  501  0.00000000000E+00  0.00000000000E+00 -0.43249719463E+03  0.43249719466E+03  0.50400001928E-02 0. -1.
    10030    2    1    2    0    0  0.00000000000E+00  0.00000000000E+00  0.13031499972E+04  0.21681443865E+04  0.17328156756E+04 0.  0.
        3    1    3    3  502    0 -0.24237743276E+03  0.33563554894E+03  0.16038760972E+04  0.16564469769E+04  0.10100000352E+00 0.  1.
       -3    1    3    3    0  502  0.24237743276E+03 -0.33563554894E+03 -0.30072610002E+03  0.51169740966E+03  0.10100000352E+00 0. -1.
</event>
<event>
 5   0  0.6746664E-04  0.1692649E+04  0.7818609E-02  0.8765568E-01
        2   -1    0    0  501    0  0.00000000000E+00  0.00000000000E+00  0.91332103394E+03  0.91332103394E+03  0.25500000920E-02 0. -1.
       -2   -1    0    0    0  501  0.00000000000E+00  0.00000000000E+00 -0.78424211054E+03  0.78424211054E+03  0.25500000920E-02 0.  1.
    10030    2    1    2    0    0  0.00000000000E+00  0.00000000000E+00  0.12907892340E+03  0.16975631445E+04  0.16926485935E+04 0.  0.
        5    1    3    3  502    0 -0.47797250302E+03 -0.66824294907E+03 -0.13911754713E+03  0.83329594655E+03  0.46999998093E+01 0.  1.
       -5    1    3    3    0  502  0.47797250302E+03  0.66824294907E+03  0.26819647053E+03  0.86426719793E+03  0.46999998093E+01 0. -1.
</event>
<event>
 5   0  0.7233728E-04  0.1612984E+04  0.7818609E-02  0.8812611E-01
        2   -1    0    0  501    0  0.00000000000E+00  0.00000000000E+00  0.24356332852E+04  0.24356332852E+04  0.25500000920E-02 0. -1.
       -2   -1    0    0    0  501  0.00000000000E+00  0.00000000000E+00 -0.26704722074E+03  0.26704722075E+03  0.25500000920E-02 0.  1.
    10030    2    1    2    0    0  0.00000000000E+00  0.00000000000E+00  0.21685860644E+04  0.27026805059E+04  0.16129836944E+04 0.  0.
        1    1    3    3  502    0  0.59240022319E+03  0.31236210477E+03  0.33136153357E+03  0.74720049176E+03  0.50400001928E-02 0.  1.
       -1    1    3    3    0  502 -0.59240022319E+03 -0.31236210477E+03  0.18372245309E+04  0.19554800142E+04  0.50400001928E-02 0. -1.
</event>
<event>
 5   0  0.3723500E-04  0.1720631E+04  0.7818609E-02  0.8749685E-01
        1   -1    0    0  501    0  0.00000000000E+00  0.00000000000E+00  0.81262368179E+03  0.81262368180E+03  0.50400001928E-02 0.  1.
       -1   -1    0    0    0  501  0.00000000000E+00  0.00000000000E+00 -0.91080612881E+03  0.91080612882E+03  0.50400001928E-02 0. -1.
    10030    2    1    2    0    0  0.00000000000E+00  0.00000000000E+00 -0.98182447016E+02  0.17234298106E+04  0.17206308492E+04 0.  0.
        1    1    3    3  502    0 -0.66629388288E+03  0.27230418017E+03  0.42289237605E+03  0.83482636917E+03  0.50400001928E-02 0.  1.
       -1    1    3    3    0  502  0.66629388288E+03 -0.27230418017E+03 -0.52107482307E+03  0.88860344146E+03  0.50400001928E-02 0. -1.
</event>
<event>
 5   0  0.7025426E-04  0.1331559E+04  0.7818609E-02  0.9004906E-01
       -2   -1    0    0    0  501  0.00000000000E+00  0.00000000000E+00  0.57280612486E+03  0.57280612486E+03  0.25500000920E-02 0. -1.
        2   -1    0    0  501    0  0.00000000000E+00  0.00000000000E+00 -0.77384372269E+03  0.77384372269E+03  0.25500000920E-02 0.  1.
    10030    2    1    2    0    0  0.00000000000E+00  0.00000000000E+00 -0.20103759783E+03  0.13466498476E+04  0.13315591223E+04 0.  0.
        2    1    3    3  502    0 -0.55409092590E+03 -0.10075899105E+03 -0.45963932605E+03  0.72693702512E+03  0.25500000920E-02 0.  1.
       -2    1    3    3    0  502  0.55409092590E+03  0.10075899105E+03  0.25860172822E+03  0.61971282243E+03  0.25500000920E-02 0. -1.
</event>
<event>
 5   0  0.6746664E-04  0.1699365E+04  0.7818609E-02  0.8761727E-01
       -2   -1    0    0    0  501  0.00000000000E+00  0.00000000000E+00  0.64027952179E+03  0.64027952180E+03  0.25500000920E-02 0.  1.
        2   -1    0    0  501    0  0.00000000000E+00  0.00000000000E+00 -0.11275701469E+04  0.11275701469E+04  0.25500000920E-02 0. -1.
    10030    2    1    2    0    0  0.00000000000E+00  0.00000000000E+00 -0.48729062514E+03  0.17678496687E+04  0.16993646748E+04 0.  0.
        5    1    3    3  502    0  0.31567925967E+03  0.28540890103E+03  0.52140089436E+03  0.67304726314E+03  0.46999998093E+01 0. -1.
       -5    1    3    3    0  502 -0.31567925967E+03 -0.28540890103E+03 -0.10086915195E+04  0.10948024056E+04  0.46999998093E+01 0.  1.
</event>
<event>
 5   0  0.3915701E-04  0.1701448E+04  0.7818609E-02  0.8760539E-01
       -1   -1    0    0    0  501  0.00000000000E+00  0.00000000000E+00  0.11940955203E+04  0.11940955203E+04  0.50400001928E-02 0. -1.
        1   -1    0    0  501    0  0.00000000000E+00  0.00000000000E+00 -0.60609175082E+03  0.60609175084E+03  0.50400001928E-02 0.  1.
    10030    2    1    2    0    0  0.00000000000E+00  0.00000000000E+00  0.58800376948E+03  0.18001872712E+04  0.17014481415E+04 0.  0.
        2    1    3    3  502    0  0.41081629893E+03  0.11151591175E+03  0.10733098113E+04  0.11546427071E+04  0.25500000920E-02 0. -1.
       -2    1    3    3    0  502 -0.41081629893E+03 -0.11151591175E+03 -0.48530604177E+03  0.64554456409E+03  0.25500000920E-02 0.  1.
</event>
<event>
 5   0  0.7025426E-04  0.1532580E+04  0.7818609E-02  0.8863072E-01
       -2   -1    0    0    0  501  0.00000000000E+00  0.00000000000E+00  0.55842864982E+03  0.55842864983E+03  0.25500000920E-02 0. -1.
        2   -1    0    0  501    0  0.00000000000E+00  0.00000000000E+00 -0.10515228662E+04  0.10515228662E+04  0.25500000920E-02 0.  1.
    10030    2    1    2    0    0  0.00000000000E+00  0.00000000000E+00 -0.49309421635E+03  0.16099515160E+04  0.15325801701E+04 0.  0.
        2    1    3    3  502    0 -0.34884788012E+03 -0.26984758725E+03  0.41173700192E+03  0.60335720975E+03  0.25500000920E-02 0. -1.
       -2    1    3    3    0  502  0.34884788012E+03  0.26984758725E+03 -0.90483121827E+03  0.10065943062E+04  0.25500000920E-02 0.  1.
</event>
<event>
 5   0  0.7242144E-04  0.1692030E+04  0.7818609E-02  0.8765923E-01
       -2   -1    0    0    0  501  0.00000000000E+00  0.00000000000E+00  0.44946475389E+03  0.44946475390E+03  0.25500000920E-02 0.  1.
        2   -1    0    0  501    0  0.00000000000E+00  0.00000000000E+00 -0.15924295755E+04  0.15924295755E+04  0.25500000920E-02 0. -1.
    10030    2    1    2    0    0  0.00000000000E+00  0.00000000000E+00 -0.11429648216E+04  0.20418943294E+04  0.16920295119E+04 0.  0.
        3    1    3    3  502    0 -0.26514420062E+02 -0.78853795836E+03 -0.93998457339E+03  0.12272188618E+04  0.10100000352E+00 0. -1.
       -3    1    3    3    0  502  0.26514420062E+02  0.78853795836E+03 -0.20298024825E+03  0.81467546767E+03  0.10100000352E+00 0.  1.
</event>
<event>
 5   0  0.3713516E-04  0.1704044E+04  0.7818609E-02  0.8759061E-01
        1   -1    0    0  501    0  0.00000000000E+00  0.00000000000E+00  0.10320448329E+04  0.10320448329E+04  0.50400001928E-02 0. -1.
       -1   -1    0    0    0  501  0.00000000000E+00  0.00000000000E+00 -0.70340128771E+03  0.70340128773E+03  0.50400001928E-02 0.  1.
    10030    2    1    2    0    0  0.00000000000E+00  0.00000000000E+00  0.32864354516E+03  0.17354461206E+04  0.17040442065E+04 0.  0.
        5    1    3    3  502    0  0.27815116270E+03  0.79878739913E+03  0.60012700545E+02  0.84796992431E+03  0.46999998093E+01 0.  1.
       -5    1    3    3    0  502 -0.27815116270E+03 -0.79878739913E+03  0.26863084461E+03  0.88747619629E+03  0.46999998093E+01 0. -1.
</event>
<event>
 5   0  0.3713516E-04  0.2020073E+04  0.7818609E-02  0.8597293E-01
       -1   -1    0    0    0  501  0.00000000000E+00  0.00000000000E+00  0.15980209464E+04  0.15980209464E+04  0.50400001928E-02 0. -1.
        1   -1    0    0  501    0  0.00000000000E+00  0.00000000000E+00 -0.63839803506E+03  0.63839803508E+03  0.50400001928E-02 0.  1.
    10030    2    1    2    0    0  0.00000000000E+00  0.00000000000E+00  0.95962291133E+03  0.22364189815E+04  0.20200727038E+04 0.  0.
        5    1    3    3  502    0  0.88134993201E+03  0.16991203838E+03 -0.32935865422E+02  0.89819522637E+03  0.46999998093E+01 0.  1.
       -5    1    3    3    0  502 -0.88134993201E+03 -0.16991203838E+03  0.99255877676E+03  0.13382237551E+04  0.46999998093E+01 0. -1.
</event>
<event>
 5   0  0.7233728E-04  0.1818472E+04  0.7818609E-02  0.8696537E-01
       -2   -1    0    0    0  501  0.00000000000E+00  0.00000000000E+00  0.10190459906E+04  0.10190459906E+04  0.25500000920E-02 0.  1.
        2   -1    0    0  501    0  0.00000000000E+00  0.00000000000E+00 -0.81125922759E+03  0.81125922760E+03  0.25500000920E-02 0. -1.
    10030    2    1    2    0    0  0.00000000000E+00  0.00000000000E+00  0.20778676302E+03  0.18303052182E+04  0.18184723954E+04 0.  0.
        1    1    3    3  502    0 -0.63254309972E+03  0.10169037890E+03  0.75327276515E+03  0.98887388726E+03  0.50400001928E-02 0.  1.
       -1    1    3    3    0  502  0.63254309972E+03 -0.10169037890E+03 -0.54548600213E+03  0.84143133095E+03  0.50400001928E-02 0. -1.
</event>
<event>
 5   0  0.3803253E-04  0.1683343E+04  0.7818609E-02  0.8770922E-01
        1   -1    0    0  501    0  0.00000000000E+00  0.00000000000E+00  0.60062435027E+03  0.60062435029E+03  0.50400001928E-02 0.  1.
       -1   -1    0    0    0  501  0.00000000000E+00  0.00000000000E+00 -0.11794568668E+04  0.11794568668E+04  0.50400001928E-02 0. -1.
    10030    2    1    2    0    0  0.00000000000E+00  0.00000000000E+00 -0.57883251655E+03  0.17800812171E+04  0.16833425252E+04 0.  0.
        4    1    3    3  502    0  0.27156287443E+03  0.10570045507E+03  0.54557521626E+03  0.61852478565E+03  0.12699999809E+01 0.  1.
       -4    1    3    3    0  502 -0.27156287443E+03 -0.10570045507E+03 -0.11244077328E+04  0.11615564315E+04  0.12699999809E+01 0. -1.
</event>
<event>
 5   0  0.3915701E-04  0.1725377E+04  0.7818609E-02  0.8747022E-01
        1   -1    0    0  501    0  0.00000000000E+00  0.00000000000E+00  0.74359071382E+03  0.74359071384E+03  0.50400001928E-02 0. -1.
       -1   -1    0    0    0  501  0.00000000000E+00  0.00000000000E+00 -0.10008615288E+04  0.10008615288E+04  0.50400001928E-02 0.  1.
    10030    2    1    2    0    0  0.00000000000E+00  0.00000000000E+00 -0.25727081500E+03  0.17444522427E+04  0.17253768732E+04 0.  0.
        2    1    3    3  502    0  0.44345188705E+02  0.54524424321E+03  0.54580287559E+03  0.77276035064E+03  0.25500000920E-02 0. -1.
       -2    1    3    3    0  502 -0.44345188705E+02 -0.54524424321E+03 -0.80307369059E+03  0.97169189203E+03  0.25500000920E-02 0.  1.
</event>
<event>
 5   0  0.7049044E-04  0.1764226E+04  0.7818609E-02  0.8725558E-01
        2   -1    0    0  501    0  0.00000000000E+00  0.00000000000E+00  0.73190498077E+03  0.73190498077E+03  0.25500000920E-02 0. -1.
       -2   -1    0    0    0  501  0.00000000000E+00  0.00000000000E+00 -0.10631482946E+04  0.10631482946E+04  0.25500000920E-02 0.  1.
    10030    2    1    2    0    0  0.00000000000E+00  0.00000000000E+00 -0.33124331387E+03  0.17950532754E+04  0.17642262124E+04 0.  0.
        4    1    3    3  502    0 -0.22184375190E+02  0.22319414725E+03  0.70240551096E+03  0.73734855299E+03  0.12699999809E+01 0. -1.
       -4    1    3    3    0  502  0.22184375190E+02 -0.22319414725E+03 -0.10336488248E+04  0.10577047224E+04  0.12699999809E+01 0.  1.
</event>
<event>
 5   0  0.7025426E-04  0.1715826E+04  0.7818609E-02  0.8752390E-01
        2   -1    0    0  501    0  0.00000000000E+00  0.00000000000E+00  0.58434600887E+03  0.58434600888E+03  0.25500000920E-02 0. -1.
       -2   -1    0    0    0  501  0.00000000000E+00  0.00000000000E+00 -0.12595522466E+04  0.12595522466E+04  0.25500000920E-02 0.  1.
    10030    2    1    2    0    0  0.00000000000E+00  0.00000000000E+00 -0.67520623772E+03  0.18438982555E+04  0.17158255486E+04 0.  0.
        2    1    3    3  502    0  0.48018156728E+03 -0.39910319405E+03  0.29466335104E+03  0.69042319451E+03  0.25500000920E-02 0. -1.
       -2    1    3    3    0  502 -0.48018156728E+03  0.39910319405E+03 -0.96986958876E+03  0.11534750610E+04  0.25500000920E-02 0.  1.
</event>
<event>
 5   0  0.7242144E-04  0.1160906E+04  0.7818609E-02  0.9147780E-01
        2   -1    0    0  501    0  0.00000000000E+00  0.00000000000E+00  0.40531143091E+03  0.40531143092E+03  0.25500000920E-02 0. -1.
       -2   -1    0    0    0  501  0.00000000000E+00  0.00000000000E+00 -0.83127676283E+03  0.83127676283E+03  0.25500000920E-02 0.  1.
    10030    2    1    2    0    0  0.00000000000E+00  0.00000000000E+00 -0.42596533192E+03  0.12365881938E+04  0.11609064979E+04 0.  0.
        3    1    3    3  502    0  0.15634506413E+03  0.22528463531E+02  0.38197697867E+03  0.41334940811E+03  0.10100000352E+00 0. -1.
       -3    1    3    3    0  502 -0.15634506413E+03 -0.22528463531E+02 -0.80794231059E+03  0.82323878565E+03  0.10100000352E+00 0.  1.
</event>
<event>
 5   0  0.2639750E-04  0.1693336E+04  0.7818609E-02  0.8765174E-01
       -4   -1    0    0    0  501  0.00000000000E+00  0.00000000000E+00  0.10522418696E+04  0.10522426360E+04  0.12699999809E+01 0.  1.
        4   -1    0    0  501    0  0.00000000000E+00  0.00000000000E+00 -0.68125524656E+03  0.68125643033E+03  0.12699999809E+01 0. -1.
    10030    2    1    2    0    0  0.00000000000E+00  0.00000000000E+00  0.37098662302E+03  0.17334990663E+04  0.16933363335E+04 0.  0.
        2    1    3    3  502    0 -0.35100095925E+03  0.64388434588E+03 -0.24769583353E+03  0.77404260233E+03  0.25500000920E-02 0.  1.
       -2    1    3    3    0  502  0.35100095925E+03 -0.64388434588E+03  0.61868245654E+03  0.95945646400E+03  0.25500000920E-02 0. -1.
</event>
<event>
 5   0  0.7049044E-04  0.1797997E+04  0.7818609E-02  0.8707366E-01
        2   -1    0    0  501    0  0.00000000000E+00  0.00000000000E+00  0.22056813365E+04  0.22056813365E+04  0.25500000920E-02 0.  1.
       -2   -1    0    0    0  501  0.00000000000E+00  0.00000000000E+00 -0.36641651175E+03  0.36641651176E+03  0.25500000920E-02 0. -1.
    10030    2    1    2    0    0  0.00000000000E+00  0.00000000000E+00  0.18392648247E+04  0.25720978482E+04  0.17979967312E+04 0.  0.
        4    1    3    3  502    0  0.49726947011E+03 -0.64764674157E+02 -0.14774737251E+03  0.52278321311E+03  0.12699999809E+01 0. -1.
       -4    1    3    3    0  502 -0.49726947011E+03  0.64764674157E+02  0.19870121972E+04  0.20493146351E+04  0.12699999809E+01 0.  1.
</event>
<event>
 5   0  0.7242144E-04  0.1671864E+04  0.7818609E-02  0.8777576E-01
        2   -1    0    0  501    0  0.00000000000E+00  0.00000000000E+00  0.49893521942E+03  0.49893521943E+03  0.25500000920E-02 0.  1.
       -2   -1    0    0    0  501  0.00000000000E+00  0.00000000000E+00 -0.14005470618E+04  0.14005470618E+04  0.25500000920E-02 0. -1.
    10030    2    1    2    0    0  0.00000000000E+00  0.00000000000E+00 -0.90161184233E+03  0.18994822812E+04  0.16718639365E+04 0.  0.
        3    1    3    3  502    0  0.49821989715E+03 -0.62810322689E+03 -0.71977648431E+03  0.10774112154E+04  0.10100000352E+00 0. -1.
       -3    1    3    3    0  502 -0.49821989715E+03  0.62810322689E+03 -0.18183535802E+03  0.82207106577E+03  0.10100000352E+00 0.  1.
</event>
<event>
 5   0  0.3635143E-04  0.1660906E+04  0.7818609E-02  0.8783981E-01
       -1   -1    0    0    0  501  0.00000000000E+00  0.00000000000E+00  0.58900365607E+03  0.58900365609E+03  0.50400001928E-02 0.  1.
        1   -1    0    0  501    0  0.00000000000E+00  0.00000000000E+00 -0.11708789835E+04  0.11708789835E+04  0.50400001928E-02 0. -1.
    10030    2    1    2    0    0  0.00000000000E+00  0.00000000000E+00 -0.58187532744E+03  0.17598826396E+04  0.16609057795E+04 0.  0.
        3    1    3    3  502    0  0.51563974810E+03 -0.54733880308E+03 -0.66434110137E+03  0.10034008294E+04  0.10100000352E+00 0. -1.
       -3    1    3    3    0  502 -0.51563974810E+03  0.54733880308E+03  0.82465773925E+02  0.75648181026E+03  0.10100000352E+00 0.  1.
</event>
<event>
 5   0  0.7242144E-04  0.1723523E+04  0.7818609E-02  0.8748061E-01
        2   -1    0    0  501    0  0.00000000000E+00  0.00000000000E+00  0.15514770622E+04  0.15514770622E+04  0.25500000920E-02 0.  1.
       -2   -1    0    0    0  501  0.00000000000E+00  0.00000000000E+00 -0.47866198611E+03  0.47866198612E+03  0.25500000920E-02 0. -1.
    10030    2    1    2    0    0  0.00000000000E+00  0.00000000000E+00  0.10728150761E+04  0.20301390484E+04  0.17235232427E+04 0.  0.
        3    1    3    3  502    0 -0.59257232548E+03  0.53613428830E+03  0.15645261707E+03  0.81428457409E+03  0.10100000352E+00 0. -1.
       -3    1    3    3    0  502  0.59257232548E+03 -0.53613428830E+03  0.91636245905E+03  0.12158544743E+04  0.10100000352E+00 0.  1.
</event>
<event>
 5   0  0.3915701E-04  0.1710030E+04  0.7818609E-02  0.8755664E-01
       -1   -1    0    0    0  501  0.00000000000E+00  0.00000000000E+00  0.51736504803E+03  0.51736504805E+03  0.50400001928E-02 0. -1.
        1   -1    0    0  501    0  0.00000000000E+00  0.00000000000E+00 -0.14130273480E+04  0.14130273480E+04  0.50400001928E-02 0.  1.
    10030    2    1    2    0    0  0.00000000000E+00  0.00000000000E+00 -0.89566229998E+03  0.19303923961E+04  0.17100303644E+04 0.  0.
        2    1    3    3  502    0 -0.49391871105E+03  0.64588992775E+03 -0.14932928363E+03  0.82669748206E+03  0.25500000920E-02 0. -1.
       -2    1    3    3    0  502  0.49391871105E+03 -0.64588992775E+03 -0.74633301636E+03  0.11036949140E+04  0.25500000920E-02 0.  1.
</event>
<event>
 5   0  0.3723500E-04  0.1634122E+04  0.7818609E-02  0.8799855E-01
       -1   -1    0    0    0  501  0.00000000000E+00  0.00000000000E+00  0.11288824555E+04  0.11288824555E+04  0.50400001928E-02 0. -1.
        1   -1    0    0  501    0  0.00000000000E+00  0.00000000000E+00 -0.59137160272E+03  0.59137160274E+03  0.50400001928E-02 0.  1.
    10030    2    1    2    0    0  0.00000000000E+00  0.00000000000E+00  0.53751085276E+03  0.17202540582E+04  0.16341224275E+04 0.  0.
        1    1    3    3  502    0 -0.66911978485E+03  0.33395024606E+03  0.61526272335E+03  0.96839675345E+03  0.50400001928E-02 0. -1.
       -1    1    3    3    0  502  0.66911978485E+03 -0.33395024606E+03 -0.77751870591E+02  0.75185730477E+03  0.50400001928E-02 0.  1.
</event>
<event>
 5   0  0.7049044E-04  0.1707725E+04  0.7818609E-02  0.8756971E-01
        2   -1    0    0  501    0  0.00000000000E+00  0.00000000000E+00  0.13332049389E+04  0.13332049389E+04  0.25500000920E-02 0.  1.
       -2   -1    0    0    0  501  0.00000000000E+00  0.00000000000E+00 -0.54686363799E+03  0.54686363799E+03  0.25500000920E-02 0. -1.
    10030    2    1    2    0    0  0.00000000000E+00  0.00000000000E+00  0.78634130090E+03  0.18800685769E+04  0.17077251571E+04 0.  0.
        4    1    3    3  502    0 -0.78023459409E+03  0.19623721480E+03  0.70805033426E+03  0.10717331548E+04  0.12699999809E+01 0.  1.
       -4    1    3    3    0  502  0.78023459409E+03 -0.19623721480E+03  0.78290966636E+02  0.80833542211E+03  0.12699999809E+01 0. -1.
</event>
<event>
 5   0  0.7049044E-04  0.1728062E+04  0.7818609E-02  0.8745519E-01
        2   -1    0    0  501    0  0.00000000000E+00  0.00000000000E+00  0.83979207115E+03  0.83979207116E+03  0.25500000920E-02 0. -1.
       -2   -1    0    0    0  501  0.00000000000E+00  0.00000000000E+00 -0.88896970186E+03  0.88896970187E+03  0.25500000920E-02 0.  1.
    10030    2    1    2    0    0  0.00000000000E+00  0.00000000000E+00 -0.49177630711E+02  0.17287617730E+04  0.17280621599E+04 0.  0.
        4    1    3    3  502    0 -0.22170931572E+02  0.78068779911E+03  0.34513232172E+03  0.85386352673E+03  0.12699999809E+01 0. -1.
       -4    1    3    3    0  502  0.22170931572E+02 -0.78068779911E+03 -0.39430995243E+03  0.87489824629E+03  0.12699999809E+01 0.  1.
</event>
<event>
 5   0  0.7049044E-04  0.1678316E+04  0.7818609E-02  0.8773829E-01
       -2   -1    0    0    0  501  0.00000000000E+00  0.00000000000E+00  0.49582556736E+03  0.49582556737E+03  0.25500000920E-02 0.  1.
        2   -1    0    0  501    0  0.00000000000E+00  0.00000000000E+00 -0.14202295553E+04  0.14202295553E+04  0.25500000920E-02 0. -1.
    10030    2    1    2    0    0  0.00000000000E+00  0.00000000000E+00 -0.92440398794E+03  0.19160551227E+04  0.16783159715E+04 0.  0.
        4    1    3    3  502    0 -0.43721382320E+03  0.67721520940E+03 -0.72849896807E+03  0.10865029804E+04  0.12699999809E+01 0. -1.
       -4    1    3    3    0  502  0.43721382320E+03 -0.67721520940E+03 -0.19590501987E+03  0.82955214227E+03  0.12699999809E+01 0.  1.
</event>
<event>
 5   0  0.2639750E-04  0.1691748E+04  0.7818609E-02  0.8766085E-01
       -3   -1    0    0    0  501  0.00000000000E+00  0.00000000000E+00  0.46691513056E+03  0.46691514149E+03  0.10100000352E+00 0.  1.
        3   -1    0    0  501    0  0.00000000000E+00  0.00000000000E+00 -0.15324049731E+04  0.15324049764E+04  0.10100000352E+00 0. -1.
    10030    2    1    2    0    0  0.00000000000E+00  0.00000000000E+00 -0.10654898425E+04  0.19993201179E+04  0.16917483055E+04 0.  0.
        3    1    3    3  502    0 -0.40883851217E+03  0.60732785511E+03 -0.10334561189E+04  0.12665021171E+04  0.10100000352E+00 0. -1.
       -3    1    3    3    0  502  0.40883851217E+03 -0.60732785511E+03 -0.32033723562E+02  0.73281800078E+03  0.10100000352E+00 0.  1.
</event>
<event>
 5   0  0.3723500E-04  0.1677865E+04  0.7818609E-02  0.8774090E-01
        1   -1    0    0  501    0  0.00000000000E+00  0.00000000000E+00  0.12734146320E+04  0.12734146320E+04  0.50400001928E-02 0.  1.
       -1   -1    0    0    0  501  0.00000000000E+00  0.00000000000E+00 -0.55269346042E+03  0.55269346044E+03  0.50400001928E-02 0. -1.
    10030    2    1    2    0    0  0.00000000000E+00  0.00000000000E+00  0.72072117154E+03  0.18261080924E+04  0.16778652384E+04 0.  0.
        1    1    3    3  502    0 -0.15993731453E+03  0.15000276609E+03 -0.52095407030E+03  0.56522023831E+03  0.50400001928E-02 0. -1.
       -1    1    3    3    0  502  0.15993731453E+03 -0.15000276609E+03  0.12416752418E+04  0.12608878541E+04  0.50400001928E-02 0.  1.
</event>
<event>
 5   0  0.2639750E-04  0.1709936E+04  0.7818609E-02  0.8755718E-01
        3   -1    0    0  501    0  0.00000000000E+00  0.00000000000E+00  0.73642320246E+03  0.73642320939E+03  0.10100000352E+00 0. -1.
       -3   -1    0    0    0  501  0.00000000000E+00  0.00000000000E+00 -0.99259535746E+03  0.99259536260E+03  0.10100000352E+00 0.  1.
    10030    2    1    2    0    0  0.00000000000E+00  0.00000000000E+00 -0.25617215500E+03  0.17290185720E+04  0.17099359781E+04 0.  0.
        5    1    3    3  502    0 -0.49836096997E+03 -0.63516277421E+03 -0.41256680929E+03  0.90665807682E+03  0.46999998093E+01 0.  1.
       -5    1    3    3    0  502  0.49836096997E+03  0.63516277421E+03  0.15639465429E+03  0.82236049517E+03  0.46999998093E+01 0. -1.
</event>
<event>
 5   0  0.7242144E-04  0.1699755E+04  0.7818609E-02  0.8761504E-01
        2   -1    0    0  501    0  0.00000000000E+00  0.00000000000E+00  0.11153558082E+04  0.11153558082E+04  0.25500000920E-02 0. -1.
       -2   -1    0    0    0  501  0.00000000000E+00  0.00000000000E+00 -0.64758840356E+03  0.64758840357E+03  0.25500000920E-02 0.  1.
    10030    2    1    2    0    0  0.00000000000E+00  0.00000000000E+00  0.46776740461E+03  0.17629442117E+04  0.16997546732E+04 0.  0.
        3    1    3    3  502    0  0.49240261385E+03 -0.19035005338E+03  0.92467540930E+03  0.10647619921E+04  0.10100000352E+00 0. -1.
       -3    1    3    3    0  502 -0.49240261385E+03  0.19035005338E+03 -0.45690800469E+03  0.69818221970E+03  0.10100000352E+00 0.  1.
</event>
<event>
 5   0  0.7233728E-04  0.1101865E+04  0.7818609E-02  0.9203376E-01
        2   -1    0    0  501    0  0.00000000000E+00  0.00000000000E+00  0.29678527202E+03  0.29678527204E+03  0.25500000920E-02 0.  1.
       -2   -1    0    0    0  501  0.00000000000E+00  0.00000000000E+00 -0.10227139408E+04  0.10227139408E+04  0.25500000920E-02 0. -1.
    10030    2    1    2    0    0  0.00000000000E+00  0.00000000000E+00 -0.72592866876E+03  0.13194992128E+04  0.11018646652E+04 0.  0.
        1    1    3    3  502    0  0.33750046881E+01  0.29856790760E+03  0.19148920646E+03  0.35471439542E+03  0.50400001928E-02 0.  1.
       -1    1    3    3    0  502 -0.33750046881E+01 -0.29856790760E+03 -0.91741787522E+03  0.96478481741E+03  0.50400001928E-02 0. -1.
</event>
<event>
 5   0  0.2639750E-04  0.1802904E+04  0.7818609E-02  0.8704757E-01
        4   -1    0    0  501    0  0.00000000000E+00  0.00000000000E+00  0.59832283001E+03  0.59832417786E+03  0.12699999809E+01 0. -1.
       -4   -1    0    0    0  501  0.00000000000E+00  0.00000000000E+00 -0.13581531344E+04  0.13581537282E+04  0.12699999809E+01 0.  1.
    10030    2    1    2    0    0  0.00000000000E+00  0.00000000000E+00 -0.75983030440E+03  0.19564779061E+04  0.18029042419E+04 0.  0.
        4    1    3    3  502    0  0.86549959903E+03  0.17157956996E+03 -0.17956703468E+03  0.90043047349E+03  0.12699999809E+01 0.  1.
       -4    1    3    3    0  502 -0.86549959903E+03 -0.17157956996E+03 -0.58026326972E+03  0.10560474326E+04  0.12699999809E+01 0. -1.
</event>
<event>
 5   0  0.3723500E-04  0.1694257E+04  0.7818609E-02  0.8764646E-01
        1   -1    0    0  501    0  0.00000000000E+00  0.00000000000E+00  0.90366370891E+03  0.90366370893E+03  0.50400001928E-02 0.  1.
       -1   -1    0    0    0  501  0.00000000000E+00  0.00000000000E+00 -0.79413055458E+03  0.79413055460E+03  0.50400001928E-02 0. -1.
    10030    2    1    2    0    0  0.00000000000E+00  0.00000000000E+00  0.10953315433E+03  0.16977942635E+04  0.16942573150E+04 0.  0.
        1    1    3    3  502    0  0.25489289650E+02 -0.83824066372E+03 -0.65190668736E+02  0.84115809305E+03  0.50400001928E-02 0. -1.
       -1    1    3    3    0  502 -0.25489289650E+02  0.83824066372E+03  0.17472382307E+03  0.85663617047E+03  0.50400001928E-02 0.  1.
</event>
<event>
 5   0  0.3915701E-04  0.1699946E+04  0.7818609E-02  0.8761395E-01
        1   -1    0    0  501    0  0.00000000000E+00  0.00000000000E+00  0.10438900950E+04  0.10438900951E+04  0.50400001928E-02 0.  1.
       -1   -1    0    0    0  501  0.00000000000E+00  0.00000000000E+00 -0.69207890327E+03  0.69207890328E+03  0.50400001928E-02 0. -1.
    10030    2    1    2    0    0  0.00000000000E+00  0.00000000000E+00  0.35181119178E+03  0.17359689983E+04  0.16999462487E+04 0.  0.
        2    1    3    3  502    0 -0.39667461195E+03  0.67048039332E+03 -0.17123851563E+03  0.79763233061E+03  0.25500000920E-02 0. -1.
       -2    1    3    3    0  502  0.39667461195E+03 -0.67048039332E+03  0.52304970740E+03  0.93833666773E+03  0.25500000920E-02 0.  1.
</event>
<event>
 5   0  0.7242144E-04  0.1691517E+04  0.7818609E-02  0.8766217E-01
       -2   -1    0    0    0  501  0.00000000000E+00  0.00000000000E+00  0.16066463220E+04  0.16066463220E+04  0.25500000920E-02 0.  1.
        2   -1    0    0  501    0  0.00000000000E+00  0.00000000000E+00 -0.44521784380E+03  0.44521784381E+03  0.25500000920E-02 0. -1.
    10030    2    1    2    0    0  0.00000000000E+00  0.00000000000E+00  0.11614284782E+04  0.20518641658E+04  0.16915172021E+04 0.  0.
        3    1    3    3  502    0  0.34883664533E+03  0.44009093153E+03 -0.18641744022E+03  0.59170812514E+03  0.10100000352E+00 0. -1.
       -3    1    3    3    0  502 -0.34883664533E+03 -0.44009093153E+03  0.13478459184E+04  0.14601560407E+04  0.10100000352E+00 0.  1.
</event>
<event>
 5   0  0.3915701E-04  0.1655196E+04  0.7818609E-02  0.8787339E-01
       -1   -1    0    0    0  501  0.00000000000E+00  0.00000000000E+00  0.43192487805E+03  0.43192487808E+03  0.50400001928E-02 0.  1.
        1   -1    0    0  501    0  0.00000000000E+00  0.00000000000E+00 -0.15857348089E+04  0.15857348089E+04  0.50400001928E-02 0. -1.
    10030    2    1    2    0    0  0.00000000000E+00  0.00000000000E+00 -0.11538099309E+04  0.20176596870E+04  0.16551958361E+04 0.  0.
        2    1    3    3  502    0  0.53433791920E+02  0.65696627577E+03 -0.11869562999E+04  0.13576910973E+04  0.25500000920E-02 0. -1.
       -2    1    3    3    0  502 -0.53433791920E+02 -0.65696627577E+03  0.33146369088E+02  0.65996858972E+03  0.25500000920E-02 0.  1.
</event>
<event>
 5   0  0.7025426E-04  0.1649203E+04  0.7818609E-02  0.8790878E-01
       -2   -1    0    0    0  501  0.00000000000E+00  0.00000000000E+00  0.10543724469E+04  0.10543724469E+04  0.25500000920E-02 0.  1.
        2   -1    0    0  501    0  0.00000000000E+00  0.00000000000E+00 -0.64490294629E+03  0.64490294630E+03  0.25500000920E-02 0. -1.
    10030    2    1    2    0    0  0.00000000000E+00  0.00000000000E+00  0.40946950056E+03  0.16992753932E+04  0.16492033198E+04 0.  0.
        2    1    3    3  502    0 -0.16166406297E+03 -0.20350109230E+03 -0.60159786564E+03  0.65533804694E+03  0.25500000920E-02 0. -1.
       -2    1    3    3    0  502  0.16166406297E+03  0.20350109230E+03  0.10110673662E+04  0.10439373462E+04  0.25500000920E-02 0.  1.
</event>
<event>
 5   0  0.3635143E-04  0.1692553E+04  0.7818609E-02  0.8765623E-01
       -1   -1    0    0    0  501  0.00000000000E+00  0.00000000000E+00  0.15584560753E+04  0.15584560753E+04  0.50400001928E-02 0. -1.
        1   -1    0    0  501    0  0.00000000000E+00  0.00000000000E+00 -0.45954700107E+03  0.45954700110E+03  0.50400001928E-02 0.  1.
    10030    2    1    2    0    0  0.00000000000E+00  0.00000000000E+00  0.10989090742E+04  0.20180030764E+04  0.16925528834E+04 0.  0.
        3    1    3    3  502    0  0.17017008787E+03  0.33783841712E+03  0.14520464296E+04  0.15005104128E+04  0.10100000352E+00 0. -1.
       -3    1    3    3    0  502 -0.17017008787E+03 -0.33783841712E+03 -0.35313735541E+03  0.51749266360E+03  0.10100000352E+00 0.  1.
</event>
<event>
 5   0  0.3723500E-04  0.1692187E+04  0.7818609E-02  0.8765833E-01
        1   -1    0    0  501    0  0.00000000000E+00  0.00000000000E+00  0.18111418551E+04  0.18111418551E+04  0.50400001928E-02 0. -1.
       -1   -1    0    0    0  501  0.00000000000E+00  0.00000000000E+00 -0.39526124464E+03  0.39526124468E+03  0.50400001928E-02 0.  1.
    10030    2    1    2    0    0  0.00000000000E+00  0.00000000000E+00  0.14158806105E+04  0.22064030998E+04  0.16921869683E+04 0.  0.
        1    1    3    3  502    0 -0.16105733353E+03 -0.75311302862E+03  0.11647727776E+04  0.13963575194E+04  0.50400001928E-02 0. -1.
       -1    1    3    3    0  502  0.16105733353E+03  0.75311302862E+03  0.25110783288E+03  0.81004558040E+03  0.50400001928E-02 0.  1.
</event>
<event>
 5   0  0.7049044E-04  0.1611242E+04  0.7818609E-02  0.8813671E-01
       -2   -1    0    0    0  501  0.00000000000E+00  0.00000000000E+00  0.79918085058E+03  0.79918085058E+03  0.25500000920E-02 0.  1.
        2   -1    0    0  501    0  0.00000000000E+00  0.00000000000E+00 -0.81211319518E+03  0.81211319518E+03  0.25500000920E-02 0. -1.
    10030    2    1    2    0    0  0.00000000000E+00  0.00000000000E+00 -0.12932344598E+02  0.16112940458E+04  0.16112421470E+04 0.  0.
        4    1    3    3  502    0  0.57518560837E+03 -0.50365004123E+03 -0.26048587568E+03  0.80768580056E+03  0.12699999809E+01 0. -1.
       -4    1    3    3    0  502 -0.57518560837E+03  0.50365004123E+03  0.24755353108E+03  0.80360824520E+03  0.12699999809E+01 0.  1.
</event>
<event>
 5   0  0.6746664E-04  0.1721294E+04  0.7818609E-02  0.8749312E-01
        2   -1    0    0  501    0  0.00000000000E+00  0.00000000000E+00  0.75915108659E+03  0.75915108660E+03  0.25500000920E-02 0. -1.
       -2   -1    0    0    0  501  0.00000000000E+00  0.00000000000E+00 -0.97571203884E+03  0.97571203884E+03  0.25500000920E-02 0.  1.
    10030    2    1    2    0    0  0.00000000000E+00  0.00000000000E+00 -0.21656095225E+03  0.17348631254E+04  0.17212935305E+04 0.  0.
        5    1    3    3  502    0 -0.26887061173E+03  0.73313254678E+02 -0.92896279402E+03  0.96987638482E+03  0.46999998093E+01 0.  1.
       -5    1    3    3    0  502  0.26887061173E+03 -0.73313254678E+02  0.71240184177E+03  0.76498674062E+03  0.46999998093E+01 0. -1.
</event>
<event>
 5   0  0.3915701E-04  0.1630672E+04  0.7818609E-02  0.8801924E-01
        1   -1    0    0  501    0  0.00000000000E+00  0.00000000000E+00  0.82846895049E+03  0.82846895050E+03  0.50400001928E-02 0.  1.
       -1   -1    0    0    0  501  0.00000000000E+00  0.00000000000E+00 -0.80241110773E+03  0.80241110775E+03  0.50400001928E-02 0. -1.
    10030    2    1    2    0    0  0.00000000000E+00  0.00000000000E+00  0.26057842753E+02  0.16308800583E+04  0.16306718717E+04 0.  0.
        2    1    3    3  502    0  0.17482144280E+03  0.57606729679E+03 -0.53691092004E+03  0.80665321134E+03  0.25500000920E-02 0. -1.
       -2    1    3    3    0  502 -0.17482144280E+03 -0.57606729679E+03  0.56296876279E+03  0.82422684692E+03  0.25500000920E-02 0.  1.
</event>
<event>
 5   0  0.3915701E-04  0.1705236E+04  0.7818609E-02  0.8758384E-01
        1   -1    0    0  501    0  0.00000000000E+00  0.00000000000E+00  0.15617195088E+04  0.15617195088E+04  0.50400001928E-02 0. -1.
       -1   -1    0    0    0  501  0.00000000000E+00  0.00000000000E+00 -0.46548506904E+03  0.46548506907E+03  0.50400001928E-02 0.  1.
    10030    2    1    2    0    0  0.00000000000E+00  0.00000000000E+00  0.10962344398E+04  0.20272045779E+04  0.17052356006E+04 0.  0.
        2    1    3    3  502    0  0.72532832744E+03  0.19805677516E+03  0.10260572732E+04  0.12720539284E+04  0.25500000920E-02 0. -1.
       -2    1    3    3    0  502 -0.72532832744E+03 -0.19805677516E+03  0.70177166562E+02  0.75515064953E+03  0.25500000920E-02 0.  1.
</event>
<event>
 5   0  0.3723500E-04  0.1690332E+04  0.7818609E-02  0.8766898E-01
        1   -1    0    0  501    0  0.00000000000E+00  0.00000000000E+00  0.11830301564E+04  0.11830301565E+04  0.50400001928E-02 0. -1.
       -1   -1    0    0    0  501  0.00000000000E+00  0.00000000000E+00 -0.60379322279E+03  0.60379322281E+03  0.50400001928E-02 0.  1.
    10030    2    1    2    0    0  0.00000000000E+00  0.00000000000E+00  0.57923693365E+03  0.17868233793E+04  0.16903320275E+04 0.  0.
        1    1    3    3  502    0  0.38264872684E+03  0.48432391902E+03  0.89991037418E+03  0.10912508365E+04  0.50400001928E-02 0. -1.
       -1    1    3    3    0  502 -0.38264872684E+03 -0.48432391902E+03 -0.32067344052E+03  0.69557254271E+03  0.50400001928E-02 0.  1.
</event>
<event>
 5   0  0.3713516E-04  0.1581580E+04  0.7818609E-02  0.8831945E-01
        1   -1    0    0  501    0  0.00000000000E+00  0.00000000000E+00  0.10169223920E+04  0.10169223920E+04  0.50400001928E-02 0. -1.
       -1   -1    0    0    0  501  0.00000000000E+00  0.00000000000E+00 -0.61494267087E+03  0.61494267089E+03  0.50400001928E-02 0.  1.
    10030    2    1    2    0    0  0.00000000000E+00  0.00000000000E+00  0.40197972116E+03  0.16318650629E+04  0.15815801868E+04 0.  0.
        5    1    3    3  502    0 -0.57361109351E+03 -0.12166636019E+03 -0.34643936532E+03  0.68108348507E+03  0.46999998093E+01 0.  1.
       -5    1    3    3    0  502  0.57361109351E+03  0.12166636019E+03  0.74841908649E+03  0.95078157787E+03  0.46999998093E+01 0. -1.
</event>
<event>
 5   0  0.3635143E-04  0.1690164E+04  0.7818609E-02  0.8766994E-01
        1   -1    0    0  501    0  0.00000000000E+00  0.00000000000E+00  0.94578855712E+03  0.94578855713E+03  0.50400001928E-02 0.  1.
       -1   -1    0    0    0  501  0.00000000000E+00  0.00000000000E+00 -0.75509859336E+03  0.75509859338E+03  0.50400001928E-02 0. -1.
    10030    2    1    2    0    0  0.00000000000E+00  0.00000000000E+00  0.19068996376E+03  0.17008871505E+04  0.16901640265E+04 0.  0.
        3    1    3    3  502    0  0.28843557222E+03  0.72470536509E+03  0.42263234713E+03  0.88713643627E+03  0.10100000352E+00 0.  1.
       -3    1    3    3    0  502 -0.28843557222E+03 -0.72470536509E+03 -0.23194238337E+03  0.81375071424E+03  0.10100000352E+00 0. -1.
</event>
<event>
 5   0  0.7233728E-04  0.1701565E+04  0.7818609E-02  0.8760472E-01
        2   -1    0    0  501    0  0.00000000000E+00  0.00000000000E+00  0.17574420162E+04  0.17574420162E+04  0.25500000920E-02 0.  1.
       -2   -1    0    0    0  501  0.00000000000E+00  0.00000000000E+00 -0.41186627673E+03  0.41186627674E+03  0.25500000920E-02 0. -1.
    10030    2    1    2    0    0  0.00000000000E+00  0.00000000000E+00  0.13455757394E+04  0.21693082929E+04  0.17015652791E+04 0.  0.
        1    1    3    3  502    0  0.66131170522E+03 -0.53462939127E+03  0.70577137364E+03  0.11051131116E+04  0.50400001928E-02 0.  1.
       -1    1    3    3    0  502 -0.66131170522E+03  0.53462939127E+03  0.63980436578E+03  0.10641951813E+04  0.50400001928E-02 0. -1.
</event>
<event>
 5   0  0.3713516E-04  0.1710654E+04  0.7818609E-02  0.8755311E-01
        1   -1    0    0  501    0  0.00000000000E+00  0.00000000000E+00  0.44675560248E+03  0.44675560251E+03  0.50400001928E-02 0. -1.
       -1   -1    0    0    0  501  0.00000000000E+00  0.00000000000E+00 -0.16375498232E+04  0.16375498232E+04  0.50400001928E-02 0.  1.
    10030    2    1    2    0    0  0.00000000000E+00  0.00000000000E+00 -0.11907942207E+04  0.20843054257E+04  0.17106543285E+04 0.  0.
        5    1    3    3  502    0 -0.65982540332E+03 -0.52954344901E+03 -0.74843760655E+03  0.11295869901E+04  0.46999998093E+01 0.  1.
       -5    1    3    3    0  502  0.65982540332E+03  0.52954344901E+03 -0.44235661419E+03  0.95471843565E+03  0.46999998093E+01 0. -1.
</event>
<event>
 5   0  0.3723500E-04  0.1687092E+04  0.7818609E-02  0.8768761E-01
       -1   -1    0    0    0  501  0.00000000000E+00  0.00000000000E+00  0.62362859383E+03  0.62362859385E+03  0.50400001928E-02 0. -1.
        1   -1    0    0  501    0  0.00000000000E+00  0.00000000000E+00 -0.11410156778E+04  0.11410156778E+04  0.50400001928E-02 0.  1.
    10030    2    1    2    0    0  0.00000000000E+00  0.00000000000E+00 -0.51738708397E+03  0.17646442717E+04  0.16870921762E+04 0.  0.
        1    1    3    3  502    0  0.62008555180E+03  0.57182171062E+03 -0.24911608521E+03  0.87951406141E+03  0.50400001928E-02 0. -1.
       -1    1    3    3    0  502 -0.62008555180E+03 -0.57182171062E+03 -0.26827099876E+03  0.88513021025E+03  0.50400001928E-02 0.  1.
</event>
<event>
 5   0  0.3723500E-04  0.1719589E+04  0.7818609E-02  0.8750270E-01
       -1   -1    0    0    0  501  0.00000000000E+00  0.00000000000E+00  0.43099798759E+03  0.43099798762E+03  0.50400001928E-02 0.  1.
        1   -1    0    0  501    0  0.00000000000E+00  0.00000000000E+00 -0.17151980497E+04  0.17151980497E+04  0.50400001928E-02 0. -1.
    10030    2    1    2    0    0  0.00000000000E+00  0.00000000000E+00 -0.12842000621E+04  0.21461960374E+04  0.17195893787E+04 0.  0.
        1    1    3    3  502    0 -0.76211280584E+03  0.68478222652E+02 -0.11314735794E+04  0.13659200770E+04  0.50400001928E-02 0. -1.
       -1    1    3    3    0  502  0.76211280584E+03 -0.68478222652E+02 -0.15272648275E+03  0.78027596039E+03  0.50400001928E-02 0.  1.
</event>
<event>
 5   0  0.3915701E-04  0.1672072E+04  0.7818609E-02  0.8777455E-01
        1   -1    0    0  501    0  0.00000000000E+00  0.00000000000E+00  0.17714409449E+04  0.17714409449E+04  0.50400001928E-02 0.  1.
       -1   -1    0    0    0  501  0.00000000000E+00  0.00000000000E+00 -0.39456908727E+03  0.39456908731E+03  0.50400001928E-02 0. -1.
    10030    2    1    2    0    0  0.00000000000E+00  0.00000000000E+00  0.13768718577E+04  0.21660100322E+04  0.16720715736E+04 0.  0.
        2    1    3    3  502    0  0.23652467400E+03 -0.66098085916E+03  0.12765501538E+04  0.14568527423E+04  0.25500000920E-02 0.  1.
       -2    1    3    3    0  502 -0.23652467400E+03  0.66098085916E+03  0.10032170385E+03  0.70915728993E+03  0.25500000920E-02 0. -1.
</event>
<event>
 5   0  0.3635143E-04  0.1628101E+04  0.7818609E-02  0.8803468E-01
       -1   -1    0    0    0  501  0.00000000000E+00  0.00000000000E+00  0.36348726720E+03  0.36348726724E+03  0.50400001928E-02 0. -1.
        1   -1    0    0  501    0  0.00000000000E+00  0.00000000000E+00 -0.18231125861E+04  0.18231125861E+04  0.50400001928E-02 0.  1.
    10030    2    1    2    0    0  0.00000000000E+00  0.00000000000E+00 -0.14596253189E+04  0.21865998533E+04  0.16281009941E+04 0.  0.
        3    1    3    3  502    0 -0.76480009979E+03  0.23043149695E+03 -0.94071793904E+03  0.12340859445E+04  0.10100000352E+00 0.  1.
       -3    1    3    3    0  502  0.76480009979E+03 -0.23043149695E+03 -0.51890737983E+03  0.95251390881E+03  0.10100000352E+00 0. -1.
</event>
<event>
 5   0  0.7233728E-04  0.1673160E+04  0.7818609E-02  0.8776822E-01
        2   -1    0    0  501    0  0.00000000000E+00  0.00000000000E+00  0.97241861736E+03  0.97241861737E+03  0.25500000920E-02 0.  1.
       -2   -1    0    0    0  501  0.00000000000E+00  0.00000000000E+00 -0.71971673927E+03  0.71971673927E+03  0.25500000920E-02 0. -1.
    10030    2    1    2    0    0  0.00000000000E+00  0.00000000000E+00  0.25270187810E+03  0.16921353566E+04  0.16731598328E+04 0.  0.
        1    1    3    3  502    0 -0.43517724204E+03  0.65624813219E+02  0.84588309478E+03  0.95352192327E+03  0.50400001928E-02 0.  1.
       -1    1    3    3    0  502  0.43517724204E+03 -0.65624813219E+02 -0.59318121668E+03  0.73861343337E+03  0.50400001928E-02 0. -1.
</event>
<event>
 5   0  0.7242144E-04  0.1698418E+04  0.7818609E-02  0.8762267E-01
       -2   -1    0    0    0  501  0.00000000000E+00  0.00000000000E+00  0.14359662642E+04  0.14359662642E+04  0.25500000920E-02 0. -1.
        2   -1    0    0  501    0  0.00000000000E+00  0.00000000000E+00 -0.50220953461E+03  0.50220953462E+03  0.25500000920E-02 0.  1.
    10030    2    1    2    0    0  0.00000000000E+00  0.00000000000E+00  0.93375672961E+03  0.19381757988E+04  0.16984180278E+04 0.  0.
        3    1    3    3  502    0  0.44461328648E+03  0.19157284183E+03  0.12630608578E+04  0.13526654682E+04  0.10100000352E+00 0. -1.
       -3    1    3    3    0  502 -0.44461328648E+03 -0.19157284183E+03 -0.32930412816E+03  0.58551033063E+03  0.10100000352E+00 0.  1.
</event>
<event>
 5   0  0.3635143E-04  0.1697613E+04  0.7818609E-02  0.8762727E-01
        1   -1    0    0  501    0  0.00000000000E+00  0.00000000000E+00  0.80778036521E+03  0.80778036523E+03  0.50400001928E-02 0. -1.
       -1   -1    0    0    0  501  0.00000000000E+00  0.00000000000E+00 -0.89191668393E+03  0.89191668395E+03  0.50400001928E-02 0.  1.
    10030    2    1    2    0    0  0.00000000000E+00  0.00000000000E+00 -0.84136318725E+02  0.16996970492E+04  0.16976133655E+04 0.  0.
        3    1    3    3  502    0 -0.30876510860E+03 -0.35421339774E+03  0.66567269193E+03  0.81481480498E+03  0.10100000352E+00 0. -1.
       -3    1    3    3    0  502  0.30876510860E+03  0.35421339774E+03 -0.74980901066E+03  0.88488224419E+03  0.10100000352E+00 0.  1.
</event>
<event>
 5   0  0.6746664E-04  0.1658169E+04  0.7818609E-02  0.8785588E-01
       -2   -1    0    0    0  501  0.00000000000E+00  0.00000000000E+00  0.31835925983E+03  0.31835925984E+03  0.25500000920E-02 0.  1.
        2   -1    0    0  501    0  0.00000000000E+00  0.00000000000E+00 -0.21591374891E+04  0.21591374891E+04  0.25500000920E-02 0. -1.
    10030    2    1    2    0    0  0.00000000000E+00  0.00000000000E+00 -0.18407782293E+04  0.24774967490E+04  0.16581693676E+04 0.  0.
        5    1    3    3  502    0  0.38432892146E+03 -0.65190831713E+03 -0.41444584950E+03  0.86283290733E+03  0.46999998093E+01 0.  1.
       -5    1    3    3    0  502 -0.38432892146E+03  0.65190831713E+03 -0.14263323798E+04  0.16146638416E+04  0.46999998093E+01 0. -1.
</event>
<event>
 5   0  0.3803253E-04  0.1698037E+04  0.7818609E-02  0.8762485E-01
       -1   -1    0    0    0  501  0.00000000000E+00  0.00000000000E+00  0.47203770049E+03  0.47203770052E+03  0.50400001928E-02 0.  1.
        1   -1    0    0  501    0  0.00000000000E+00  0.00000000000E+00 -0.15270658685E+04  0.15270658685E+04  0.50400001928E-02 0. -1.
    10030    2    1    2    0    0  0.00000000000E+00  0.00000000000E+00 -0.10550281680E+04  0.19991035690E+04  0.16980372918E+04 0.  0.
        4    1    3    3  502    0 -0.19113032024E+03  0.33044497428E+03  0.36530231532E+03  0.52836736729E+03  0.12699999809E+01 0.  1.
       -4    1    3    3    0  502  0.19113032024E+03 -0.33044497428E+03 -0.14203304833E+04  0.14707362017E+04  0.12699999809E+01 0. -1.
</event>
<event>
 5   0  0.3915701E-04  0.2244013E+04  0.7818609E-02  0.8500329E-01
       -1   -1    0    0    0  501  0.00000000000E+00  0.00000000000E+00  0.11418867436E+04  0.11418867436E+04  0.50400001928E-02 0. -1.
        1   -1    0    0  501    0  0.00000000000E+00  0.00000000000E+00 -0.11024721669E+04  0.11024721669E+04  0.50400001928E-02 0.  1.
    10030    2    1    2    0    0  0.00000000000E+00  0.00000000000E+00  0.39414576657E+02  0.22443589105E+04  0.22440127919E+04 0.  0.
        2    1    3    3  502    0  0.63717349930E+03 -0.13643733065E+03  0.93324465664E+03  0.11382226507E+04  0.25500000920E-02 0. -1.
       -2    1    3    3    0  502 -0.63717349930E+03  0.13643733065E+03 -0.89383007999E+03  0.11061362598E+04  0.25500000920E-02 0.  1.
</event>
<event>
 5   0  0.3723500E-04  0.1694685E+04  0.7818609E-02  0.8764402E-01
       -1   -1    0    0    0  501  0.00000000000E+00  0.00000000000E+00  0.56242638795E+03  0.56242638797E+03  0.50400001928E-02 0.  1.
        1   -1    0    0  501    0  0.00000000000E+00  0.00000000000E+00 -0.12765923236E+04  0.12765923236E+04  0.50400001928E-02 0. -1.
    10030    2    1    2    0    0  0.00000000000E+00  0.00000000000E+00 -0.71416593561E+03  0.18390187115E+04  0.16946848786E+04 0.  0.
        1    1    3    3  502    0  0.58880832897E+03 -0.19960311705E+02 -0.10179635678E+04  0.11761562344E+04  0.50400001928E-02 0. -1.
       -1    1    3    3    0  502 -0.58880832897E+03  0.19960311705E+02  0.30379763216E+03  0.66286247717E+03  0.50400001928E-02 0.  1.
</event>
<event>
 5   0  0.3713516E-04  0.1659872E+04  0.7818609E-02  0.8784588E-01
        1   -1    0    0  501    0  0.00000000000E+00  0.00000000000E+00  0.10553332602E+04  0.10553332602E+04  0.50400001928E-02 0. -1.
       -1   -1    0    0    0  501  0.00000000000E+00  0.00000000000E+00 -0.65267893980E+03  0.65267893982E+03  0.50400001928E-02 0.  1.
    10030    2    1    2    0    0  0.00000000000E+00  0.00000000000E+00  0.40265432042E+03  0.17080122001E+04  0.16598720354E+04 0.  0.
        5    1    3    3  502    0  0.30569753951E+02 -0.79488640475E+03 -0.42163575496E+02  0.79660452133E+03  0.46999998093E+01 0. -1.
       -5    1    3    3    0  502 -0.30569753951E+02  0.79488640475E+03  0.44481789592E+03  0.91140767872E+03  0.46999998093E+01 0.  1.
</event>
<event>
 5   0  0.6746664E-04  0.1750994E+04  0.7818609E-02  0.8732803E-01
        2   -1    0    0  501    0  0.00000000000E+00  0.00000000000E+00  0.74367466125E+03  0.74367466126E+03  0.25500000920E-02 0.  1.
       -2   -1    0    0    0  501  0.00000000000E+00  0.00000000000E+00 -0.10306863616E+04  0.10306863616E+04  0.25500000920E-02 0. -1.
    10030    2    1    2    0    0  0.00000000000E+00  0.00000000000E+00 -0.28701170037E+03  0.17743610229E+04  0.17509943813E+04 0.  0.
        5    1    3    3  502    0  0.86292746029E+03  0.13263542362E+03 -0.20946894125E+03  0.89785036875E+03  0.46999998093E+01 0.  1.
       -5    1    3    3    0  502 -0.86292746029E+03 -0.13263542362E+03 -0.77542759116E+02  0.87651065413E+03  0.46999998093E+01 0. -1.
</event>
<event>
 5   0  0.7049044E-04  0.1502537E+04  0.7818609E-02  0.8882767E-01
       -2   -1    0    0    0  501  0.00000000000E+00  0.00000000000E+00  0.11443950883E+04  0.11443950883E+04  0.25500000920E-02 0.  1.
        2   -1    0    0  501    0  0.00000000000E+00  0.00000000000E+00 -0.49319025056E+03  0.49319025056E+03  0.25500000920E-02 0. -1.
    10030    2    1    2    0    0  0.00000000000E+00  0.00000000000E+00  0.65120483777E+03  0.16375853389E+04  0.15025371880E+04 0.  0.
        4    1    3    3  502    0  0.51889679579E+03  0.13944705063E+03  0.89787095619E+03  0.10463619027E+04  0.12699999809E+01 0.  1.
       -4    1    3    3    0  502 -0.51889679579E+03 -0.13944705063E+03 -0.24666611842E+03  0.59122343617E+03  0.12699999809E+01 0. -1.
</event>
<event>
 5   0  0.3713516E-04  0.1724184E+04  0.7818609E-02  0.8747691E-01
        1   -1    0    0  501    0  0.00000000000E+00  0.00000000000E+00  0.20799045461E+04  0.20799045461E+04  0.50400001928E-02 0.  1.
       -1   -1    0    0    0  501  0.00000000000E+00  0.00000000000E+00 -0.35732518504E+03  0.35732518508E+03  0.50400001928E-02 0. -1.
    10030    2    1    2    0    0  0.00000000000E+00  0.00000000000E+00  0.17225793611E+04  0.24372297312E+04  0.17241836061E+04 0.  0.
        5    1    3    3  502    0  0.13922703253E+03 -0.44842018045E+03 -0.16069782854E+03  0.49629699467E+03  0.46999998093E+01 0. -1.
       -5    1    3    3    0  502 -0.13922703253E+03  0.44842018045E+03  0.18832771896E+04  0.19409327365E+04  0.46999998093E+01 0.  1.
</event>
<event>
 5   0  0.2639750E-04  0.1675894E+04  0.7818609E-02  0.8775234E-01
        3   -1    0    0  501    0  0.00000000000E+00  0.00000000000E+00  0.54833698426E+03  0.54833699357E+03  0.10100000352E+00 0. -1.
       -3   -1    0    0    0  501  0.00000000000E+00  0.00000000000E+00 -0.12805171203E+04  0.12805171243E+04  0.10100000352E+00 0.  1.
    10030    2    1    2    0    0  0.00000000000E+00  0.00000000000E+00 -0.73218013600E+03  0.18288541178E+04  0.16758936818E+04 0.  0.
        2    1    3    3  502    0  0.40386831506E+02  0.56507678284E+02  0.54519025291E+03  0.54959678469E+03  0.25500000920E-02 0. -1.
       -2    1    3    3    0  502 -0.40386831506E+02 -0.56507678284E+02 -0.12773703889E+04  0.12792573331E+04  0.25500000920E-02 0.  1.
</event>
<event>
 5   0  0.7233728E-04  0.1693611E+04  0.7818609E-02  0.8765016E-01
       -2   -1    0    0    0  501  0.00000000000E+00  0.00000000000E+00  0.75162730564E+03  0.75162730564E+03  0.25500000920E-02 0.  1.
        2   -1    0    0  501    0  0.00000000000E+00  0.00000000000E+00 -0.95403641145E+03  0.95403641146E+03  0.25500000920E-02 0. -1.
    10030    2    1    2    0    0  0.00000000000E+00  0.00000000000E+00 -0.20240910581E+03  0.17056637171E+04  0.16936113101E+04 0.  0.
        1    1    3    3  502    0  0.69199746155E+03 -0.44906719308E+03  0.91357541671E+02  0.82998074142E+03  0.50400001928E-02 0.  1.
       -1    1    3    3    0  502 -0.69199746155E+03  0.44906719308E+03 -0.29376664748E+03  0.87568297568E+03  0.50400001928E-02 0. -1.
</event>
<event>
 5   0  0.7049044E-04  0.1685254E+04  0.7818609E-02  0.8769820E-01
        2   -1    0    0  501    0  0.00000000000E+00  0.00000000000E+00  0.20854616732E+04  0.20854616732E+04  0.25500000920E-02 0. -1.
       -2   -1    0    0    0  501  0.00000000000E+00  0.00000000000E+00 -0.34046175018E+03  0.34046175019E+03  0.25500000920E-02 0.  1.
    10030    2    1    2    0    0  0.00000000000E+00  0.00000000000E+00  0.17449999230E+04  0.24259234234E+04  0.16852536084E+04 0.  0.
        4    1    3    3  502    0 -0.11220320373E+03 -0.19118134256E+03 -0.29773378689E+03  0.37119655902E+03  0.12699999809E+01 0.  1.
       -4    1    3    3    0  502  0.11220320373E+03  0.19118134256E+03  0.20427337099E+04  0.20547268644E+04  0.12699999809E+01 0. -1.
</event>
<event>
 5   0  0.7049044E-04  0.1695399E+04  0.7818609E-02  0.8763993E-01
       -2   -1    0    0    0  501  0.00000000000E+00  0.00000000000E+00  0.10775674250E+04  0.10775674250E+04  0.25500000920E-02 0. -1.
        2   -1    0    0  501    0  0.00000000000E+00  0.00000000000E+00 -0.66686709546E+03  0.66686709546E+03  0.25500000920E-02 0.  1.
    10030    2    1    2    0    0  0.00000000000E+00  0.00000000000E+00  0.41070032959E+03  0.17444345205E+04  0.16953987837E+04 0.  0.
        4    1    3    3  502    0  0.16944292503E+03 -0.83013809533E+03  0.23357499887E+03  0.87886236417E+03  0.12699999809E+01 0.  1.
       -4    1    3    3    0  502 -0.16944292503E+03  0.83013809533E+03  0.17712533072E+03  0.86557215634E+03  0.12699999809E+01 0. -1.
</event>
<event>
 5   0  0.3803253E-04  0.1697530E+04  0.7818609E-02  0.8762774E-01
        1   -1    0    0  501    0  0.00000000000E+00  0.00000000000E+00  0.19060635654E+04  0.19060635654E+04  0.50400001928E-02 0. -1.
       -1   -1    0    0    0  501  0.00000000000E+00  0.00000000000E+00 -0.37795296087E+03  0.37795296091E+03  0.50400001928E-02 0.  1.
    10030    2    1    2    0    0  0.00000000000E+00  0.00000000000E+00  0.15281106045E+04  0.22840165263E+04  0.16975304041E+04 0.  0.
        4    1    3    3  502    0 -0.54610765699E+02 -0.51924136150E+03 -0.13632717844E+03  0.53961156373E+03  0.12699999809E+01 0.  1.
       -4    1    3    3    0  502  0.54610765699E+02  0.51924136150E+03  0.16644377830E+04  0.17444049626E+04  0.12699999809E+01 0. -1.
</event>
<event>
 5   0  0.3635143E-04  0.1669703E+04  0.7818609E-02  0.8778835E-01
       -1   -1    0    0    0  501  0.00000000000E+00  0.00000000000E+00  0.54250227580E+03  0.54250227582E+03  0.50400001928E-02 0.  1.
        1   -1    0    0  501    0  0.00000000000E+00  0.00000000000E+00 -0.12847453391E+04  0.12847453392E+04  0.50400001928E-02 0. -1.
    10030    2    1    2    0    0  0.00000000000E+00  0.00000000000E+00 -0.74224306335E+03  0.18272476150E+04  0.16697032914E+04 0.  0.
        3    1    3    3  502    0  0.22346563347E+03 -0.53053053414E+03 -0.10328014623E+04  0.11824036568E+04  0.10100000352E+00 0. -1.
       -3    1    3    3    0  502 -0.22346563347E+03  0.53053053414E+03  0.29055839891E+03  0.64484395816E+03  0.10100000352E+00 0.  1.
</event>
<event>
 5   0  0.3635143E-04  0.1687641E+04  0.7818609E-02  0.8768444E-01
        1   -1    0    0  501    0  0.00000000000E+00  0.00000000000E+00  0.14954948038E+04  0.14954948038E+04  0.50400001928E-02 0. -1.
       -1   -1    0    0    0  501  0.00000000000E+00  0.00000000000E+00 -0.47611893185E+03  0.47611893188E+03  0.50400001928E-02 0.  1.
    10030    2    1    2    0    0  0.00000000000E+00  0.00000000000E+00  0.10193758719E+04  0.19716137357E+04  0.16876414176E+04 0.  0.
        3    1    3    3  502    0 -0.10284235206E+03 -0.79752527339E+03  0.80847694778E+03  0.11402886022E+04  0.10100000352E+00 0. -1.
       -3    1    3    3    0  502  0.10284235206E+03  0.79752527339E+03  0.21089892415E+03  0.83132513344E+03  0.10100000352E+00 0.  1.
</event>
<event>
 5   0  0.7049044E-04  0.1750417E+04  0.7818609E-02  0.8733121E-01
        2   -1    0    0  501    0  0.00000000000E+00  0.00000000000E+00  0.12169735347E+04  0.12169735347E+04  0.25500000920E-02 0. -1.
       -2   -1    0    0    0  501  0.00000000000E+00  0.00000000000E+00 -0.62942211356E+03  0.62942211356E+03  0.25500000920E-02 0.  1.
    10030    2    1    2    0    0  0.00000000000E+00  0.00000000000E+00  0.58755142112E+03  0.18463956482E+04  0.17504171552E+04 0.  0.
        4    1    3    3  502    0  0.35777514829E+03 -0.79394698216E+03  0.38593670951E+03  0.95252486784E+03  0.12699999809E+01 0.  1.
       -4    1    3    3    0  502 -0.35777514829E+03  0.79394698216E+03  0.20161471162E+03  0.89387078040E+03  0.12699999809E+01 0. -1.
</event>
<event>
 5   0  0.3803253E-04  0.1716017E+04  0.7818609E-02  0.8752281E-01
       -1   -1    0    0    0  501  0.00000000000E+00  0.00000000000E+00  0.49988223267E+03  0.49988223270E+03  0.50400001928E-02 0. -1.
        1   -1    0    0  501    0  0.00000000000E+00  0.00000000000E+00 -0.14727046379E+04  0.14727046379E+04  0.50400001928E-02 0.  1.
    10030    2    1    2    0    0  0.00000000000E+00  0.00000000000E+00 -0.97282240521E+03  0.19725868706E+04  0.17160173455E+04 0.  0.
        4    1    3    3  502    0 -0.77698843742E+03 -0.23115809012E+03 -0.16325207132E+03  0.82692076175E+03  0.12699999809E+01 0. -1.
       -4    1    3    3    0  502  0.77698843742E+03  0.23115809012E+03 -0.80957033389E+03  0.11456661088E+04  0.12699999809E+01 0.  1.
</event>
<event>
 5   0  0.7233728E-04  0.1689683E+04  0.7818609E-02  0.8767270E-01
        2   -1    0    0  501    0  0.00000000000E+00  0.00000000000E+00  0.64638230701E+03  0.64638230701E+03  0.25500000920E-02 0.  1.
       -2   -1    0    0    0  501  0.00000000000E+00  0.00000000000E+00 -0.11042343792E+04  0.11042343792E+04  0.25500000920E-02 0. -1.
    10030    2    1    2    0    0  0.00000000000E+00  0.00000000000E+00 -0.45785207219E+03  0.17506166862E+04  0.16896834798E+04 0.  0.
        1    1    3    3  502    0 -0.10380515789E+03  0.83118679215E+03 -0.11490945348E+03  0.84548872067E+03  0.50400001928E-02 0. -1.
       -1    1    3    3    0  502  0.10380515789E+03 -0.83118679215E+03 -0.34294261871E+03  0.90512796554E+03  0.50400001928E-02 0.  1.
</event>
<event>
 5   0  0.3713516E-04  0.1708640E+04  0.7818609E-02  0.8756452E-01
        1   -1    0    0  501    0  0.00000000000E+00  0.00000000000E+00  0.85678238701E+03  0.85678238702E+03  0.50400001928E-02 0.  1.
       -1   -1    0    0    0  501  0.00000000000E+00  0.00000000000E+00 -0.85186448104E+03  0.85186448106E+03  0.50400001928E-02 0. -1.
    10030    2    1    2    0    0  0.00000000000E+00  0.00000000000E+00  0.49179059673E+01  0.17086468681E+04  0.17086397906E+04 0.  0.
        5    1    3    3  502    0 -0.13093079618E+03  0.80692271954E+03  0.25059954799E+03  0.85503764371E+03  0.46999998093E+01 0.  1.
       -5    1    3    3    0  502  0.13093079618E+03 -0.80692271954E+03 -0.24568164202E+03  0.85360922437E+03  0.46999998093E+01 0. -1.
</event>
<event>
 5   0  0.7242144E-04  0.1803865E+04  0.7818609E-02  0.8704247E-01
       -2   -1    0    0    0  501  0.00000000000E+00  0.00000000000E+00  0.43176165300E+03  0.43176165301E+03  0.25500000920E-02 0. -1.
        2   -1    0    0  501    0  0.00000000000E+00  0.00000000000E+00 -0.18840998105E+04  0.18840998105E+04  0.25500000920E-02 0.  1.
    10030    2    1    2    0    0  0.00000000000E+00  0.00000000000E+00 -0.14523381575E+04  0.23158614635E+04  0.18038647939E+04 0.  0.
        3    1    3    3  502    0 -0.53808497080E+03  0.13660510050E+03 -0.16387619574E+04  0.17302419346E+04  0.10100000352E+00 0.  1.
       -3    1    3    3    0  502  0.53808497080E+03 -0.13660510050E+03  0.18642379983E+03  0.58561952890E+03  0.10100000352E+00 0. -1.
</event>
<event>
 5   0  0.7233728E-04  0.1689290E+04  0.7818609E-02  0.8767496E-01
       -2   -1    0    0    0  501  0.00000000000E+00  0.00000000000E+00  0.69019334191E+03  0.69019334191E+03  0.25500000920E-02 0.  1.
        2   -1    0    0  501    0  0.00000000000E+00  0.00000000000E+00 -0.10336596191E+04  0.10336596191E+04  0.25500000920E-02 0. -1.
    10030    2    1    2    0    0  0.00000000000E+00  0.00000000000E+00 -0.34346627718E+03  0.17238529610E+04  0.16892897761E+04 0.  0.
        1    1    3    3  502    0 -0.63678308070E+03  0.10661143874E+03  0.38398805798E+03  0.75120271528E+03  0.50400001928E-02 0.  1.
       -1    1    3    3    0  502  0.63678308070E+03 -0.10661143874E+03 -0.72745433517E+03  0.97265024573E+03  0.50400001928E-02 0. -1.
</event>
<event>
 5   0  0.3713516E-04  0.1693975E+04  0.7818609E-02  0.8764808E-01
        1   -1    0    0  501    0  0.00000000000E+00  0.00000000000E+00  0.10807810627E+04  0.10807810627E+04  0.50400001928E-02 0. -1.
       -1   -1    0    0    0  501  0.00000000000E+00  0.00000000000E+00 -0.66376801874E+03  0.66376801876E+03  0.50400001928E-02 0.  1.
    10030    2    1    2    0    0  0.00000000000E+00  0.00000000000E+00  0.41701304395E+03  0.17445490814E+04  0.16939750939E+04 0.  0.
        5    1    3    3  502    0  0.21964592170E+03 -0.37940824652E+03  0.95482893561E+03  0.10506737528E+04  0.46999998093E+01 0. -1.
       -5    1    3    3    0  502 -0.21964592170E+03  0.37940824652E+03 -0.53781589167E+03  0.69387532870E+03  0.46999998093E+01 0.  1.
</event>
<event>
 5   0  0.3915701E-04  0.1680296E+04  0.7818609E-02  0.8772683E-01
       -1   -1    0    0    0  501  0.00000000000E+00  0.00000000000E+00  0.75273221905E+03  0.75273221907E+03  0.50400001928E-02 0.  1.
        1   -1    0    0  501    0  0.00000000000E+00  0.00000000000E+00 -0.93771582871E+03  0.93771582872E+03  0.50400001928E-02 0. -1.
    10030    2    1    2    0    0  0.00000000000E+00  0.00000000000E+00 -0.18498360965E+03  0.16904480478E+04  0.16802963032E+04 0.  0.
        2    1    3    3  502    0  0.28946374172E+03 -0.78842842625E+03 -0.71382291266E+02  0.84291403630E+03  0.25500000920E-02 0. -1.
       -2    1    3    3    0  502 -0.28946374172E+03  0.78842842625E+03 -0.11360131839E+03  0.84753401149E+03  0.25500000920E-02 0.  1.
</event>
<event>
 5   0  0.7025426E-04  0.1665452E+04  0.7818609E-02  0.8781318E-01
        2   -1    0    0  501    0  0.00000000000E+00  0.00000000000E+00  0.15478290164E+04  0.15478290164E+04  0.25500000920E-02 0. -1.
       -2   -1    0    0    0  501  0.00000000000E+00  0.00000000000E+00 -0.44800312500E+03  0.44800312501E+03  0.25500000920E-02 0.  1.
    10030    2    1    2    0    0  0.00000000000E+00  0.00000000000E+00  0.10998258914E+04  0.19958321414E+04  0.16654515740E+04 0.  0.
        2    1    3    3  502    0 -0.68911525947E+03  0.30770409166E+03  0.12814254168E+03  0.76549471576E+03  0.25500000920E-02 0.  1.
       -2    1    3    3    0  502  0.68911525947E+03 -0.30770409166E+03  0.97168334971E+03  0.12303374257E+04  0.25500000920E-02 0. -1.
</event>
<event>
 5   0  0.7025426E-04  0.1694015E+04  0.7818609E-02  0.8764785E-01
        2   -1    0    0  501    0  0.00000000000E+00  0.00000000000E+00  0.19059967508E+04  0.19059967508E+04  0.25500000920E-02 0.  1.
       -2   -1    0    0    0  501  0.00000000000E+00  0.00000000000E+00 -0.37640227541E+03  0.37640227542E+03  0.25500000920E-02 0. -1.
    10030    2    1    2    0    0  0.00000000000E+00  0.00000000000E+00  0.15295944754E+04  0.22823990262E+04  0.16940147744E+04 0.  0.
        2    1    3    3  502    0 -0.24687479341E+03  0.18151721710E+03 -0.29910472788E+03  0.42820474305E+03  0.25500000920E-02 0. -1.
       -2    1    3    3    0  502  0.24687479341E+03 -0.18151721710E+03  0.18286992032E+04  0.18541942831E+04  0.25500000920E-02 0.  1.
</event>
<event>
 5   0  0.3635143E-04  0.1680655E+04  0.7818609E-02  0.8772475E-01
        1   -1    0    0  501    0  0.00000000000E+00  0.00000000000E+00  0.88368722939E+03  0.88368722941E+03  0.50400001928E-02 0.  1.
       -1   -1    0    0    0  501  0.00000000000E+00  0.00000000000E+00 -0.79909533057E+03  0.79909533058E+03  0.50400001928E-02 0. -1.
    10030    2    1    2    0    0  0.00000000000E+00  0.00000000000E+00  0.84591898824E+02  0.16827825600E+04  0.16806550374E+04 0.  0.
        3    1    3    3  502    0 -0.61930908422E+03 -0.56758511298E+03  0.63623764655E+02  0.84246340924E+03  0.10100000352E+00 0. -1.
       -3    1    3    3    0  502  0.61930908422E+03  0.56758511298E+03  0.20968134169E+02  0.84031915075E+03  0.10100000352E+00 0.  1.
</event>
<event>
 5   0  0.3915701E-04  0.1697737E+04  0.7818609E-02  0.8762656E-01
       -1   -1    0    0    0  501  0.00000000000E+00  0.00000000000E+00  0.11780407719E+04  0.11780407719E+04  0.50400001928E-02 0.  1.
        1   -1    0    0  501    0  0.00000000000E+00  0.00000000000E+00 -0.61167441398E+03  0.61167441400E+03  0.50400001928E-02 0. -1.
    10030    2    1    2    0    0  0.00000000000E+00  0.00000000000E+00  0.56636635792E+03  0.17897151859E+04  0.16977366095E+04 0.  0.
        2    1    3    3  502    0  0.30181578705E+03  0.32025408697E+03 -0.48203759971E+03  0.65269877974E+03  0.25500000920E-02 0. -1.
       -2    1    3    3    0  502 -0.30181578705E+03 -0.32025408697E+03  0.10484039576E+04  0.11370164062E+04  0.25500000920E-02 0.  1.
</event>
<event>
 5   0  0.7233728E-04  0.1705434E+04  0.7818609E-02  0.8758271E-01
       -2   -1    0    0    0  501  0.00000000000E+00  0.00000000000E+00  0.76303611582E+03  0.76303611582E+03  0.25500000920E-02 0.  1.
        2   -1    0    0  501    0  0.00000000000E+00  0.00000000000E+00 -0.95293837425E+03  0.95293837426E+03  0.25500000920E-02 0. -1.
    10030    2    1    2    0    0  0.00000000000E+00  0.00000000000E+00 -0.18990225843E+03  0.17159744901E+04  0.17054341332E+04 0.  0.
        1    1    3    3  502    0  0.36307734304E+03  0.60186251180E+03 -0.58070057621E+03  0.91174382333E+03  0.50400001928E-02 0.  1.
       -1    1    3    3    0  502 -0.36307734304E+03 -0.60186251180E+03  0.39079831778E+03  0.80423066675E+03  0.50400001928E-02 0. -1.
</event>
<event>
 5   0  0.3803253E-04  0.1708252E+04  0.7818609E-02  0.8756672E-01
        1   -1    0    0  501    0  0.00000000000E+00  0.00000000000E+00  0.16890189850E+04  0.16890189850E+04  0.50400001928E-02 0. -1.
       -1   -1    0    0    0  501  0.00000000000E+00  0.00000000000E+00 -0.43192579720E+03  0.43192579723E+03  0.50400001928E-02 0.  1.
    10030    2    1    2    0    0  0.00000000000E+00  0.00000000000E+00  0.12570931878E+04  0.21209447822E+04  0.17082515876E+04 0.  0.
        4    1    3    3  502    0  0.61819782282E+03  0.98429804572E+02  0.13500281558E+04  0.14880976476E+04  0.12699999809E+01 0. -1.
       -4    1    3    3    0  502 -0.61819782282E+03 -0.98429804572E+02 -0.92934968017E+02  0.63284713458E+03  0.12699999809E+01 0.  1.
</event>
<event>
 5   0  0.7233728E-04  0.1128830E+04  0.7818609E-02  0.9177539E-01
       -2   -1    0    0    0  501  0.00000000000E+00  0.00000000000E+00  0.12980009712E+03  0.12980009714E+03  0.25500000920E-02 0. -1.
        2   -1    0    0  501    0  0.00000000000E+00  0.00000000000E+00 -0.24542681825E+04  0.24542681825E+04  0.25500000920E-02 0.  1.
    10030    2    1    2    0    0  0.00000000000E+00  0.00000000000E+00 -0.23244680854E+04  0.25840682797E+04  0.11288299225E+04 0.  0.
        1    1    3    3  502    0  0.39996308424E+03  0.18779834939E+02 -0.25161838162E+03  0.47290058252E+03  0.50400001928E-02 0. -1.
       -1    1    3    3    0  502 -0.39996308424E+03 -0.18779834939E+02 -0.20728497038E+04  0.21111676972E+04  0.50400001928E-02 0.  1.
</event>
<event>
 5   0  0.3723500E-04  0.1657170E+04  0.7818609E-02  0.8786176E-01
       -1   -1    0    0    0  501  0.00000000000E+00  0.00000000000E+00  0.13571505977E+04  0.13571505977E+04  0.50400001928E-02 0. -1.
        1   -1    0    0  501    0  0.00000000000E+00  0.00000000000E+00 -0.50587809772E+03  0.50587809775E+03  0.50400001928E-02 0.  1.
    10030    2    1    2    0    0  0.00000000000E+00  0.00000000000E+00  0.85127249997E+03  0.18630286954E+04  0.16571695902E+04 0.  0.
        1    1    3    3  502    0 -0.66991181358E+03  0.44949480155E+03  0.21314511145E+03  0.83442090887E+03  0.50400001928E-02 0.  1.
       -1    1    3    3    0  502  0.66991181358E+03 -0.44949480155E+03  0.63812738851E+03  0.10286077866E+04  0.50400001928E-02 0. -1.
</event>
<event>
 5   0  0.7049044E-04  0.1680077E+04  0.7818609E-02  0.8772809E-01
       -2   -1    0    0    0  501  0.00000000000E+00  0.00000000000E+00  0.81205874588E+03  0.81205874589E+03  0.25500000920E-02 0.  1.
        2   -1    0    0  501    0  0.00000000000E+00  0.00000000000E+00 -0.86898243491E+03  0.86898243491E+03  0.25500000920E-02 0. -1.
    10030    2    1    2    0    0  0.00000000000E+00  0.00000000000E+00 -0.56923689028E+02  0.16810411808E+04  0.16800771248E+04 0.  0.
        4    1    3    3  502    0 -0.25463397785E+03  0.27210169445E+03  0.72482165249E+03  0.81501278249E+03  0.12699999809E+01 0.  1.
       -4    1    3    3    0  502  0.25463397785E+03 -0.27210169445E+03 -0.78174534152E+03  0.86602839831E+03  0.12699999809E+01 0. -1.
</event>
<event>
 5   0  0.2639750E-04  0.1715818E+04  0.7818609E-02  0.8752394E-01
        3   -1    0    0  501    0  0.00000000000E+00  0.00000000000E+00  0.13670476305E+04  0.13670476343E+04  0.10100000352E+00 0.  1.
       -3   -1    0    0    0  501  0.00000000000E+00  0.00000000000E+00 -0.53839252141E+03  0.53839253089E+03  0.10100000352E+00 0. -1.
    10030    2    1    2    0    0  0.00000000000E+00  0.00000000000E+00  0.82865510911E+03  0.19054401651E+04  0.17158184441E+04 0.  0.
        2    1    3    3  502    0 -0.19341434986E+03 -0.25192046088E+03 -0.47070057865E+03  0.56783101720E+03  0.25500000920E-02 0. -1.
       -2    1    3    3    0  502  0.19341434986E+03  0.25192046088E+03  0.12993556878E+04  0.13376091479E+04  0.25500000920E-02 0.  1.
</event>
<event>
 5   0  0.7242144E-04  0.1702130E+04  0.7818609E-02  0.8760151E-01
        2   -1    0    0  501    0  0.00000000000E+00  0.00000000000E+00  0.68445430070E+03  0.68445430070E+03  0.25500000920E-02 0. -1.
       -2   -1    0    0    0  501  0.00000000000E+00  0.00000000000E+00 -0.10582317615E+04  0.10582317615E+04  0.25500000920E-02 0.  1.
    10030    2    1    2    0    0  0.00000000000E+00  0.00000000000E+00 -0.37377746082E+03  0.17426860622E+04  0.17021295842E+04 0.  0.
        3    1    3    3  502    0 -0.40686003166E+03  0.71274545830E+03  0.43802205928E+02  0.82186362442E+03  0.10100000352E+00 0. -1.
       -3    1    3    3    0  502  0.40686003166E+03 -0.71274545830E+03 -0.41757966675E+03  0.92082243781E+03  0.10100000352E+00 0.  1.
</event>
<event>
 5   0  0.7025426E-04  0.1586462E+04  0.7818609E-02  0.8828908E-01
        2   -1    0    0  501    0  0.00000000000E+00  0.00000000000E+00  0.12223097724E+04  0.12223097724E+04  0.25500000920E-02 0.  1.
       -2   -1    0    0    0  501  0.00000000000E+00  0.00000000000E+00 -0.51477578182E+03  0.51477578183E+03  0.25500000920E-02 0. -1.
    10030    2    1    2    0    0  0.00000000000E+00  0.00000000000E+00  0.70753399061E+03  0.17370855543E+04  0.15864620623E+04 0.  0.
        2    1    3    3  502    0 -0.39183125502E+02 -0.75842990338E+03  0.60456448313E+03  0.97069534352E+03  0.25500000920E-02 0.  1.
       -2    1    3    3    0  502  0.39183125502E+02  0.75842990338E+03  0.10296950749E+03  0.76639021075E+03  0.25500000920E-02 0. -1.
</event>
<event>
 5   0  0.7233728E-04  0.1619494E+04  0.7818609E-02  0.8808661E-01
        2   -1    0    0  501    0  0.00000000000E+00  0.00000000000E+00  0.64039229137E+03  0.64039229138E+03  0.25500000920E-02 0.  1.
       -2   -1    0    0    0  501  0.00000000000E+00  0.00000000000E+00 -0.10238883725E+04  0.10238883725E+04  0.25500000920E-02 0. -1.
    10030    2    1    2    0    0  0.00000000000E+00  0.00000000000E+00 -0.38349608108E+03  0.16642806638E+04  0.16194940209E+04 0.  0.
        1    1    3    3  502    0 -0.38717219985E+03  0.67544716090E+03 -0.42052309493E+03  0.88485640242E+03  0.50400001928E-02 0. -1.
       -1    1    3    3    0  502  0.38717219985E+03 -0.67544716090E+03  0.37027013844E+02  0.77942426142E+03  0.50400001928E-02 0.  1.
</event>
<event>
 5   0  0.3915701E-04  0.1753539E+04  0.7818609E-02  0.8731405E-01
       -1   -1    0    0    0  501  0.00000000000E+00  0.00000000000E+00  0.41922738822E+03  0.41922738825E+03  0.50400001928E-02 0.  1.
        1   -1    0    0  501    0  0.00000000000E+00  0.00000000000E+00 -0.18336693091E+04  0.18336693091E+04  0.50400001928E-02 0. -1.
    10030    2    1    2    0    0  0.00000000000E+00  0.00000000000E+00 -0.14144419209E+04  0.22528966974E+04  0.17535385885E+04 0.  0.
        2    1    3    3  502    0  0.16154503140E+03  0.83628898907E+03 -0.97440505226E+03  0.12941952234E+04  0.25500000920E-02 0. -1.
       -2    1    3    3    0  502 -0.16154503140E+03 -0.83628898907E+03 -0.44003686863E+03  0.95870147396E+03  0.25500000920E-02 0.  1.
</event>
<event>
 5   0  0.7025426E-04  0.1786860E+04  0.7818609E-02  0.8713319E-01
        2   -1    0    0  501    0  0.00000000000E+00  0.00000000000E+00  0.13534965294E+04  0.13534965294E+04  0.25500000920E-02 0. -1.
       -2   -1    0    0    0  501  0.00000000000E+00  0.00000000000E+00 -0.58974430188E+03  0.58974430189E+03  0.25500000920E-02 0.  1.
    10030    2    1    2    0    0  0.00000000000E+00  0.00000000000E+00  0.76375222751E+03  0.19432408313E+04  0.17868596653E+04 0.  0.
        2    1    3    3  502    0 -0.77480361930E+03  0.14148071024E+03  0.84054474702E+03  0.11518910155E+04  0.25500000920E-02 0. -1.
       -2    1    3    3    0  502  0.77480361930E+03 -0.14148071024E+03 -0.76792519512E+02  0.79134981577E+03  0.25500000920E-02 0.  1.
</event>
<event>
 5   0  0.3635143E-04  0.1680291E+04  0.7818609E-02  0.8772686E-01
        1   -1    0    0  501    0  0.00000000000E+00  0.00000000000E+00  0.77683087466E+03  0.77683087468E+03  0.50400001928E-02 0. -1.
       -1   -1    0    0    0  501  0.00000000000E+00  0.00000000000E+00 -0.90862066948E+03  0.90862066950E+03  0.50400001928E-02 0.  1.
    10030    2    1    2    0    0  0.00000000000E+00  0.00000000000E+00 -0.13178979482E+03  0.16854515442E+04  0.16802911527E+04 0.  0.
        3    1    3    3  502    0 -0.47998472559E+03  0.86165309337E+02  0.62033683244E+03  0.78906754668E+03  0.10100000352E+00 0. -1.
       -3    1    3    3    0  502  0.47998472559E+03 -0.86165309337E+02 -0.75212662726E+03  0.89638399750E+03  0.10100000352E+00 0.  1.
</event>
<event>
 5   0  0.3803253E-04  0.1676336E+04  0.7818609E-02  0.8774977E-01
       -1   -1    0    0    0  501  0.00000000000E+00  0.00000000000E+00  0.56915101990E+03  0.56915101992E+03  0.50400001928E-02 0. -1.
        1   -1    0    0  501    0  0.00000000000E+00  0.00000000000E+00 -0.12343400211E+04  0.12343400211E+04  0.50400001928E-02 0.  1.
    10030    2    1    2    0    0  0.00000000000E+00  0.00000000000E+00 -0.66518900119E+03  0.18034910410E+04  0.16763363409E+04 0.  0.
        4    1    3    3  502    0 -0.29026344450E+03  0.10290073124E+03  0.50607590079E+03  0.59241527492E+03  0.12699999809E+01 0. -1.
       -4    1    3    3    0  502  0.29026344450E+03 -0.10290073124E+03 -0.11712649020E+04  0.12110757661E+04  0.12699999809E+01 0.  1.
</event>
<event>
 5   0  0.3915701E-04  0.1703932E+04  0.7818609E-02  0.8759125E-01
       -1   -1    0    0    0  501  0.00000000000E+00  0.00000000000E+00  0.77120389812E+03  0.77120389814E+03  0.50400001928E-02 0. -1.
        1   -1    0    0  501    0  0.00000000000E+00  0.00000000000E+00 -0.94118622379E+03  0.94118622380E+03  0.50400001928E-02 0.  1.
    10030    2    1    2    0    0  0.00000000000E+00  0.00000000000E+00 -0.16998232567E+03  0.17123901219E+04  0.17039324924E+04 0.  0.
        2    1    3    3  502    0 -0.79516059446E+03  0.48190327456E+02  0.21857406655E+03  0.82606131807E+03  0.25500000920E-02 0. -1.
       -2    1    3    3    0  502  0.79516059446E+03 -0.48190327456E+02 -0.38855639222E+03  0.88632880387E+03  0.25500000920E-02 0.  1.
</event>
<event>
 5   0  0.3713516E-04  0.1996233E+04  0.7818609E-02  0.8608384E-01
        1   -1    0    0  501    0  0.00000000000E+00  0.00000000000E+00  0.73111534244E+03  0.73111534246E+03  0.50400001928E-02 0. -1.
       -1   -1    0    0    0  501  0.00000000000E+00  0.00000000000E+00 -0.13626256961E+04  0.13626256961E+04  0.50400001928E-02 0.  1.
    10030    2    1    2    0    0  0.00000000000E+00  0.00000000000E+00 -0.63151035370E+03  0.20937410386E+04  0.19962330049E+04 0.  0.
        5    1    3    3  502    0  0.17211487344E+03  0.37942967404E+03  0.63553373864E+03  0.75994449149E+03  0.46999998093E+01 0. -1.
       -5    1    3    3    0  502 -0.17211487344E+03 -0.37942967404E+03 -0.12670440923E+04  0.13337965471E+04  0.46999998093E+01 0.  1.
</event>
<event>
 5   0  0.7233728E-04  0.1691604E+04  0.7818609E-02  0.8766168E-01
        2   -1    0    0  501    0  0.00000000000E+00  0.00000000000E+00  0.94852212428E+03  0.94852212428E+03  0.25500000920E-02 0. -1.
       -2   -1    0    0    0  501  0.00000000000E+00  0.00000000000E+00 -0.75420567621E+03  0.75420567621E+03  0.25500000920E-02 0.  1.
    10030    2    1    2    0    0  0.00000000000E+00  0.00000000000E+00  0.19431644807E+03  0.17027278005E+04  0.16916037008E+04 0.  0.
        1    1    3    3  502    0 -0.95227903197E+02 -0.82708160416E+03 -0.52981754585E+02  0.83422982435E+03  0.50400001928E-02 0.  1.
       -1    1    3    3    0  502  0.95227903197E+02  0.82708160416E+03  0.24729820266E+03  0.86849797614E+03  0.50400001928E-02 0. -1.
</event>
<event>
 5   0  0.7049044E-04  0.1842859E+04  0.7818609E-02  0.8683834E-01
        2   -1    0    0  501    0  0.00000000000E+00  0.00000000000E+00  0.19859894559E+04  0.19859894559E+04  0.25500000920E-02 0.  1.
       -2   -1    0    0    0  501  0.00000000000E+00  0.00000000000E+00 -0.42751100406E+03  0.42751100407E+03  0.25500000920E-02 0. -1.
    10030    2    1    2    0    0  0.00000000000E+00  0.00000000000E+00  0.15584784519E+04  0.24135004600E+04  0.18428590249E+04 0.  0.
        4    1    3    3  502    0 -0.87445253332E+03  0.16281691559E+03  0.10942479198E+04  0.14101619424E+04  0.12699999809E+01 0.  1.
       -4    1    3    3    0  502  0.87445253332E+03 -0.16281691559E+03  0.46423053207E+03  0.10033385176E+04  0.12699999809E+01 0. -1.
</event>
<event>
 5   0  0.7242144E-04  0.1654255E+04  0.7818609E-02  0.8787893E-01
       -2   -1    0    0    0  501  0.00000000000E+00  0.00000000000E+00  0.49249923835E+03  0.49249923836E+03  0.25500000920E-02 0. -1.
        2   -1    0    0  501    0  0.00000000000E+00  0.00000000000E+00 -0.13891182421E+04  0.13891182421E+04  0.25500000920E-02 0.  1.
    10030    2    1    2    0    0  0.00000000000E+00  0.00000000000E+00 -0.89661900372E+03  0.18816174804E+04  0.16542547279E+04 0.  0.
        3    1    3    3  502    0 -0.43176890768E+03 -0.33669602188E+03  0.25685915237E+03  0.60478528020E+03  0.10100000352E+00 0. -1.
       -3    1    3    3    0  502  0.43176890768E+03  0.33669602188E+03 -0.11534781561E+04  0.12768322002E+04  0.10100000352E+00 0.  1.
</event>
<event>
 5   0  0.3915701E-04  0.1737239E+04  0.7818609E-02  0.8740406E-01
        1   -1    0    0  501    0  0.00000000000E+00  0.00000000000E+00  0.36869596807E+03  0.36869596810E+03  0.50400001928E-02 0.  1.
       -1   -1    0    0    0  501  0.00000000000E+00  0.00000000000E+00 -0.20464011187E+04  0.20464011187E+04  0.50400001928E-02 0. -1.
    10030    2    1    2    0    0  0.00000000000E+00  0.00000000000E+00 -0.16777051507E+04  0.24150970868E+04  0.17372390067E+04 0.  0.
        2    1    3    3  502    0  0.49118422783E+02  0.35729987711E+03 -0.19373899126E+04  0.19706738683E+04  0.25500000920E-02 0. -1.
       -2    1    3    3    0  502 -0.49118422783E+02 -0.35729987711E+03  0.25968476192E+03  0.44442321858E+03  0.25500000920E-02 0.  1.
</event>
<event>
 5   0  0.2639750E-04  0.1676715E+04  0.7818609E-02  0.8774757E-01
       -4   -1    0    0    0  501  0.00000000000E+00  0.00000000000E+00  0.61901825248E+03  0.61901955526E+03  0.12699999809E+01 0. -1.
        4   -1    0    0  501    0  0.00000000000E+00  0.00000000000E+00 -0.11354135901E+04  0.11354143003E+04  0.12699999809E+01 0.  1.
    10030    2    1    2    0    0  0.00000000000E+00  0.00000000000E+00 -0.51639533759E+03  0.17544338556E+04  0.16767152439E+04 0.  0.
        4    1    3    3  502    0  0.79897500798E+03 -0.25380467016E+03 -0.26656948742E+03  0.87968106635E+03  0.12699999809E+01 0.  1.
       -4    1    3    3    0  502 -0.79897500798E+03  0.25380467016E+03 -0.24982585017E+03  0.87475278925E+03  0.12699999809E+01 0. -1.
</event>
<event>
 5   0  0.2639750E-04  0.1693423E+04  0.7818609E-02  0.8765124E-01
        3   -1    0    0  501    0  0.00000000000E+00  0.00000000000E+00  0.81806300883E+03  0.81806301506E+03  0.10100000352E+00 0.  1.
       -3   -1    0    0    0  501  0.00000000000E+00  0.00000000000E+00 -0.87636336259E+03  0.87636336841E+03  0.10100000352E+00 0. -1.
    10030    2    1    2    0    0  0.00000000000E+00  0.00000000000E+00 -0.58300353759E+02  0.16944263835E+04  0.16934231124E+04 0.  0.
        4    1    3    3  502    0 -0.81807002669E+03 -0.21699830779E+03 -0.48044570923E+01  0.84637552532E+03  0.12699999809E+01 0. -1.
       -4    1    3    3    0  502  0.81807002669E+03  0.21699830779E+03 -0.53495896666E+02  0.84805085815E+03  0.12699999809E+01 0.  1.
</event>
<event>
 5   0  0.2639750E-04  0.1671396E+04  0.7818609E-02  0.8777848E-01
        3   -1    0    0  501    0  0.00000000000E+00  0.00000000000E+00  0.10746496477E+04  0.10746496525E+04  0.10100000352E+00 0. -1.
       -3   -1    0    0    0  501  0.00000000000E+00  0.00000000000E+00 -0.64987819188E+03  0.64987819972E+03  0.10100000352E+00 0.  1.
    10030    2    1    2    0    0  0.00000000000E+00  0.00000000000E+00  0.42477145586E+03  0.17245278522E+04  0.16713962796E+04 0.  0.
        2    1    3    3  502    0  0.60054956288E+03  0.30208947666E+03  0.72462862284E+03  0.98843536482E+03  0.25500000920E-02 0. -1.
       -2    1    3    3    0  502 -0.60054956288E+03 -0.30208947666E+03 -0.29985716699E+03  0.73609248738E+03  0.25500000920E-02 0.  1.
</event>
<event>
 5   0  0.3803253E-04  0.1733781E+04  0.7818609E-02  0.8742329E-01
       -1   -1    0    0    0  501  0.00000000000E+00  0.00000000000E+00  0.84063408904E+03  0.84063408906E+03  0.50400001928E-02 0. -1.
        1   -1    0    0  501    0  0.00000000000E+00  0.00000000000E+00 -0.89396746337E+03  0.89396746339E+03  0.50400001928E-02 0.  1.
    10030    2    1    2    0    0  0.00000000000E+00  0.00000000000E+00 -0.53333374327E+02  0.17346015524E+04  0.17337814444E+04 0.  0.
        4    1    3    3  502    0 -0.31966510226E+03 -0.22905162562E+03 -0.79959117122E+03  0.89106569836E+03  0.12699999809E+01 0.  1.
       -4    1    3    3    0  502  0.31966510226E+03  0.22905162562E+03  0.74625779689E+03  0.84353585408E+03  0.12699999809E+01 0. -1.
</event>
<event>
 5   0  0.3723500E-04  0.1666848E+04  0.7818609E-02  0.8780501E-01
        1   -1    0    0  501    0  0.00000000000E+00  0.00000000000E+00  0.17834351502E+04  0.17834351502E+04  0.50400001928E-02 0. -1.
       -1   -1    0    0    0  501  0.00000000000E+00  0.00000000000E+00 -0.38947046365E+03  0.38947046369E+03  0.50400001928E-02 0.  1.
    10030    2    1    2    0    0  0.00000000000E+00  0.00000000000E+00  0.13939646865E+04  0.21729056139E+04  0.16668477014E+04 0.  0.
        1    1    3    3  502    0  0.51646589357E+03  0.46803807223E+03  0.10130813864E+03  0.70431526695E+03  0.50400001928E-02 0. -1.
       -1    1    3    3    0  502 -0.51646589357E+03 -0.46803807223E+03  0.12926565479E+04  0.14685903469E+04  0.50400001928E-02 0.  1.
</event>
<event>
 5   0  0.7049044E-04  0.1727182E+04  0.7818609E-02  0.8746011E-01
       -2   -1    0    0    0  501  0.00000000000E+00  0.00000000000E+00  0.21828700030E+04  0.21828700030E+04  0.25500000920E-02 0.  1.
        2   -1    0    0  501    0  0.00000000000E+00  0.00000000000E+00 -0.34165547671E+03  0.34165547672E+03  0.25500000920E-02 0. -1.
    10030    2    1    2    0    0  0.00000000000E+00  0.00000000000E+00  0.18412145262E+04  0.25245254797E+04  0.17271820882E+04 0.  0.
        4    1    3    3  502    0 -0.86043705871E+03 -0.73712639645E+02  0.91834604276E+03  0.12606135619E+04  0.12699999809E+01 0.  1.
       -4    1    3    3    0  502  0.86043705871E+03  0.73712639645E+02  0.92286848349E+03  0.12639119178E+04  0.12699999809E+01 0. -1.
</event>
<event>
 5   0  0.6746664E-04  0.1688837E+04  0.7818609E-02  0.8767757E-01
       -2   -1    0    0    0  501  0.00000000000E+00  0.00000000000E+00  0.36260772628E+03  0.36260772629E+03  0.25500000920E-02 0.  1.
        2   -1    0    0  501    0  0.00000000000E+00  0.00000000000E+00 -0.19664285636E+04  0.19664285636E+04  0.25500000920E-02 0. -1.
    10030    2    1    2    0    0  0.00000000000E+00  0.00000000000E+00 -0.16038208373E+04  0.23290362899E+04  0.16888365112E+04 0.  0.
        5    1    3    3  502    0  0.19595557739E+03  0.23875168472E+03 -0.18857101051E+04  0.19108442233E+04  0.46999998093E+01 0. -1.
       -5    1    3    3    0  502 -0.19595557739E+03 -0.23875168472E+03  0.28188926778E+03  0.41819206659E+03  0.46999998093E+01 0.  1.
</event>
<event>
 5   0  0.3713516E-04  0.1690911E+04  0.7818609E-02  0.8766565E-01
        1   -1    0    0  501    0  0.00000000000E+00  0.00000000000E+00  0.65242333583E+03  0.65242333585E+03  0.50400001928E-02 0. -1.
       -1   -1    0    0    0  501  0.00000000000E+00  0.00000000000E+00 -0.10955997410E+04  0.10955997410E+04  0.50400001928E-02 0.  1.
    10030    2    1    2    0    0  0.00000000000E+00  0.00000000000E+00 -0.44317640518E+03  0.17480230769E+04  0.16909108052E+04 0.  0.
        5    1    3    3  502    0 -0.76613502913E+03 -0.26300880034E+03  0.28739840326E+02  0.81054585332E+03  0.46999998093E+01 0. -1.
       -5    1    3    3    0  502  0.76613502913E+03  0.26300880034E+03 -0.47191624551E+03  0.93747722356E+03  0.46999998093E+01 0.  1.
</event>
<event>
 5   0  0.7233728E-04  0.1790084E+04  0.7818609E-02  0.8711591E-01
       -2   -1    0    0    0  501  0.00000000000E+00  0.00000000000E+00  0.58558651692E+03  0.58558651692E+03  0.25500000920E-02 0.  1.
        2   -1    0    0  501    0  0.00000000000E+00  0.00000000000E+00 -0.13680299328E+04  0.13680299329E+04  0.25500000920E-02 0. -1.
    10030    2    1    2    0    0  0.00000000000E+00  0.00000000000E+00 -0.78244341593E+03  0.19536164498E+04  0.17900836667E+04 0.  0.
        1    1    3    3  502    0 -0.54769788570E+02 -0.72168567380E+03 -0.96589017746E+03  0.12069688382E+04  0.50400001928E-02 0. -1.
       -1    1    3    3    0  502  0.54769788570E+02  0.72168567380E+03  0.18344676153E+03  0.74664761156E+03  0.50400001928E-02 0.  1.
</event>
<event>
 5   0  0.7025426E-04  0.1679172E+04  0.7818609E-02  0.8773333E-01
        2   -1    0    0  501    0  0.00000000000E+00  0.00000000000E+00  0.23585638377E+04  0.23585638377E+04  0.25500000920E-02 0. -1.
       -2   -1    0    0    0  501  0.00000000000E+00  0.00000000000E+00 -0.29887036440E+03  0.29887036441E+03  0.25500000920E-02 0.  1.
    10030    2    1    2    0    0  0.00000000000E+00  0.00000000000E+00  0.20596934733E+04  0.26574342021E+04  0.16791722171E+04 0.  0.
        2    1    3    3  502    0 -0.32867379649E+03  0.75726228983E+03  0.78759117677E+03  0.11409524538E+04  0.25500000920E-02 0.  1.
       -2    1    3    3    0  502  0.32867379649E+03 -0.75726228983E+03  0.12721022965E+04  0.15164817483E+04  0.25500000920E-02 0. -1.
</event>
<event>
 5   0  0.7025426E-04  0.1688523E+04  0.7818609E-02  0.8767938E-01
        2   -1    0    0  501    0  0.00000000000E+00  0.00000000000E+00  0.75873780433E+03  0.75873780433E+03  0.25500000920E-02 0.  1.
       -2   -1    0    0    0  501  0.00000000000E+00  0.00000000000E+00 -0.93942477627E+03  0.93942477627E+03  0.25500000920E-02 0. -1.
    10030    2    1    2    0    0  0.00000000000E+00  0.00000000000E+00 -0.18068697194E+03  0.16981625806E+04  0.16885225401E+04 0.  0.
        2    1    3    3  502    0 -0.76644815806E+03 -0.42543494134E+02 -0.44381035912E+03  0.88669068043E+03  0.25500000920E-02 0. -1.
       -2    1    3    3    0  502  0.76644815806E+03  0.42543494134E+02  0.26312338718E+03  0.81147190018E+03  0.25500000920E-02 0.  1.
</event>
<event>
 5   0  0.3803253E-04  0.1649782E+04  0.7818609E-02  0.8790535E-01
        1   -1    0    0  501    0  0.00000000000E+00  0.00000000000E+00  0.18125423262E+04  0.18125423262E+04  0.50400001928E-02 0. -1.
       -1   -1    0    0    0  501  0.00000000000E+00  0.00000000000E+00 -0.37540928176E+03  0.37540928180E+03  0.50400001928E-02 0.  1.
    10030    2    1    2    0    0  0.00000000000E+00  0.00000000000E+00  0.14371330445E+04  0.21879516080E+04  0.16497820619E+04 0.  0.
        4    1    3    3  502    0 -0.88991318027E+02 -0.21577423620E+03 -0.33070135433E+03  0.40477521459E+03  0.12699999809E+01 0.  1.
       -4    1    3    3    0  502  0.88991318027E+02  0.21577423620E+03  0.17678343988E+04  0.17831763934E+04  0.12699999809E+01 0. -1.
</event>
<event>
 5   0  0.3723500E-04  0.1700130E+04  0.7818609E-02  0.8761290E-01
        1   -1    0    0  501    0  0.00000000000E+00  0.00000000000E+00  0.63174376779E+03  0.63174376781E+03  0.50400001928E-02 0. -1.
       -1   -1    0    0    0  501  0.00000000000E+00  0.00000000000E+00 -0.11438349149E+04  0.11438349149E+04  0.50400001928E-02 0.  1.
    10030    2    1    2    0    0  0.00000000000E+00  0.00000000000E+00 -0.51209114713E+03  0.17755786827E+04  0.17001300878E+04 0.  0.
        1    1    3    3  502    0 -0.66208345390E+02  0.74718730061E+03 -0.67371610278E+03  0.10082488752E+04  0.50400001928E-02 0.  1.
       -1    1    3    3    0  502  0.66208345390E+02 -0.74718730061E+03  0.16162495565E+03  0.76732980752E+03  0.50400001928E-02 0. -1.
</event>
<event>
 5   0  0.6746664E-04  0.1669633E+04  0.7818609E-02  0.8778876E-01
       -2   -1    0    0    0  501  0.00000000000E+00  0.00000000000E+00  0.63546379805E+03  0.63546379805E+03  0.25500000920E-02 0. -1.
        2   -1    0    0  501    0  0.00000000000E+00  0.00000000000E+00 -0.10967088076E+04  0.10967088076E+04  0.25500000920E-02 0.  1.
    10030    2    1    2    0    0  0.00000000000E+00  0.00000000000E+00 -0.46124500955E+03  0.17321726056E+04  0.16696331863E+04 0.  0.
        5    1    3    3  502    0 -0.28645573853E+02 -0.41694926182E+03  0.51910035958E+03  0.66644919472E+03  0.46999998093E+01 0. -1.
       -5    1    3    3    0  502  0.28645573853E+02  0.41694926182E+03 -0.98034536913E+03  0.10657234109E+04  0.46999998093E+01 0.  1.
</event>
<event>
 5   0  0.3713516E-04  0.1714134E+04  0.7818609E-02  0.8753344E-01
       -1   -1    0    0    0  501  0.00000000000E+00  0.00000000000E+00  0.44378697118E+03  0.44378697121E+03  0.50400001928E-02 0.  1.
        1   -1    0    0  501    0  0.00000000000E+00  0.00000000000E+00 -0.16552170621E+04  0.16552170621E+04  0.50400001928E-02 0. -1.
    10030    2    1    2    0    0  0.00000000000E+00  0.00000000000E+00 -0.12114300909E+04  0.20990040333E+04  0.17141339115E+04 0.  0.
        5    1    3    3  502    0 -0.68413865987E+03 -0.50293611723E+03 -0.74826199506E+03  0.11317723036E+04  0.46999998093E+01 0. -1.
       -5    1    3    3    0  502  0.68413865987E+03  0.50293611723E+03 -0.46316809582E+03  0.96723172969E+03  0.46999998093E+01 0.  1.
</event>
<event>
 5   0  0.7025426E-04  0.1693700E+04  0.7818609E-02  0.8764965E-01
        2   -1    0    0  501    0  0.00000000000E+00  0.00000000000E+00  0.10562458951E+04  0.10562458951E+04  0.25500000920E-02 0.  1.
       -2   -1    0    0    0  501  0.00000000000E+00  0.00000000000E+00 -0.67896609418E+03  0.67896609419E+03  0.25500000920E-02 0. -1.
    10030    2    1    2    0    0  0.00000000000E+00  0.00000000000E+00  0.37727980094E+03  0.17352119893E+04  0.16937002685E+04 0.  0.
        2    1    3    3  502    0  0.14002485163E+03  0.61842520424E+03 -0.38645447748E+03  0.74256565735E+03  0.25500000920E-02 0. -1.
       -2    1    3    3    0  502 -0.14002485163E+03 -0.61842520424E+03  0.76373427842E+03  0.99264633196E+03  0.25500000920E-02 0.  1.
</event>
<event>
 5   0  0.7049044E-04  0.1656817E+04  0.7818609E-02  0.8786384E-01
       -2   -1    0    0    0  501  0.00000000000E+00  0.00000000000E+00  0.48915544424E+03  0.48915544425E+03  0.25500000920E-02 0. -1.
        2   -1    0    0  501    0  0.00000000000E+00  0.00000000000E+00 -0.14029505564E+04  0.14029505564E+04  0.25500000920E-02 0.  1.
    10030    2    1    2    0    0  0.00000000000E+00  0.00000000000E+00 -0.91379511213E+03  0.18921060006E+04  0.16568173136E+04 0.  0.
        4    1    3    3  502    0 -0.63901842280E+03  0.46585561507E+03 -0.73870701225E+03  0.10821532524E+04  0.12699999809E+01 0. -1.
       -4    1    3    3    0  502  0.63901842280E+03 -0.46585561507E+03 -0.17508809988E+03  0.80995274824E+03  0.12699999809E+01 0.  1.
</event>
<event>
 5   0  0.3803253E-04  0.1887519E+04  0.7818609E-02  0.8661094E-01
        1   -1    0    0  501    0  0.00000000000E+00  0.00000000000E+00  0.89602340844E+03  0.89602340846E+03  0.50400001928E-02 0. -1.
       -1   -1    0    0    0  501  0.00000000000E+00  0.00000000000E+00 -0.99403915285E+03  0.99403915286E+03  0.50400001928E-02 0.  1.
    10030    2    1    2    0    0  0.00000000000E+00  0.00000000000E+00 -0.98015744407E+02  0.18900625613E+04  0.18875193773E+04 0.  0.
        4    1    3    3  502    0 -0.12704597063E+03  0.52733600388E+03 -0.82235460834E+03  0.98513585581E+03  0.12699999809E+01 0.  1.
       -4    1    3    3    0  502  0.12704597063E+03 -0.52733600388E+03  0.72433886393E+03  0.90492670551E+03  0.12699999809E+01 0. -1.
</event>
<event>
 5   0  0.6746664E-04  0.1262437E+04  0.7818609E-02  0.9059895E-01
        2   -1    0    0  501    0  0.00000000000E+00  0.00000000000E+00  0.97839963221E+03  0.97839963221E+03  0.25500000920E-02 0. -1.
       -2   -1    0    0    0  501  0.00000000000E+00  0.00000000000E+00 -0.40723334965E+03  0.40723334966E+03  0.25500000920E-02 0.  1.
    10030    2    1    2    0    0  0.00000000000E+00  0.00000000000E+00  0.57116628255E+03  0.13856329819E+04  0.12624372611E+04 0.  0.
        5    1    3    3  502    0  0.11605895181E+02 -0.62772726836E+03  0.35704135400E+03  0.72227199774E+03  0.46999998093E+01 0. -1.
       -5    1    3    3    0  502 -0.11605895181E+02  0.62772726836E+03  0.21412492855E+03  0.66336098413E+03  0.46999998093E+01 0.  1.
</event>
<event>
 5   0  0.7242144E-04  0.1683592E+04  0.7818609E-02  0.8770778E-01
       -2   -1    0    0    0  501  0.00000000000E+00  0.00000000000E+00  0.48324822682E+03  0.48324822682E+03  0.25500000920E-02 0. -1.
        2   -1    0    0  501    0  0.00000000000E+00  0.00000000000E+00 -0.14663701091E+04  0.14663701091E+04  0.25500000920E-02 0.  1.
    10030    2    1    2    0    0  0.00000000000E+00  0.00000000000E+00 -0.98312188232E+03  0.19496183360E+04  0.16835922964E+04 0.  0.
        3    1    3    3  502    0 -0.42878749716E+02 -0.77546535630E+03 -0.86757699544E+03  0.11644204392E+04  0.10100000352E+00 0. -1.
       -3    1    3    3    0  502  0.42878749716E+02  0.77546535630E+03 -0.11554488688E+03  0.78519789676E+03  0.10100000352E+00 0.  1.
</event>
<event>
 5   0  0.7049044E-04  0.1698008E+04  0.7818609E-02  0.8762501E-01
        2   -1    0    0  501    0  0.00000000000E+00  0.00000000000E+00  0.24222446460E+04  0.24222446460E+04  0.25500000920E-02 0. -1.
       -2   -1    0    0    0  501  0.00000000000E+00  0.00000000000E+00 -0.29757849632E+03  0.29757849633E+03  0.25500000920E-02 0.  1.
    10030    2    1    2    0    0  0.00000000000E+00  0.00000000000E+00  0.21246661497E+04  0.27198231423E+04  0.16980081502E+04 0.  0.
        4    1    3    3  502    0  0.53596006451E+02  0.33239411321E+03  0.23107378521E+04  0.23351379857E+04  0.12699999809E+01 0. -1.
       -4    1    3    3    0  502 -0.53596006451E+02 -0.33239411321E+03 -0.18607170239E+03  0.38468515663E+03  0.12699999809E+01 0.  1.
</event>
<event>
 5   0  0.3915701E-04  0.1725482E+04  0.7818609E-02  0.8746963E-01
       -1   -1    0    0    0  501  0.00000000000E+00  0.00000000000E+00  0.52596755620E+03  0.52596755622E+03  0.50400001928E-02 0. -1.
        1   -1    0    0  501    0  0.00000000000E+00  0.00000000000E+00 -0.14151478908E+04  0.14151478908E+04  0.50400001928E-02 0.  1.
    10030    2    1    2    0    0  0.00000000000E+00  0.00000000000E+00 -0.88918033464E+03  0.19411154471E+04  0.17254818200E+04 0.  0.
        2    1    3    3  502    0 -0.83871579157E+03 -0.95246796277E+02 -0.24396113661E+03  0.87865417965E+03  0.25500000920E-02 0.  1.
       -2    1    3    3    0  502  0.83871579157E+03  0.95246796277E+02 -0.64521919803E+03  0.10624612674E+04  0.25500000920E-02 0. -1.
</event>
<event>
 5   0  0.7242144E-04  0.1726897E+04  0.7818609E-02  0.8746171E-01
        2   -1    0    0  501    0  0.00000000000E+00  0.00000000000E+00  0.58500953200E+03  0.58500953201E+03  0.25500000920E-02 0. -1.
       -2   -1    0    0    0  501  0.00000000000E+00  0.00000000000E+00 -0.12744128344E+04  0.12744128344E+04  0.25500000920E-02 0.  1.
    10030    2    1    2    0    0  0.00000000000E+00  0.00000000000E+00 -0.68940330243E+03  0.18594223665E+04  0.17268973981E+04 0.  0.
        3    1    3    3  502    0 -0.55110576637E+03 -0.27680923044E+03  0.30599492727E+03  0.68845756695E+03  0.10100000352E+00 0. -1.
       -3    1    3    3    0  502  0.55110576637E+03  0.27680923044E+03 -0.99539822970E+03  0.11709647995E+04  0.10100000352E+00 0.  1.
</event>
<event>
 5   0  0.3635143E-04  0.1697972E+04  0.7818609E-02  0.8762522E-01
       -1   -1    0    0    0  501  0.00000000000E+00  0.00000000000E+00  0.79276988769E+03  0.79276988771E+03  0.50400001928E-02 0.  1.
        1   -1    0    0  501    0  0.00000000000E+00  0.00000000000E+00 -0.90918897634E+03  0.90918897636E+03  0.50400001928E-02 0. -1.
    10030    2    1    2    0    0  0.00000000000E+00  0.00000000000E+00 -0.11641908865E+03  0.17019588641E+04  0.16979724882E+04 0.  0.
        3    1    3    3  502    0  0.52756023071E+03  0.46208454693E+03 -0.53780513008E+03  0.88378520789E+03  0.10100000352E+00 0. -1.
       -3    1    3    3    0  502 -0.52756023071E+03 -0.46208454693E+03  0.42138604143E+03  0.81817365617E+03  0.10100000352E+00 0.  1.
</event>
<event>
 5   0  0.7049044E-04  0.1509869E+04  0.7818609E-02  0.8877917E-01
        2   -1    0    0  501    0  0.00000000000E+00  0.00000000000E+00  0.18693112493E+04  0.18693112493E+04  0.25500000920E-02 0.  1.
       -2   -1    0    0    0  501  0.00000000000E+00  0.00000000000E+00 -0.30488549142E+03  0.30488549143E+03  0.25500000920E-02 0. -1.
    10030    2    1    2    0    0  0.00000000000E+00  0.00000000000E+00  0.15644257579E+04  0.21741967407E+04  0.15098687080E+04 0.  0.
        4    1    3    3  502    0 -0.54304123192E+03  0.52171211313E+03  0.70537946314E+03  0.10318135047E+04  0.12699999809E+01 0. -1.
       -4    1    3    3    0  502  0.54304123192E+03 -0.52171211313E+03  0.85904629474E+03  0.11423832360E+04  0.12699999809E+01 0.  1.
</event>
<event>
 5   0  0.3723500E-04  0.1666087E+04  0.7818609E-02  0.8780946E-01
        1   -1    0    0  501    0  0.00000000000E+00  0.00000000000E+00  0.10266086411E+04  0.10266086411E+04  0.50400001928E-02 0.  1.
       -1   -1    0    0    0  501  0.00000000000E+00  0.00000000000E+00 -0.67597470009E+03  0.67597470011E+03  0.50400001928E-02 0. -1.
    10030    2    1    2    0    0  0.00000000000E+00  0.00000000000E+00  0.35063394100E+03  0.17025833412E+04  0.16660869945E+04 0.  0.
        1    1    3    3  502    0  0.27840164319E+03 -0.73125878200E+03 -0.11680249729E+03  0.79113191352E+03  0.50400001928E-02 0. -1.
       -1    1    3    3    0  502 -0.27840164319E+03  0.73125878200E+03  0.46743643828E+03  0.91145142770E+03  0.50400001928E-02 0.  1.
</event>
<event>
 5   0  0.6746664E-04  0.1211383E+04  0.7818609E-02  0.9102951E-01
        2   -1    0    0  501    0  0.00000000000E+00  0.00000000000E+00  0.13545674318E+04  0.13545674318E+04  0.25500000920E-02 0.  1.
       -2   -1    0    0    0  501  0.00000000000E+00  0.00000000000E+00 -0.27083362838E+03  0.27083362839E+03  0.25500000920E-02 0. -1.
    10030    2    1    2    0    0  0.00000000000E+00  0.00000000000E+00  0.10837338034E+04  0.16254010602E+04  0.12113833620E+04 0.  0.
        5    1    3    3  502    0  0.12458361934E+03  0.56192036458E+03  0.28882712082E+03  0.64398662257E+03  0.46999998093E+01 0. -1.
       -5    1    3    3    0  502 -0.12458361934E+03 -0.56192036458E+03  0.79490668260E+03  0.98141443762E+03  0.46999998093E+01 0.  1.
</event>
<event>
 5   0  0.3713516E-04  0.1670676E+04  0.7818609E-02  0.8778268E-01
        1   -1    0    0  501    0  0.00000000000E+00  0.00000000000E+00  0.63058808911E+03  0.63058808913E+03  0.50400001928E-02 0.  1.
       -1   -1    0    0    0  501  0.00000000000E+00  0.00000000000E+00 -0.11065701439E+04  0.11065701439E+04  0.50400001928E-02 0. -1.
    10030    2    1    2    0    0  0.00000000000E+00  0.00000000000E+00 -0.47598205483E+03  0.17371582331E+04  0.16706764529E+04 0.  0.
        5    1    3    3  502    0  0.42300878831E+03  0.19864947733E+03 -0.95790792675E+03  0.10658366366E+04  0.46999998093E+01 0. -1.
       -5    1    3    3    0  502 -0.42300878831E+03 -0.19864947733E+03  0.48192587193E+03  0.67132159645E+03  0.46999998093E+01 0.  1.
</event>
<event>
 5   0  0.3713516E-04  0.1701500E+04  0.7818609E-02  0.8760510E-01
       -1   -1    0    0    0  501  0.00000000000E+00  0.00000000000E+00  0.69397272913E+03  0.69397272915E+03  0.50400001928E-02 0. -1.
        1   -1    0    0  501    0  0.00000000000E+00  0.00000000000E+00 -0.10429447508E+04  0.10429447508E+04  0.50400001928E-02 0.  1.
    10030    2    1    2    0    0  0.00000000000E+00  0.00000000000E+00 -0.34897202169E+03  0.17369174800E+04  0.17014995916E+04 0.  0.
        5    1    3    3  502    0  0.55410209197E+03 -0.39742555397E+03 -0.69377619241E+03  0.97279170146E+03  0.46999998093E+01 0.  1.
       -5    1    3    3    0  502 -0.55410209197E+03  0.39742555397E+03  0.34480417071E+03  0.76412577853E+03  0.46999998093E+01 0. -1.
</event>
<event>
 5   0  0.6746664E-04  0.1692148E+04  0.7818609E-02  0.8765856E-01
        2   -1    0    0  501    0  0.00000000000E+00  0.00000000000E+00  0.13839869793E+04  0.13839869793E+04  0.25500000920E-02 0.  1.
       -2   -1    0    0    0  501  0.00000000000E+00  0.00000000000E+00 -0.51723094355E+03  0.51723094355E+03  0.25500000920E-02 0. -1.
    10030    2    1    2    0    0  0.00000000000E+00  0.00000000000E+00  0.86675603576E+03  0.19012179229E+04  0.16921476191E+04 0.  0.
        5    1    3    3  502    0 -0.39206789177E+01 -0.47030555693E+03  0.12235612006E+04  0.13108496444E+04  0.46999998093E+01 0.  1.
       -5    1    3    3    0  502  0.39206789177E+01  0.47030555693E+03 -0.35680516482E+03  0.59036827849E+03  0.46999998093E+01 0. -1.
</event>
<event>
 5   0  0.3803253E-04  0.1612354E+04  0.7818609E-02  0.8812994E-01
        1   -1    0    0  501    0  0.00000000000E+00  0.00000000000E+00  0.76727636417E+03  0.76727636418E+03  0.50400001928E-02 0.  1.
       -1   -1    0    0    0  501  0.00000000000E+00  0.00000000000E+00 -0.84704970408E+03  0.84704970410E+03  0.50400001928E-02 0. -1.
    10030    2    1    2    0    0  0.00000000000E+00  0.00000000000E+00 -0.79773339916E+02  0.16143260683E+04  0.16123538287E+04 0.  0.
        4    1    3    3  502    0 -0.34953849671E+02  0.54388515412E+03  0.55488270192E+03  0.77777198347E+03  0.12699999809E+01 0.  1.
       -4    1    3    3    0  502  0.34953849671E+02 -0.54388515412E+03 -0.63465604184E+03  0.83655408481E+03  0.12699999809E+01 0. -1.
</event>
<event>
 5   0  0.3803253E-04  0.1676768E+04  0.7818609E-02  0.8774726E-01
       -1   -1    0    0    0  501  0.00000000000E+00  0.00000000000E+00  0.37619909839E+03  0.37619909842E+03  0.50400001928E-02 0.  1.
        1   -1    0    0  501    0  0.00000000000E+00  0.00000000000E+00 -0.18683936062E+04  0.18683936062E+04  0.50400001928E-02 0. -1.
    10030    2    1    2    0    0  0.00000000000E+00  0.00000000000E+00 -0.14921945078E+04  0.22445927046E+04  0.16767683085E+04 0.  0.
        4    1    3    3  502    0 -0.75562021159E+03 -0.10447727688E+03 -0.12117619088E+04  0.14318679904E+04  0.12699999809E+01 0. -1.
       -4    1    3    3    0  502  0.75562021159E+03  0.10447727688E+03 -0.28043259901E+03  0.81272471418E+03  0.12699999809E+01 0.  1.
</event>
<event>
 5   0  0.3713516E-04  0.1683160E+04  0.7818609E-02  0.8771028E-01
       -1   -1    0    0    0  501  0.00000000000E+00  0.00000000000E+00  0.58325486005E+03  0.58325486008E+03  0.50400001928E-02 0.  1.
        1   -1    0    0  501    0  0.00000000000E+00  0.00000000000E+00 -0.12143174191E+04  0.12143174191E+04  0.50400001928E-02 0. -1.
    10030    2    1    2    0    0  0.00000000000E+00  0.00000000000E+00 -0.63106255907E+03  0.17975722792E+04  0.16831595722E+04 0.  0.
        5    1    3    3  502    0 -0.38312441426E+03  0.47320812587E+03  0.30492834912E+03  0.68096522326E+03  0.46999998093E+01 0.  1.
       -5    1    3    3    0  502  0.38312441426E+03 -0.47320812587E+03 -0.93599090819E+03  0.11166070560E+04  0.46999998093E+01 0. -1.
</event>
<event>
 5   0  0.3803253E-04  0.1616366E+04  0.7818609E-02  0.8810556E-01
       -1   -1    0    0    0  501  0.00000000000E+00  0.00000000000E+00  0.11193031736E+04  0.11193031736E+04  0.50400001928E-02 0.  1.
        1   -1    0    0  501    0  0.00000000000E+00  0.00000000000E+00 -0.58354151709E+03  0.58354151712E+03  0.50400001928E-02 0. -1.
    10030    2    1    2    0    0  0.00000000000E+00  0.00000000000E+00  0.53576165647E+03  0.17028446907E+04  0.16163661368E+04 0.  0.
        4    1    3    3  502    0  0.17368175397E+03 -0.20335023636E+03  0.10713385377E+04  0.11042121833E+04  0.12699999809E+01 0.  1.
       -4    1    3    3    0  502 -0.17368175397E+03  0.20335023636E+03 -0.53557688128E+03  0.59863250743E+03  0.12699999809E+01 0. -1.
</event>
<event>
 5   0  0.3803253E-04  0.1040844E+04  0.7818609E-02  0.9264848E-01
        1   -1    0    0  501    0  0.00000000000E+00  0.00000000000E+00  0.15011052264E+04  0.15011052264E+04  0.50400001928E-02 0. -1.
       -1   -1    0    0    0  501  0.00000000000E+00  0.00000000000E+00 -0.18042659352E+03  0.18042659359E+03  0.50400001928E-02 0.  1.
    10030    2    1    2    0    0  0.00000000000E+00  0.00000000000E+00  0.13206786328E+04  0.16815318200E+04  0.10408444698E+04 0.  0.
        4    1    3    3  502    0  0.73621514477E+02 -0.62158334820E+02  0.14865672125E+04  0.14896870396E+04  0.12699999809E+01 0. -1.
       -4    1    3    3    0  502 -0.73621514477E+02  0.62158334820E+02 -0.16588857963E+03  0.19184478031E+03  0.12699999809E+01 0.  1.
</event>
<event>
 5   0  0.3803253E-04  0.1742485E+04  0.7818609E-02  0.8737498E-01
        1   -1    0    0  501    0  0.00000000000E+00  0.00000000000E+00  0.90413433516E+03  0.90413433517E+03  0.50400001928E-02 0.  1.
       -1   -1    0    0    0  501  0.00000000000E+00  0.00000000000E+00 -0.83954707585E+03  0.83954707587E+03  0.50400001928E-02 0. -1.
    10030    2    1    2    0    0  0.00000000000E+00  0.00000000000E+00  0.64587259308E+02  0.17436814110E+04  0.17424848204E+04 0.  0.
        4    1    3    3  502    0  0.71500385344E+02  0.86153353838E+03  0.14057783474E+03  0.87585163320E+03  0.12699999809E+01 0.  1.
       -4    1    3    3    0  502 -0.71500385344E+02 -0.86153353838E+03 -0.75990575428E+02  0.86782977784E+03  0.12699999809E+01 0. -1.
</event>
<event>
 5   0  0.3723500E-04  0.1628909E+04  0.7818609E-02  0.8802982E-01
        1   -1    0    0  501    0  0.00000000000E+00  0.00000000000E+00  0.83622523836E+03  0.83622523837E+03  0.50400001928E-02 0. -1.
       -1   -1    0    0    0  501  0.00000000000E+00  0.00000000000E+00 -0.79325046359E+03  0.79325046361E+03  0.50400001928E-02 0.  1.
    10030    2    1    2    0    0  0.00000000000E+00  0.00000000000E+00  0.42974774766E+02  0.16294757020E+04  0.16289089085E+04 0.  0.
        1    1    3    3  502    0 -0.44013287592E+03 -0.39059044481E+03  0.58476254116E+03  0.82959331820E+03  0.50400001928E-02 0. -1.
       -1    1    3    3    0  502  0.44013287592E+03  0.39059044481E+03 -0.54178776639E+03  0.79988238378E+03  0.50400001928E-02 0.  1.
</event>
<event>
 5   0  0.7025426E-04  0.1692826E+04  0.7818609E-02  0.8765467E-01
       -2   -1    0    0    0  501  0.00000000000E+00  0.00000000000E+00  0.46066278378E+03  0.46066278378E+03  0.25500000920E-02 0. -1.
        2   -1    0    0  501    0  0.00000000000E+00  0.00000000000E+00 -0.15551826224E+04  0.15551826224E+04  0.25500000920E-02 0.  1.
    10030    2    1    2    0    0  0.00000000000E+00  0.00000000000E+00 -0.10945198386E+04  0.20158454062E+04  0.16928257514E+04 0.  0.
        2    1    3    3  502    0  0.12689819545E+03 -0.22088467304E+03 -0.15084501854E+04  0.15298088615E+04  0.25500000920E-02 0.  1.
       -2    1    3    3    0  502 -0.12689819545E+03  0.22088467304E+03  0.41393034679E+03  0.48603654470E+03  0.25500000920E-02 0. -1.
</event>
<event>
 5   0  0.3723500E-04  0.1696406E+04  0.7818609E-02  0.8763417E-01
       -1   -1    0    0    0  501  0.00000000000E+00  0.00000000000E+00  0.59144254966E+03  0.59144254968E+03  0.50400001928E-02 0. -1.
        1   -1    0    0  501    0  0.00000000000E+00  0.00000000000E+00 -0.12164300060E+04  0.12164300060E+04  0.50400001928E-02 0.  1.
    10030    2    1    2    0    0  0.00000000000E+00  0.00000000000E+00 -0.62498745637E+03  0.18078725557E+04  0.16964061592E+04 0.  0.
        1    1    3    3  502    0  0.42420241314E+03 -0.48232418360E+02  0.46858647306E+03  0.63391429724E+03  0.50400001928E-02 0. -1.
       -1    1    3    3    0  502 -0.42420241314E+03  0.48232418360E+02 -0.10935739294E+04  0.11739582585E+04  0.50400001928E-02 0.  1.
</event>
<event>
 5   0  0.3803253E-04  0.1687305E+04  0.7818609E-02  0.8768638E-01
        1   -1    0    0  501    0  0.00000000000E+00  0.00000000000E+00  0.75754872971E+03  0.75754872973E+03  0.50400001928E-02 0. -1.
       -1   -1    0    0    0  501  0.00000000000E+00  0.00000000000E+00 -0.93954307961E+03  0.93954307963E+03  0.50400001928E-02 0.  1.
    10030    2    1    2    0    0  0.00000000000E+00  0.00000000000E+00 -0.18199434990E+03  0.16970918094E+04  0.16873051490E+04 0.  0.
        4    1    3    3  502    0 -0.68704253074E+03 -0.18748445062E+03  0.36392057825E+03  0.79976100082E+03  0.12699999809E+01 0. -1.
       -4    1    3    3    0  502  0.68704253074E+03  0.18748445062E+03 -0.54591492815E+03  0.89733080853E+03  0.12699999809E+01 0.  1.
</event>
<event>
 5   0  0.6746664E-04  0.1695963E+04  0.7818609E-02  0.8763670E-01
        2   -1    0    0  501    0  0.00000000000E+00  0.00000000000E+00  0.11326139318E+04  0.11326139318E+04  0.25500000920E-02 0. -1.
       -2   -1    0    0    0  501  0.00000000000E+00  0.00000000000E+00 -0.63487921634E+03  0.63487921635E+03  0.25500000920E-02 0.  1.
    10030    2    1    2    0    0  0.00000000000E+00  0.00000000000E+00  0.49773471541E+03  0.17674931481E+04  0.16959634966E+04 0.  0.
        5    1    3    3  502    0 -0.54931024757E+03  0.61327941018E+03  0.46039983289E+03  0.94331515368E+03  0.46999998093E+01 0. -1.
       -5    1    3    3    0  502  0.54931024757E+03 -0.61327941018E+03  0.37334882520E+02  0.82417799442E+03  0.46999998093E+01 0.  1.
</event>
<event>
 5   0  0.6746664E-04  0.1698209E+04  0.7818609E-02  0.8762386E-01
       -2   -1    0    0    0  501  0.00000000000E+00  0.00000000000E+00  0.16384674584E+04  0.16384674584E+04  0.25500000920E-02 0.  1.
        2   -1    0    0  501    0  0.00000000000E+00  0.00000000000E+00 -0.44003229253E+03  0.44003229254E+03  0.25500000920E-02 0. -1.
    10030    2    1    2    0    0  0.00000000000E+00  0.00000000000E+00  0.11984351658E+04  0.20784997509E+04  0.16982091649E+04 0.  0.
        5    1    3    3  502    0 -0.24543948501E+02 -0.11866852883E+03  0.16278133982E+04  0.16323244697E+04  0.46999998093E+01 0.  1.
       -5    1    3    3    0  502  0.24543948501E+02  0.11866852883E+03 -0.42937823234E+03  0.44617528119E+03  0.46999998093E+01 0. -1.
</event>
<event>
 5   0  0.3635143E-04  0.1696128E+04  0.7818609E-02  0.8763576E-01
        1   -1    0    0  501    0  0.00000000000E+00  0.00000000000E+00  0.12044163139E+04  0.12044163139E+04  0.50400001928E-02 0.  1.
       -1   -1    0    0    0  501  0.00000000000E+00  0.00000000000E+00 -0.59714618144E+03  0.59714618147E+03  0.50400001928E-02 0. -1.
    10030    2    1    2    0    0  0.00000000000E+00  0.00000000000E+00  0.60727013243E+03  0.18015624953E+04  0.16961280644E+04 0.  0.
        3    1    3    3  502    0 -0.67325242140E+03 -0.51569549773E+03  0.30510808066E+03  0.90127777093E+03  0.10100000352E+00 0. -1.
       -3    1    3    3    0  502  0.67325242140E+03  0.51569549773E+03  0.30216205177E+03  0.90028472442E+03  0.10100000352E+00 0.  1.
</event>
<event>
 5   0  0.3803253E-04  0.1786596E+04  0.7818609E-02  0.8713460E-01
       -1   -1    0    0    0  501  0.00000000000E+00  0.00000000000E+00  0.13020347988E+04  0.13020347988E+04  0.50400001928E-02 0. -1.
        1   -1    0    0  501    0  0.00000000000E+00  0.00000000000E+00 -0.61287245858E+03  0.61287245860E+03  0.50400001928E-02 0.  1.
    10030    2    1    2    0    0  0.00000000000E+00  0.00000000000E+00  0.68916234023E+03  0.19149072574E+04  0.17865959457E+04 0.  0.
        4    1    3    3  502    0 -0.48645928153E+03 -0.68098412411E+03  0.97382879885E+01  0.83694591046E+03  0.12699999809E+01 0.  1.
       -4    1    3    3    0  502  0.48645928153E+03  0.68098412411E+03  0.67942405225E+03  0.10779613470E+04  0.12699999809E+01 0. -1.
</event>
<event>
 5   0  0.3803253E-04  0.1599695E+04  0.7818609E-02  0.8820736E-01
        1   -1    0    0  501    0  0.00000000000E+00  0.00000000000E+00  0.44308445422E+03  0.44308445425E+03  0.50400001928E-02 0.  1.
       -1   -1    0    0    0  501  0.00000000000E+00  0.00000000000E+00 -0.14438684481E+04  0.14438684481E+04  0.50400001928E-02 0. -1.
    10030    2    1    2    0    0  0.00000000000E+00  0.00000000000E+00 -0.10007839939E+04  0.18869529024E+04  0.15996945500E+04 0.  0.
        4    1    3    3  502    0 -0.40096937232E+03  0.52333385672E+02  0.31363047910E+03  0.51174301276E+03  0.12699999809E+01 0.  1.
       -4    1    3    3    0  502  0.40096937232E+03 -0.52333385672E+02 -0.13144144730E+04  0.13752098896E+04  0.12699999809E+01 0. -1.
</event>
<event>
 5   0  0.7049044E-04  0.1627548E+04  0.7818609E-02  0.8803801E-01
        2   -1    0    0  501    0  0.00000000000E+00  0.00000000000E+00  0.18876476291E+04  0.18876476291E+04  0.25500000920E-02 0.  1.
       -2   -1    0    0    0  501  0.00000000000E+00  0.00000000000E+00 -0.35082174282E+03  0.35082174283E+03  0.25500000920E-02 0. -1.
    10030    2    1    2    0    0  0.00000000000E+00  0.00000000000E+00  0.15368258863E+04  0.22384693719E+04  0.16275476412E+04 0.  0.
        4    1    3    3  502    0 -0.69894811575E+02 -0.78123105879E+03  0.47018111898E+03  0.91448299571E+03  0.12699999809E+01 0. -1.
       -4    1    3    3    0  502  0.69894811575E+02  0.78123105879E+03  0.10666447673E+04  0.13239863762E+04  0.12699999809E+01 0.  1.
</event>
<event>
 5   0  0.2639750E-04  0.1722501E+04  0.7818609E-02  0.8748634E-01
        3   -1    0    0  501    0  0.00000000000E+00  0.00000000000E+00  0.75495651593E+03  0.75495652269E+03  0.10100000352E+00 0. -1.
       -3   -1    0    0    0  501  0.00000000000E+00  0.00000000000E+00 -0.98251024652E+03  0.98251025171E+03  0.10100000352E+00 0.  1.
    10030    2    1    2    0    0  0.00000000000E+00  0.00000000000E+00 -0.22755373058E+03  0.17374667744E+04  0.17225011152E+04 0.  0.
        4    1    3    3  502    0  0.68053152597E+03  0.44798305208E+03 -0.39537789364E+03  0.90561430226E+03  0.12699999809E+01 0.  1.
       -4    1    3    3    0  502 -0.68053152597E+03 -0.44798305208E+03  0.16782416305E+03  0.83185247213E+03  0.12699999809E+01 0. -1.
</event>
<event>
 5   0  0.3635143E-04  0.1699667E+04  0.7818609E-02  0.8761555E-01
        1   -1    0    0  501    0  0.00000000000E+00  0.00000000000E+00  0.13942430255E+04  0.13942430255E+04  0.50400001928E-02 0. -1.
       -1   -1    0    0    0  501  0.00000000000E+00  0.00000000000E+00 -0.51799908484E+03  0.51799908487E+03  0.50400001928E-02 0.  1.
    10030    2    1    2    0    0  0.00000000000E+00  0.00000000000E+00  0.87624394062E+03  0.19122421103E+04  0.16996665688E+04 0.  0.
        3    1    3    3  502    0 -0.39236010794E+02  0.84130569509E+03  0.56581538463E+03  0.10146338240E+04  0.10100000352E+00 0. -1.
       -3    1    3    3    0  502  0.39236010794E+02 -0.84130569509E+03  0.31042855600E+03  0.89760828634E+03  0.10100000352E+00 0.  1.
</event>
<event>
 5   0  0.7025426E-04  0.1537542E+04  0.7818609E-02  0.8859865E-01
       -2   -1    0    0    0  501  0.00000000000E+00  0.00000000000E+00  0.68575061252E+03  0.68575061252E+03  0.25500000920E-02 0. -1.
        2   -1    0    0  501    0  0.00000000000E+00  0.00000000000E+00 -0.86184204076E+03  0.86184204076E+03  0.25500000920E-02 0.  1.
    10030    2    1    2    0    0  0.00000000000E+00  0.00000000000E+00 -0.17609142824E+03  0.15475926533E+04  0.15375418139E+04 0.  0.
        2    1    3    3  502    0 -0.23708820011E+03 -0.56434572075E+03  0.38008790350E+03  0.72053016700E+03  0.25500000920E-02 0. -1.
       -2    1    3    3    0  502  0.23708820011E+03  0.56434572075E+03 -0.55617933174E+03  0.82706248629E+03  0.25500000920E-02 0.  1.
</event>
<event>
 5   0  0.6746664E-04  0.1684391E+04  0.7818609E-02  0.8770317E-01
        2   -1    0    0  501    0  0.00000000000E+00  0.00000000000E+00  0.69550820406E+03  0.69550820406E+03  0.25500000920E-02 0.  1.
       -2   -1    0    0    0  501  0.00000000000E+00  0.00000000000E+00 -0.10198203529E+04  0.10198203529E+04  0.25500000920E-02 0. -1.
    10030    2    1    2    0    0  0.00000000000E+00  0.00000000000E+00 -0.32431214882E+03  0.17153285569E+04  0.16843911922E+04 0.  0.
        5    1    3    3  502    0 -0.42746955799E+03 -0.24588397526E+03  0.53308529330E+03  0.72621702832E+03  0.46999998093E+01 0.  1.
       -5    1    3    3    0  502  0.42746955799E+03  0.24588397526E+03 -0.85739744212E+03  0.98911152862E+03  0.46999998093E+01 0. -1.
</event>
<event>
 5   0  0.7242144E-04  0.1610263E+04  0.7818609E-02  0.8814268E-01
        2   -1    0    0  501    0  0.00000000000E+00  0.00000000000E+00  0.15345063770E+04  0.15345063770E+04  0.25500000920E-02 0.  1.
       -2   -1    0    0    0  501  0.00000000000E+00  0.00000000000E+00 -0.42244004945E+03  0.42244004946E+03  0.25500000920E-02 0. -1.
    10030    2    1    2    0    0  0.00000000000E+00  0.00000000000E+00  0.11120663275E+04  0.19569464265E+04  0.16102632701E+04 0.  0.
        3    1    3    3  502    0 -0.38538699123E+03 -0.51105792981E+03  0.11495825088E+04  0.13157671889E+04  0.10100000352E+00 0.  1.
       -3    1    3    3    0  502  0.38538699123E+03  0.51105792981E+03 -0.37516181257E+02  0.64117923757E+03  0.10100000352E+00 0. -1.
</event>
<event>
 5   0  0.3915701E-04  0.1723006E+04  0.7818609E-02  0.8748351E-01
        1   -1    0    0  501    0  0.00000000000E+00  0.00000000000E+00  0.15196249885E+04  0.15196249885E+04  0.50400001928E-02 0. -1.
       -1   -1    0    0    0  501  0.00000000000E+00  0.00000000000E+00 -0.48840191725E+03  0.48840191728E+03  0.50400001928E-02 0.  1.
    10030    2    1    2    0    0  0.00000000000E+00  0.00000000000E+00  0.10312230713E+04  0.20080269058E+04  0.17230063934E+04 0.  0.
        2    1    3    3  502    0  0.27876023819E+03 -0.12941379622E+03  0.14535632941E+04  0.14856989773E+04  0.25500000920E-02 0. -1.
       -2    1    3    3    0  502 -0.27876023819E+03  0.12941379622E+03 -0.42234022287E+03  0.52232792851E+03  0.25500000920E-02 0.  1.
</event>
<event>
 5   0  0.7242144E-04  0.1704640E+04  0.7818609E-02  0.8758723E-01
       -2   -1    0    0    0  501  0.00000000000E+00  0.00000000000E+00  0.30286257661E+03  0.30286257662E+03  0.25500000920E-02 0. -1.
        2   -1    0    0  501    0  0.00000000000E+00  0.00000000000E+00 -0.23986096311E+04  0.23986096311E+04  0.25500000920E-02 0.  1.
    10030    2    1    2    0    0  0.00000000000E+00  0.00000000000E+00 -0.20957470545E+04  0.27014722077E+04  0.17046396607E+04 0.  0.
        3    1    3    3  502    0  0.14345341893E+03  0.33496535095E+03  0.17319457537E+03  0.40345636800E+03  0.10100000352E+00 0. -1.
       -3    1    3    3    0  502 -0.14345341893E+03 -0.33496535095E+03 -0.22689416299E+04  0.22980158397E+04  0.10100000352E+00 0.  1.
</event>
<event>
 5   0  0.3713516E-04  0.1912240E+04  0.7818609E-02  0.8648788E-01
        1   -1    0    0  501    0  0.00000000000E+00  0.00000000000E+00  0.93498986477E+03  0.93498986478E+03  0.50400001928E-02 0. -1.
       -1   -1    0    0    0  501  0.00000000000E+00  0.00000000000E+00 -0.97772787801E+03  0.97772787803E+03  0.50400001928E-02 0.  1.
    10030    2    1    2    0    0  0.00000000000E+00  0.00000000000E+00 -0.42738013247E+02  0.19127177428E+04  0.19122402113E+04 0.  0.
        5    1    3    3  502    0 -0.76956196083E+02  0.42791205494E+03  0.83037906894E+03  0.93732730196E+03  0.46999998093E+01 0. -1.
       -5    1    3    3    0  502  0.76956196083E+02 -0.42791205494E+03 -0.87311708219E+03  0.97539044084E+03  0.46999998093E+01 0.  1.
</event>
<event>
 5   0  0.3635143E-04  0.1681458E+04  0.7818609E-02  0.8772011E-01
        1   -1    0    0  501    0  0.00000000000E+00  0.00000000000E+00  0.90099630500E+03  0.90099630501E+03  0.50400001928E-02 0. -1.
       -1   -1    0    0    0  501  0.00000000000E+00  0.00000000000E+00 -0.78449304437E+03  0.78449304438E+03  0.50400001928E-02 0.  1.
    10030    2    1    2    0    0  0.00000000000E+00  0.00000000000E+00  0.11650326063E+03  0.16854893494E+04  0.16814580986E+04 0.  0.
        3    1    3    3  502    0 -0.76361604596E+03  0.29305209512E+03  0.25323360037E+03  0.85622208723E+03  0.10100000352E+00 0. -1.
       -3    1    3    3    0  502  0.76361604596E+03 -0.29305209512E+03 -0.13673033974E+03  0.82926726217E+03  0.10100000352E+00 0.  1.
</event>
<event>
 5   0  0.3803253E-04  0.1678320E+04  0.7818609E-02  0.8773827E-01
       -1   -1    0    0    0  501  0.00000000000E+00  0.00000000000E+00  0.51559464337E+03  0.51559464339E+03  0.50400001928E-02 0.  1.
        1   -1    0    0  501    0  0.00000000000E+00  0.00000000000E+00 -0.13657809483E+04  0.13657809483E+04  0.50400001928E-02 0. -1.
    10030    2    1    2    0    0  0.00000000000E+00  0.00000000000E+00 -0.85018630490E+03  0.18813755917E+04  0.16783198038E+04 0.  0.
        4    1    3    3  502    0 -0.55305295082E+03  0.27816081112E+03  0.20997050499E+03  0.65370500160E+03  0.12699999809E+01 0.  1.
       -4    1    3    3    0  502  0.55305295082E+03 -0.27816081112E+03 -0.10601568099E+04  0.12276705901E+04  0.12699999809E+01 0. -1.
</event>
<event>
 5   0  0.7049044E-04  0.1699132E+04  0.7818609E-02  0.8761860E-01
        2   -1    0    0  501    0  0.00000000000E+00  0.00000000000E+00  0.67896975013E+03  0.67896975013E+03  0.25500000920E-02 0.  1.
       -2   -1    0    0    0  501  0.00000000000E+00  0.00000000000E+00 -0.10630255615E+04  0.10630255615E+04  0.25500000920E-02 0. -1.
    10030    2    1    2    0    0  0.00000000000E+00  0.00000000000E+00 -0.38405581133E+03  0.17419953116E+04  0.16991317781E+04 0.  0.
        4    1    3    3  502    0 -0.32472475210E+03 -0.28203540439E+03  0.55910055903E+03  0.70539718029E+03  0.12699999809E+01 0.  1.
       -4    1    3    3    0  502  0.32472475210E+03  0.28203540439E+03 -0.94315637035E+03  0.10365981313E+04  0.12699999809E+01 0. -1.
</event>
<event>
 5   0  0.3803253E-04  0.1729606E+04  0.7818609E-02  0.8744657E-01
        1   -1    0    0  501    0  0.00000000000E+00  0.00000000000E+00  0.15418314884E+04  0.15418314884E+04  0.50400001928E-02 0. -1.
       -1   -1    0    0    0  501  0.00000000000E+00  0.00000000000E+00 -0.48506246545E+03  0.48506246547E+03  0.50400001928E-02 0.  1.
    10030    2    1    2    0    0  0.00000000000E+00  0.00000000000E+00  0.10567690229E+04  0.20268939538E+04  0.17296064097E+04 0.  0.
        4    1    3    3  502    0 -0.56112566728E+03 -0.40051794544E+03  0.11402440151E+04  0.13324543767E+04  0.12699999809E+01 0. -1.
       -4    1    3    3    0  502  0.56112566728E+03  0.40051794544E+03 -0.83474992184E+02  0.69443957715E+03  0.12699999809E+01 0.  1.
</event>
<event>
 5   0  0.6746664E-04  0.1523065E+04  0.7818609E-02  0.8869258E-01
       -2   -1    0    0    0  501  0.00000000000E+00  0.00000000000E+00  0.10363531010E+04  0.10363531010E+04  0.25500000920E-02 0. -1.
        2   -1    0    0  501    0  0.00000000000E+00  0.00000000000E+00 -0.55958889784E+03  0.55958889784E+03  0.25500000920E-02 0.  1.
    10030    2    1    2    0    0  0.00000000000E+00  0.00000000000E+00  0.47676420316E+03  0.15959419988E+04  0.15230649225E+04 0.  0.
        5    1    3    3  502    0  0.65304740860E+03 -0.30914897624E+03 -0.13680775279E+02  0.72267092165E+03  0.46999998093E+01 0.  1.
       -5    1    3    3    0  502 -0.65304740860E+03  0.30914897624E+03  0.49044497844E+03  0.87327107719E+03  0.46999998093E+01 0. -1.
</event>
<event>
 5   0  0.3635143E-04  0.1720617E+04  0.7818609E-02  0.8749692E-01
       -1   -1    0    0    0  501  0.00000000000E+00  0.00000000000E+00  0.71894158339E+03  0.71894158341E+03  0.50400001928E-02 0. -1.
        1   -1    0    0  501    0  0.00000000000E+00  0.00000000000E+00 -0.10294730042E+04  0.10294730042E+04  0.50400001928E-02 0.  1.
    10030    2    1    2    0    0  0.00000000000E+00  0.00000000000E+00 -0.31053142080E+03  0.17484145876E+04  0.17206172750E+04 0.  0.
        3    1    3    3  502    0 -0.20180144768E+03 -0.27982683722E+03  0.64556796276E+03  0.73197328357E+03  0.10100000352E+00 0. -1.
       -3    1    3    3    0  502  0.20180144768E+03  0.27982683722E+03 -0.95609938356E+03  0.10164413040E+04  0.10100000352E+00 0.  1.
</event>
<event>
 5   0  0.7025426E-04  0.1753636E+04  0.7818609E-02  0.8731352E-01
        2   -1    0    0  501    0  0.00000000000E+00  0.00000000000E+00  0.14740203546E+04  0.14740203546E+04  0.25500000920E-02 0. -1.
       -2   -1    0    0    0  501  0.00000000000E+00  0.00000000000E+00 -0.52157325399E+03  0.52157325400E+03  0.25500000920E-02 0.  1.
    10030    2    1    2    0    0  0.00000000000E+00  0.00000000000E+00  0.95244710061E+03  0.19955936086E+04  0.17536357578E+04 0.  0.
        2    1    3    3  502    0 -0.80339795186E+03  0.26425934451E+03  0.21293951304E+03  0.87213789416E+03  0.25500000920E-02 0.  1.
       -2    1    3    3    0  502  0.80339795186E+03 -0.26425934451E+03  0.73950758757E+03  0.11234557144E+04  0.25500000920E-02 0. -1.
</event>
<event>
 5   0  0.7049044E-04  0.1621705E+04  0.7818609E-02  0.8807324E-01
        2   -1    0    0  501    0  0.00000000000E+00  0.00000000000E+00  0.10590245765E+04  0.10590245765E+04  0.25500000920E-02 0. -1.
       -2   -1    0    0    0  501  0.00000000000E+00  0.00000000000E+00 -0.62083701653E+03  0.62083701654E+03  0.25500000920E-02 0.  1.
    10030    2    1    2    0    0  0.00000000000E+00  0.00000000000E+00  0.43818755992E+03  0.16798615930E+04  0.16217048541E+04 0.  0.
        4    1    3    3  502    0 -0.43747618682E+03  0.86011465411E+02 -0.48246566012E+03  0.65693082765E+03  0.12699999809E+01 0.  1.
       -4    1    3    3    0  502  0.43747618682E+03 -0.86011465411E+02  0.92065322005E+03  0.10229307653E+04  0.12699999809E+01 0. -1.
</event>
<event>
 5   0  0.7025426E-04  0.1449745E+04  0.7818609E-02  0.8918577E-01
       -2   -1    0    0    0  501  0.00000000000E+00  0.00000000000E+00  0.30929852111E+03  0.30929852112E+03  0.25500000920E-02 0. -1.
        2   -1    0    0  501    0  0.00000000000E+00  0.00000000000E+00 -0.16988125082E+04  0.16988125082E+04  0.25500000920E-02 0.  1.
    10030    2    1    2    0    0  0.00000000000E+00  0.00000000000E+00 -0.13895139871E+04  0.20081110293E+04  0.14497450762E+04 0.  0.
        2    1    3    3  502    0 -0.17676917138E+03 -0.53131186463E+03 -0.57136700939E+02  0.56285365775E+03  0.25500000920E-02 0. -1.
       -2    1    3    3    0  502  0.17676917138E+03  0.53131186463E+03 -0.13323772862E+04  0.14452573716E+04  0.25500000920E-02 0.  1.
</event>
<event>
 5   0  0.3803253E-04  0.1709628E+04  0.7818609E-02  0.8755892E-01
        1   -1    0    0  501    0  0.00000000000E+00  0.00000000000E+00  0.75311798999E+03  0.75311799001E+03  0.50400001928E-02 0.  1.
       -1   -1    0    0    0  501  0.00000000000E+00  0.00000000000E+00 -0.97024232600E+03  0.97024232601E+03  0.50400001928E-02 0. -1.
    10030    2    1    2    0    0  0.00000000000E+00  0.00000000000E+00 -0.21712433600E+03  0.17233603160E+04  0.17096279717E+04 0.  0.
        4    1    3    3  502    0  0.32568937016E+02 -0.14636046898E+02  0.75236497311E+03  0.75321286181E+03  0.12699999809E+01 0.  1.
       -4    1    3    3    0  502 -0.32568937016E+02  0.14636046898E+02 -0.96948930912E+03  0.97014745421E+03  0.12699999809E+01 0. -1.
</event>
<event>
 5   0  0.6746664E-04  0.1754731E+04  0.7818609E-02  0.8730751E-01
        2   -1    0    0  501    0  0.00000000000E+00  0.00000000000E+00  0.24728057868E+04  0.24728057868E+04  0.25500000920E-02 0.  1.
       -2   -1    0    0    0  501  0.00000000000E+00  0.00000000000E+00 -0.31129408352E+03  0.31129408353E+03  0.25500000920E-02 0. -1.
    10030    2    1    2    0    0  0.00000000000E+00  0.00000000000E+00  0.21615117033E+04  0.27840998703E+04  0.17547305333E+04 0.  0.
        5    1    3    3  502    0  0.14715857440E+03  0.65952280377E+03  0.19292344672E+03  0.70275708535E+03  0.46999998093E+01 0. -1.
       -5    1    3    3    0  502 -0.14715857440E+03 -0.65952280377E+03  0.19685882566E+04  0.20813427850E+04  0.46999998093E+01 0.  1.
</event>
<event>
 5   0  0.3915701E-04  0.1705543E+04  0.7818609E-02  0.8758209E-01
        1   -1    0    0  501    0  0.00000000000E+00  0.00000000000E+00  0.69795179326E+03  0.69795179328E+03  0.50400001928E-02 0.  1.
       -1   -1    0    0    0  501  0.00000000000E+00  0.00000000000E+00 -0.10419329836E+04  0.10419329836E+04  0.50400001928E-02 0. -1.
    10030    2    1    2    0    0  0.00000000000E+00  0.00000000000E+00 -0.34398119034E+03  0.17398847769E+04  0.17055427223E+04 0.  0.
        2    1    3    3  502    0 -0.42699053816E+03  0.71284927008E+03  0.23556360731E+02  0.83128208430E+03  0.25500000920E-02 0.  1.
       -2    1    3    3    0  502  0.42699053816E+03 -0.71284927008E+03 -0.36753755107E+03  0.90860269259E+03  0.25500000920E-02 0. -1.
</event>
<event>
 5   0  0.3723500E-04  0.1705524E+04  0.7818609E-02  0.8758220E-01
        1   -1    0    0  501    0  0.00000000000E+00  0.00000000000E+00  0.12907113377E+04  0.12907113377E+04  0.50400001928E-02 0.  1.
       -1   -1    0    0    0  501  0.00000000000E+00  0.00000000000E+00 -0.56341292654E+03  0.56341292656E+03  0.50400001928E-02 0. -1.
    10030    2    1    2    0    0  0.00000000000E+00  0.00000000000E+00  0.72729841117E+03  0.18541242643E+04  0.17055244966E+04 0.  0.
        1    1    3    3  502    0 -0.16061611717E+03 -0.52915733241E+03  0.10693609317E+04  0.12038844720E+04  0.50400001928E-02 0.  1.
       -1    1    3    3    0  502  0.16061611717E+03  0.52915733241E+03 -0.34206252053E+03  0.65023979232E+03  0.50400001928E-02 0. -1.
</event>
<event>
 5   0  0.3713516E-04  0.1705392E+04  0.7818609E-02  0.8758295E-01
       -1   -1    0    0    0  501  0.00000000000E+00  0.00000000000E+00  0.84723233679E+03  0.84723233680E+03  0.50400001928E-02 0. -1.
        1   -1    0    0  501    0  0.00000000000E+00  0.00000000000E+00 -0.85819528484E+03  0.85819528486E+03  0.50400001928E-02 0.  1.
    10030    2    1    2    0    0  0.00000000000E+00  0.00000000000E+00 -0.10962948053E+02  0.17054276217E+04  0.17053923849E+04 0.  0.
        5    1    3    3  502    0 -0.22292375546E+03  0.51854271371E+03  0.63366173403E+03  0.84860522616E+03  0.46999998093E+01 0. -1.
       -5    1    3    3    0  502  0.22292375546E+03 -0.51854271371E+03 -0.64462468208E+03  0.85682239550E+03  0.46999998093E+01 0.  1.
</event>
<event>
 5   0  0.3803253E-04  0.1694149E+04  0.7818609E-02  0.8764709E-01
        1   -1    0    0  501    0  0.00000000000E+00  0.00000000000E+00  0.63641676893E+03  0.63641676895E+03  0.50400001928E-02 0. -1.
       -1   -1    0    0    0  501  0.00000000000E+00  0.00000000000E+00 -0.11274607768E+04  0.11274607768E+04  0.50400001928E-02 0.  1.
    10030    2    1    2    0    0  0.00000000000E+00  0.00000000000E+00 -0.49104400782E+03  0.17638775457E+04  0.16941486885E+04 0.  0.
        4    1    3    3  502    0  0.72904463159E+03 -0.36749830511E+03 -0.10459249226E+02  0.81649990074E+03  0.12699999809E+01 0. -1.
       -4    1    3    3    0  502 -0.72904463159E+03  0.36749830511E+03 -0.48058475860E+03  0.94737764498E+03  0.12699999809E+01 0.  1.
</event>
<event>
 5   0  0.7233728E-04  0.1700211E+04  0.7818609E-02  0.8761244E-01
       -2   -1    0    0    0  501  0.00000000000E+00  0.00000000000E+00  0.11133883964E+04  0.11133883964E+04  0.25500000920E-02 0. -1.
        2   -1    0    0  501    0  0.00000000000E+00  0.00000000000E+00 -0.64908082851E+03  0.64908082852E+03  0.25500000920E-02 0.  1.
    10030    2    1    2    0    0  0.00000000000E+00  0.00000000000E+00  0.46430756792E+03  0.17624692249E+04  0.17002106491E+04 0.  0.
        1    1    3    3  502    0 -0.33826547122E+03 -0.35267731646E+03  0.95323646261E+03  0.10711977279E+04  0.50400001928E-02 0. -1.
       -1    1    3    3    0  502  0.33826547122E+03  0.35267731646E+03 -0.48892889469E+03  0.69127149706E+03  0.50400001928E-02 0.  1.
</event>
<event>
 5   0  0.3723500E-04  0.1660887E+04  0.7818609E-02  0.8783992E-01
        1   -1    0    0  501    0  0.00000000000E+00  0.00000000000E+00  0.55553150430E+03  0.55553150432E+03  0.50400001928E-02 0. -1.
       -1   -1    0    0    0  501  0.00000000000E+00  0.00000000000E+00 -0.12413986894E+04  0.12413986894E+04  0.50400001928E-02 0.  1.
    10030    2    1    2    0    0  0.00000000000E+00  0.00000000000E+00 -0.68586718505E+03  0.17969301937E+04  0.16608866082E+04 0.  0.
        1    1    3    3  502    0 -0.18236102819E+03  0.77815018171E+03 -0.98932658268E+02  0.80533280126E+03  0.50400001928E-02 0.  1.
       -1    1    3    3    0  502  0.18236102819E+03 -0.77815018171E+03 -0.58693452679E+03  0.99159739242E+03  0.50400001928E-02 0. -1.
</event>
<event>
 5   0  0.7242144E-04  0.1711751E+04  0.7818609E-02  0.8754691E-01
       -2   -1    0    0    0  501  0.00000000000E+00  0.00000000000E+00  0.77251048236E+03  0.77251048236E+03  0.25500000920E-02 0.  1.
        2   -1    0    0  501    0  0.00000000000E+00  0.00000000000E+00 -0.94823648662E+03  0.94823648662E+03  0.25500000920E-02 0. -1.
    10030    2    1    2    0    0  0.00000000000E+00  0.00000000000E+00 -0.17572600426E+03  0.17207469690E+04  0.17117507128E+04 0.  0.
        3    1    3    3  502    0 -0.22871160682E+03 -0.82423386205E+03 -0.58517853497E+02  0.85737670123E+03  0.10100000352E+00 0. -1.
       -3    1    3    3    0  502  0.22871160682E+03  0.82423386205E+03 -0.11720815076E+03  0.86337026775E+03  0.10100000352E+00 0.  1.
</event>
<event>
 5   0  0.7233728E-04  0.1726127E+04  0.7818609E-02  0.8746602E-01
        2   -1    0    0  501    0  0.00000000000E+00  0.00000000000E+00  0.53153645429E+03  0.53153645429E+03  0.25500000920E-02 0.  1.
       -2   -1    0    0    0  501  0.00000000000E+00  0.00000000000E+00 -0.14013686250E+04  0.14013686250E+04  0.25500000920E-02 0. -1.
    10030    2    1    2    0    0  0.00000000000E+00  0.00000000000E+00 -0.86983217076E+03  0.19329050793E+04  0.17261268900E+04 0.  0.
        1    1    3    3  502    0  0.23688301878E+03  0.15260584106E+03  0.47857463371E+03  0.55536995541E+03  0.50400001928E-02 0.  1.
       -1    1    3    3    0  502 -0.23688301878E+03 -0.15260584106E+03 -0.13484068045E+04  0.13775351239E+04  0.50400001928E-02 0. -1.
</event>
<event>
 5   0  0.7233728E-04  0.1636160E+04  0.7818609E-02  0.8798637E-01
        2   -1    0    0  501    0  0.00000000000E+00  0.00000000000E+00  0.72420600471E+03  0.72420600472E+03  0.25500000920E-02 0.  1.
       -2   -1    0    0    0  501  0.00000000000E+00  0.00000000000E+00 -0.92412177167E+03  0.92412177167E+03  0.25500000920E-02 0. -1.
    10030    2    1    2    0    0  0.00000000000E+00  0.00000000000E+00 -0.19991576696E+03  0.16483277764E+04  0.16361595718E+04 0.  0.
        1    1    3    3  502    0  0.47011889886E+03  0.32978204729E+03  0.48703010100E+03  0.75297164428E+03  0.50400001928E-02 0.  1.
       -1    1    3    3    0  502 -0.47011889886E+03 -0.32978204729E+03 -0.68694586796E+03  0.89535613211E+03  0.50400001928E-02 0. -1.
</event>
<event>
 5   0  0.6746664E-04  0.1649565E+04  0.7818609E-02  0.8790664E-01
        2   -1    0    0  501    0  0.00000000000E+00  0.00000000000E+00  0.17199992531E+04  0.17199992531E+04  0.25500000920E-02 0.  1.
       -2   -1    0    0    0  501  0.00000000000E+00  0.00000000000E+00 -0.39550367896E+03  0.39550367896E+03  0.25500000920E-02 0. -1.
    10030    2    1    2    0    0  0.00000000000E+00  0.00000000000E+00  0.13244955742E+04  0.21155029321E+04  0.16495648304E+04 0.  0.
        5    1    3    3  502    0 -0.21478915237E+03 -0.77307605436E+02 -0.35416490974E+03  0.42138547569E+03  0.46999998093E+01 0. -1.
       -5    1    3    3    0  502  0.21478915237E+03  0.77307605436E+02  0.16786604839E+04  0.16941174564E+04  0.46999998093E+01 0.  1.
</event>
<event>
 5   0  0.3713516E-04  0.1664963E+04  0.7818609E-02  0.8781604E-01
        1   -1    0    0  501    0  0.00000000000E+00  0.00000000000E+00  0.18348871036E+04  0.18348871036E+04  0.50400001928E-02 0. -1.
       -1   -1    0    0    0  501  0.00000000000E+00  0.00000000000E+00 -0.37769356550E+03  0.37769356553E+03  0.50400001928E-02 0.  1.
    10030    2    1    2    0    0  0.00000000000E+00  0.00000000000E+00  0.14571935381E+04  0.22125806691E+04  0.16649625251E+04 0.  0.
        5    1    3    3  502    0 -0.70250829666E+03  0.38875933086E+03  0.43638449684E+03  0.91384092888E+03  0.46999998093E+01 0. -1.
       -5    1    3    3    0  502  0.70250829666E+03 -0.38875933086E+03  0.10208090412E+04  0.12987397402E+04  0.46999998093E+01 0.  1.
</event>
<event>
 5   0  0.7242144E-04  0.1706802E+04  0.7818609E-02  0.8757494E-01
       -2   -1    0    0    0  501  0.00000000000E+00  0.00000000000E+00  0.14021780587E+04  0.14021780588E+04  0.25500000920E-02 0. -1.
        2   -1    0    0  501    0  0.00000000000E+00  0.00000000000E+00 -0.51940132554E+03  0.51940132554E+03  0.25500000920E-02 0.  1.
    10030    2    1    2    0    0  0.00000000000E+00  0.00000000000E+00  0.88277673321E+03  0.19215793843E+04  0.17068018542E+04 0.  0.
        3    1    3    3  502    0 -0.20245891570E+03 -0.80441366111E+03  0.66718009867E+03  0.10645187856E+04  0.10100000352E+00 0. -1.
       -3    1    3    3    0  502  0.20245891570E+03  0.80441366111E+03  0.21559663454E+03  0.85706059865E+03  0.10100000352E+00 0.  1.
</event>
<event>
 5   0  0.3915701E-04  0.1710920E+04  0.7818609E-02  0.8755160E-01
       -1   -1    0    0    0  501  0.00000000000E+00  0.00000000000E+00  0.49830455819E+03  0.49830455822E+03  0.50400001928E-02 0.  1.
        1   -1    0    0  501    0  0.00000000000E+00  0.00000000000E+00 -0.14686041541E+04  0.14686041541E+04  0.50400001928E-02 0. -1.
    10030    2    1    2    0    0  0.00000000000E+00  0.00000000000E+00 -0.97029959586E+03  0.19669087123E+04  0.17109203888E+04 0.  0.
        2    1    3    3  502    0  0.13733545105E+03 -0.76484136768E+03 -0.89640030987E+03  0.11863291530E+04  0.25500000920E-02 0. -1.
       -2    1    3    3    0  502 -0.13733545105E+03  0.76484136768E+03 -0.73899285995E+02  0.78057955924E+03  0.25500000920E-02 0.  1.
</event>
<event>
 5   0  0.3723500E-04  0.1617771E+04  0.7818609E-02  0.8809704E-01
        1   -1    0    0  501    0  0.00000000000E+00  0.00000000000E+00  0.12953368042E+04  0.12953368042E+04  0.50400001928E-02 0.  1.
       -1   -1    0    0    0  501  0.00000000000E+00  0.00000000000E+00 -0.50511637064E+03  0.50511637066E+03  0.50400001928E-02 0. -1.
    10030    2    1    2    0    0  0.00000000000E+00  0.00000000000E+00  0.79022043356E+03  0.18004531749E+04  0.16177710905E+04 0.  0.
        1    1    3    3  502    0  0.18311129007E+02 -0.59202878625E+03 -0.21796990686E+03  0.63114519844E+03  0.50400001928E-02 0. -1.
       -1    1    3    3    0  502 -0.18311129007E+02  0.59202878625E+03  0.10081903404E+04  0.11693079764E+04  0.50400001928E-02 0.  1.
</event>
<event>
 5   0  0.3635143E-04  0.1675937E+04  0.7818609E-02  0.8775209E-01
        1   -1    0    0  501    0  0.00000000000E+00  0.00000000000E+00  0.82837926708E+03  0.82837926710E+03  0.50400001928E-02 0. -1.
       -1   -1    0    0    0  501  0.00000000000E+00  0.00000000000E+00 -0.84766839464E+03  0.84766839466E+03  0.50400001928E-02 0.  1.
    10030    2    1    2    0    0  0.00000000000E+00  0.00000000000E+00 -0.19289127560E+02  0.16760476618E+04  0.16759366617E+04 0.  0.
        3    1    3    3  502    0  0.29974636953E+03  0.47989710981E+02  0.77145775057E+03  0.82903435968E+03  0.10100000352E+00 0. -1.
       -3    1    3    3    0  502 -0.29974636953E+03 -0.47989710981E+02 -0.79074687813E+03  0.84701330207E+03  0.10100000352E+00 0.  1.
</event>
<event>
 5   0  0.3635143E-04  0.1681200E+04  0.7818609E-02  0.8772160E-01
       -1   -1    0    0    0  501  0.00000000000E+00  0.00000000000E+00  0.49939828148E+03  0.49939828151E+03  0.50400001928E-02 0.  1.
        1   -1    0    0  501    0  0.00000000000E+00  0.00000000000E+00 -0.14149195759E+04  0.14149195759E+04  0.50400001928E-02 0. -1.
    10030    2    1    2    0    0  0.00000000000E+00  0.00000000000E+00 -0.91552129440E+03  0.19143178574E+04  0.16812000531E+04 0.  0.
        3    1    3    3  502    0 -0.46643102231E+03  0.26540943020E+03 -0.11944740803E+04  0.13094916582E+04  0.10100000352E+00 0. -1.
       -3    1    3    3    0  502  0.46643102231E+03 -0.26540943020E+03  0.27895278593E+03  0.60482619916E+03  0.10100000352E+00 0.  1.
</event>
<event>
 5   0  0.7025426E-04  0.1700271E+04  0.7818609E-02  0.8761210E-01
       -2   -1    0    0    0  501  0.00000000000E+00  0.00000000000E+00  0.12420212803E+04  0.12420212803E+04  0.25500000920E-02 0.  1.
        2   -1    0    0  501    0  0.00000000000E+00  0.00000000000E+00 -0.58189831619E+03  0.58189831619E+03  0.25500000920E-02 0. -1.
    10030    2    1    2    0    0  0.00000000000E+00  0.00000000000E+00  0.66012296414E+03  0.18239195965E+04  0.17002706746E+04 0.  0.
        2    1    3    3  502    0 -0.15549723599E+03  0.50330089944E+03  0.10458490952E+04  0.11710215693E+04  0.25500000920E-02 0.  1.
       -2    1    3    3    0  502  0.15549723599E+03 -0.50330089944E+03 -0.38572613107E+03  0.65289802724E+03  0.25500000920E-02 0. -1.
</event>
<event>
 5   0  0.3713516E-04  0.1735922E+04  0.7818609E-02  0.8741138E-01
       -1   -1    0    0    0  501  0.00000000000E+00  0.00000000000E+00  0.44040426491E+03  0.44040426493E+03  0.50400001928E-02 0. -1.
        1   -1    0    0  501    0  0.00000000000E+00  0.00000000000E+00 -0.17106019461E+04  0.17106019461E+04  0.50400001928E-02 0.  1.
    10030    2    1    2    0    0  0.00000000000E+00  0.00000000000E+00 -0.12701976812E+04  0.21510062111E+04  0.17359221096E+04 0.  0.
        5    1    3    3  502    0 -0.49155106216E+03  0.34157010653E+03  0.14371365449E+03  0.61560400329E+03  0.46999998093E+01 0. -1.
       -5    1    3    3    0  502  0.49155106216E+03 -0.34157010653E+03 -0.14139113357E+04  0.15354022078E+04  0.46999998093E+01 0.  1.
</event>
<event>
 5   0  0.6746664E-04  0.1647436E+04  0.7818609E-02  0.8791925E-01
       -2   -1    0    0    0  501  0.00000000000E+00  0.00000000000E+00  0.10115941796E+04  0.10115941796E+04  0.25500000920E-02 0. -1.
        2   -1    0    0  501    0  0.00000000000E+00  0.00000000000E+00 -0.67073442749E+03  0.67073442749E+03  0.25500000920E-02 0.  1.
    10030    2    1    2    0    0  0.00000000000E+00  0.00000000000E+00  0.34085975212E+03  0.16823286071E+04  0.16474356351E+04 0.  0.
        5    1    3    3  502    0  0.53862165927E+03  0.47276840899E+03 -0.24420661424E+03  0.75715402714E+03  0.46999998093E+01 0.  1.
       -5    1    3    3    0  502 -0.53862165927E+03 -0.47276840899E+03  0.58506636636E+03  0.92517457997E+03  0.46999998093E+01 0. -1.
</event>
<event>
 5   0  0.3915701E-04  0.1541926E+04  0.7818609E-02  0.8857041E-01
       -1   -1    0    0    0  501  0.00000000000E+00  0.00000000000E+00  0.37451732966E+03  0.37451732969E+03  0.50400001928E-02 0.  1.
        1   -1    0    0  501    0  0.00000000000E+00  0.00000000000E+00 -0.15870668263E+04  0.15870668263E+04  0.50400001928E-02 0. -1.
    10030    2    1    2    0    0  0.00000000000E+00  0.00000000000E+00 -0.12125494966E+04  0.19615841560E+04  0.15419261069E+04 0.  0.
        2    1    3    3  502    0 -0.36317042339E+03  0.42888785760E+03 -0.12776915730E+04  0.13958271048E+04  0.25500000920E-02 0. -1.
       -2    1    3    3    0  502  0.36317042339E+03 -0.42888785760E+03  0.65142076380E+02  0.56575705117E+03  0.25500000920E-02 0.  1.
</event>
<event>
 5   0  0.6746664E-04  0.1721866E+04  0.7818609E-02  0.8748990E-01
       -2   -1    0    0    0  501  0.00000000000E+00  0.00000000000E+00  0.32532362926E+03  0.32532362927E+03  0.25500000920E-02 0. -1.
        2   -1    0    0  501    0  0.00000000000E+00  0.00000000000E+00 -0.22783650729E+04  0.22783650729E+04  0.25500000920E-02 0.  1.
    10030    2    1    2    0    0  0.00000000000E+00  0.00000000000E+00 -0.19530414437E+04  0.26036887022E+04  0.17218664226E+04 0.  0.
        5    1    3    3  502    0 -0.26999750003E+03 -0.50068431366E+03 -0.19536906472E+04  0.20348249721E+04  0.46999998093E+01 0.  1.
       -5    1    3    3    0  502  0.26999750003E+03  0.50068431366E+03  0.64920355293E+00  0.56886373011E+03  0.46999998093E+01 0. -1.
</event>
<event>
 5   0  0.3723500E-04  0.1756029E+04  0.7818609E-02  0.8730039E-01
       -1   -1    0    0    0  501  0.00000000000E+00  0.00000000000E+00  0.87079140998E+03  0.87079140999E+03  0.50400001928E-02 0. -1.
        1   -1    0    0  501    0  0.00000000000E+00  0.00000000000E+00 -0.88529730994E+03  0.88529730995E+03  0.50400001928E-02 0.  1.
    10030    2    1    2    0    0  0.00000000000E+00  0.00000000000E+00 -0.14505899956E+02  0.17560887199E+04  0.17560288070E+04 0.  0.
        1    1    3    3  502    0  0.34627411783E+03 -0.99845638636E+02 -0.80792649108E+03  0.88465820024E+03  0.50400001928E-02 0.  1.
       -1    1    3    3    0  502 -0.34627411783E+03  0.99845638636E+02  0.79342059112E+03  0.87143051971E+03  0.50400001928E-02 0. -1.
</event>
<event>
 5   0  0.3915701E-04  0.1770127E+04  0.7818609E-02  0.8722349E-01
        1   -1    0    0  501    0  0.00000000000E+00  0.00000000000E+00  0.88023514882E+03  0.88023514884E+03  0.50400001928E-02 0.  1.
       -1   -1    0    0    0  501  0.00000000000E+00  0.00000000000E+00 -0.88991787096E+03  0.88991787097E+03  0.50400001928E-02 0. -1.
    10030    2    1    2    0    0  0.00000000000E+00  0.00000000000E+00 -0.96827221357E+01  0.17701530198E+04  0.17701265374E+04 0.  0.
        2    1    3    3  502    0  0.71797203384E+03  0.32831878824E+03 -0.40492224136E+03  0.88726494896E+03  0.25500000920E-02 0. -1.
       -2    1    3    3    0  502 -0.71797203384E+03 -0.32831878824E+03  0.39523951922E+03  0.88288807085E+03  0.25500000920E-02 0.  1.
</event>
<event>
 5   0  0.7233728E-04  0.1716425E+04  0.7818609E-02  0.8752051E-01
        2   -1    0    0  501    0  0.00000000000E+00  0.00000000000E+00  0.91225684925E+03  0.91225684926E+03  0.25500000920E-02 0.  1.
       -2   -1    0    0    0  501  0.00000000000E+00  0.00000000000E+00 -0.80737033708E+03  0.80737033708E+03  0.25500000920E-02 0. -1.
    10030    2    1    2    0    0  0.00000000000E+00  0.00000000000E+00  0.10488651218E+03  0.17196271863E+04  0.17164254949E+04 0.  0.
        1    1    3    3  502    0  0.14306855954E+03 -0.18449236676E+03  0.87983061170E+03  0.91027905140E+03  0.50400001928E-02 0.  1.
       -1    1    3    3    0  502 -0.14306855954E+03  0.18449236676E+03 -0.77494409952E+03  0.80934813494E+03  0.50400001928E-02 0. -1.
</event>
<event>
 5   0  0.7233728E-04  0.1638789E+04  0.7818609E-02  0.8797067E-01
        2   -1    0    0  501    0  0.00000000000E+00  0.00000000000E+00  0.76817251971E+03  0.76817251971E+03  0.25500000920E-02 0.  1.
       -2   -1    0    0    0  501  0.00000000000E+00  0.00000000000E+00 -0.87403195398E+03  0.87403195398E+03  0.25500000920E-02 0. -1.
    10030    2    1    2    0    0  0.00000000000E+00  0.00000000000E+00 -0.10585943427E+03  0.16422044737E+04  0.16387889778E+04 0.  0.
        1    1    3    3  502    0  0.12915542769E+03 -0.11274411282E+03  0.74999859817E+03  0.76934404317E+03  0.50400001928E-02 0.  1.
       -1    1    3    3    0  502 -0.12915542769E+03  0.11274411282E+03 -0.85585803244E+03  0.87286043053E+03  0.50400001928E-02 0. -1.
</event>
<event>
 5   0  0.2639750E-04  0.1680974E+04  0.7818609E-02  0.8772291E-01
       -3   -1    0    0    0  501  0.00000000000E+00  0.00000000000E+00  0.58253284113E+03  0.58253284989E+03  0.10100000352E+00 0.  1.
        3   -1    0    0  501    0  0.00000000000E+00  0.00000000000E+00 -0.12126665641E+04  0.12126665683E+04  0.10100000352E+00 0. -1.
    10030    2    1    2    0    0  0.00000000000E+00  0.00000000000E+00 -0.63013372299E+03  0.17951994182E+04  0.16809736590E+04 0.  0.
        4    1    3    3  502    0  0.60683655989E+03 -0.53855083318E+03 -0.54935737354E+03  0.97983812291E+03  0.12699999809E+01 0. -1.
       -4    1    3    3    0  502 -0.60683655989E+03  0.53855083318E+03 -0.80776349444E+02  0.81536129530E+03  0.12699999809E+01 0.  1.
</event>
<event>
 5   0  0.3803253E-04  0.1710947E+04  0.7818609E-02  0.8755146E-01
       -1   -1    0    0    0  501  0.00000000000E+00  0.00000000000E+00  0.41565126562E+03  0.41565126565E+03  0.50400001928E-02 0. -1.
        1   -1    0    0  501    0  0.00000000000E+00  0.00000000000E+00 -0.17606941642E+04  0.17606941642E+04  0.50400001928E-02 0.  1.
    10030    2    1    2    0    0  0.00000000000E+00  0.00000000000E+00 -0.13450428986E+04  0.21763454298E+04  0.17109468230E+04 0.  0.
        4    1    3    3  502    0 -0.30210905588E+03  0.43599303749E+03 -0.15262619023E+04  0.16158084100E+04  0.12699999809E+01 0.  1.
       -4    1    3    3    0  502  0.30210905588E+03 -0.43599303749E+03  0.18121900377E+03  0.56053701984E+03  0.12699999809E+01 0. -1.
</event>
<event>
 5   0  0.6746664E-04  0.1973132E+04  0.7818609E-02  0.8619286E-01
        2   -1    0    0  501    0  0.00000000000E+00  0.00000000000E+00  0.16677451189E+04  0.16677451189E+04  0.25500000920E-02 0.  1.
       -2   -1    0    0    0  501  0.00000000000E+00  0.00000000000E+00 -0.58360984030E+03  0.58360984031E+03  0.25500000920E-02 0. -1.
    10030    2    1    2    0    0  0.00000000000E+00  0.00000000000E+00  0.10841352786E+04  0.22513549592E+04  0.19731319900E+04 0.  0.
        5    1    3    3  502    0  0.48556552104E+03 -0.11853467233E+03 -0.42843541629E+03  0.65833376011E+03  0.46999998093E+01 0. -1.
       -5    1    3    3    0  502 -0.48556552104E+03  0.11853467233E+03  0.15125706949E+04  0.15930211991E+04  0.46999998093E+01 0.  1.
</event>
<event>
 5   0  0.3713516E-04  0.1688218E+04  0.7818609E-02  0.8768112E-01
       -1   -1    0    0    0  501  0.00000000000E+00  0.00000000000E+00  0.13951462796E+04  0.13951462796E+04  0.50400001928E-02 0.  1.
        1   -1    0    0  501    0  0.00000000000E+00  0.00000000000E+00 -0.51071372042E+03  0.51071372044E+03  0.50400001928E-02 0. -1.
    10030    2    1    2    0    0  0.00000000000E+00  0.00000000000E+00  0.88443255919E+03  0.19058600001E+04  0.16882184065E+04 0.  0.
        5    1    3    3  502    0 -0.87625484155E+02  0.58344093538E+03 -0.23927688401E+03  0.63667658019E+03  0.46999998093E+01 0. -1.
       -5    1    3    3    0  502  0.87625484155E+02 -0.58344093538E+03  0.11237094432E+04  0.12691834199E+04  0.46999998093E+01 0.  1.
</event>
<event>
 5   0  0.3915701E-04  0.1725848E+04  0.7818609E-02  0.8746758E-01
       -1   -1    0    0    0  501  0.00000000000E+00  0.00000000000E+00  0.95935349672E+03  0.95935349673E+03  0.50400001928E-02 0. -1.
        1   -1    0    0  501    0  0.00000000000E+00  0.00000000000E+00 -0.77618719571E+03  0.77618719573E+03  0.50400001928E-02 0.  1.
    10030    2    1    2    0    0  0.00000000000E+00  0.00000000000E+00  0.18316630101E+03  0.17355406925E+04  0.17258480818E+04 0.  0.
        2    1    3    3  502    0  0.19346490831E+03 -0.77569968977E+03 -0.23504744511E+03  0.83329825448E+03  0.25500000920E-02 0.  1.
       -2    1    3    3    0  502 -0.19346490831E+03  0.77569968977E+03  0.41821374612E+03  0.90224243799E+03  0.25500000920E-02 0. -1.
</event>
<event>
 5   0  0.6746664E-04  0.1723097E+04  0.7818609E-02  0.8748300E-01
        2   -1    0    0  501    0  0.00000000000E+00  0.00000000000E+00  0.22664687954E+04  0.22664687954E+04  0.25500000920E-02 0.  1.
       -2   -1    0    0    0  501  0.00000000000E+00  0.00000000000E+00 -0.32749875716E+03  0.32749875717E+03  0.25500000920E-02 0. -1.
    10030    2    1    2    0    0  0.00000000000E+00  0.00000000000E+00  0.19389700383E+04  0.25939675526E+04  0.17230968791E+04 0.  0.
        5    1    3    3  502    0 -0.17594665996E+03 -0.11647767567E+03  0.22269480521E+04  0.22369273553E+04  0.46999998093E+01 0.  1.
       -5    1    3    3    0  502  0.17594665996E+03  0.11647767567E+03 -0.28797801380E+03  0.35704019733E+03  0.46999998093E+01 0. -1.
</event>
<event>
 5   0  0.7233728E-04  0.1799995E+04  0.7818609E-02  0.8706302E-01
        2   -1    0    0  501    0  0.00000000000E+00  0.00000000000E+00  0.15501240924E+04  0.15501240924E+04  0.25500000920E-02 0.  1.
       -2   -1    0    0    0  501  0.00000000000E+00  0.00000000000E+00 -0.52253572097E+03  0.52253572098E+03  0.25500000920E-02 0. -1.
    10030    2    1    2    0    0  0.00000000000E+00  0.00000000000E+00  0.10275883715E+04  0.20726598134E+04  0.17999946780E+04 0.  0.
        1    1    3    3  502    0 -0.10861079961E+03 -0.46276525309E+03 -0.36620199714E+03  0.60004323843E+03  0.50400001928E-02 0. -1.
       -1    1    3    3    0  502  0.10861079961E+03  0.46276525309E+03  0.13937903686E+04  0.14726165750E+04  0.50400001928E-02 0.  1.
</event>
<event>
 5   0  0.3915701E-04  0.1673821E+04  0.7818609E-02  0.8776438E-01
       -1   -1    0    0    0  501  0.00000000000E+00  0.00000000000E+00  0.10134238276E+04  0.10134238276E+04  0.50400001928E-02 0. -1.
        1   -1    0    0  501    0  0.00000000000E+00  0.00000000000E+00 -0.69114162322E+03  0.69114162324E+03  0.50400001928E-02 0.  1.
    10030    2    1    2    0    0  0.00000000000E+00  0.00000000000E+00  0.32228220442E+03  0.17045654509E+04  0.16738212441E+04 0.  0.
        2    1    3    3  502    0 -0.30661929390E+03 -0.77137665666E+03  0.52494817953E+02  0.83174097155E+03  0.25500000920E-02 0.  1.
       -2    1    3    3    0  502  0.30661929390E+03  0.77137665666E+03  0.26978738646E+03  0.87282447934E+03  0.25500000920E-02 0. -1.
</event>
<event>
 5   0  0.3713516E-04  0.1686258E+04  0.7818609E-02  0.8769241E-01
        1   -1    0    0  501    0  0.00000000000E+00  0.00000000000E+00  0.47567301262E+03  0.47567301265E+03  0.50400001928E-02 0.  1.
       -1   -1    0    0    0  501  0.00000000000E+00  0.00000000000E+00 -0.14944432733E+04  0.14944432734E+04  0.50400001928E-02 0. -1.
    10030    2    1    2    0    0  0.00000000000E+00  0.00000000000E+00 -0.10187702607E+04  0.19701162860E+04  0.16862577906E+04 0.  0.
        5    1    3    3  502    0 -0.45837910973E+03  0.42413640621E+03  0.15239377648E+03  0.64284450096E+03  0.46999998093E+01 0.  1.
       -5    1    3    3    0  502  0.45837910973E+03 -0.42413640621E+03 -0.11711640372E+04  0.13272717850E+04  0.46999998093E+01 0. -1.
</event>
<event>
 5   0  0.3635143E-04  0.1549099E+04  0.7818609E-02  0.8852443E-01
       -1   -1    0    0    0  501  0.00000000000E+00  0.00000000000E+00  0.29985516382E+03  0.29985516386E+03  0.50400001928E-02 0.  1.
        1   -1    0    0  501    0  0.00000000000E+00  0.00000000000E+00 -0.20007223724E+04  0.20007223724E+04  0.50400001928E-02 0. -1.
    10030    2    1    2    0    0  0.00000000000E+00  0.00000000000E+00 -0.17008672085E+04  0.23005775362E+04  0.15490990088E+04 0.  0.
        3    1    3    3  502    0  0.61411195839E+03 -0.45303010181E+03 -0.10472153268E+04  0.12957737926E+04  0.10100000352E+00 0. -1.
       -3    1    3    3    0  502 -0.61411195839E+03  0.45303010181E+03 -0.65365188174E+03  0.10048037437E+04  0.10100000352E+00 0.  1.
</event>
<event>
 5   0  0.3635143E-04  0.1704235E+04  0.7818609E-02  0.8758952E-01
        1   -1    0    0  501    0  0.00000000000E+00  0.00000000000E+00  0.12860822308E+04  0.12860822308E+04  0.50400001928E-02 0. -1.
       -1   -1    0    0    0  501  0.00000000000E+00  0.00000000000E+00 -0.56458639898E+03  0.56458639900E+03  0.50400001928E-02 0.  1.
    10030    2    1    2    0    0  0.00000000000E+00  0.00000000000E+00  0.72149583186E+03  0.18506686298E+04  0.17042353541E+04 0.  0.
        3    1    3    3  502    0 -0.53499008110E+03 -0.25566824139E+03 -0.30381921121E+03  0.66624827192E+03  0.10100000352E+00 0.  1.
       -3    1    3    3    0  502  0.53499008110E+03  0.25566824139E+03  0.10253150431E+04  0.11844203579E+04  0.10100000352E+00 0. -1.
</event>
<event>
 5   0  0.3713516E-04  0.1693626E+04  0.7818609E-02  0.8765008E-01
        1   -1    0    0  501    0  0.00000000000E+00  0.00000000000E+00  0.13615354139E+04  0.13615354139E+04  0.50400001928E-02 0. -1.
       -1   -1    0    0    0  501  0.00000000000E+00  0.00000000000E+00 -0.52667892021E+03  0.52667892023E+03  0.50400001928E-02 0.  1.
    10030    2    1    2    0    0  0.00000000000E+00  0.00000000000E+00  0.83485649368E+03  0.18882143341E+04  0.16936256985E+04 0.  0.
        5    1    3    3  502    0 -0.12453001025E+03  0.43090852158E+03 -0.38334252923E+03  0.59005377902E+03  0.46999998093E+01 0.  1.
       -5    1    3    3    0  502  0.12453001025E+03 -0.43090852158E+03  0.12181990229E+04  0.12981605551E+04  0.46999998093E+01 0. -1.
</event>
<event>
 5   0  0.3803253E-04  0.1685133E+04  0.7818609E-02  0.8769889E-01
       -1   -1    0    0    0  501  0.00000000000E+00  0.00000000000E+00  0.20012570054E+04  0.20012570054E+04  0.50400001928E-02 0. -1.
        1   -1    0    0  501    0  0.00000000000E+00  0.00000000000E+00 -0.35473631694E+03  0.35473631698E+03  0.50400001928E-02 0.  1.
    10030    2    1    2    0    0  0.00000000000E+00  0.00000000000E+00  0.16465206885E+04  0.23559933224E+04  0.16851332759E+04 0.  0.
        4    1    3    3  502    0 -0.43235684796E+03  0.21511935935E+03 -0.14204805756E+03  0.50337664458E+03  0.12699999809E+01 0.  1.
       -4    1    3    3    0  502  0.43235684796E+03 -0.21511935935E+03  0.17885687461E+04  0.18526166778E+04  0.12699999809E+01 0. -1.
</event>
<event>
 5   0  0.3713516E-04  0.1697907E+04  0.7818609E-02  0.8762559E-01
       -1   -1    0    0    0  501  0.00000000000E+00  0.00000000000E+00  0.35337847823E+03  0.35337847826E+03  0.50400001928E-02 0.  1.
        1   -1    0    0  501    0  0.00000000000E+00  0.00000000000E+00 -0.20395176002E+04  0.20395176002E+04  0.50400001928E-02 0. -1.
    10030    2    1    2    0    0  0.00000000000E+00  0.00000000000E+00 -0.16861391220E+04  0.23928960785E+04  0.16979065062E+04 0.  0.
        5    1    3    3  502    0 -0.66603237166E+03  0.22882731074E+03 -0.15111808082E+04  0.16672284136E+04  0.46999998093E+01 0. -1.
       -5    1    3    3    0  502  0.66603237166E+03 -0.22882731074E+03 -0.17495831382E+03  0.72566766485E+03  0.46999998093E+01 0.  1.
</event>
<event>
 5   0  0.7049044E-04  0.1735950E+04  0.7818609E-02  0.8741122E-01
       -2   -1    0    0    0  501  0.00000000000E+00  0.00000000000E+00  0.12152064704E+04  0.12152064704E+04  0.25500000920E-02 0.  1.
        2   -1    0    0  501    0  0.00000000000E+00  0.00000000000E+00 -0.61996089211E+03  0.61996089211E+03  0.25500000920E-02 0. -1.
    10030    2    1    2    0    0  0.00000000000E+00  0.00000000000E+00  0.59524557826E+03  0.18351673625E+04  0.17359498696E+04 0.  0.
        4    1    3    3  502    0  0.80384007988E+03  0.17302693578E+03  0.59150735240E+03  0.10129065877E+04  0.12699999809E+01 0.  1.
       -4    1    3    3    0  502 -0.80384007988E+03 -0.17302693578E+03  0.37382258545E+01  0.82226077479E+03  0.12699999809E+01 0. -1.
</event>
<event>
 5   0  0.3713516E-04  0.1733104E+04  0.7818609E-02  0.8742706E-01
        1   -1    0    0  501    0  0.00000000000E+00  0.00000000000E+00  0.11008839968E+04  0.11008839968E+04  0.50400001928E-02 0. -1.
       -1   -1    0    0    0  501  0.00000000000E+00  0.00000000000E+00 -0.68209914432E+03  0.68209914434E+03  0.50400001928E-02 0.  1.
    10030    2    1    2    0    0  0.00000000000E+00  0.00000000000E+00  0.41878485246E+03  0.17829831411E+04  0.17331036117E+04 0.  0.
        5    1    3    3  502    0  0.22134980134E+03 -0.11042382187E+02 -0.65243599527E+03  0.68906638772E+03  0.46999998093E+01 0.  1.
       -5    1    3    3    0  502 -0.22134980134E+03  0.11042382187E+02  0.10712208477E+04  0.10939167534E+04  0.46999998093E+01 0. -1.
</event>
<event>
 5   0  0.7242144E-04  0.1716419E+04  0.7818609E-02  0.8752055E-01
        2   -1    0    0  501    0  0.00000000000E+00  0.00000000000E+00  0.93343150923E+03  0.93343150923E+03  0.25500000920E-02 0. -1.
       -2   -1    0    0    0  501  0.00000000000E+00  0.00000000000E+00 -0.78904962846E+03  0.78904962846E+03  0.25500000920E-02 0.  1.
    10030    2    1    2    0    0  0.00000000000E+00  0.00000000000E+00  0.14438188077E+03  0.17224811377E+04  0.17164192793E+04 0.  0.
        3    1    3    3  502    0 -0.79134394583E+03 -0.13972094237E+02 -0.26079913436E+03  0.83332866188E+03  0.10100000352E+00 0.  1.
       -3    1    3    3    0  502  0.79134394583E+03  0.13972094237E+02  0.40518101513E+03  0.88915247581E+03  0.10100000352E+00 0. -1.
</event>
<event>
 5   0  0.7242144E-04  0.1645197E+04  0.7818609E-02  0.8793253E-01
        2   -1    0    0  501    0  0.00000000000E+00  0.00000000000E+00  0.19138362474E+04  0.19138362474E+04  0.25500000920E-02 0. -1.
       -2   -1    0    0    0  501  0.00000000000E+00  0.00000000000E+00 -0.35356642292E+03  0.35356642293E+03  0.25500000920E-02 0.  1.
    10030    2    1    2    0    0  0.00000000000E+00  0.00000000000E+00  0.15602698245E+04  0.22674026703E+04  0.16451969318E+04 0.  0.
        3    1    3    3  502    0  0.17162112872E+03  0.61573869839E+03  0.14937157653E+04  0.16247383649E+04  0.10100000352E+00 0. -1.
       -3    1    3    3    0  502 -0.17162112872E+03 -0.61573869839E+03  0.66554059168E+02  0.64266430546E+03  0.10100000352E+00 0.  1.
</event>
<event>
 5   0  0.2639750E-04  0.1579267E+04  0.7818609E-02  0.8833388E-01
        4   -1    0    0  501    0  0.00000000000E+00  0.00000000000E+00  0.76874962248E+03  0.76875067152E+03  0.12699999809E+01 0.  1.
       -4   -1    0    0    0  501  0.00000000000E+00  0.00000000000E+00 -0.81108219689E+03  0.81108319118E+03  0.12699999809E+01 0. -1.
    10030    2    1    2    0    0  0.00000000000E+00  0.00000000000E+00 -0.42332574413E+02  0.15798338627E+04  0.15792665978E+04 0.  0.
        2    1    3    3  502    0  0.58579289035E+03  0.44771556951E+03 -0.30396591225E+03  0.79749471307E+03  0.25500000920E-02 0. -1.
       -2    1    3    3    0  502 -0.58579289035E+03 -0.44771556951E+03  0.26163333784E+03  0.78233914963E+03  0.25500000920E-02 0.  1.
</event>
<event>
 5   0  0.6746664E-04  0.1727993E+04  0.7818609E-02  0.8745558E-01
        2   -1    0    0  501    0  0.00000000000E+00  0.00000000000E+00  0.14293457383E+04  0.14293457383E+04  0.25500000920E-02 0. -1.
       -2   -1    0    0    0  501  0.00000000000E+00  0.00000000000E+00 -0.52226006647E+03  0.52226006647E+03  0.25500000920E-02 0.  1.
    10030    2    1    2    0    0  0.00000000000E+00  0.00000000000E+00  0.90708567181E+03  0.19516058047E+04  0.17279932874E+04 0.  0.
        5    1    3    3  502    0  0.53044414939E+03 -0.12737621053E+03 -0.30313586400E+03  0.62410667090E+03  0.46999998093E+01 0.  1.
       -5    1    3    3    0  502 -0.53044414939E+03  0.12737621053E+03  0.12102215358E+04  0.13274991338E+04  0.46999998093E+01 0. -1.
</event>
<event>
 5   0  0.3713516E-04  0.1583820E+04  0.7818609E-02  0.8830550E-01
       -1   -1    0    0    0  501  0.00000000000E+00  0.00000000000E+00  0.29980387660E+03  0.29980387664E+03  0.50400001928E-02 0. -1.
        1   -1    0    0  501    0  0.00000000000E+00  0.00000000000E+00 -0.20917725785E+04  0.20917725785E+04  0.50400001928E-02 0.  1.
    10030    2    1    2    0    0  0.00000000000E+00  0.00000000000E+00 -0.17919687019E+04  0.23915764551E+04  0.15838201009E+04 0.  0.
        5    1    3    3  502    0 -0.21527372123E+03 -0.61226812834E+03 -0.15811414176E+04  0.17091650910E+04  0.46999998093E+01 0.  1.
       -5    1    3    3    0  502  0.21527372123E+03  0.61226812834E+03 -0.21082728431E+03  0.68241136409E+03  0.46999998093E+01 0. -1.
</event>
<event>
 5   0  0.3915701E-04  0.1669882E+04  0.7818609E-02  0.8778731E-01
       -1   -1    0    0    0  501  0.00000000000E+00  0.00000000000E+00  0.19630552773E+04  0.19630552773E+04  0.50400001928E-02 0. -1.
        1   -1    0    0  501    0  0.00000000000E+00  0.00000000000E+00 -0.35512320881E+03  0.35512320884E+03  0.50400001928E-02 0.  1.
    10030    2    1    2    0    0  0.00000000000E+00  0.00000000000E+00  0.16079320685E+04  0.23181784861E+04  0.16698820188E+04 0.  0.
        2    1    3    3  502    0 -0.79657602586E+03  0.18264012327E+03  0.10413317014E+04  0.13237305209E+04  0.25500000920E-02 0. -1.
       -2    1    3    3    0  502  0.79657602586E+03 -0.18264012327E+03  0.56660036709E+03  0.99444796525E+03  0.25500000920E-02 0.  1.
</event>
<event>
 5   0  0.6746664E-04  0.1715794E+04  0.7818609E-02  0.8752407E-01
       -2   -1    0    0    0  501  0.00000000000E+00  0.00000000000E+00  0.53133174008E+03  0.53133174008E+03  0.25500000920E-02 0.  1.
        2   -1    0    0  501    0  0.00000000000E+00  0.00000000000E+00 -0.13851751834E+04  0.13851751834E+04  0.25500000920E-02 0. -1.
    10030    2    1    2    0    0  0.00000000000E+00  0.00000000000E+00 -0.85384344335E+03  0.19165069235E+04  0.17157943240E+04 0.  0.
        5    1    3    3  502    0 -0.25270959747E+03  0.11655284905E+03 -0.13333412134E+04  0.13620820785E+04  0.46999998093E+01 0. -1.
       -5    1    3    3    0  502  0.25270959747E+03 -0.11655284905E+03  0.47949777004E+03  0.55442484500E+03  0.46999998093E+01 0.  1.
</event>
<event>
 5   0  0.7233728E-04  0.1474579E+04  0.7818609E-02  0.8901536E-01
        2   -1    0    0  501    0  0.00000000000E+00  0.00000000000E+00  0.18778787060E+04  0.18778787060E+04  0.25500000920E-02 0.  1.
       -2   -1    0    0    0  501  0.00000000000E+00  0.00000000000E+00 -0.28947333278E+03  0.28947333279E+03  0.25500000920E-02 0. -1.
    10030    2    1    2    0    0  0.00000000000E+00  0.00000000000E+00  0.15884053732E+04  0.21673520388E+04  0.14745790011E+04 0.  0.
        1    1    3    3  502    0  0.61962830342E+03 -0.32377891432E+03  0.11383512275E+04  0.13358950322E+04  0.50400001928E-02 0.  1.
       -1    1    3    3    0  502 -0.61962830342E+03  0.32377891432E+03  0.45005414569E+03  0.83145700661E+03  0.50400001928E-02 0. -1.
</event>
<event>
 5   0  0.3915701E-04  0.1698049E+04  0.7818609E-02  0.8762478E-01
        1   -1    0    0  501    0  0.00000000000E+00  0.00000000000E+00  0.90543424836E+03  0.90543424838E+03  0.50400001928E-02 0. -1.
       -1   -1    0    0    0  501  0.00000000000E+00  0.00000000000E+00 -0.79612917947E+03  0.79612917948E+03  0.50400001928E-02 0.  1.
    10030    2    1    2    0    0  0.00000000000E+00  0.00000000000E+00  0.10930506889E+03  0.17015634279E+04  0.16980490278E+04 0.  0.
        2    1    3    3  502    0  0.61329682075E+03 -0.57772057767E+03 -0.50199436288E+02  0.84404623073E+03  0.25500000920E-02 0.  1.
       -2    1    3    3    0  502 -0.61329682075E+03  0.57772057767E+03  0.15950450518E+03  0.85751719713E+03  0.25500000920E-02 0. -1.
</event>
<event>
 5   0  0.7233728E-04  0.1510075E+04  0.7818609E-02  0.8877781E-01
        2   -1    0    0  501    0  0.00000000000E+00  0.00000000000E+00  0.11412762709E+04  0.11412762709E+04  0.25500000920E-02 0. -1.
       -2   -1    0    0    0  501  0.00000000000E+00  0.00000000000E+00 -0.49951239890E+03  0.49951239891E+03  0.25500000920E-02 0.  1.
    10030    2    1    2    0    0  0.00000000000E+00  0.00000000000E+00  0.64176387195E+03  0.16407886698E+04  0.15100750284E+04 0.  0.
        1    1    3    3  502    0  0.41022483673E+03  0.13983437060E+03 -0.35089365940E+03  0.55764184572E+03  0.50400001928E-02 0.  1.
       -1    1    3    3    0  502 -0.41022483673E+03 -0.13983437060E+03  0.99265753135E+03  0.10831468240E+04  0.50400001928E-02 0. -1.
</event>
<event>
 5   0  0.3803253E-04  0.1680300E+04  0.7818609E-02  0.8772681E-01
        1   -1    0    0  501    0  0.00000000000E+00  0.00000000000E+00  0.67305479329E+03  0.67305479330E+03  0.50400001928E-02 0. -1.
       -1   -1    0    0    0  501  0.00000000000E+00  0.00000000000E+00 -0.10487283538E+04  0.10487283538E+04  0.50400001928E-02 0.  1.
    10030    2    1    2    0    0  0.00000000000E+00  0.00000000000E+00 -0.37567356047E+03  0.17217831471E+04  0.16802995511E+04 0.  0.
        4    1    3    3  502    0  0.63793569278E+03 -0.44597747301E+02 -0.74617351225E+03  0.98271431783E+03  0.12699999809E+01 0.  1.
       -4    1    3    3    0  502 -0.63793569278E+03  0.44597747301E+02  0.37049995178E+03  0.73906882924E+03  0.12699999809E+01 0. -1.
</event>
<event>
 5   0  0.7242144E-04  0.1224383E+04  0.7818609E-02  0.9091778E-01
        2   -1    0    0  501    0  0.00000000000E+00  0.00000000000E+00  0.15536173042E+04  0.15536173042E+04  0.25500000920E-02 0.  1.
       -2   -1    0    0    0  501  0.00000000000E+00  0.00000000000E+00 -0.24122956128E+03  0.24122956130E+03  0.25500000920E-02 0. -1.
    10030    2    1    2    0    0  0.00000000000E+00  0.00000000000E+00  0.13123877429E+04  0.17948468655E+04  0.12243829805E+04 0.  0.
        3    1    3    3  502    0 -0.33679224710E+03 -0.33045139911E+03  0.12279988095E+04  0.13155258383E+04  0.10100000352E+00 0.  1.
       -3    1    3    3    0  502  0.33679224710E+03  0.33045139911E+03  0.84388933477E+02  0.47932102726E+03  0.10100000352E+00 0. -1.
</event>
<event>
 5   0  0.3803253E-04  0.1686686E+04  0.7818609E-02  0.8768994E-01
        1   -1    0    0  501    0  0.00000000000E+00  0.00000000000E+00  0.17262731547E+04  0.17262731547E+04  0.50400001928E-02 0. -1.
       -1   -1    0    0    0  501  0.00000000000E+00  0.00000000000E+00 -0.41200182653E+03  0.41200182656E+03  0.50400001928E-02 0.  1.
    10030    2    1    2    0    0  0.00000000000E+00  0.00000000000E+00  0.13142713282E+04  0.21382749813E+04  0.16866863287E+04 0.  0.
        4    1    3    3  502    0  0.15957735167E+03  0.49991686313E+03 -0.17980545330E+03  0.55471922190E+03  0.12699999809E+01 0.  1.
       -4    1    3    3    0  502 -0.15957735167E+03 -0.49991686313E+03  0.14940767815E+04  0.15835557594E+04  0.12699999809E+01 0. -1.
</event>
<event>
 5   0  0.7242144E-04  0.1717347E+04  0.7818609E-02  0.8751532E-01
        2   -1    0    0  501    0  0.00000000000E+00  0.00000000000E+00  0.11635915015E+04  0.11635915015E+04  0.25500000920E-02 0.  1.
       -2   -1    0    0    0  501  0.00000000000E+00  0.00000000000E+00 -0.63365881733E+03  0.63365881733E+03  0.25500000920E-02 0. -1.
    10030    2    1    2    0    0  0.00000000000E+00  0.00000000000E+00  0.52993268413E+03  0.17972503188E+04  0.17173468079E+04 0.  0.
        3    1    3    3  502    0 -0.37196263571E+03  0.59829557576E+03 -0.24879884768E+03  0.74713765475E+03  0.10100000352E+00 0.  1.
       -3    1    3    3    0  502  0.37196263571E+03 -0.59829557576E+03  0.77873153181E+03  0.10501126640E+04  0.10100000352E+00 0. -1.
</event>
<event>
 5   0  0.7049044E-04  0.1485081E+04  0.7818609E-02  0.8894435E-01
        2   -1    0    0  501    0  0.00000000000E+00  0.00000000000E+00  0.13696518743E+04  0.13696518743E+04  0.25500000920E-02 0. -1.
       -2   -1    0    0    0  501  0.00000000000E+00  0.00000000000E+00 -0.40255942398E+03  0.40255942399E+03  0.25500000920E-02 0.  1.
    10030    2    1    2    0    0  0.00000000000E+00  0.00000000000E+00  0.96709245027E+03  0.17722112982E+04  0.14850808322E+04 0.  0.
        4    1    3    3  502    0  0.22008384136E+03  0.70084262354E+03  0.61288711706E+03  0.95668673628E+03  0.12699999809E+01 0. -1.
       -4    1    3    3    0  502 -0.22008384136E+03 -0.70084262354E+03  0.35420533320E+03  0.81552456197E+03  0.12699999809E+01 0.  1.
</event>
<event>
 5   0  0.7025426E-04  0.1655437E+04  0.7818609E-02  0.8787197E-01
        2   -1    0    0  501    0  0.00000000000E+00  0.00000000000E+00  0.80868334622E+03  0.80868334622E+03  0.25500000920E-02 0. -1.
       -2   -1    0    0    0  501  0.00000000000E+00  0.00000000000E+00 -0.84720141680E+03  0.84720141680E+03  0.25500000920E-02 0.  1.
    10030    2    1    2    0    0  0.00000000000E+00  0.00000000000E+00 -0.38518070580E+02  0.16558847630E+04  0.16554367118E+04 0.  0.
        2    1    3    3  502    0  0.21567325954E+03  0.93336585519E+02  0.77461250047E+03  0.80947587918E+03  0.25500000920E-02 0. -1.
       -2    1    3    3    0  502 -0.21567325954E+03 -0.93336585519E+02 -0.81313057105E+03  0.84640888385E+03  0.25500000920E-02 0.  1.
</event>
<event>
 5   0  0.7025426E-04  0.1716009E+04  0.7818609E-02  0.8752286E-01
       -2   -1    0    0    0  501  0.00000000000E+00  0.00000000000E+00  0.13004889753E+04  0.13004889753E+04  0.25500000920E-02 0.  1.
        2   -1    0    0  501    0  0.00000000000E+00  0.00000000000E+00 -0.56607331271E+03  0.56607331272E+03  0.25500000920E-02 0. -1.
    10030    2    1    2    0    0  0.00000000000E+00  0.00000000000E+00  0.73441566260E+03  0.18665622880E+04  0.17160094433E+04 0.  0.
        2    1    3    3  502    0 -0.17853991220E+03  0.73760645091E+03 -0.68201650005E+02  0.76196538093E+03  0.25500000920E-02 0. -1.
       -2    1    3    3    0  502  0.17853991220E+03 -0.73760645091E+03  0.80261731260E+03  0.11045969071E+04  0.25500000920E-02 0.  1.
</event>
<event>
 5   0  0.3803253E-04  0.1819242E+04  0.7818609E-02  0.8696133E-01
        1   -1    0    0  501    0  0.00000000000E+00  0.00000000000E+00  0.55231353874E+03  0.55231353876E+03  0.50400001928E-02 0. -1.
       -1   -1    0    0    0  501  0.00000000000E+00  0.00000000000E+00 -0.14980804367E+04  0.14980804367E+04  0.50400001928E-02 0.  1.
    10030    2    1    2    0    0  0.00000000000E+00  0.00000000000E+00 -0.94576689798E+03  0.20503939755E+04  0.18192417182E+04 0.  0.
        4    1    3    3  502    0  0.75285844228E+03 -0.20054259277E+03  0.56229150617E+02  0.78113794934E+03  0.12699999809E+01 0. -1.
       -4    1    3    3    0  502 -0.75285844228E+03  0.20054259277E+03 -0.10019960486E+04  0.12692560261E+04  0.12699999809E+01 0.  1.
</event>
<event>
 5   0  0.7025426E-04  0.1696682E+04  0.7818609E-02  0.8763259E-01
       -2   -1    0    0    0  501  0.00000000000E+00  0.00000000000E+00  0.40762069322E+03  0.40762069323E+03  0.25500000920E-02 0.  1.
        2   -1    0    0  501    0  0.00000000000E+00  0.00000000000E+00 -0.17655687714E+04  0.17655687714E+04  0.25500000920E-02 0. -1.
    10030    2    1    2    0    0  0.00000000000E+00  0.00000000000E+00 -0.13579480782E+04  0.21731894647E+04  0.16966818989E+04 0.  0.
        2    1    3    3  502    0 -0.45774322251E+03  0.34510474992E+02  0.23480264452E+03  0.51560848763E+03  0.25500000920E-02 0.  1.
       -2    1    3    3    0  502  0.45774322251E+03 -0.34510474992E+02 -0.15927507227E+04  0.16575809770E+04  0.25500000920E-02 0. -1.
</event>
<event>
 5   0  0.6746664E-04  0.1693301E+04  0.7818609E-02  0.8765194E-01
       -2   -1    0    0    0  501  0.00000000000E+00  0.00000000000E+00  0.37537112611E+03  0.37537112612E+03  0.25500000920E-02 0.  1.
        2   -1    0    0  501    0  0.00000000000E+00  0.00000000000E+00 -0.19096229583E+04  0.19096229583E+04  0.25500000920E-02 0. -1.
    10030    2    1    2    0    0  0.00000000000E+00  0.00000000000E+00 -0.15342518322E+04  0.22849940845E+04  0.16933012967E+04 0.  0.
        5    1    3    3  502    0 -0.41816085725E+03  0.72995642943E+03 -0.63839595951E+03  0.10560617323E+04  0.46999998093E+01 0.  1.
       -5    1    3    3    0  502  0.41816085725E+03 -0.72995642943E+03 -0.89585587272E+03  0.12289323521E+04  0.46999998093E+01 0. -1.
</event>
<event>
 5   0  0.6746664E-04  0.1630214E+04  0.7818609E-02  0.8802199E-01
        2   -1    0    0  501    0  0.00000000000E+00  0.00000000000E+00  0.99408660368E+03  0.99408660368E+03  0.25500000920E-02 0.  1.
       -2   -1    0    0    0  501  0.00000000000E+00  0.00000000000E+00 -0.66835153037E+03  0.66835153038E+03  0.25500000920E-02 0. -1.
    10030    2    1    2    0    0  0.00000000000E+00  0.00000000000E+00  0.32573507331E+03  0.16624381341E+04  0.16302138546E+04 0.  0.
        5    1    3    3  502    0  0.28510353542E+03  0.54458447103E+03 -0.38298973112E+03  0.72426479698E+03  0.46999998093E+01 0. -1.
       -5    1    3    3    0  502 -0.28510353542E+03 -0.54458447103E+03  0.70872480443E+03  0.93817333708E+03  0.46999998093E+01 0.  1.
</event>
<event>
 5   0  0.7242144E-04  0.1649841E+04  0.7818609E-02  0.8790501E-01
       -2   -1    0    0    0  501  0.00000000000E+00  0.00000000000E+00  0.67828822698E+03  0.67828822699E+03  0.25500000920E-02 0.  1.
        2   -1    0    0  501    0  0.00000000000E+00  0.00000000000E+00 -0.10032516394E+04  0.10032516394E+04  0.25500000920E-02 0. -1.
    10030    2    1    2    0    0  0.00000000000E+00  0.00000000000E+00 -0.32496341240E+03  0.16815398664E+04  0.16498409326E+04 0.  0.
        3    1    3    3  502    0 -0.10680270850E+03  0.70662904647E+03  0.25745686602E+03  0.75961534735E+03  0.10100000352E+00 0.  1.
       -3    1    3    3    0  502  0.10680270850E+03 -0.70662904647E+03 -0.58242027843E+03  0.92192451903E+03  0.10100000352E+00 0. -1.
</event>
<event>
 5   0  0.3713516E-04  0.2013585E+04  0.7818609E-02  0.8600295E-01
        1   -1    0    0  501    0  0.00000000000E+00  0.00000000000E+00  0.14791944490E+04  0.14791944490E+04  0.50400001928E-02 0. -1.
       -1   -1    0    0    0  501  0.00000000000E+00  0.00000000000E+00 -0.68525901760E+03  0.68525901762E+03  0.50400001928E-02 0.  1.
    10030    2    1    2    0    0  0.00000000000E+00  0.00000000000E+00  0.79393543141E+03  0.21644534666E+04  0.20135851956E+04 0.  0.
        5    1    3    3  502    0 -0.51196542538E+03  0.42279936931E+03 -0.41653219593E+03  0.78382974154E+03  0.46999998093E+01 0.  1.
       -5    1    3    3    0  502  0.51196542538E+03 -0.42279936931E+03  0.12104676273E+04  0.13806237251E+04  0.46999998093E+01 0. -1.
</event>
<event>
 5   0  0.3723500E-04  0.1720346E+04  0.7818609E-02  0.8749845E-01
        1   -1    0    0  501    0  0.00000000000E+00  0.00000000000E+00  0.11222628778E+04  0.11222628778E+04  0.50400001928E-02 0.  1.
       -1   -1    0    0    0  501  0.00000000000E+00  0.00000000000E+00 -0.65929048731E+03  0.65929048733E+03  0.50400001928E-02 0. -1.
    10030    2    1    2    0    0  0.00000000000E+00  0.00000000000E+00  0.46297239047E+03  0.17815533651E+04  0.17203455927E+04 0.  0.
        1    1    3    3  502    0  0.62297392666E+03  0.11978785792E+03 -0.37008755781E+03  0.73444567169E+03  0.50400001928E-02 0. -1.
       -1    1    3    3    0  502 -0.62297392666E+03 -0.11978785792E+03  0.83305994827E+03  0.10471076934E+04  0.50400001928E-02 0.  1.
</event>
<event>
 5   0  0.7242144E-04  0.1609081E+04  0.7818609E-02  0.8814989E-01
       -2   -1    0    0    0  501  0.00000000000E+00  0.00000000000E+00  0.87665702517E+03  0.87665702517E+03  0.25500000920E-02 0. -1.
        2   -1    0    0  501    0  0.00000000000E+00  0.00000000000E+00 -0.73835639515E+03  0.73835639515E+03  0.25500000920E-02 0.  1.
    10030    2    1    2    0    0  0.00000000000E+00  0.00000000000E+00  0.13830063002E+03  0.16150134203E+04  0.16090808816E+04 0.  0.
        3    1    3    3  502    0 -0.36359898400E+03  0.49439809008E+03 -0.45300965492E+03  0.76279187875E+03  0.10100000352E+00 0.  1.
       -3    1    3    3    0  502  0.36359898400E+03 -0.49439809008E+03  0.59131028494E+03  0.85222154157E+03  0.10100000352E+00 0. -1.
</event>
<event>
 5   0  0.2639750E-04  0.1670649E+04  0.7818609E-02  0.8778283E-01
        4   -1    0    0  501    0  0.00000000000E+00  0.00000000000E+00  0.69590180568E+03  0.69590296454E+03  0.12699999809E+01 0. -1.
       -4   -1    0    0    0  501  0.00000000000E+00  0.00000000000E+00 -0.10026784249E+04  0.10026792292E+04  0.12699999809E+01 0.  1.
    10030    2    1    2    0    0  0.00000000000E+00  0.00000000000E+00 -0.30677661923E+03  0.16985821937E+04  0.16706494470E+04 0.  0.
        3    1    3    3  502    0 -0.77011567169E+02 -0.30550007122E+03 -0.93995509250E+03  0.99135092733E+03  0.10100000352E+00 0.  1.
       -3    1    3    3    0  502  0.77011567169E+02  0.30550007122E+03  0.63317847327E+03  0.70723126642E+03  0.10100000352E+00 0. -1.
</event>
<event>
 5   0  0.7049044E-04  0.1737942E+04  0.7818609E-02  0.8740016E-01
       -2   -1    0    0    0  501  0.00000000000E+00  0.00000000000E+00  0.45953447454E+03  0.45953447455E+03  0.25500000920E-02 0.  1.
        2   -1    0    0  501    0  0.00000000000E+00  0.00000000000E+00 -0.16432068014E+04  0.16432068014E+04  0.25500000920E-02 0. -1.
    10030    2    1    2    0    0  0.00000000000E+00  0.00000000000E+00 -0.11836723268E+04  0.21027412759E+04  0.17379415111E+04 0.  0.
        4    1    3    3  502    0  0.62028631644E+03  0.38713273384E+03 -0.11599520723E+04  0.13711736910E+04  0.12699999809E+01 0. -1.
       -4    1    3    3    0  502 -0.62028631644E+03 -0.38713273384E+03 -0.23720254563E+02  0.73156758495E+03  0.12699999809E+01 0.  1.
</event>
<event>
 5   0  0.3803253E-04  0.1528982E+04  0.7818609E-02  0.8865406E-01
        1   -1    0    0  501    0  0.00000000000E+00  0.00000000000E+00  0.10970786360E+04  0.10970786360E+04  0.50400001928E-02 0. -1.
       -1   -1    0    0    0  501  0.00000000000E+00  0.00000000000E+00 -0.53273001902E+03  0.53273001905E+03  0.50400001928E-02 0.  1.
    10030    2    1    2    0    0  0.00000000000E+00  0.00000000000E+00  0.56434861695E+03  0.16298086550E+04  0.15289823055E+04 0.  0.
        4    1    3    3  502    0  0.14597695650E+03  0.65101137588E+03  0.68004407065E+03  0.95267341428E+03  0.12699999809E+01 0. -1.
       -4    1    3    3    0  502 -0.14597695650E+03 -0.65101137588E+03 -0.11569545370E+03  0.67713524075E+03  0.12699999809E+01 0.  1.
</event>
<event>
 5   0  0.7049044E-04  0.1706270E+04  0.7818609E-02  0.8757797E-01
        2   -1    0    0  501    0  0.00000000000E+00  0.00000000000E+00  0.12753341437E+04  0.12753341437E+04  0.25500000920E-02 0. -1.
       -2   -1    0    0    0  501  0.00000000000E+00  0.00000000000E+00 -0.57070457252E+03  0.57070457252E+03  0.25500000920E-02 0.  1.
    10030    2    1    2    0    0  0.00000000000E+00  0.00000000000E+00  0.70462957114E+03  0.18460387162E+04  0.17062696473E+04 0.  0.
        4    1    3    3  502    0 -0.61424406565E+03 -0.59187644708E+03  0.33612528815E+03  0.91683985681E+03  0.12699999809E+01 0. -1.
       -4    1    3    3    0  502  0.61424406565E+03  0.59187644708E+03  0.36850428299E+03  0.92919885938E+03  0.12699999809E+01 0.  1.
</event>
<event>
 5   0  0.7233728E-04  0.1775956E+04  0.7818609E-02  0.8719192E-01
        2   -1    0    0  501    0  0.00000000000E+00  0.00000000000E+00  0.75231499893E+03  0.75231499894E+03  0.25500000920E-02 0.  1.
       -2   -1    0    0    0  501  0.00000000000E+00  0.00000000000E+00 -0.10481043233E+04  0.10481043233E+04  0.25500000920E-02 0. -1.
    10030    2    1    2    0    0  0.00000000000E+00  0.00000000000E+00 -0.29578932438E+03  0.18004193223E+04  0.17759556333E+04 0.  0.
        1    1    3    3  502    0  0.42338085474E+03  0.95900401940E+02 -0.93319824244E+03  0.10292265032E+04  0.50400001928E-02 0. -1.
       -1    1    3    3    0  502 -0.42338085474E+03 -0.95900401940E+02  0.63740891806E+03  0.77119281901E+03  0.50400001928E-02 0.  1.
</event>
<event>
 5   0  0.7025426E-04  0.1572817E+04  0.7818609E-02  0.8837424E-01
        2   -1    0    0  501    0  0.00000000000E+00  0.00000000000E+00  0.17848732568E+04  0.17848732568E+04  0.25500000920E-02 0.  1.
       -2   -1    0    0    0  501  0.00000000000E+00  0.00000000000E+00 -0.34648847847E+03  0.34648847848E+03  0.25500000920E-02 0. -1.
    10030    2    1    2    0    0  0.00000000000E+00  0.00000000000E+00  0.14383847783E+04  0.21313617353E+04  0.15728166060E+04 0.  0.
        2    1    3    3  502    0 -0.56966581481E+03  0.50061384558E+03  0.10011906147E+04  0.12559920422E+04  0.25500000920E-02 0.  1.
       -2    1    3    3    0  502  0.56966581481E+03 -0.50061384558E+03  0.43719416362E+03  0.87536969313E+03  0.25500000920E-02 0. -1.
</event>
<event>
 5   0  0.3635143E-04  0.1651132E+04  0.7818609E-02  0.8789737E-01
        1   -1    0    0  501    0  0.00000000000E+00  0.00000000000E+00  0.94019948362E+03  0.94019948363E+03  0.50400001928E-02 0. -1.
       -1   -1    0    0    0  501  0.00000000000E+00  0.00000000000E+00 -0.72490950535E+03  0.72490950537E+03  0.50400001928E-02 0.  1.
    10030    2    1    2    0    0  0.00000000000E+00  0.00000000000E+00  0.21528997826E+03  0.16651089890E+04  0.16511323904E+04 0.  0.
        3    1    3    3  502    0  0.31354010425E+03 -0.30692028273E+03 -0.59759725943E+03  0.74137032015E+03  0.10100000352E+00 0.  1.
       -3    1    3    3    0  502 -0.31354010425E+03  0.30692028273E+03  0.81288723769E+03  0.92373866885E+03  0.10100000352E+00 0. -1.
</event>
<event>
 5   0  0.2639750E-04  0.1717012E+04  0.7818609E-02  0.8751721E-01
       -3   -1    0    0    0  501  0.00000000000E+00  0.00000000000E+00  0.41772977831E+03  0.41772979052E+03  0.10100000352E+00 0.  1.
        3   -1    0    0  501    0  0.00000000000E+00  0.00000000000E+00 -0.17643766262E+04  0.17643766291E+04  0.10100000352E+00 0. -1.
    10030    2    1    2    0    0  0.00000000000E+00  0.00000000000E+00 -0.13466468479E+04  0.21821064196E+04  0.17170121414E+04 0.  0.
        5    1    3    3  502    0  0.27766597734E+02  0.30040870646E+03 -0.16947728602E+04  0.17214219449E+04  0.46999998093E+01 0. -1.
       -5    1    3    3    0  502 -0.27766597734E+02 -0.30040870646E+03  0.34812601224E+03  0.46068447474E+03  0.46999998093E+01 0.  1.
</event>
<event>
 5   0  0.3723500E-04  0.1654856E+04  0.7818609E-02  0.8787539E-01
       -1   -1    0    0    0  501  0.00000000000E+00  0.00000000000E+00  0.39460686578E+03  0.39460686581E+03  0.50400001928E-02 0.  1.
        1   -1    0    0  501    0  0.00000000000E+00  0.00000000000E+00 -0.17349844556E+04  0.17349844556E+04  0.50400001928E-02 0. -1.
    10030    2    1    2    0    0  0.00000000000E+00  0.00000000000E+00 -0.13403775899E+04  0.21295913214E+04  0.16548556170E+04 0.  0.
        1    1    3    3  502    0  0.50932815446E+03 -0.43821449989E+03 -0.12916167780E+04  0.14559261720E+04  0.50400001928E-02 0. -1.
       -1    1    3    3    0  502 -0.50932815446E+03  0.43821449989E+03 -0.48760811812E+02  0.67366514949E+03  0.50400001928E-02 0.  1.
</event>
<event>
 5   0  0.3915701E-04  0.1681208E+04  0.7818609E-02  0.8772155E-01
        1   -1    0    0  501    0  0.00000000000E+00  0.00000000000E+00  0.18210657380E+04  0.18210657381E+04  0.50400001928E-02 0. -1.
       -1   -1    0    0    0  501  0.00000000000E+00  0.00000000000E+00 -0.38802275488E+03  0.38802275491E+03  0.50400001928E-02 0.  1.
    10030    2    1    2    0    0  0.00000000000E+00  0.00000000000E+00  0.14330429832E+04  0.22090884930E+04  0.16812078331E+04 0.  0.
        2    1    3    3  502    0  0.55914638959E+03 -0.26810599471E+03  0.14622486306E+04  0.15882998983E+04  0.25500000920E-02 0. -1.
       -2    1    3    3    0  502 -0.55914638959E+03  0.26810599471E+03 -0.29205647397E+02  0.62078859464E+03  0.25500000920E-02 0.  1.
</event>
<event>
 5   0  0.7025426E-04  0.1711090E+04  0.7818609E-02  0.8755064E-01
        2   -1    0    0  501    0  0.00000000000E+00  0.00000000000E+00  0.27243827476E+04  0.27243827476E+04  0.25500000920E-02 0.  1.
       -2   -1    0    0    0  501  0.00000000000E+00  0.00000000000E+00 -0.26866909377E+03  0.26866909378E+03  0.25500000920E-02 0. -1.
    10030    2    1    2    0    0  0.00000000000E+00  0.00000000000E+00  0.24557136538E+04  0.29930518414E+04  0.17110902301E+04 0.  0.
        2    1    3    3  502    0  0.31162464799E+03  0.45614060014E+03  0.85123157209E+02  0.55894554317E+03  0.25500000920E-02 0. -1.
       -2    1    3    3    0  502 -0.31162464799E+03 -0.45614060014E+03  0.23705904966E+04  0.24341062982E+04  0.25500000920E-02 0.  1.
</event>
<event>
 5   0  0.6746664E-04  0.1746592E+04  0.7818609E-02  0.8735229E-01
        2   -1    0    0  501    0  0.00000000000E+00  0.00000000000E+00  0.10460060916E+04  0.10460060916E+04  0.25500000920E-02 0. -1.
       -2   -1    0    0    0  501  0.00000000000E+00  0.00000000000E+00 -0.72910256313E+03  0.72910256314E+03  0.25500000920E-02 0.  1.
    10030    2    1    2    0    0  0.00000000000E+00  0.00000000000E+00  0.31690352850E+03  0.17751086548E+04  0.17465917926E+04 0.  0.
        5    1    3    3  502    0  0.29211506299E+03  0.47596152844E+03 -0.52389142568E+03  0.76573814224E+03  0.46999998093E+01 0.  1.
       -5    1    3    3    0  502 -0.29211506299E+03 -0.47596152844E+03  0.84079495418E+03  0.10093705125E+04  0.46999998093E+01 0. -1.
</event>
<event>
 5   0  0.3723500E-04  0.1557423E+04  0.7818609E-02  0.8847140E-01
       -1   -1    0    0    0  501  0.00000000000E+00  0.00000000000E+00  0.15396396166E+04  0.15396396166E+04  0.50400001928E-02 0. -1.
        1   -1    0    0  501    0  0.00000000000E+00  0.00000000000E+00 -0.39385288740E+03  0.39385288744E+03  0.50400001928E-02 0.  1.
    10030    2    1    2    0    0  0.00000000000E+00  0.00000000000E+00  0.11457867292E+04  0.19334925041E+04  0.15574228823E+04 0.  0.
        1    1    3    3  502    0  0.68594017936E+01  0.32690529228E+02  0.15387498311E+04  0.15391123302E+04  0.50400001928E-02 0. -1.
       -1    1    3    3    0  502 -0.68594017936E+01 -0.32690529228E+02 -0.39296310189E+03  0.39438017390E+03  0.50400001928E-02 0.  1.
</event>
<event>
 5   0  0.7233728E-04  0.1711891E+04  0.7818609E-02  0.8754611E-01
       -2   -1    0    0    0  501  0.00000000000E+00  0.00000000000E+00  0.57801168752E+03  0.57801168753E+03  0.25500000920E-02 0.  1.
        2   -1    0    0  501    0  0.00000000000E+00  0.00000000000E+00 -0.12675224442E+04  0.12675224442E+04  0.25500000920E-02 0. -1.
    10030    2    1    2    0    0  0.00000000000E+00  0.00000000000E+00 -0.68951075663E+03  0.18455341317E+04  0.17118911028E+04 0.  0.
        1    1    3    3  502    0 -0.75105515635E+03  0.38485858265E+03 -0.19061506162E+03  0.86517863951E+03  0.50400001928E-02 0.  1.
       -1    1    3    3    0  502  0.75105515635E+03 -0.38485858265E+03 -0.49889569502E+03  0.98035549218E+03  0.50400001928E-02 0. -1.
</event>
<event>
 5   0  0.3723500E-04  0.1617052E+04  0.7818609E-02  0.8810140E-01
        1   -1    0    0  501    0  0.00000000000E+00  0.00000000000E+00  0.13640771807E+04  0.13640771807E+04  0.50400001928E-02 0. -1.
       -1   -1    0    0    0  501  0.00000000000E+00  0.00000000000E+00 -0.47923554630E+03  0.47923554633E+03  0.50400001928E-02 0.  1.
    10030    2    1    2    0    0  0.00000000000E+00  0.00000000000E+00  0.88484163436E+03  0.18433127270E+04  0.16170519756E+04 0.  0.
        1    1    3    3  502    0 -0.72237395799E+03  0.20959216588E+03  0.78050181963E+03  0.10839446949E+04  0.50400001928E-02 0. -1.
       -1    1    3    3    0  502  0.72237395799E+03 -0.20959216588E+03  0.10433981473E+03  0.75936803208E+03  0.50400001928E-02 0.  1.
</event>
<event>
 5   0  0.6746664E-04  0.1716203E+04  0.7818609E-02  0.8752177E-01
       -2   -1    0    0    0  501  0.00000000000E+00  0.00000000000E+00  0.25317103837E+03  0.25317103839E+03  0.25500000920E-02 0. -1.
        2   -1    0    0  501    0  0.00000000000E+00  0.00000000000E+00 -0.29084598700E+04  0.29084598700E+04  0.25500000920E-02 0.  1.
    10030    2    1    2    0    0  0.00000000000E+00  0.00000000000E+00 -0.26552888316E+04  0.31616309084E+04  0.17162025584E+04 0.  0.
        5    1    3    3  502    0 -0.51294915519E+03 -0.53203171359E+03 -0.21309497761E+04  0.22554697112E+04  0.46999998093E+01 0.  1.
       -5    1    3    3    0  502  0.51294915519E+03  0.53203171359E+03 -0.52433905556E+03  0.90616119717E+03  0.46999998093E+01 0. -1.
</event>
<event>
 5   0  0.7049044E-04  0.1721035E+04  0.7818609E-02  0.8749457E-01
        2   -1    0    0  501    0  0.00000000000E+00  0.00000000000E+00  0.44622675729E+03  0.44622675730E+03  0.25500000920E-02 0. -1.
       -2   -1    0    0    0  501  0.00000000000E+00  0.00000000000E+00 -0.16594487229E+04  0.16594487229E+04  0.25500000920E-02 0.  1.
    10030    2    1    2    0    0  0.00000000000E+00  0.00000000000E+00 -0.12132219656E+04  0.21056754802E+04  0.17210350636E+04 0.  0.
        4    1    3    3  502    0 -0.84180875075E+03 -0.17203587022E+03 -0.66465278101E+03  0.10862795431E+04  0.12699999809E+01 0. -1.
       -4    1    3    3    0  502  0.84180875075E+03  0.17203587022E+03 -0.54856918464E+03  0.10193959372E+04  0.12699999809E+01 0.  1.
</event>
<event>
 5   0  0.6746664E-04  0.1696031E+04  0.7818609E-02  0.8763631E-01
        2   -1    0    0  501    0  0.00000000000E+00  0.00000000000E+00  0.10570181008E+04  0.10570181008E+04  0.25500000920E-02 0.  1.
       -2   -1    0    0    0  501  0.00000000000E+00  0.00000000000E+00 -0.68033855265E+03  0.68033855265E+03  0.25500000920E-02 0. -1.
    10030    2    1    2    0    0  0.00000000000E+00  0.00000000000E+00  0.37667954815E+03  0.17373566535E+04  0.16960308545E+04 0.  0.
        5    1    3    3  502    0  0.57835479760E+03 -0.56557837267E+03  0.44896983063E+03  0.92518601716E+03  0.46999998093E+01 0.  1.
       -5    1    3    3    0  502 -0.57835479760E+03  0.56557837267E+03 -0.72290282475E+02  0.81217063630E+03  0.46999998093E+01 0. -1.
</event>
<event>
 5   0  0.6746664E-04  0.1642695E+04  0.7818609E-02  0.8794740E-01
        2   -1    0    0  501    0  0.00000000000E+00  0.00000000000E+00  0.91835368694E+03  0.91835368695E+03  0.25500000920E-02 0.  1.
       -2   -1    0    0    0  501  0.00000000000E+00  0.00000000000E+00 -0.73458810683E+03  0.73458810684E+03  0.25500000920E-02 0. -1.
    10030    2    1    2    0    0  0.00000000000E+00  0.00000000000E+00  0.18376558011E+03  0.16529417938E+04  0.16426949763E+04 0.  0.
        5    1    3    3  502    0  0.80789236441E+03  0.39205234742E+02 -0.51704501410E+02  0.81050759921E+03  0.46999998093E+01 0. -1.
       -5    1    3    3    0  502 -0.80789236441E+03 -0.39205234742E+02  0.23547008152E+03  0.84243419458E+03  0.46999998093E+01 0.  1.
</event>
<event>
 5   0  0.2639750E-04  0.1635663E+04  0.7818609E-02  0.8798934E-01
       -4   -1    0    0    0  501  0.00000000000E+00  0.00000000000E+00  0.14505650337E+04  0.14505655896E+04  0.12699999809E+01 0. -1.
        4   -1    0    0  501    0  0.00000000000E+00  0.00000000000E+00 -0.46109339761E+03  0.46109514660E+03  0.12699999809E+01 0.  1.
    10030    2    1    2    0    0  0.00000000000E+00  0.00000000000E+00  0.98947163607E+03  0.19116607362E+04  0.16356627562E+04 0.  0.
        2    1    3    3  502    0  0.45952247713E+03 -0.73043792828E+02  0.12807950010E+04  0.13626929725E+04  0.25500000920E-02 0. -1.
       -2    1    3    3    0  502 -0.45952247713E+03  0.73043792828E+02 -0.29132336494E+03  0.54896776374E+03  0.25500000920E-02 0.  1.
</event>
<event>
 5   0  0.7233728E-04  0.1662650E+04  0.7818609E-02  0.8782958E-01
       -2   -1    0    0    0  501  0.00000000000E+00  0.00000000000E+00  0.41763454074E+03  0.41763454075E+03  0.25500000920E-02 0.  1.
        2   -1    0    0  501    0  0.00000000000E+00  0.00000000000E+00 -0.16547988068E+04  0.16547988068E+04  0.25500000920E-02 0. -1.
    10030    2    1    2    0    0  0.00000000000E+00  0.00000000000E+00 -0.12371642661E+04  0.20724333476E+04  0.16626498606E+04 0.  0.
        1    1    3    3  502    0  0.98555779547E+02 -0.11050728652E+03  0.40106514019E+03  0.42752584572E+03  0.50400001928E-02 0.  1.
       -1    1    3    3    0  502 -0.98555779547E+02  0.11050728652E+03 -0.16382294063E+04  0.16449075019E+04  0.50400001928E-02 0. -1.
</event>
<event>
 5   0  0.3915701E-04  0.1675328E+04  0.7818609E-02  0.8775562E-01
       -1   -1    0    0    0  501  0.00000000000E+00  0.00000000000E+00  0.12842550090E+04  0.12842550090E+04  0.50400001928E-02 0.  1.
        1   -1    0    0  501    0  0.00000000000E+00  0.00000000000E+00 -0.54637175855E+03  0.54637175858E+03  0.50400001928E-02 0. -1.
    10030    2    1    2    0    0  0.00000000000E+00  0.00000000000E+00  0.73788325049E+03  0.18306267676E+04  0.16753276309E+04 0.  0.
        2    1    3    3  502    0 -0.50430221298E+03 -0.49751897890E+03  0.85740907588E+03  0.11122032997E+04  0.25500000920E-02 0.  1.
       -2    1    3    3    0  502  0.50430221298E+03  0.49751897890E+03 -0.11952582539E+03  0.71842346796E+03  0.25500000920E-02 0. -1.
</event>
<event>
 5   0  0.7049044E-04  0.1721645E+04  0.7818609E-02  0.8749115E-01
       -2   -1    0    0    0  501  0.00000000000E+00  0.00000000000E+00  0.27594695441E+03  0.27594695443E+03  0.25500000920E-02 0.  1.
        2   -1    0    0  501    0  0.00000000000E+00  0.00000000000E+00 -0.26853559449E+04  0.26853559449E+04  0.25500000920E-02 0. -1.
    10030    2    1    2    0    0  0.00000000000E+00  0.00000000000E+00 -0.24094089904E+04  0.29613028993E+04  0.17216454856E+04 0.  0.
        4    1    3    3  502    0  0.42835163943E+03  0.68466646489E+03 -0.69225635755E+03  0.10637075597E+04  0.12699999809E+01 0.  1.
       -4    1    3    3    0  502 -0.42835163943E+03 -0.68466646489E+03 -0.17171526329E+04  0.18975953396E+04  0.12699999809E+01 0. -1.
</event>
<event>
 5   0  0.3635143E-04  0.1680260E+04  0.7818609E-02  0.8772704E-01
        1   -1    0    0  501    0  0.00000000000E+00  0.00000000000E+00  0.81913117786E+03  0.81913117787E+03  0.50400001928E-02 0.  1.
       -1   -1    0    0    0  501  0.00000000000E+00  0.00000000000E+00 -0.86166710150E+03  0.86166710152E+03  0.50400001928E-02 0. -1.
    10030    2    1    2    0    0  0.00000000000E+00  0.00000000000E+00 -0.42535923648E+02  0.16807982794E+04  0.16802599654E+04 0.  0.
        3    1    3    3  502    0  0.45741326449E+03 -0.29380228035E+03 -0.66199772326E+03  0.85661407313E+03  0.10100000352E+00 0. -1.
       -3    1    3    3    0  502 -0.45741326449E+03  0.29380228035E+03  0.61946179961E+03  0.82418420626E+03  0.10100000352E+00 0.  1.
</event>
<event>
 5   0  0.7242144E-04  0.1739699E+04  0.7818609E-02  0.8739041E-01
        2   -1    0    0  501    0  0.00000000000E+00  0.00000000000E+00  0.10309013720E+04  0.10309013720E+04  0.25500000920E-02 0. -1.
       -2   -1    0    0    0  501  0.00000000000E+00  0.00000000000E+00 -0.73395759776E+03  0.73395759777E+03  0.25500000920E-02 0.  1.
    10030    2    1    2    0    0  0.00000000000E+00  0.00000000000E+00  0.29694377419E+03  0.17648589697E+04  0.17396987032E+04 0.  0.
        3    1    3    3  502    0 -0.82807399447E+03  0.18920029880E+03  0.33862499036E+03  0.91442341816E+03  0.10100000352E+00 0. -1.
       -3    1    3    3    0  502  0.82807399447E+03 -0.18920029880E+03 -0.41681216170E+02  0.85043555156E+03  0.10100000352E+00 0.  1.
</event>
<event>
 5   0  0.3803253E-04  0.1328597E+04  0.7818609E-02  0.9007190E-01
       -1   -1    0    0    0  501  0.00000000000E+00  0.00000000000E+00  0.58759425977E+03  0.58759425979E+03  0.50400001928E-02 0.  1.
        1   -1    0    0  501    0  0.00000000000E+00  0.00000000000E+00 -0.75101622031E+03  0.75101622033E+03  0.50400001928E-02 0. -1.
    10030    2    1    2    0    0  0.00000000000E+00  0.00000000000E+00 -0.16342196054E+03  0.13386104801E+04  0.13285974862E+04 0.  0.
        4    1    3    3  502    0  0.58006040008E+03  0.28526135810E+03  0.72567493728E+02  0.65047041764E+03  0.12699999809E+01 0.  1.
       -4    1    3    3    0  502 -0.58006040008E+03 -0.28526135810E+03 -0.23598945426E+03  0.68814006248E+03  0.12699999809E+01 0. -1.
</event>
<event>
 5   0  0.7233728E-04  0.1685347E+04  0.7818609E-02  0.8769766E-01
        2   -1    0    0  501    0  0.00000000000E+00  0.00000000000E+00  0.77589103320E+03  0.77589103321E+03  0.25500000920E-02 0.  1.
       -2   -1    0    0    0  501  0.00000000000E+00  0.00000000000E+00 -0.91520366588E+03  0.91520366589E+03  0.25500000920E-02 0. -1.
    10030    2    1    2    0    0  0.00000000000E+00  0.00000000000E+00 -0.13931263268E+03  0.16910946991E+04  0.16853466325E+04 0.  0.
        1    1    3    3  502    0 -0.18532152820E+03  0.13695623695E+03  0.74366183076E+03  0.77854607969E+03  0.50400001928E-02 0.  1.
       -1    1    3    3    0  502  0.18532152820E+03 -0.13695623695E+03 -0.88297446344E+03  0.91254861940E+03  0.50400001928E-02 0. -1.
</event>
<event>
 5   0  0.3713516E-04  0.1727757E+04  0.7818609E-02  0.8745690E-01
        1   -1    0    0  501    0  0.00000000000E+00  0.00000000000E+00  0.26588278830E+04  0.26588278830E+04  0.50400001928E-02 0.  1.
       -1   -1    0    0    0  501  0.00000000000E+00  0.00000000000E+00 -0.28068249238E+03  0.28068249242E+03  0.50400001928E-02 0. -1.
    10030    2    1    2    0    0  0.00000000000E+00  0.00000000000E+00  0.23781453907E+04  0.29395103755E+04  0.17277574333E+04 0.  0.
        5    1    3    3  502    0  0.33021048485E+02 -0.81896472164E+03  0.16533581395E+04  0.18453749842E+04  0.46999998093E+01 0.  1.
       -5    1    3    3    0  502 -0.33021048485E+02  0.81896472164E+03  0.72478725114E+03  0.10941353912E+04  0.46999998093E+01 0. -1.
</event>
<event>
 5   0  0.3803253E-04  0.1704423E+04  0.7818609E-02  0.8758846E-01
        1   -1    0    0  501    0  0.00000000000E+00  0.00000000000E+00  0.12162634457E+04  0.12162634458E+04  0.50400001928E-02 0.  1.
       -1   -1    0    0    0  501  0.00000000000E+00  0.00000000000E+00 -0.59712728121E+03  0.59712728123E+03  0.50400001928E-02 0. -1.
    10030    2    1    2    0    0  0.00000000000E+00  0.00000000000E+00  0.61913616454E+03  0.18133907270E+04  0.17044225821E+04 0.  0.
        4    1    3    3  502    0  0.49744607248E+03 -0.53929267562E+03  0.77084548376E+03  0.10641868058E+04  0.12699999809E+01 0.  1.
       -4    1    3    3    0  502 -0.49744607248E+03  0.53929267562E+03 -0.15170931922E+03  0.74920392114E+03  0.12699999809E+01 0. -1.
</event>
<event>
 5   0  0.7242144E-04  0.1660323E+04  0.7818609E-02  0.8784323E-01
        2   -1    0    0  501    0  0.00000000000E+00  0.00000000000E+00  0.58654996379E+03  0.58654996379E+03  0.25500000920E-02 0.  1.
       -2   -1    0    0    0  501  0.00000000000E+00  0.00000000000E+00 -0.11749522055E+04  0.11749522055E+04  0.25500000920E-02 0. -1.
    10030    2    1    2    0    0  0.00000000000E+00  0.00000000000E+00 -0.58840224171E+03  0.17615021693E+04  0.16603230693E+04 0.  0.
        3    1    3    3  502    0  0.97924575900E+02  0.28933244832E+03  0.52476279045E+03  0.60718900242E+03  0.10100000352E+00 0.  1.
       -3    1    3    3    0  502 -0.97924575900E+02 -0.28933244832E+03 -0.11131650322E+04  0.11543131669E+04  0.10100000352E+00 0. -1.
</event>
<event>
 5   0  0.3713516E-04  0.1761584E+04  0.7818609E-02  0.8726999E-01
       -1   -1    0    0    0  501  0.00000000000E+00  0.00000000000E+00  0.11231973647E+04  0.11231973647E+04  0.50400001928E-02 0. -1.
        1   -1    0    0  501    0  0.00000000000E+00  0.00000000000E+00 -0.69070225948E+03  0.69070225950E+03  0.50400001928E-02 0.  1.
    10030    2    1    2    0    0  0.00000000000E+00  0.00000000000E+00  0.43249510520E+03  0.18138996242E+04  0.17615844659E+04 0.  0.
        5    1    3    3  502    0 -0.16574141853E+03 -0.51591972588E+03  0.93122381861E+03  0.10774243694E+04  0.46999998093E+01 0. -1.
       -5    1    3    3    0  502  0.16574141853E+03  0.51591972588E+03 -0.49872871341E+03  0.73647525481E+03  0.46999998093E+01 0.  1.
</event>
<event>
 5   0  0.3635143E-04  0.1683372E+04  0.7818609E-02  0.8770905E-01
       -1   -1    0    0    0  501  0.00000000000E+00  0.00000000000E+00  0.12414243119E+04  0.12414243119E+04  0.50400001928E-02 0.  1.
        1   -1    0    0  501    0  0.00000000000E+00  0.00000000000E+00 -0.57066308845E+03  0.57066308848E+03  0.50400001928E-02 0. -1.
    10030    2    1    2    0    0  0.00000000000E+00  0.00000000000E+00  0.67076122346E+03  0.18120874004E+04  0.16833716547E+04 0.  0.
        3    1    3    3  502    0  0.23836009782E+02  0.65039085783E+03  0.90991204867E+03  0.11187119244E+04  0.10100000352E+00 0.  1.
       -3    1    3    3    0  502 -0.23836009782E+02 -0.65039085783E+03 -0.23915082521E+03  0.69337547599E+03  0.10100000352E+00 0. -1.
</event>
<event>
 5   0  0.3915701E-04  0.1729608E+04  0.7818609E-02  0.8744655E-01
       -1   -1    0    0    0  501  0.00000000000E+00  0.00000000000E+00  0.52265891528E+03  0.52265891531E+03  0.50400001928E-02 0. -1.
        1   -1    0    0  501    0  0.00000000000E+00  0.00000000000E+00 -0.14309261559E+04  0.14309261559E+04  0.50400001928E-02 0.  1.
    10030    2    1    2    0    0  0.00000000000E+00  0.00000000000E+00 -0.90826724062E+03  0.19535850712E+04  0.17296084095E+04 0.  0.
        2    1    3    3  502    0 -0.14160193706E+03  0.14171009357E+03  0.49608937962E+03  0.53501171181E+03  0.25500000920E-02 0. -1.
       -2    1    3    3    0  502  0.14160193706E+03 -0.14171009357E+03 -0.14043566202E+04  0.14185733594E+04  0.25500000920E-02 0.  1.
</event>
<event>
 5   0  0.7025426E-04  0.1697736E+04  0.7818609E-02  0.8762657E-01
        2   -1    0    0  501    0  0.00000000000E+00  0.00000000000E+00  0.36854088635E+03  0.36854088635E+03  0.25500000920E-02 0.  1.
       -2   -1    0    0    0  501  0.00000000000E+00  0.00000000000E+00 -0.19552155514E+04  0.19552155514E+04  0.25500000920E-02 0. -1.
    10030    2    1    2    0    0  0.00000000000E+00  0.00000000000E+00 -0.15866746651E+04  0.23237564378E+04  0.16977359893E+04 0.  0.
        2    1    3    3  502    0 -0.16573174535E+03  0.55681405544E+03  0.53808873449E+02  0.58344176970E+03  0.25500000920E-02 0.  1.
       -2    1    3    3    0  502  0.16573174535E+03 -0.55681405544E+03 -0.16404835385E+04  0.17403146681E+04  0.25500000920E-02 0. -1.
</event>
<event>
 5   0  0.3915701E-04  0.1751811E+04  0.7818609E-02  0.8732354E-01
       -1   -1    0    0    0  501  0.00000000000E+00  0.00000000000E+00  0.68949349459E+03  0.68949349461E+03  0.50400001928E-02 0. -1.
        1   -1    0    0  501    0  0.00000000000E+00  0.00000000000E+00 -0.11127161788E+04  0.11127161788E+04  0.50400001928E-02 0.  1.
    10030    2    1    2    0    0  0.00000000000E+00  0.00000000000E+00 -0.42322268424E+03  0.18022096735E+04  0.17518111390E+04 0.  0.
        2    1    3    3  502    0 -0.84973596089E+03 -0.18261191306E+03 -0.32342230730E+03  0.92736201285E+03  0.25500000920E-02 0.  1.
       -2    1    3    3    0  502  0.84973596089E+03  0.18261191306E+03 -0.99800376943E+02  0.87484766060E+03  0.25500000920E-02 0. -1.
</event>
<event>
 5   0  0.3915701E-04  0.1682140E+04  0.7818609E-02  0.8771617E-01
       -1   -1    0    0    0  501  0.00000000000E+00  0.00000000000E+00  0.65800310330E+03  0.65800310332E+03  0.50400001928E-02 0.  1.
        1   -1    0    0  501    0  0.00000000000E+00  0.00000000000E+00 -0.10750684769E+04  0.10750684769E+04  0.50400001928E-02 0. -1.
    10030    2    1    2    0    0  0.00000000000E+00  0.00000000000E+00 -0.41706537355E+03  0.17330715802E+04  0.16821395829E+04 0.  0.
        2    1    3    3  502    0 -0.35350376370E+03 -0.47490368375E+02 -0.99328960639E+03  0.10553883116E+04  0.25500000920E-02 0. -1.
       -2    1    3    3    0  502  0.35350376370E+03  0.47490368375E+02  0.57622423284E+03  0.67768326861E+03  0.25500000920E-02 0.  1.
</event>
<event>
 5   0  0.3635143E-04  0.1711956E+04  0.7818609E-02  0.8754575E-01
        1   -1    0    0  501    0  0.00000000000E+00  0.00000000000E+00  0.50468281357E+03  0.50468281360E+03  0.50400001928E-02 0. -1.
       -1   -1    0    0    0  501  0.00000000000E+00  0.00000000000E+00 -0.14517992513E+04  0.14517992513E+04  0.50400001928E-02 0.  1.
    10030    2    1    2    0    0  0.00000000000E+00  0.00000000000E+00 -0.94711643773E+03  0.19564820649E+04  0.17119557599E+04 0.  0.
        3    1    3    3  502    0  0.74969351744E+03  0.35247422448E+03 -0.71978447743E+03  0.10974370839E+04  0.10100000352E+00 0. -1.
       -3    1    3    3    0  502 -0.74969351744E+03 -0.35247422448E+03 -0.22733196031E+03  0.85904498100E+03  0.10100000352E+00 0.  1.
</event>
<event>
 5   0  0.7233728E-04  0.1783035E+04  0.7818609E-02  0.8715373E-01
       -2   -1    0    0    0  501  0.00000000000E+00  0.00000000000E+00  0.67035687867E+03  0.67035687867E+03  0.25500000920E-02 0.  1.
        2   -1    0    0  501    0  0.00000000000E+00  0.00000000000E+00 -0.11856428335E+04  0.11856428335E+04  0.25500000920E-02 0. -1.
    10030    2    1    2    0    0  0.00000000000E+00  0.00000000000E+00 -0.51528595486E+03  0.18559997122E+04  0.17830354221E+04 0.  0.
        1    1    3    3  502    0  0.46488078398E+02 -0.21623972721E+03  0.64134380772E+03  0.67841185189E+03  0.50400001928E-02 0.  1.
       -1    1    3    3    0  502 -0.46488078398E+02  0.21623972721E+03 -0.11566297626E+04  0.11775878603E+04  0.50400001928E-02 0. -1.
</event>
<event>
 5   0  0.7049044E-04  0.1695601E+04  0.7818609E-02  0.8763877E-01
        2   -1    0    0  501    0  0.00000000000E+00  0.00000000000E+00  0.13596164007E+04  0.13596164007E+04  0.25500000920E-02 0.  1.
       -2   -1    0    0    0  501  0.00000000000E+00  0.00000000000E+00 -0.52865359745E+03  0.52865359745E+03  0.25500000920E-02 0. -1.
    10030    2    1    2    0    0  0.00000000000E+00  0.00000000000E+00  0.83096280328E+03  0.18882699982E+04  0.16956014878E+04 0.  0.
        4    1    3    3  502    0  0.50540669759E+03 -0.15921904063E+01  0.11735066140E+04  0.12777158726E+04  0.12699999809E+01 0.  1.
       -4    1    3    3    0  502 -0.50540669759E+03  0.15921904063E+01 -0.34254381077E+03  0.61055412556E+03  0.12699999809E+01 0. -1.
</event>
<event>
 5   0  0.3723500E-04  0.1688362E+04  0.7818609E-02  0.8768030E-01
       -1   -1    0    0    0  501  0.00000000000E+00  0.00000000000E+00  0.39899231045E+03  0.39899231048E+03  0.50400001928E-02 0.  1.
        1   -1    0    0  501    0  0.00000000000E+00  0.00000000000E+00 -0.17861028855E+04  0.17861028855E+04  0.50400001928E-02 0. -1.
    10030    2    1    2    0    0  0.00000000000E+00  0.00000000000E+00 -0.13871105751E+04  0.21850951960E+04  0.16883617113E+04 0.  0.
        1    1    3    3  502    0  0.25284931778E+03  0.26950284625E+03  0.28874674687E+03  0.46897680699E+03  0.50400001928E-02 0.  1.
       -1    1    3    3    0  502 -0.25284931778E+03 -0.26950284625E+03 -0.16758573219E+04  0.17161183890E+04  0.50400001928E-02 0. -1.
</event>
<event>
 5   0  0.7233728E-04  0.1721563E+04  0.7818609E-02  0.8749161E-01
        2   -1    0    0  501    0  0.00000000000E+00  0.00000000000E+00  0.91202823045E+03  0.91202823046E+03  0.25500000920E-02 0.  1.
       -2   -1    0    0    0  501  0.00000000000E+00  0.00000000000E+00 -0.81241466970E+03  0.81241466971E+03  0.25500000920E-02 0. -1.
    10030    2    1    2    0    0  0.00000000000E+00  0.00000000000E+00  0.99613560751E+02  0.17244429002E+04  0.17215633751E+04 0.  0.
        1    1    3    3  502    0  0.77833698937E+03 -0.36533031953E+03  0.90745695484E+02  0.86458631302E+03  0.50400001928E-02 0.  1.
       -1    1    3    3    0  502 -0.77833698937E+03  0.36533031953E+03  0.88678652663E+01  0.85985658714E+03  0.50400001928E-02 0. -1.
</event>
<event>
 5   0  0.7049044E-04  0.1900387E+04  0.7818609E-02  0.8654664E-01
        2   -1    0    0  501    0  0.00000000000E+00  0.00000000000E+00  0.16765682410E+04  0.16765682410E+04  0.25500000920E-02 0. -1.
       -2   -1    0    0    0  501  0.00000000000E+00  0.00000000000E+00 -0.53852122914E+03  0.53852122915E+03  0.25500000920E-02 0.  1.
    10030    2    1    2    0    0  0.00000000000E+00  0.00000000000E+00  0.11380470119E+04  0.22150894702E+04  0.19003868973E+04 0.  0.
        4    1    3    3  502    0 -0.94600176317E+03 -0.47839670374E+02  0.48134745384E+03  0.10624993902E+04  0.12699999809E+01 0. -1.
       -4    1    3    3    0  502  0.94600176317E+03  0.47839670374E+02  0.65669955803E+03  0.11525900799E+04  0.12699999809E+01 0.  1.
</event>
<event>
 5   0  0.6746664E-04  0.1693969E+04  0.7818609E-02  0.8764811E-01
        2   -1    0    0  501    0  0.00000000000E+00  0.00000000000E+00  0.17907008723E+04  0.17907008723E+04  0.25500000920E-02 0. -1.
       -2   -1    0    0    0  501  0.00000000000E+00  0.00000000000E+00 -0.40061581375E+03  0.40061581376E+03  0.25500000920E-02 0.  1.
    10030    2    1    2    0    0  0.00000000000E+00  0.00000000000E+00  0.13900850585E+04  0.21913166860E+04  0.16939694060E+04 0.  0.
        5    1    3    3  502    0 -0.54500989408E+03  0.76593970130E+02  0.15278414403E+04  0.16239531944E+04  0.46999998093E+01 0. -1.
       -5    1    3    3    0  502  0.54500989408E+03 -0.76593970130E+02 -0.13775638179E+03  0.56736349162E+03  0.46999998093E+01 0.  1.
</event>
<event>
 5   0  0.7233728E-04  0.1707422E+04  0.7818609E-02  0.8757143E-01
       -2   -1    0    0    0  501  0.00000000000E+00  0.00000000000E+00  0.83212244099E+03  0.83212244099E+03  0.25500000920E-02 0.  1.
        2   -1    0    0  501    0  0.00000000000E+00  0.00000000000E+00 -0.87585965781E+03  0.87585965782E+03  0.25500000920E-02 0. -1.
    10030    2    1    2    0    0  0.00000000000E+00  0.00000000000E+00 -0.43737216824E+02  0.17079820988E+04  0.17074220057E+04 0.  0.
        1    1    3    3  502    0 -0.40702678761E+03 -0.61338297007E+03  0.41060757646E+03  0.84291639898E+03  0.50400001928E-02 0.  1.
       -1    1    3    3    0  502  0.40702678761E+03  0.61338297007E+03 -0.45434479329E+03  0.86506569982E+03  0.50400001928E-02 0. -1.
</event>
<event>
 5   0  0.6746664E-04  0.1636296E+04  0.7818609E-02  0.8798555E-01
        2   -1    0    0  501    0  0.00000000000E+00  0.00000000000E+00  0.61493301835E+03  0.61493301835E+03  0.25500000920E-02 0.  1.
       -2   -1    0    0    0  501  0.00000000000E+00  0.00000000000E+00 -0.10885193738E+04  0.10885193738E+04  0.25500000920E-02 0. -1.
    10030    2    1    2    0    0  0.00000000000E+00  0.00000000000E+00 -0.47358635541E+03  0.17034523921E+04  0.16362964329E+04 0.  0.
        5    1    3    3  502    0 -0.80874513069E+03 -0.44968493767E+02 -0.11694420192E+03  0.81840630998E+03  0.46999998093E+01 0.  1.
       -5    1    3    3    0  502  0.80874513069E+03  0.44968493767E+02 -0.35664215349E+03  0.88504608213E+03  0.46999998093E+01 0. -1.
</event>
<event>
 5   0  0.7233728E-04  0.1689753E+04  0.7818609E-02  0.8767230E-01
       -2   -1    0    0    0  501  0.00000000000E+00  0.00000000000E+00  0.58296714576E+03  0.58296714576E+03  0.25500000920E-02 0.  1.
        2   -1    0    0  501    0  0.00000000000E+00  0.00000000000E+00 -0.12244532569E+04  0.12244532569E+04  0.25500000920E-02 0. -1.
    10030    2    1    2    0    0  0.00000000000E+00  0.00000000000E+00 -0.64148611112E+03  0.18074204026E+04  0.16897526686E+04 0.  0.
        1    1    3    3  502    0  0.59177855972E+03  0.54656431917E+03 -0.48286777191E+02  0.80701055236E+03  0.50400001928E-02 0.  1.
       -1    1    3    3    0  502 -0.59177855972E+03 -0.54656431917E+03 -0.59319933393E+03  0.10004098503E+04  0.50400001928E-02 0. -1.
</event>
<event>
 5   0  0.3803253E-04  0.1682491E+04  0.7818609E-02  0.8771414E-01
       -1   -1    0    0    0  501  0.00000000000E+00  0.00000000000E+00  0.75628193744E+03  0.75628193746E+03  0.50400001928E-02 0. -1.
        1   -1    0    0  501    0  0.00000000000E+00  0.00000000000E+00 -0.93575444203E+03  0.93575444204E+03  0.50400001928E-02 0.  1.
    10030    2    1    2    0    0  0.00000000000E+00  0.00000000000E+00 -0.17947250459E+03  0.16920363795E+04  0.16824912272E+04 0.  0.
        4    1    3    3  502    0  0.71318368135E+03 -0.46103146282E+02 -0.53602872420E+03  0.89335595901E+03  0.12699999809E+01 0.  1.
       -4    1    3    3    0  502 -0.71318368135E+03  0.46103146282E+02  0.35655621961E+03  0.79868042049E+03  0.12699999809E+01 0. -1.
</event>
<event>
 5   0  0.3635143E-04  0.1699468E+04  0.7818609E-02  0.8761668E-01
        1   -1    0    0  501    0  0.00000000000E+00  0.00000000000E+00  0.11003733711E+04  0.11003733711E+04  0.50400001928E-02 0. -1.
       -1   -1    0    0    0  501  0.00000000000E+00  0.00000000000E+00 -0.65618433228E+03  0.65618433230E+03  0.50400001928E-02 0.  1.
    10030    2    1    2    0    0  0.00000000000E+00  0.00000000000E+00  0.44418903878E+03  0.17565577034E+04  0.16994678765E+04 0.  0.
        3    1    3    3  502    0 -0.80422534336E+03 -0.20895034467E+03  0.38332578797E+02  0.83181010227E+03  0.10100000352E+00 0.  1.
       -3    1    3    3    0  502  0.80422534336E+03  0.20895034467E+03  0.40585645999E+03  0.92474760111E+03  0.10100000352E+00 0. -1.
</event>
<event>
 5   0  0.7233728E-04  0.1628168E+04  0.7818609E-02  0.8803428E-01
        2   -1    0    0  501    0  0.00000000000E+00  0.00000000000E+00  0.55131300128E+03  0.55131300129E+03  0.25500000920E-02 0. -1.
       -2   -1    0    0    0  501  0.00000000000E+00  0.00000000000E+00 -0.12020982782E+04  0.12020982782E+04  0.25500000920E-02 0.  1.
    10030    2    1    2    0    0  0.00000000000E+00  0.00000000000E+00 -0.65078527691E+03  0.17534112795E+04  0.16281675707E+04 0.  0.
        1    1    3    3  502    0  0.11556470818E+03  0.67884714510E+03 -0.79301016357E+03  0.10502636658E+04  0.50400001928E-02 0.  1.
       -1    1    3    3    0  502 -0.11556470818E+03 -0.67884714510E+03  0.14222488666E+03  0.70314761366E+03  0.50400001928E-02 0. -1.
</event>
<event>
 5   0  0.3915701E-04  0.1677908E+04  0.7818609E-02  0.8774066E-01
        1   -1    0    0  501    0  0.00000000000E+00  0.00000000000E+00  0.31855214127E+03  0.31855214131E+03  0.50400001928E-02 0.  1.
       -1   -1    0    0    0  501  0.00000000000E+00  0.00000000000E+00 -0.22095086594E+04  0.22095086594E+04  0.50400001928E-02 0. -1.
    10030    2    1    2    0    0  0.00000000000E+00  0.00000000000E+00 -0.18909565182E+04  0.25280608007E+04  0.16779078815E+04 0.  0.
        2    1    3    3  502    0  0.38229668862E+03 -0.13007418866E+03  0.16248961069E+03  0.43528487945E+03  0.25500000920E-02 0.  1.
       -2    1    3    3    0  502 -0.38229668862E+03  0.13007418866E+03 -0.20534461288E+04  0.20927759213E+04  0.25500000920E-02 0. -1.
</event>
<event>
 5   0  0.7025426E-04  0.1661012E+04  0.7818609E-02  0.8783918E-01
        2   -1    0    0  501    0  0.00000000000E+00  0.00000000000E+00  0.68731766962E+03  0.68731766963E+03  0.25500000920E-02 0. -1.
       -2   -1    0    0    0  501  0.00000000000E+00  0.00000000000E+00 -0.10035249471E+04  0.10035249471E+04  0.25500000920E-02 0.  1.
    10030    2    1    2    0    0  0.00000000000E+00  0.00000000000E+00 -0.31620727746E+03  0.16908426167E+04  0.16610122553E+04 0.  0.
        2    1    3    3  502    0  0.15351142304E+03  0.62858039570E+03 -0.68808934020E+03  0.94453481194E+03  0.25500000920E-02 0.  1.
       -2    1    3    3    0  502 -0.15351142304E+03 -0.62858039570E+03  0.37188206274E+03  0.74630780477E+03  0.25500000920E-02 0. -1.
</event>
<event>
 5   0  0.3803253E-04  0.1695664E+04  0.7818609E-02  0.8763841E-01
       -1   -1    0    0    0  501  0.00000000000E+00  0.00000000000E+00  0.43665358945E+03  0.43665358948E+03  0.50400001928E-02 0. -1.
        1   -1    0    0  501    0  0.00000000000E+00  0.00000000000E+00 -0.16461993744E+04  0.16461993745E+04  0.50400001928E-02 0.  1.
    10030    2    1    2    0    0  0.00000000000E+00  0.00000000000E+00 -0.12095457850E+04  0.20828529639E+04  0.16956637235E+04 0.  0.
        4    1    3    3  502    0 -0.46728303693E+03  0.36276402810E+03 -0.13507976523E+04  0.14746549044E+04  0.12699999809E+01 0.  1.
       -4    1    3    3    0  502  0.46728303693E+03 -0.36276402810E+03  0.14125186732E+03  0.60819805952E+03  0.12699999809E+01 0. -1.
</event>
<event>
 5   0  0.6746664E-04  0.1444723E+04  0.7818609E-02  0.8922067E-01
        2   -1    0    0  501    0  0.00000000000E+00  0.00000000000E+00  0.14871288225E+04  0.14871288225E+04  0.25500000920E-02 0. -1.
       -2   -1    0    0    0  501  0.00000000000E+00  0.00000000000E+00 -0.35088159312E+03  0.35088159313E+03  0.25500000920E-02 0.  1.
    10030    2    1    2    0    0  0.00000000000E+00  0.00000000000E+00  0.11362472293E+04  0.18380104156E+04  0.14447229913E+04 0.  0.
        5    1    3    3  502    0  0.67437024491E+03 -0.19004976164E+03  0.34452369453E+03  0.78077705218E+03  0.46999998093E+01 0.  1.
       -5    1    3    3    0  502 -0.67437024491E+03  0.19004976164E+03  0.79172353481E+03  0.10572333634E+04  0.46999998093E+01 0. -1.
</event>
<event>
 5   0  0.3803253E-04  0.1179552E+04  0.7818609E-02  0.9130946E-01
        1   -1    0    0  501    0  0.00000000000E+00  0.00000000000E+00  0.46570436378E+03  0.46570436380E+03  0.50400001928E-02 0. -1.
       -1   -1    0    0    0  501  0.00000000000E+00  0.00000000000E+00 -0.74690184539E+03  0.74690184540E+03  0.50400001928E-02 0.  1.
    10030    2    1    2    0    0  0.00000000000E+00  0.00000000000E+00 -0.28119748161E+03  0.12126062092E+04  0.11795515228E+04 0.  0.
        4    1    3    3  502    0  0.50955648142E+03  0.29326868564E+03 -0.18859218483E+03  0.61743255083E+03  0.12699999809E+01 0.  1.
       -4    1    3    3    0  502 -0.50955648142E+03 -0.29326868564E+03 -0.92605296784E+02  0.59517365838E+03  0.12699999809E+01 0. -1.
</event>
<event>
 5   0  0.7233728E-04  0.1916258E+04  0.7818609E-02  0.8646806E-01
       -2   -1    0    0    0  501  0.00000000000E+00  0.00000000000E+00  0.34961124506E+03  0.34961124507E+03  0.25500000920E-02 0. -1.
        2   -1    0    0  501    0  0.00000000000E+00  0.00000000000E+00 -0.26258044352E+04  0.26258044352E+04  0.25500000920E-02 0.  1.
    10030    2    1    2    0    0  0.00000000000E+00  0.00000000000E+00 -0.22761931902E+04  0.29754156803E+04  0.19162575588E+04 0.  0.
        1    1    3    3  502    0 -0.38308801323E+03  0.78837553077E+03 -0.53729470666E+03  0.10280943562E+04  0.50400001928E-02 0. -1.
       -1    1    3    3    0  502  0.38308801323E+03 -0.78837553077E+03 -0.17388984835E+04  0.19473213241E+04  0.50400001928E-02 0.  1.
</event>
<event>
 5   0  0.3915701E-04  0.1665238E+04  0.7818609E-02  0.8781442E-01
        1   -1    0    0  501    0  0.00000000000E+00  0.00000000000E+00  0.60212723229E+03  0.60212723231E+03  0.50400001928E-02 0. -1.
       -1   -1    0    0    0  501  0.00000000000E+00  0.00000000000E+00 -0.11513424175E+04  0.11513424175E+04  0.50400001928E-02 0.  1.
    10030    2    1    2    0    0  0.00000000000E+00  0.00000000000E+00 -0.54921518521E+03  0.17534696498E+04  0.16652382692E+04 0.  0.
        2    1    3    3  502    0 -0.31655205573E+03  0.13219377805E+03  0.52425583384E+03  0.62651781959E+03  0.25500000920E-02 0. -1.
       -2    1    3    3    0  502  0.31655205573E+03 -0.13219377805E+03 -0.10734710190E+04  0.11269518302E+04  0.25500000920E-02 0.  1.
</event>
<event>
 5   0  0.3915701E-04  0.1795253E+04  0.7818609E-02  0.8708828E-01
       -1   -1    0    0    0  501  0.00000000000E+00  0.00000000000E+00  0.66454866384E+03  0.66454866386E+03  0.50400001928E-02 0. -1.
        1   -1    0    0  501    0  0.00000000000E+00  0.00000000000E+00 -0.12124524322E+04  0.12124524322E+04  0.50400001928E-02 0.  1.
    10030    2    1    2    0    0  0.00000000000E+00  0.00000000000E+00 -0.54790376839E+03  0.18770010961E+04  0.17952533457E+04 0.  0.
        2    1    3    3  502    0 -0.81391844319E+03  0.21052349242E+03  0.54935545699E+02  0.84249705472E+03  0.25500000920E-02 0. -1.
       -2    1    3    3    0  502  0.81391844319E+03 -0.21052349242E+03 -0.60283931409E+03  0.10345040414E+04  0.25500000920E-02 0.  1.
</event>
<event>
 5   0  0.3635143E-04  0.1682053E+04  0.7818609E-02  0.8771667E-01
       -1   -1    0    0    0  501  0.00000000000E+00  0.00000000000E+00  0.53629117513E+03  0.53629117516E+03  0.50400001928E-02 0. -1.
        1   -1    0    0  501    0  0.00000000000E+00  0.00000000000E+00 -0.13189212047E+04  0.13189212047E+04  0.50400001928E-02 0.  1.
    10030    2    1    2    0    0  0.00000000000E+00  0.00000000000E+00 -0.78263002953E+03  0.18552123798E+04  0.16820532724E+04 0.  0.
        3    1    3    3  502    0  0.53692680822E+03  0.59063687058E+03 -0.68350904849E+03  0.10508696112E+04  0.10100000352E+00 0.  1.
       -3    1    3    3    0  502 -0.53692680822E+03 -0.59063687058E+03 -0.99120981041E+02  0.80434276858E+03  0.10100000352E+00 0. -1.
</event>
<event>
 5   0  0.3713516E-04  0.1655391E+04  0.7818609E-02  0.8787224E-01
       -1   -1    0    0    0  501  0.00000000000E+00  0.00000000000E+00  0.11365703099E+04  0.11365703100E+04  0.50400001928E-02 0.  1.
        1   -1    0    0  501    0  0.00000000000E+00  0.00000000000E+00 -0.60276038738E+03  0.60276038740E+03  0.50400001928E-02 0. -1.
    10030    2    1    2    0    0  0.00000000000E+00  0.00000000000E+00  0.53380992257E+03  0.17393306974E+04  0.16553906612E+04 0.  0.
        5    1    3    3  502    0 -0.75300159205E+03 -0.13686949406E+02 -0.93808673049E+02  0.75896039906E+03  0.46999998093E+01 0. -1.
       -5    1    3    3    0  502  0.75300159205E+03  0.13686949406E+02  0.62761859562E+03  0.98037029829E+03  0.46999998093E+01 0.  1.
</event>
<event>
 5   0  0.3803253E-04  0.1700356E+04  0.7818609E-02  0.8761161E-01
        1   -1    0    0  501    0  0.00000000000E+00  0.00000000000E+00  0.73046283840E+03  0.73046283842E+03  0.50400001928E-02 0.  1.
       -1   -1    0    0    0  501  0.00000000000E+00  0.00000000000E+00 -0.98951305411E+03  0.98951305412E+03  0.50400001928E-02 0. -1.
    10030    2    1    2    0    0  0.00000000000E+00  0.00000000000E+00 -0.25905021571E+03  0.17199758925E+04  0.17003558618E+04 0.  0.
        4    1    3    3  502    0 -0.44878681238E+03  0.12317495606E+03 -0.84922569283E+03  0.96838399565E+03  0.12699999809E+01 0. -1.
       -4    1    3    3    0  502  0.44878681238E+03 -0.12317495606E+03  0.59017547712E+03  0.75159189689E+03  0.12699999809E+01 0.  1.
</event>
<event>
 5   0  0.7049044E-04  0.1674411E+04  0.7818609E-02  0.8776095E-01
       -2   -1    0    0    0  501  0.00000000000E+00  0.00000000000E+00  0.39109040974E+03  0.39109040975E+03  0.25500000920E-02 0. -1.
        2   -1    0    0  501    0  0.00000000000E+00  0.00000000000E+00 -0.17922010498E+04  0.17922010498E+04  0.25500000920E-02 0.  1.
    10030    2    1    2    0    0  0.00000000000E+00  0.00000000000E+00 -0.14011106401E+04  0.21832914596E+04  0.16744105147E+04 0.  0.
        4    1    3    3  502    0 -0.74861013109E+03 -0.32511151088E+03 -0.45732541219E+03  0.93555479177E+03  0.12699999809E+01 0.  1.
       -4    1    3    3    0  502  0.74861013109E+03  0.32511151088E+03 -0.94378522788E+03  0.12477366678E+04  0.12699999809E+01 0. -1.
</event>
<event>
 5   0  0.7233728E-04  0.1692326E+04  0.7818609E-02  0.8765753E-01
        2   -1    0    0  501    0  0.00000000000E+00  0.00000000000E+00  0.12452602453E+04  0.12452602453E+04  0.25500000920E-02 0.  1.
       -2   -1    0    0    0  501  0.00000000000E+00  0.00000000000E+00 -0.57497337336E+03  0.57497337337E+03  0.25500000920E-02 0. -1.
    10030    2    1    2    0    0  0.00000000000E+00  0.00000000000E+00  0.67028687189E+03  0.18202336186E+04  0.16923255998E+04 0.  0.
        1    1    3    3  502    0  0.73020684028E+03 -0.21038423631E+03  0.73546766458E+03  0.10575330927E+04  0.50400001928E-02 0.  1.
       -1    1    3    3    0  502 -0.73020684028E+03  0.21038423631E+03 -0.65180792692E+02  0.76270052592E+03  0.50400001928E-02 0. -1.
</event>
<event>
 5   0  0.6746664E-04  0.1704685E+04  0.7818609E-02  0.8758697E-01
        2   -1    0    0  501    0  0.00000000000E+00  0.00000000000E+00  0.88481794329E+03  0.88481794330E+03  0.25500000920E-02 0.  1.
       -2   -1    0    0    0  501  0.00000000000E+00  0.00000000000E+00 -0.82105926180E+03  0.82105926181E+03  0.25500000920E-02 0. -1.
    10030    2    1    2    0    0  0.00000000000E+00  0.00000000000E+00  0.63758681489E+02  0.17058772051E+04  0.17046852699E+04 0.  0.
        5    1    3    3  502    0 -0.49222064934E+03  0.65603126786E+03 -0.20024768804E+03  0.84426264789E+03  0.46999998093E+01 0. -1.
       -5    1    3    3    0  502  0.49222064934E+03 -0.65603126786E+03  0.26400636953E+03  0.86161455722E+03  0.46999998093E+01 0.  1.
</event>
<event>
 5   0  0.7025426E-04  0.1709196E+04  0.7818609E-02  0.8756137E-01
       -2   -1    0    0    0  501  0.00000000000E+00  0.00000000000E+00  0.83564506972E+03  0.83564506973E+03  0.25500000920E-02 0. -1.
        2   -1    0    0  501    0  0.00000000000E+00  0.00000000000E+00 -0.87398069096E+03  0.87398069096E+03  0.25500000920E-02 0.  1.
    10030    2    1    2    0    0  0.00000000000E+00  0.00000000000E+00 -0.38335621234E+02  0.17096257607E+04  0.17091958992E+04 0.  0.
        2    1    3    3  502    0  0.36314648777E+03  0.75394692943E+03 -0.19249240941E+03  0.85869940705E+03  0.25500000920E-02 0. -1.
       -2    1    3    3    0  502 -0.36314648777E+03 -0.75394692943E+03  0.15415678817E+03  0.85092635364E+03  0.25500000920E-02 0.  1.
</event>
<event>
 5   0  0.3915701E-04  0.1721729E+04  0.7818609E-02  0.8749068E-01
        1   -1    0    0  501    0  0.00000000000E+00  0.00000000000E+00  0.12132786464E+04  0.12132786464E+04  0.50400001928E-02 0. -1.
       -1   -1    0    0    0  501  0.00000000000E+00  0.00000000000E+00 -0.61081376603E+03  0.61081376605E+03  0.50400001928E-02 0.  1.
    10030    2    1    2    0    0  0.00000000000E+00  0.00000000000E+00  0.60246488034E+03  0.18240924124E+04  0.17217285492E+04 0.  0.
        2    1    3    3  502    0 -0.21559216443E+03  0.18110574493E+03  0.11631151554E+04  0.11967105485E+04  0.25500000920E-02 0. -1.
       -2    1    3    3    0  502  0.21559216443E+03 -0.18110574493E+03 -0.56065027507E+03  0.62738186390E+03  0.25500000920E-02 0.  1.
</event>
<event>
 5   0  0.3723500E-04  0.1672030E+04  0.7818609E-02  0.8777480E-01
       -1   -1    0    0    0  501  0.00000000000E+00  0.00000000000E+00  0.41610382631E+03  0.41610382634E+03  0.50400001928E-02 0.  1.
        1   -1    0    0  501    0  0.00000000000E+00  0.00000000000E+00 -0.16796787079E+04  0.16796787079E+04  0.50400001928E-02 0. -1.
    10030    2    1    2    0    0  0.00000000000E+00  0.00000000000E+00 -0.12635748816E+04  0.20957825343E+04  0.16720295899E+04 0.  0.
        1    1    3    3  502    0  0.43794398746E+03 -0.26755664566E+02 -0.15237638467E+04  0.15856755854E+04  0.50400001928E-02 0. -1.
       -1    1    3    3    0  502 -0.43794398746E+03  0.26755664566E+02  0.26018896503E+03  0.51010694887E+03  0.50400001928E-02 0.  1.
</event>
<event>
 5   0  0.6746664E-04  0.1739915E+04  0.7818609E-02  0.8738921E-01
       -2   -1    0    0    0  501  0.00000000000E+00  0.00000000000E+00  0.68046216282E+03  0.68046216283E+03  0.25500000920E-02 0. -1.
        2   -1    0    0  501    0  0.00000000000E+00  0.00000000000E+00 -0.11122232529E+04  0.11122232529E+04  0.25500000920E-02 0.  1.
    10030    2    1    2    0    0  0.00000000000E+00  0.00000000000E+00 -0.43176109005E+03  0.17926854157E+04  0.17399147568E+04 0.  0.
        5    1    3    3  502    0  0.60275808626E+03 -0.18315279749E+03 -0.83402797836E+03  0.10452210371E+04  0.46999998093E+01 0. -1.
       -5    1    3    3    0  502 -0.60275808626E+03  0.18315279749E+03  0.40226688831E+03  0.74746437856E+03  0.46999998093E+01 0.  1.
</event>
<event>
 5   0  0.7233728E-04  0.1696303E+04  0.7818609E-02  0.8763476E-01
       -2   -1    0    0    0  501  0.00000000000E+00  0.00000000000E+00  0.27605677802E+03  0.27605677803E+03  0.25500000920E-02 0. -1.
        2   -1    0    0  501    0  0.00000000000E+00  0.00000000000E+00 -0.26058428018E+04  0.26058428018E+04  0.25500000920E-02 0.  1.
    10030    2    1    2    0    0  0.00000000000E+00  0.00000000000E+00 -0.23297860238E+04  0.28818995798E+04  0.16963025295E+04 0.  0.
        1    1    3    3  502    0  0.81674065428E+03 -0.22818581503E+03 -0.11393239518E+04  0.14202792435E+04  0.50400001928E-02 0.  1.
       -1    1    3    3    0  502 -0.81674065428E+03  0.22818581503E+03 -0.11904620720E+04  0.14616203363E+04  0.50400001928E-02 0. -1.
</event>
<event>
 5   0  0.3713516E-04  0.1728796E+04  0.7818609E-02  0.8745109E-01
       -1   -1    0    0    0  501  0.00000000000E+00  0.00000000000E+00  0.32890948942E+03  0.32890948946E+03  0.50400001928E-02 0. -1.
        1   -1    0    0  501    0  0.00000000000E+00  0.00000000000E+00 -0.22717002001E+04  0.22717002001E+04  0.50400001928E-02 0.  1.
    10030    2    1    2    0    0  0.00000000000E+00  0.00000000000E+00 -0.19427907106E+04  0.26006096895E+04  0.17287958271E+04 0.  0.
        5    1    3    3  502    0  0.30147153785E+03 -0.12969928670E+03 -0.21743142662E+04  0.21989478419E+04  0.46999998093E+01 0.  1.
       -5    1    3    3    0  502 -0.30147153785E+03  0.12969928670E+03  0.23152355553E+03  0.40166184767E+03  0.46999998093E+01 0. -1.
</event>
<event>
 5   0  0.3635143E-04  0.1687645E+04  0.7818609E-02  0.8768442E-01
       -1   -1    0    0    0  501  0.00000000000E+00  0.00000000000E+00  0.96768891368E+03  0.96768891369E+03  0.50400001928E-02 0.  1.
        1   -1    0    0  501    0  0.00000000000E+00  0.00000000000E+00 -0.73581153118E+03  0.73581153120E+03  0.50400001928E-02 0. -1.
    10030    2    1    2    0    0  0.00000000000E+00  0.00000000000E+00  0.23187738250E+03  0.17035004449E+04  0.16876452960E+04 0.  0.
        3    1    3    3  502    0  0.41342950025E+02 -0.69265604153E+03 -0.36873379801E+03  0.78577748466E+03  0.10100000352E+00 0. -1.
       -3    1    3    3    0  502 -0.41342950025E+02  0.69265604153E+03  0.60061118051E+03  0.91772296024E+03  0.10100000352E+00 0.  1.
</event>
<event>
 5   0  0.6746664E-04  0.1663171E+04  0.7818609E-02  0.8782652E-01
        2   -1    0    0  501    0  0.00000000000E+00  0.00000000000E+00  0.72727057562E+03  0.72727057563E+03  0.25500000920E-02 0.  1.
       -2   -1    0    0    0  501  0.00000000000E+00  0.00000000000E+00 -0.95086291875E+03  0.95086291875E+03  0.25500000920E-02 0. -1.
    10030    2    1    2    0    0  0.00000000000E+00  0.00000000000E+00 -0.22359234312E+03  0.16781334944E+04  0.16631712146E+04 0.  0.
        5    1    3    3  502    0 -0.27588155475E+03 -0.13810620330E+03 -0.89096641186E+03  0.94288238540E+03  0.46999998093E+01 0. -1.
       -5    1    3    3    0  502  0.27588155475E+03  0.13810620330E+03  0.66737406873E+03  0.73525110898E+03  0.46999998093E+01 0.  1.
</event>
<event>
 5   0  0.3635143E-04  0.1456024E+04  0.7818609E-02  0.8914235E-01
       -1   -1    0    0    0  501  0.00000000000E+00  0.00000000000E+00  0.58281895838E+03  0.58281895840E+03  0.50400001928E-02 0. -1.
        1   -1    0    0  501    0  0.00000000000E+00  0.00000000000E+00 -0.90937593226E+03  0.90937593227E+03  0.50400001928E-02 0.  1.
    10030    2    1    2    0    0  0.00000000000E+00  0.00000000000E+00 -0.32655697388E+03  0.14921948907E+04  0.14560240845E+04 0.  0.
        3    1    3    3  502    0  0.62096711358E+03 -0.35834759685E+03 -0.29286477379E+03  0.77445654639E+03  0.10100000352E+00 0.  1.
       -3    1    3    3    0  502 -0.62096711358E+03  0.35834759685E+03 -0.33692200081E+02  0.71773834429E+03  0.10100000352E+00 0. -1.
</event>
<event>
 5   0  0.6746664E-04  0.1631760E+04  0.7818609E-02  0.8801271E-01
        2   -1    0    0  501    0  0.00000000000E+00  0.00000000000E+00  0.18356080552E+04  0.18356080552E+04  0.25500000920E-02 0. -1.
       -2   -1    0    0    0  501  0.00000000000E+00  0.00000000000E+00 -0.36263746222E+03  0.36263746223E+03  0.25500000920E-02 0.  1.
    10030    2    1    2    0    0  0.00000000000E+00  0.00000000000E+00  0.14729705930E+04  0.21982455174E+04  0.16317600887E+04 0.  0.
        5    1    3    3  502    0  0.38441051242E+03 -0.37032224446E+03  0.15677271154E+04  0.16561100221E+04  0.46999998093E+01 0. -1.
       -5    1    3    3    0  502 -0.38441051242E+03  0.37032224446E+03 -0.94756522419E+02  0.54213549537E+03  0.46999998093E+01 0.  1.
</event>
<event>
 5   0  0.3915701E-04  0.1710860E+04  0.7818609E-02  0.8755195E-01
       -1   -1    0    0    0  501  0.00000000000E+00  0.00000000000E+00  0.50933741591E+03  0.50933741594E+03  0.50400001928E-02 0.  1.
        1   -1    0    0  501    0  0.00000000000E+00  0.00000000000E+00 -0.14366908984E+04  0.14366908984E+04  0.50400001928E-02 0. -1.
    10030    2    1    2    0    0  0.00000000000E+00  0.00000000000E+00 -0.92735348245E+03  0.19460283143E+04  0.17108599354E+04 0.  0.
        2    1    3    3  502    0 -0.29509961693E+03 -0.25125423103E+03 -0.13310928155E+04  0.13863695597E+04  0.25500000920E-02 0. -1.
       -2    1    3    3    0  502  0.29509961693E+03  0.25125423103E+03  0.40373933308E+03  0.55965875460E+03  0.25500000920E-02 0.  1.
</event>
<event>
 5   0  0.7233728E-04  0.1564149E+04  0.7818609E-02  0.8842880E-01
       -2   -1    0    0    0  501  0.00000000000E+00  0.00000000000E+00  0.36109203898E+03  0.36109203899E+03  0.25500000920E-02 0.  1.
        2   -1    0    0  501    0  0.00000000000E+00  0.00000000000E+00 -0.16938636035E+04  0.16938636035E+04  0.25500000920E-02 0. -1.
    10030    2    1    2    0    0  0.00000000000E+00  0.00000000000E+00 -0.13327715645E+04  0.20549556425E+04  0.15641491775E+04 0.  0.
        1    1    3    3  502    0  0.58419104253E+03  0.35267792601E+03 -0.11683475229E+04  0.13530324564E+04  0.50400001928E-02 0. -1.
       -1    1    3    3    0  502 -0.58419104253E+03 -0.35267792601E+03 -0.16442404156E+03  0.70192318607E+03  0.50400001928E-02 0.  1.
</event>
<event>
 5   0  0.3915701E-04  0.1656219E+04  0.7818609E-02  0.8786736E-01
       -1   -1    0    0    0  501  0.00000000000E+00  0.00000000000E+00  0.94851630868E+03  0.94851630869E+03  0.50400001928E-02 0. -1.
        1   -1    0    0  501    0  0.00000000000E+00  0.00000000000E+00 -0.72298742032E+03  0.72298742034E+03  0.50400001928E-02 0.  1.
    10030    2    1    2    0    0  0.00000000000E+00  0.00000000000E+00  0.22552888836E+03  0.16715037290E+04  0.16562190183E+04 0.  0.
        2    1    3    3  502    0 -0.76179198486E+03  0.32419597693E+03  0.13124461750E+03  0.83824531569E+03  0.25500000920E-02 0.  1.
       -2    1    3    3    0  502  0.76179198486E+03 -0.32419597693E+03  0.94284270851E+02  0.83325841333E+03  0.25500000920E-02 0. -1.
</event>
<event>
 5   0  0.7049044E-04  0.1711888E+04  0.7818609E-02  0.8754613E-01
       -2   -1    0    0    0  501  0.00000000000E+00  0.00000000000E+00  0.11396170127E+04  0.11396170127E+04  0.25500000920E-02 0.  1.
        2   -1    0    0  501    0  0.00000000000E+00  0.00000000000E+00 -0.64288244214E+03  0.64288244215E+03  0.25500000920E-02 0. -1.
    10030    2    1    2    0    0  0.00000000000E+00  0.00000000000E+00  0.49673457060E+03  0.17824994549E+04  0.17118875761E+04 0.  0.
        4    1    3    3  502    0 -0.62684504076E+03  0.57879200759E+03  0.17695815223E+03  0.87134992610E+03  0.12699999809E+01 0.  1.
       -4    1    3    3    0  502  0.62684504076E+03 -0.57879200759E+03  0.31977641837E+03  0.91114952879E+03  0.12699999809E+01 0. -1.
</event>
<event>
 5   0  0.3803253E-04  0.1702745E+04  0.7818609E-02  0.8759801E-01
       -1   -1    0    0    0  501  0.00000000000E+00  0.00000000000E+00  0.42119694587E+03  0.42119694590E+03  0.50400001928E-02 0. -1.
        1   -1    0    0  501    0  0.00000000000E+00  0.00000000000E+00 -0.17208926301E+04  0.17208926301E+04  0.50400001928E-02 0.  1.
    10030    2    1    2    0    0  0.00000000000E+00  0.00000000000E+00 -0.12996956842E+04  0.21420895760E+04  0.17027445140E+04 0.  0.
        4    1    3    3  502    0 -0.37022944436E+03  0.71154450480E+03 -0.10089192474E+04  0.12889084857E+04  0.12699999809E+01 0. -1.
       -4    1    3    3    0  502  0.37022944436E+03 -0.71154450480E+03 -0.29077643683E+03  0.85318109033E+03  0.12699999809E+01 0.  1.
</event>
<event>
 5   0  0.2639750E-04  0.1700702E+04  0.7818609E-02  0.8760964E-01
       -4   -1    0    0    0  501  0.00000000000E+00  0.00000000000E+00  0.60932129223E+03  0.60932261575E+03  0.12699999809E+01 0. -1.
        4   -1    0    0  501    0  0.00000000000E+00  0.00000000000E+00 -0.11867214648E+04  0.11867221444E+04  0.12699999809E+01 0.  1.
    10030    2    1    2    0    0  0.00000000000E+00  0.00000000000E+00 -0.57740017260E+03  0.17960447601E+04  0.17007015673E+04 0.  0.
        4    1    3    3  502    0  0.63864023555E+02 -0.57405628785E+03 -0.94776649237E+03  0.11099018750E+04  0.12699999809E+01 0.  1.
       -4    1    3    3    0  502 -0.63864023555E+02  0.57405628785E+03  0.37036631977E+03  0.68614288515E+03  0.12699999809E+01 0. -1.
</event>
<event>
 5   0  0.3713516E-04  0.1685947E+04  0.7818609E-02  0.8769420E-01
       -1   -1    0    0    0  501  0.00000000000E+00  0.00000000000E+00  0.15102855696E+04  0.15102855696E+04  0.50400001928E-02 0.  1.
        1   -1    0    0  501    0  0.00000000000E+00  0.00000000000E+00 -0.47051017807E+03  0.47051017809E+03  0.50400001928E-02 0. -1.
    10030    2    1    2    0    0  0.00000000000E+00  0.00000000000E+00  0.10397753915E+04  0.19807957477E+04  0.16859474871E+04 0.  0.
        5    1    3    3  502    0 -0.97978055023E+02 -0.60009129631E+03 -0.16606188436E+03  0.63032364910E+03  0.46999998093E+01 0. -1.
       -5    1    3    3    0  502  0.97978055023E+02  0.60009129631E+03  0.12058372759E+04  0.13504720986E+04  0.46999998093E+01 0.  1.
</event>
<event>
 5   0  0.3915701E-04  0.1718358E+04  0.7818609E-02  0.8750963E-01
       -1   -1    0    0    0  501  0.00000000000E+00  0.00000000000E+00  0.81447273607E+03  0.81447273609E+03  0.50400001928E-02 0.  1.
        1   -1    0    0  501    0  0.00000000000E+00  0.00000000000E+00 -0.90633969813E+03  0.90633969814E+03  0.50400001928E-02 0. -1.
    10030    2    1    2    0    0  0.00000000000E+00  0.00000000000E+00 -0.91866962053E+02  0.17208124342E+04  0.17183584885E+04 0.  0.
        2    1    3    3  502    0 -0.28115301931E+03  0.75530669378E+03 -0.34410648640E+03  0.87632442390E+03  0.25500000920E-02 0. -1.
       -2    1    3    3    0  502  0.28115301931E+03 -0.75530669378E+03  0.25223952434E+03  0.84448801033E+03  0.25500000920E-02 0.  1.
</event>
<event>
 5   0  0.3635143E-04  0.1693549E+04  0.7818609E-02  0.8765052E-01
        1   -1    0    0  501    0  0.00000000000E+00  0.00000000000E+00  0.10701724044E+04  0.10701724044E+04  0.50400001928E-02 0. -1.
       -1   -1    0    0    0  501  0.00000000000E+00  0.00000000000E+00 -0.67001062552E+03  0.67001062554E+03  0.50400001928E-02 0.  1.
    10030    2    1    2    0    0  0.00000000000E+00  0.00000000000E+00  0.40016177892E+03  0.17401830300E+04  0.16935487972E+04 0.  0.
        3    1    3    3  502    0  0.80703023369E+02 -0.83878687721E+03  0.11441572428E+03  0.85039248087E+03  0.10100000352E+00 0.  1.
       -3    1    3    3    0  502 -0.80703023369E+02  0.83878687721E+03  0.28574605464E+03  0.88979054912E+03  0.10100000352E+00 0. -1.
</event>
<event>
 5   0  0.3713516E-04  0.1723143E+04  0.7818609E-02  0.8748274E-01
        1   -1    0    0  501    0  0.00000000000E+00  0.00000000000E+00  0.10491352399E+04  0.10491352399E+04  0.50400001928E-02 0. -1.
       -1   -1    0    0    0  501  0.00000000000E+00  0.00000000000E+00 -0.70754057808E+03  0.70754057810E+03  0.50400001928E-02 0.  1.
    10030    2    1    2    0    0  0.00000000000E+00  0.00000000000E+00  0.34159466178E+03  0.17566758180E+04  0.17231433534E+04 0.  0.
        5    1    3    3  502    0  0.17746106543E+03 -0.44918384498E+03  0.89814125619E+03  0.10197736819E+04  0.46999998093E+01 0. -1.
       -5    1    3    3    0  502 -0.17746106543E+03  0.44918384498E+03 -0.55654659441E+03  0.73690213603E+03  0.46999998093E+01 0.  1.
</event>
<event>
 5   0  0.3713516E-04  0.1318856E+04  0.7818609E-02  0.9014744E-01
        1   -1    0    0  501    0  0.00000000000E+00  0.00000000000E+00  0.58321731755E+03  0.58321731757E+03  0.50400001928E-02 0.  1.
       -1   -1    0    0    0  501  0.00000000000E+00  0.00000000000E+00 -0.74559769725E+03  0.74559769726E+03  0.50400001928E-02 0. -1.
    10030    2    1    2    0    0  0.00000000000E+00  0.00000000000E+00 -0.16238037970E+03  0.13288150148E+04  0.13188563060E+04 0.  0.
        5    1    3    3  502    0  0.39654303972E+01  0.19654346945E+03  0.55298961779E+03  0.58691112394E+03  0.46999998093E+01 0.  1.
       -5    1    3    3    0  502 -0.39654303972E+01 -0.19654346945E+03 -0.71536999749E+03  0.74190389090E+03  0.46999998093E+01 0. -1.
</event>
<event>
 5   0  0.3713516E-04  0.1689801E+04  0.7818609E-02  0.8767203E-01
       -1   -1    0    0    0  501  0.00000000000E+00  0.00000000000E+00  0.66130679911E+03  0.66130679913E+03  0.50400001928E-02 0. -1.
        1   -1    0    0  501    0  0.00000000000E+00  0.00000000000E+00 -0.10794633621E+04  0.10794633622E+04  0.50400001928E-02 0.  1.
    10030    2    1    2    0    0  0.00000000000E+00  0.00000000000E+00 -0.41815656304E+03  0.17407701613E+04  0.16898005336E+04 0.  0.
        5    1    3    3  502    0 -0.60448446414E+03  0.26950541184E+03 -0.75008531873E+03  0.10003422963E+04  0.46999998093E+01 0.  1.
       -5    1    3    3    0  502  0.60448446414E+03 -0.26950541184E+03  0.33192875569E+03  0.74042786499E+03  0.46999998093E+01 0. -1.
</event>
<event>
 5   0  0.7049044E-04  0.1696273E+04  0.7818609E-02  0.8763493E-01
        2   -1    0    0  501    0  0.00000000000E+00  0.00000000000E+00  0.73182663580E+03  0.73182663581E+03  0.25500000920E-02 0. -1.
       -2   -1    0    0    0  501  0.00000000000E+00  0.00000000000E+00 -0.98293128749E+03  0.98293128749E+03  0.25500000920E-02 0.  1.
    10030    2    1    2    0    0  0.00000000000E+00  0.00000000000E+00 -0.25110465169E+03  0.17147579233E+04  0.16962727344E+04 0.  0.
        4    1    3    3  502    0 -0.29937578766E+03 -0.79243602059E+03 -0.83227511867E+02  0.85118102693E+03  0.12699999809E+01 0. -1.
       -4    1    3    3    0  502  0.29937578766E+03  0.79243602059E+03 -0.16787713982E+03  0.86357689637E+03  0.12699999809E+01 0.  1.
</event>
<event>
 5   0  0.3803253E-04  0.1686084E+04  0.7818609E-02  0.8769341E-01
        1   -1    0    0  501    0  0.00000000000E+00  0.00000000000E+00  0.71859632252E+03  0.71859632253E+03  0.50400001928E-02 0.  1.
       -1   -1    0    0    0  501  0.00000000000E+00  0.00000000000E+00 -0.98903845714E+03  0.98903845715E+03  0.50400001928E-02 0. -1.
    10030    2    1    2    0    0  0.00000000000E+00  0.00000000000E+00 -0.27044213462E+03  0.17076347797E+04  0.16860835070E+04 0.  0.
        4    1    3    3  502    0  0.39226979048E+02 -0.83492605343E+03 -0.23918623947E+02  0.83619016022E+03  0.12699999809E+01 0.  1.
       -4    1    3    3    0  502 -0.39226979048E+02  0.83492605343E+03 -0.24652351068E+03  0.87144461946E+03  0.12699999809E+01 0. -1.
</event>
<event>
 5   0  0.7242144E-04  0.1702211E+04  0.7818609E-02  0.8760104E-01
        2   -1    0    0  501    0  0.00000000000E+00  0.00000000000E+00  0.56856412170E+03  0.56856412171E+03  0.25500000920E-02 0. -1.
       -2   -1    0    0    0  501  0.00000000000E+00  0.00000000000E+00 -0.12740528226E+04  0.12740528226E+04  0.25500000920E-02 0.  1.
    10030    2    1    2    0    0  0.00000000000E+00  0.00000000000E+00 -0.70548870094E+03  0.18426169443E+04  0.17022111786E+04 0.  0.
        3    1    3    3  502    0 -0.45491171930E+03 -0.38138174030E+03  0.30746817286E+03  0.66853077095E+03  0.10100000352E+00 0. -1.
       -3    1    3    3    0  502  0.45491171930E+03  0.38138174030E+03 -0.10129568738E+04  0.11740861734E+04  0.10100000352E+00 0.  1.
</event>
<event>
 5   0  0.7233728E-04  0.1690966E+04  0.7818609E-02  0.8766534E-01
        2   -1    0    0  501    0  0.00000000000E+00  0.00000000000E+00  0.94425333154E+03  0.94425333155E+03  0.25500000920E-02 0. -1.
       -2   -1    0    0    0  501  0.00000000000E+00  0.00000000000E+00 -0.75704382646E+03  0.75704382646E+03  0.25500000920E-02 0.  1.
    10030    2    1    2    0    0  0.00000000000E+00  0.00000000000E+00  0.18720950508E+03  0.17012971580E+04  0.16909655884E+04 0.  0.
        1    1    3    3  502    0  0.10389228963E+03  0.81464366275E+03 -0.10862896159E+03  0.82839492781E+03  0.50400001928E-02 0. -1.
       -1    1    3    3    0  502 -0.10389228963E+03 -0.81464366275E+03  0.29583846667E+03  0.87290223020E+03  0.50400001928E-02 0.  1.
</event>
<event>
 5   0  0.3803253E-04  0.1720775E+04  0.7818609E-02  0.8749604E-01
        1   -1    0    0  501    0  0.00000000000E+00  0.00000000000E+00  0.10098878301E+04  0.10098878301E+04  0.50400001928E-02 0.  1.
       -1   -1    0    0    0  501  0.00000000000E+00  0.00000000000E+00 -0.73301851679E+03  0.73301851680E+03  0.50400001928E-02 0. -1.
    10030    2    1    2    0    0  0.00000000000E+00  0.00000000000E+00  0.27686931328E+03  0.17429063469E+04  0.17207748015E+04 0.  0.
        4    1    3    3  502    0  0.81974595586E+03  0.16450068855E+03 -0.67206033560E+02  0.83878613038E+03  0.12699999809E+01 0. -1.
       -4    1    3    3    0  502 -0.81974595586E+03 -0.16450068855E+03  0.34407534684E+03  0.90412021650E+03  0.12699999809E+01 0.  1.
</event>
<event>
 5   0  0.7233728E-04  0.1689081E+04  0.7818609E-02  0.8767617E-01
       -2   -1    0    0    0  501  0.00000000000E+00  0.00000000000E+00  0.46111522973E+03  0.46111522973E+03  0.25500000920E-02 0.  1.
        2   -1    0    0  501    0  0.00000000000E+00  0.00000000000E+00 -0.15467901519E+04  0.15467901519E+04  0.25500000920E-02 0. -1.
    10030    2    1    2    0    0  0.00000000000E+00  0.00000000000E+00 -0.10856749222E+04  0.20079053817E+04  0.16890808107E+04 0.  0.
        1    1    3    3  502    0  0.56240185467E+02  0.28847222808E+03  0.39836124265E+03  0.49504632562E+03  0.50400001928E-02 0.  1.
       -1    1    3    3    0  502 -0.56240185467E+02 -0.28847222808E+03 -0.14840361649E+04  0.15128590561E+04  0.50400001928E-02 0. -1.
</event>
<event>
 5   0  0.7233728E-04  0.1713385E+04  0.7818609E-02  0.8753767E-01
        2   -1    0    0  501    0  0.00000000000E+00  0.00000000000E+00  0.10405789862E+04  0.10405789862E+04  0.25500000920E-02 0.  1.
       -2   -1    0    0    0  501  0.00000000000E+00  0.00000000000E+00 -0.70530185118E+03  0.70530185119E+03  0.25500000920E-02 0. -1.
    10030    2    1    2    0    0  0.00000000000E+00  0.00000000000E+00  0.33527713502E+03  0.17458808374E+04  0.17133852868E+04 0.  0.
        1    1    3    3  502    0  0.11852134022E+03 -0.18463030559E+03 -0.67618970270E+03  0.71089251782E+03  0.50400001928E-02 0. -1.
       -1    1    3    3    0  502 -0.11852134022E+03  0.18463030559E+03  0.10114668377E+04  0.10349883196E+04  0.50400001928E-02 0.  1.
</event>
<event>
 5   0  0.3915701E-04  0.1696443E+04  0.7818609E-02  0.8763396E-01
       -1   -1    0    0    0  501  0.00000000000E+00  0.00000000000E+00  0.71039175099E+03  0.71039175101E+03  0.50400001928E-02 0. -1.
        1   -1    0    0  501    0  0.00000000000E+00  0.00000000000E+00 -0.10127927007E+04  0.10127927007E+04  0.50400001928E-02 0.  1.
    10030    2    1    2    0    0  0.00000000000E+00  0.00000000000E+00 -0.30240094967E+03  0.17231844517E+04  0.16964428432E+04 0.  0.
        2    1    3    3  502    0  0.13133936952E+03  0.99695277767E+02 -0.99635610817E+03  0.10099082496E+04  0.25500000920E-02 0.  1.
       -2    1    3    3    0  502 -0.13133936952E+03 -0.99695277767E+02  0.69395515850E+03  0.71327620205E+03  0.25500000920E-02 0. -1.
</event>
<event>
 5   0  0.7233728E-04  0.1611028E+04  0.7818609E-02  0.8813802E-01
       -2   -1    0    0    0  501  0.00000000000E+00  0.00000000000E+00  0.10061371989E+04  0.10061371990E+04  0.25500000920E-02 0. -1.
        2   -1    0    0  501    0  0.00000000000E+00  0.00000000000E+00 -0.64489473603E+03  0.64489473604E+03  0.25500000920E-02 0.  1.
    10030    2    1    2    0    0  0.00000000000E+00  0.00000000000E+00  0.36124246292E+03  0.16510319350E+04  0.16110277258E+04 0.  0.
        1    1    3    3  502    0 -0.38536688393E+03  0.60454935745E+02  0.90288400650E+03  0.98354560835E+03  0.50400001928E-02 0. -1.
       -1    1    3    3    0  502  0.38536688393E+03 -0.60454935745E+02 -0.54164154359E+03  0.66748632664E+03  0.50400001928E-02 0.  1.
</event>
<event>
 5   0  0.3803253E-04  0.1750851E+04  0.7818609E-02  0.8732882E-01
        1   -1    0    0  501    0  0.00000000000E+00  0.00000000000E+00  0.15090973001E+04  0.15090973001E+04  0.50400001928E-02 0.  1.
       -1   -1    0    0    0  501  0.00000000000E+00  0.00000000000E+00 -0.50783304159E+03  0.50783304162E+03  0.50400001928E-02 0. -1.
    10030    2    1    2    0    0  0.00000000000E+00  0.00000000000E+00  0.10012642585E+04  0.20169303417E+04  0.17508506184E+04 0.  0.
        4    1    3    3  502    0 -0.64091147440E+03  0.56424691353E+03  0.72289330200E+03  0.11188022329E+04  0.12699999809E+01 0.  1.
       -4    1    3    3    0  502  0.64091147440E+03 -0.56424691353E+03  0.27837095648E+03  0.89812810877E+03  0.12699999809E+01 0. -1.
</event>
<event>
 5   0  0.2639750E-04  0.1711311E+04  0.7818609E-02  0.8754939E-01
        4   -1    0    0  501    0  0.00000000000E+00  0.00000000000E+00  0.42697337467E+03  0.42697526343E+03  0.12699999809E+01 0.  1.
       -4   -1    0    0    0  501  0.00000000000E+00  0.00000000000E+00 -0.17147303377E+04  0.17147308080E+04  0.12699999809E+01 0. -1.
    10030    2    1    2    0    0  0.00000000000E+00  0.00000000000E+00 -0.12877569630E+04  0.21417060714E+04  0.17113114563E+04 0.  0.
        5    1    3    3  502    0 -0.29258300053E+03  0.87570697150E+02 -0.16441793967E+04  0.16723102038E+04  0.46999998093E+01 0. -1.
       -5    1    3    3    0  502  0.29258300053E+03 -0.87570697150E+02  0.35642243375E+03  0.46939586755E+03  0.46999998093E+01 0.  1.
</event>
<event>
 5   0  0.3803253E-04  0.1697997E+04  0.7818609E-02  0.8762507E-01
       -1   -1    0    0    0  501  0.00000000000E+00  0.00000000000E+00  0.67002167451E+03  0.67002167453E+03  0.50400001928E-02 0. -1.
        1   -1    0    0  501    0  0.00000000000E+00  0.00000000000E+00 -0.10757841697E+04  0.10757841697E+04  0.50400001928E-02 0.  1.
    10030    2    1    2    0    0  0.00000000000E+00  0.00000000000E+00 -0.40576249521E+03  0.17458058443E+04  0.16979973037E+04 0.  0.
        4    1    3    3  502    0 -0.43176257020E+03  0.44560008952E+03 -0.79869621842E+03  0.10113830229E+04  0.12699999809E+01 0.  1.
       -4    1    3    3    0  502  0.43176257020E+03 -0.44560008952E+03  0.39293372321E+03  0.73442282136E+03  0.12699999809E+01 0. -1.
</event>
<event>
 5   0  0.7233728E-04  0.1678072E+04  0.7818609E-02  0.8773970E-01
       -2   -1    0    0    0  501  0.00000000000E+00  0.00000000000E+00  0.11403342095E+04  0.11403342095E+04  0.25500000920E-02 0. -1.
        2   -1    0    0  501    0  0.00000000000E+00  0.00000000000E+00 -0.61734661779E+03  0.61734661780E+03  0.25500000920E-02 0.  1.
    10030    2    1    2    0    0  0.00000000000E+00  0.00000000000E+00  0.52298759174E+03  0.17576808273E+04  0.16780720693E+04 0.  0.
        1    1    3    3  502    0 -0.29454781478E+03  0.37201035831E+03  0.98629798209E+03  0.10945016361E+04  0.50400001928E-02 0. -1.
       -1    1    3    3    0  502  0.29454781478E+03 -0.37201035831E+03 -0.46331039034E+03  0.66317919125E+03  0.50400001928E-02 0.  1.
</event>
<event>
 5   0  0.3723500E-04  0.1713548E+04  0.7818609E-02  0.8753675E-01
       -1   -1    0    0    0  501  0.00000000000E+00  0.00000000000E+00  0.11276627438E+04  0.11276627438E+04  0.50400001928E-02 0. -1.
        1   -1    0    0  501    0  0.00000000000E+00  0.00000000000E+00 -0.65095820955E+03  0.65095820957E+03  0.50400001928E-02 0.  1.
    10030    2    1    2    0    0  0.00000000000E+00  0.00000000000E+00  0.47670453428E+03  0.17786209534E+04  0.17135475724E+04 0.  0.
        1    1    3    3  502    0  0.50068538919E+03 -0.63144353876E+03 -0.63651466254E+02  0.80836768291E+03  0.50400001928E-02 0.  1.
       -1    1    3    3    0  502 -0.50068538919E+03  0.63144353876E+03  0.54035600054E+03  0.97025327051E+03  0.50400001928E-02 0. -1.
</event>
<event>
 5   0  0.3915701E-04  0.1699685E+04  0.7818609E-02  0.8761544E-01
        1   -1    0    0  501    0  0.00000000000E+00  0.00000000000E+00  0.10761824133E+04  0.10761824133E+04  0.50400001928E-02 0. -1.
       -1   -1    0    0    0  501  0.00000000000E+00  0.00000000000E+00 -0.67110570064E+03  0.67110570066E+03  0.50400001928E-02 0.  1.
    10030    2    1    2    0    0  0.00000000000E+00  0.00000000000E+00  0.40507671269E+03  0.17472881140E+04  0.16996848561E+04 0.  0.
        2    1    3    3  502    0 -0.62837067313E+03 -0.54736492694E+03  0.31215222802E+02  0.83392592970E+03  0.25500000920E-02 0. -1.
       -2    1    3    3    0  502  0.62837067313E+03  0.54736492694E+03  0.37386148989E+03  0.91336218430E+03  0.25500000920E-02 0.  1.
</event>
<event>
 5   0  0.7025426E-04  0.1720712E+04  0.7818609E-02  0.8749639E-01
       -2   -1    0    0    0  501  0.00000000000E+00  0.00000000000E+00  0.69764600651E+03  0.69764600652E+03  0.25500000920E-02 0. -1.
        2   -1    0    0  501    0  0.00000000000E+00  0.00000000000E+00 -0.10610139816E+04  0.10610139816E+04  0.25500000920E-02 0.  1.
    10030    2    1    2    0    0  0.00000000000E+00  0.00000000000E+00 -0.36336797511E+03  0.17586599881E+04  0.17207116750E+04 0.  0.
        2    1    3    3  502    0 -0.74937605374E+03 -0.42266735956E+03 -0.18170369892E+03  0.87933406676E+03  0.25500000920E-02 0.  1.
       -2    1    3    3    0  502  0.74937605374E+03  0.42266735956E+03 -0.18166427619E+03  0.87932592138E+03  0.25500000920E-02 0. -1.
</event>
<event>
 5   0  0.7025426E-04  0.1667564E+04  0.7818609E-02  0.8780083E-01
       -2   -1    0    0    0  501  0.00000000000E+00  0.00000000000E+00  0.11632525604E+04  0.11632525604E+04  0.25500000920E-02 0.  1.
        2   -1    0    0  501    0  0.00000000000E+00  0.00000000000E+00 -0.59762842009E+03  0.59762842010E+03  0.25500000920E-02 0. -1.
    10030    2    1    2    0    0  0.00000000000E+00  0.00000000000E+00  0.56562414030E+03  0.17608809805E+04  0.16675644394E+04 0.  0.
        2    1    3    3  502    0  0.71202170512E+02 -0.38536397989E+03 -0.49431811683E+03  0.63081340087E+03  0.25500000920E-02 0. -1.
       -2    1    3    3    0  502 -0.71202170512E+02  0.38536397989E+03  0.10599422571E+04  0.11300675796E+04  0.25500000920E-02 0.  1.
</event>
<event>
 5   0  0.6746664E-04  0.1685042E+04  0.7818609E-02  0.8769942E-01
       -2   -1    0    0    0  501  0.00000000000E+00  0.00000000000E+00  0.13867044651E+04  0.13867044651E+04  0.25500000920E-02 0.  1.
        2   -1    0    0  501    0  0.00000000000E+00  0.00000000000E+00 -0.51189101994E+03  0.51189101995E+03  0.25500000920E-02 0. -1.
    10030    2    1    2    0    0  0.00000000000E+00  0.00000000000E+00  0.87481344517E+03  0.18985954851E+04  0.16850419140E+04 0.  0.
        5    1    3    3  502    0 -0.10598176964E+03 -0.38983737747E+02  0.13781241420E+04  0.13827509205E+04  0.46999998093E+01 0.  1.
       -5    1    3    3    0  502  0.10598176964E+03  0.38983737747E+02 -0.50331069681E+03  0.51584456460E+03  0.46999998093E+01 0. -1.
</event>
<event>
 5   0  0.7233728E-04  0.1285288E+04  0.7818609E-02  0.9041314E-01
       -2   -1    0    0    0  501  0.00000000000E+00  0.00000000000E+00  0.29603789124E+03  0.29603789125E+03  0.25500000920E-02 0.  1.
        2   -1    0    0  501    0  0.00000000000E+00  0.00000000000E+00 -0.13950623549E+04  0.13950623549E+04  0.25500000920E-02 0. -1.
    10030    2    1    2    0    0  0.00000000000E+00  0.00000000000E+00 -0.10990244637E+04  0.16911002462E+04  0.12852880108E+04 0.  0.
        1    1    3    3  502    0  0.77343486926E+02  0.69624003344E+02 -0.13839026435E+04  0.13878098009E+04  0.50400001928E-02 0. -1.
       -1    1    3    3    0  502 -0.77343486926E+02 -0.69624003344E+02  0.28487817983E+03  0.30329044525E+03  0.50400001928E-02 0.  1.
</event>
<event>
 5   0  0.3635143E-04  0.1719770E+04  0.7818609E-02  0.8750169E-01
       -1   -1    0    0    0  501  0.00000000000E+00  0.00000000000E+00  0.88644732518E+03  0.88644732519E+03  0.50400001928E-02 0.  1.
        1   -1    0    0  501    0  0.00000000000E+00  0.00000000000E+00 -0.83411846967E+03  0.83411846968E+03  0.50400001928E-02 0. -1.
    10030    2    1    2    0    0  0.00000000000E+00  0.00000000000E+00  0.52328855512E+02  0.17205657949E+04  0.17197698524E+04 0.  0.
        3    1    3    3  502    0  0.27417489206E+03  0.25693626461E+03 -0.74763646300E+03  0.83674871169E+03  0.10100000352E+00 0. -1.
       -3    1    3    3    0  502 -0.27417489206E+03 -0.25693626461E+03  0.79996531851E+03  0.88381708319E+03  0.10100000352E+00 0.  1.
</event>
<event>
 5   0  0.7049044E-04  0.1799858E+04  0.7818609E-02  0.8706375E-01
        2   -1    0    0  501    0  0.00000000000E+00  0.00000000000E+00  0.20615909019E+04  0.20615909019E+04  0.25500000920E-02 0.  1.
       -2   -1    0    0    0  501  0.00000000000E+00  0.00000000000E+00 -0.39283836597E+03  0.39283836598E+03  0.25500000920E-02 0. -1.
    10030    2    1    2    0    0  0.00000000000E+00  0.00000000000E+00  0.16687525359E+04  0.24544292679E+04  0.17998577735E+04 0.  0.
        4    1    3    3  502    0  0.56812016658E+03 -0.44553528123E+03  0.15669758210E+04  0.17253049142E+04  0.12699999809E+01 0.  1.
       -4    1    3    3    0  502 -0.56812016658E+03  0.44553528123E+03  0.10177671492E+03  0.72912435366E+03  0.12699999809E+01 0. -1.
</event>
<event>
 5   0  0.6746664E-04  0.1693126E+04  0.7818609E-02  0.8765294E-01
       -2   -1    0    0    0  501  0.00000000000E+00  0.00000000000E+00  0.74718320805E+03  0.74718320805E+03  0.25500000920E-02 0.  1.
        2   -1    0    0  501    0  0.00000000000E+00  0.00000000000E+00 -0.95916129017E+03  0.95916129018E+03  0.25500000920E-02 0. -1.
    10030    2    1    2    0    0  0.00000000000E+00  0.00000000000E+00 -0.21197808213E+03  0.17063444982E+04  0.16931263507E+04 0.  0.
        5    1    3    3  502    0 -0.12298169285E+03 -0.15959528034E+03 -0.93463189389E+03  0.95611401902E+03  0.46999998093E+01 0. -1.
       -5    1    3    3    0  502  0.12298169285E+03  0.15959528034E+03  0.72265381177E+03  0.75023047921E+03  0.46999998093E+01 0.  1.
</event>
<event>
 5   0  0.7233728E-04  0.1700958E+04  0.7818609E-02  0.8760818E-01
       -2   -1    0    0    0  501  0.00000000000E+00  0.00000000000E+00  0.50553540445E+03  0.50553540446E+03  0.25500000920E-02 0.  1.
        2   -1    0    0  501    0  0.00000000000E+00  0.00000000000E+00 -0.14307894509E+04  0.14307894509E+04  0.25500000920E-02 0. -1.
    10030    2    1    2    0    0  0.00000000000E+00  0.00000000000E+00 -0.92525404640E+03  0.19363248553E+04  0.17009582284E+04 0.  0.
        1    1    3    3  502    0 -0.15844094735E+03  0.48836790053E+03 -0.12344640251E+04  0.13369772508E+04  0.50400001928E-02 0. -1.
       -1    1    3    3    0  502  0.15844094735E+03 -0.48836790053E+03  0.30920997866E+03  0.59934760448E+03  0.50400001928E-02 0.  1.
</event>
<event>
 5   0  0.3723500E-04  0.1275360E+04  0.7818609E-02  0.9049336E-01
        1   -1    0    0  501    0  0.00000000000E+00  0.00000000000E+00  0.15400851489E+04  0.15400851489E+04  0.50400001928E-02 0.  1.
       -1   -1    0    0    0  501  0.00000000000E+00  0.00000000000E+00 -0.26403459512E+03  0.26403459516E+03  0.50400001928E-02 0. -1.
    10030    2    1    2    0    0  0.00000000000E+00  0.00000000000E+00  0.12760505538E+04  0.18041197441E+04  0.12753599630E+04 0.  0.
        1    1    3    3  502    0 -0.33537755022E+03 -0.47358212238E+03  0.26408549831E+03  0.63757295918E+03  0.50400001928E-02 0. -1.
       -1    1    3    3    0  502  0.33537755022E+03  0.47358212238E+03  0.10119650555E+04  0.11665467849E+04  0.50400001928E-02 0.  1.
</event>
<event>
 5   0  0.2639750E-04  0.1687145E+04  0.7818609E-02  0.8768730E-01
        4   -1    0    0  501    0  0.00000000000E+00  0.00000000000E+00  0.81732824387E+03  0.81732923056E+03  0.12699999809E+01 0.  1.
       -4   -1    0    0    0  501  0.00000000000E+00  0.00000000000E+00 -0.87065767285E+03  0.87065859910E+03  0.12699999809E+01 0. -1.
    10030    2    1    2    0    0  0.00000000000E+00  0.00000000000E+00 -0.53329428973E+02  0.16879878297E+04  0.16871451879E+04 0.  0.
        4    1    3    3  502    0  0.11196874479E+03  0.25134441843E+03 -0.82449768630E+03  0.86920024396E+03  0.12699999809E+01 0. -1.
       -4    1    3    3    0  502 -0.11196874479E+03 -0.25134441843E+03  0.77116825733E+03  0.81878758570E+03  0.12699999809E+01 0.  1.
</event>
<event>
 5   0  0.3915701E-04  0.1683185E+04  0.7818609E-02  0.8771013E-01
        1   -1    0    0  501    0  0.00000000000E+00  0.00000000000E+00  0.98668996733E+03  0.98668996735E+03  0.50400001928E-02 0. -1.
       -1   -1    0    0    0  501  0.00000000000E+00  0.00000000000E+00 -0.71783215874E+03  0.71783215875E+03  0.50400001928E-02 0.  1.
    10030    2    1    2    0    0  0.00000000000E+00  0.00000000000E+00  0.26885780860E+03  0.17045221261E+04  0.16831848256E+04 0.  0.
        2    1    3    3  502    0 -0.43065904357E+02 -0.23831635327E+03 -0.68178379636E+03  0.72351814168E+03  0.25500000920E-02 0.  1.
       -2    1    3    3    0  502  0.43065904357E+02  0.23831635327E+03  0.95064160496E+03  0.98100398442E+03  0.25500000920E-02 0. -1.
</event>
<event>
 5   0  0.7025426E-04  0.1705987E+04  0.7818609E-02  0.8757957E-01
       -2   -1    0    0    0  501  0.00000000000E+00  0.00000000000E+00  0.45052090045E+03  0.45052090045E+03  0.25500000920E-02 0.  1.
        2   -1    0    0  501    0  0.00000000000E+00  0.00000000000E+00 -0.16150153061E+04  0.16150153061E+04  0.25500000920E-02 0. -1.
    10030    2    1    2    0    0  0.00000000000E+00  0.00000000000E+00 -0.11644944057E+04  0.20655362066E+04  0.17059872801E+04 0.  0.
        2    1    3    3  502    0 -0.62704684409E+03  0.66793102762E+02  0.11322614047E+03  0.64067871991E+03  0.25500000920E-02 0.  1.
       -2    1    3    3    0  502  0.62704684409E+03 -0.66793102762E+02 -0.12777205461E+04  0.14248574867E+04  0.25500000920E-02 0. -1.
</event>
<event>
 5   0  0.7049044E-04  0.1702440E+04  0.7818609E-02  0.8759974E-01
       -2   -1    0    0    0  501  0.00000000000E+00  0.00000000000E+00  0.57705560839E+03  0.57705560839E+03  0.25500000920E-02 0.  1.
        2   -1    0    0  501    0  0.00000000000E+00  0.00000000000E+00 -0.12556419775E+04  0.12556419775E+04  0.25500000920E-02 0. -1.
    10030    2    1    2    0    0  0.00000000000E+00  0.00000000000E+00 -0.67858636907E+03  0.18326975859E+04  0.17024397143E+04 0.  0.
        4    1    3    3  502    0  0.69089114911E+03  0.45510521207E+03 -0.55492456707E+03  0.99618985239E+03  0.12699999809E+01 0. -1.
       -4    1    3    3    0  502 -0.69089114911E+03 -0.45510521207E+03 -0.12366180200E+03  0.83650773346E+03  0.12699999809E+01 0.  1.
</event>
<event>
 5   0  0.6746664E-04  0.1704640E+04  0.7818609E-02  0.8758723E-01
        2   -1    0    0  501    0  0.00000000000E+00  0.00000000000E+00  0.24624984278E+04  0.24624984278E+04  0.25500000920E-02 0. -1.
       -2   -1    0    0    0  501  0.00000000000E+00  0.00000000000E+00 -0.29500495388E+03  0.29500495389E+03  0.25500000920E-02 0.  1.
    10030    2    1    2    0    0  0.00000000000E+00  0.00000000000E+00  0.21674934739E+04  0.27575033817E+04  0.17046398272E+04 0.  0.
        5    1    3    3  502    0 -0.24979756783E+03  0.59207237677E+03  0.19894530322E+04  0.20906683098E+04  0.46999998093E+01 0. -1.
       -5    1    3    3    0  502  0.24979756783E+03 -0.59207237677E+03  0.17804044170E+03  0.66683507189E+03  0.46999998093E+01 0.  1.
</event>
<event>
 5   0  0.3723500E-04  0.1756764E+04  0.7818609E-02  0.8729636E-01
        1   -1    0    0  501    0  0.00000000000E+00  0.00000000000E+00  0.11682210177E+04  0.11682210177E+04  0.50400001928E-02 0.  1.
       -1   -1    0    0    0  501  0.00000000000E+00  0.00000000000E+00 -0.66045251780E+03  0.66045251782E+03  0.50400001928E-02 0. -1.
    10030    2    1    2    0    0  0.00000000000E+00  0.00000000000E+00  0.50776849992E+03  0.18286735355E+04  0.17567635157E+04 0.  0.
        1    1    3    3  502    0 -0.53023278414E+02  0.82944030848E+03 -0.41952967071E+02  0.83219153135E+03  0.50400001928E-02 0. -1.
       -1    1    3    3    0  502  0.53023278414E+02 -0.82944030848E+03  0.54972146699E+03  0.99648200419E+03  0.50400001928E-02 0.  1.
</event>
<event>
 5   0  0.3803253E-04  0.1708461E+04  0.7818609E-02  0.8756553E-01
       -1   -1    0    0    0  501  0.00000000000E+00  0.00000000000E+00  0.57558813774E+03  0.57558813776E+03  0.50400001928E-02 0. -1.
        1   -1    0    0  501    0  0.00000000000E+00  0.00000000000E+00 -0.12677640757E+04  0.12677640757E+04  0.50400001928E-02 0.  1.
    10030    2    1    2    0    0  0.00000000000E+00  0.00000000000E+00 -0.69217593794E+03  0.18433522135E+04  0.17084612532E+04 0.  0.
        4    1    3    3  502    0  0.50513070912E+03 -0.48802258538E+03 -0.87066998701E+03  0.11186558525E+04  0.12699999809E+01 0. -1.
       -4    1    3    3    0  502 -0.50513070912E+03  0.48802258538E+03  0.17849404907E+03  0.72469636096E+03  0.12699999809E+01 0.  1.
</event>
<event>
 5   0  0.7025426E-04  0.1691050E+04  0.7818609E-02  0.8766485E-01
       -2   -1    0    0    0  501  0.00000000000E+00  0.00000000000E+00  0.98924667819E+03  0.98924667819E+03  0.25500000920E-02 0.  1.
        2   -1    0    0  501    0  0.00000000000E+00  0.00000000000E+00 -0.72268404966E+03  0.72268404966E+03  0.25500000920E-02 0. -1.
    10030    2    1    2    0    0  0.00000000000E+00  0.00000000000E+00  0.26656262853E+03  0.17119307279E+04  0.16910503192E+04 0.  0.
        2    1    3    3  502    0  0.47453047377E+03 -0.35020834304E+03 -0.48007748133E+03  0.76046002009E+03  0.25500000920E-02 0. -1.
       -2    1    3    3    0  502 -0.47453047377E+03  0.35020834304E+03  0.74664010986E+03  0.95147070776E+03  0.25500000920E-02 0.  1.
</event>
<event>
 5   0  0.7233728E-04  0.1674492E+04  0.7818609E-02  0.8776048E-01
        2   -1    0    0  501    0  0.00000000000E+00  0.00000000000E+00  0.89501050484E+03  0.89501050484E+03  0.25500000920E-02 0. -1.
       -2   -1    0    0    0  501  0.00000000000E+00  0.00000000000E+00 -0.78320989289E+03  0.78320989290E+03  0.25500000920E-02 0.  1.
    10030    2    1    2    0    0  0.00000000000E+00  0.00000000000E+00  0.11180061194E+03  0.16782203977E+04  0.16744922593E+04 0.  0.
        1    1    3    3  502    0  0.53110012360E+03  0.37247501410E+03  0.58639543086E+03  0.87445101565E+03  0.50400001928E-02 0. -1.
       -1    1    3    3    0  502 -0.53110012360E+03 -0.37247501410E+03 -0.47459481891E+03  0.80376938209E+03  0.50400001928E-02 0.  1.
</event>
<event>
 5   0  0.7233728E-04  0.2050730E+04  0.7818609E-02  0.8583263E-01
        2   -1    0    0  501    0  0.00000000000E+00  0.00000000000E+00  0.13842177297E+04  0.13842177297E+04  0.25500000920E-02 0. -1.
       -2   -1    0    0    0  501  0.00000000000E+00  0.00000000000E+00 -0.75954332037E+03  0.75954332038E+03  0.25500000920E-02 0.  1.
    10030    2    1    2    0    0  0.00000000000E+00  0.00000000000E+00  0.62467440935E+03  0.21437610501E+04  0.20507299486E+04 0.  0.
        1    1    3    3  502    0  0.44861360026E+03 -0.83284955845E+03  0.72585900022E+03  0.11923773889E+04  0.50400001928E-02 0.  1.
       -1    1    3    3    0  502 -0.44861360026E+03  0.83284955845E+03 -0.10118459087E+03  0.95138366120E+03  0.50400001928E-02 0. -1.
</event>
<event>
 5   0  0.3915701E-04  0.1683232E+04  0.7818609E-02  0.8770986E-01
       -1   -1    0    0    0  501  0.00000000000E+00  0.00000000000E+00  0.54128618040E+03  0.54128618042E+03  0.50400001928E-02 0. -1.
        1   -1    0    0  501    0  0.00000000000E+00  0.00000000000E+00 -0.13085828902E+04  0.13085828902E+04  0.50400001928E-02 0.  1.
    10030    2    1    2    0    0  0.00000000000E+00  0.00000000000E+00 -0.76729670981E+03  0.18498690706E+04  0.16832324075E+04 0.  0.
        2    1    3    3  502    0 -0.35543804072E+03 -0.75377470705E+03 -0.51277629368E+03  0.97849478136E+03  0.25500000920E-02 0.  1.
       -2    1    3    3    0  502  0.35543804072E+03  0.75377470705E+03 -0.25452041612E+03  0.87137428928E+03  0.25500000920E-02 0. -1.
</event>
<event>
 5   0  0.6746664E-04  0.1665711E+04  0.7818609E-02  0.8781166E-01
       -2   -1    0    0    0  501  0.00000000000E+00  0.00000000000E+00  0.39034656329E+03  0.39034656330E+03  0.25500000920E-02 0. -1.
        2   -1    0    0  501    0  0.00000000000E+00  0.00000000000E+00 -0.17770060718E+04  0.17770060718E+04  0.25500000920E-02 0.  1.
    10030    2    1    2    0    0  0.00000000000E+00  0.00000000000E+00 -0.13866595085E+04  0.21673526351E+04  0.16657109150E+04 0.  0.
        5    1    3    3  502    0 -0.79141755312E+03  0.50721901749E+02 -0.10243246107E+04  0.12954448860E+04  0.46999998093E+01 0.  1.
       -5    1    3    3    0  502  0.79141755312E+03 -0.50721901749E+02 -0.36233489781E+03  0.87190774906E+03  0.46999998093E+01 0. -1.
</event>
<event>
 5   0  0.3803253E-04  0.1926711E+04  0.7818609E-02  0.8641673E-01
       -1   -1    0    0    0  501  0.00000000000E+00  0.00000000000E+00  0.63740588852E+03  0.63740588854E+03  0.50400001928E-02 0. -1.
        1   -1    0    0  501    0  0.00000000000E+00  0.00000000000E+00 -0.14559861866E+04  0.14559861866E+04  0.50400001928E-02 0.  1.
    10030    2    1    2    0    0  0.00000000000E+00  0.00000000000E+00 -0.81858029807E+03  0.20933920751E+04  0.19267113629E+04 0.  0.
        4    1    3    3  502    0  0.84276158142E+03 -0.89092155460E+02  0.88455063874E+02  0.85206244284E+03  0.12699999809E+01 0. -1.
       -4    1    3    3    0  502 -0.84276158142E+03  0.89092155460E+02 -0.90703536194E+03  0.12413296323E+04  0.12699999809E+01 0.  1.
</event>
<event>
 5   0  0.3723500E-04  0.1515581E+04  0.7818609E-02  0.8874158E-01
        1   -1    0    0  501    0  0.00000000000E+00  0.00000000000E+00  0.68737360936E+03  0.68737360937E+03  0.50400001928E-02 0.  1.
       -1   -1    0    0    0  501  0.00000000000E+00  0.00000000000E+00 -0.83542078816E+03  0.83542078818E+03  0.50400001928E-02 0. -1.
    10030    2    1    2    0    0  0.00000000000E+00  0.00000000000E+00 -0.14804717880E+03  0.15227943976E+04  0.15155806841E+04 0.  0.
        1    1    3    3  502    0  0.45014385519E+02 -0.43575759188E+02  0.68476696052E+03  0.68762702967E+03  0.50400001928E-02 0.  1.
       -1    1    3    3    0  502 -0.45014385519E+02  0.43575759188E+02 -0.83281413932E+03  0.83516736788E+03  0.50400001928E-02 0. -1.
</event>
<event>
 5   0  0.3723500E-04  0.1704279E+04  0.7818609E-02  0.8758928E-01
       -1   -1    0    0    0  501  0.00000000000E+00  0.00000000000E+00  0.90709724846E+03  0.90709724847E+03  0.50400001928E-02 0. -1.
        1   -1    0    0  501    0  0.00000000000E+00  0.00000000000E+00 -0.80051158285E+03  0.80051158287E+03  0.50400001928E-02 0.  1.
    10030    2    1    2    0    0  0.00000000000E+00  0.00000000000E+00  0.10658566561E+03  0.17076088313E+04  0.17042791487E+04 0.  0.
        1    1    3    3  502    0  0.45050342880E+02  0.79876878845E+03  0.34726124456E+03  0.87215335968E+03  0.50400001928E-02 0.  1.
       -1    1    3    3    0  502 -0.45050342880E+02 -0.79876878845E+03 -0.24067557895E+03  0.83545547166E+03  0.50400001928E-02 0. -1.
</event>
<event>
 5   0  0.3915701E-04  0.1631018E+04  0.7818609E-02  0.8801716E-01
       -1   -1    0    0    0  501  0.00000000000E+00  0.00000000000E+00  0.60502882889E+03  0.60502882891E+03  0.50400001928E-02 0.  1.
        1   -1    0    0  501    0  0.00000000000E+00  0.00000000000E+00 -0.10992120210E+04  0.10992120211E+04  0.50400001928E-02 0. -1.
    10030    2    1    2    0    0  0.00000000000E+00  0.00000000000E+00 -0.49418319215E+03  0.17042408500E+04  0.16310180401E+04 0.  0.
        2    1    3    3  502    0  0.58678640555E+02 -0.81106329845E+03 -0.31140229109E+03  0.87076876600E+03  0.25500000920E-02 0. -1.
       -2    1    3    3    0  502 -0.58678640555E+02  0.81106329845E+03 -0.18278090106E+03  0.83347208396E+03  0.25500000920E-02 0.  1.
</event>
<event>
 5   0  0.3723500E-04  0.1087484E+04  0.7818609E-02  0.9217477E-01
        1   -1    0    0  501    0  0.00000000000E+00  0.00000000000E+00  0.12556036718E+04  0.12556036719E+04  0.50400001928E-02 0.  1.
       -1   -1    0    0    0  501  0.00000000000E+00  0.00000000000E+00 -0.23546866016E+03  0.23546866022E+03  0.50400001928E-02 0. -1.
    10030    2    1    2    0    0  0.00000000000E+00  0.00000000000E+00  0.10201350117E+04  0.14910723321E+04  0.10874839113E+04 0.  0.
        1    1    3    3  502    0  0.21033770685E+03 -0.49762832693E+03  0.42577519322E+03  0.68786656982E+03  0.50400001928E-02 0. -1.
       -1    1    3    3    0  502 -0.21033770685E+03  0.49762832693E+03  0.59435981846E+03  0.80320576225E+03  0.50400001928E-02 0.  1.
</event>
<event>
 5   0  0.7242144E-04  0.1671067E+04  0.7818609E-02  0.8778040E-01
        2   -1    0    0  501    0  0.00000000000E+00  0.00000000000E+00  0.96291512267E+03  0.96291512267E+03  0.25500000920E-02 0.  1.
       -2   -1    0    0    0  501  0.00000000000E+00  0.00000000000E+00 -0.72500328983E+03  0.72500328983E+03  0.25500000920E-02 0. -1.
    10030    2    1    2    0    0  0.00000000000E+00  0.00000000000E+00  0.23791183284E+03  0.16879184125E+04  0.16710674813E+04 0.  0.
        3    1    3    3  502    0 -0.71133262927E+03  0.41499249189E+03 -0.23547359703E+02  0.82387339206E+03  0.10100000352E+00 0. -1.
       -3    1    3    3    0  502  0.71133262927E+03 -0.41499249189E+03  0.26145919254E+03  0.86404502045E+03  0.10100000352E+00 0.  1.
</event>
<event>
 5   0  0.3635143E-04  0.1699114E+04  0.7818609E-02  0.8761870E-01
       -1   -1    0    0    0  501  0.00000000000E+00  0.00000000000E+00  0.12088557975E+04  0.12088557975E+04  0.50400001928E-02 0.  1.
        1   -1    0    0  501    0  0.00000000000E+00  0.00000000000E+00 -0.59704994130E+03  0.59704994132E+03  0.50400001928E-02 0. -1.
    10030    2    1    2    0    0  0.00000000000E+00  0.00000000000E+00  0.61180585621E+03  0.18059057388E+04  0.16991142198E+04 0.  0.
        3    1    3    3  502    0  0.15526710588E+03  0.64329378143E+03 -0.26032106795E+03  0.71112715601E+03  0.10100000352E+00 0. -1.
       -3    1    3    3    0  502 -0.15526710588E+03 -0.64329378143E+03  0.87212692416E+03  0.10947785828E+04  0.10100000352E+00 0.  1.
</event>
<event>
 5   0  0.7049044E-04  0.1703895E+04  0.7818609E-02  0.8759146E-01
        2   -1    0    0  501    0  0.00000000000E+00  0.00000000000E+00  0.18968139526E+04  0.18968139526E+04  0.25500000920E-02 0. -1.
       -2   -1    0    0    0  501  0.00000000000E+00  0.00000000000E+00 -0.38264909929E+03  0.38264909929E+03  0.25500000920E-02 0.  1.
    10030    2    1    2    0    0  0.00000000000E+00  0.00000000000E+00  0.15141648533E+04  0.22794630519E+04  0.17038945396E+04 0.  0.
        4    1    3    3  502    0  0.27464825568E+03 -0.69039796027E+03  0.13146906472E+04  0.15101304972E+04  0.12699999809E+01 0. -1.
       -4    1    3    3    0  502 -0.27464825568E+03  0.69039796027E+03  0.19947420613E+03  0.76933255469E+03  0.12699999809E+01 0.  1.
</event>
<event>
 5   0  0.7242144E-04  0.1688705E+04  0.7818609E-02  0.8767833E-01
        2   -1    0    0  501    0  0.00000000000E+00  0.00000000000E+00  0.95885331431E+03  0.95885331431E+03  0.25500000920E-02 0. -1.
       -2   -1    0    0    0  501  0.00000000000E+00  0.00000000000E+00 -0.74352432248E+03  0.74352432248E+03  0.25500000920E-02 0.  1.
    10030    2    1    2    0    0  0.00000000000E+00  0.00000000000E+00  0.21532899183E+03  0.17023776368E+04  0.16887045460E+04 0.  0.
        3    1    3    3  502    0 -0.33960506532E+03  0.61585789418E+03  0.57869302108E+03  0.91076790077E+03  0.10100000352E+00 0. -1.
       -3    1    3    3    0  502  0.33960506532E+03 -0.61585789418E+03 -0.36336402925E+03  0.79160973603E+03  0.10100000352E+00 0.  1.
</event>
<event>
 5   0  0.7025426E-04  0.1696440E+04  0.7818609E-02  0.8763397E-01
       -2   -1    0    0    0  501  0.00000000000E+00  0.00000000000E+00  0.42909301259E+03  0.42909301259E+03  0.25500000920E-02 0.  1.
        2   -1    0    0  501    0  0.00000000000E+00  0.00000000000E+00 -0.16767394147E+04  0.16767394147E+04  0.25500000920E-02 0. -1.
    10030    2    1    2    0    0  0.00000000000E+00  0.00000000000E+00 -0.12476464021E+04  0.21058324272E+04  0.16964399981E+04 0.  0.
        2    1    3    3  502    0 -0.44070048891E+03  0.22770175461E+03  0.23026949607E+03  0.54689034623E+03  0.25500000920E-02 0.  1.
       -2    1    3    3    0  502  0.44070048891E+03 -0.22770175461E+03 -0.14779158981E+04  0.15589420810E+04  0.25500000920E-02 0. -1.
</event>
<event>
 5   0  0.3713516E-04  0.1651269E+04  0.7818609E-02  0.8789656E-01
        1   -1    0    0  501    0  0.00000000000E+00  0.00000000000E+00  0.36301529126E+03  0.36301529130E+03  0.50400001928E-02 0. -1.
       -1   -1    0    0    0  501  0.00000000000E+00  0.00000000000E+00 -0.18778062684E+04  0.18778062684E+04  0.50400001928E-02 0.  1.
    10030    2    1    2    0    0  0.00000000000E+00  0.00000000000E+00 -0.15147909772E+04  0.22408215597E+04  0.16512690750E+04 0.  0.
        5    1    3    3  502    0 -0.54146245001E+03 -0.36398197591E+03 -0.70805613449E+02  0.65627737159E+03  0.46999998093E+01 0. -1.
       -5    1    3    3    0  502  0.54146245001E+03  0.36398197591E+03 -0.14439853637E+04  0.15845441882E+04  0.46999998093E+01 0.  1.
</event>
<event>
 5   0  0.3723500E-04  0.1662355E+04  0.7818609E-02  0.8783131E-01
       -1   -1    0    0    0  501  0.00000000000E+00  0.00000000000E+00  0.11559642725E+04  0.11559642726E+04  0.50400001928E-02 0. -1.
        1   -1    0    0  501    0  0.00000000000E+00  0.00000000000E+00 -0.59764484586E+03  0.59764484588E+03  0.50400001928E-02 0.  1.
    10030    2    1    2    0    0  0.00000000000E+00  0.00000000000E+00  0.55831942668E+03  0.17536091184E+04  0.16623550638E+04 0.  0.
        1    1    3    3  502    0  0.86680276889E+01 -0.77226867259E+03  0.60324081936E+03  0.97998649150E+03  0.50400001928E-02 0. -1.
       -1    1    3    3    0  502 -0.86680276889E+01  0.77226867259E+03 -0.44921392673E+02  0.77362262694E+03  0.50400001928E-02 0.  1.
</event>
<event>
 5   0  0.7049044E-04  0.1590119E+04  0.7818609E-02  0.8826642E-01
        2   -1    0    0  501    0  0.00000000000E+00  0.00000000000E+00  0.25557132749E+04  0.25557132749E+04  0.25500000920E-02 0.  1.
       -2   -1    0    0    0  501  0.00000000000E+00  0.00000000000E+00 -0.24733577224E+03  0.24733577225E+03  0.25500000920E-02 0. -1.
    10030    2    1    2    0    0  0.00000000000E+00  0.00000000000E+00  0.23083775027E+04  0.28030490472E+04  0.15901186327E+04 0.  0.
        4    1    3    3  502    0  0.34111778655E+03  0.70626932049E+03  0.92475465806E+03  0.12125800954E+04  0.12699999809E+01 0. -1.
       -4    1    3    3    0  502 -0.34111778655E+03 -0.70626932049E+03  0.13836228446E+04  0.15904689517E+04  0.12699999809E+01 0.  1.
</event>
<event>
 5   0  0.7049044E-04  0.1722628E+04  0.7818609E-02  0.8748563E-01
       -2   -1    0    0    0  501  0.00000000000E+00  0.00000000000E+00  0.56348888857E+03  0.56348888858E+03  0.25500000920E-02 0. -1.
        2   -1    0    0  501    0  0.00000000000E+00  0.00000000000E+00 -0.13165503876E+04  0.13165503876E+04  0.25500000920E-02 0.  1.
    10030    2    1    2    0    0  0.00000000000E+00  0.00000000000E+00 -0.75306149902E+03  0.18800392762E+04  0.17226276611E+04 0.  0.
        4    1    3    3  502    0  0.28680255542E+03 -0.81212125812E+03 -0.38521102501E+03  0.94349657677E+03  0.12699999809E+01 0.  1.
       -4    1    3    3    0  502 -0.28680255542E+03  0.81212125812E+03 -0.36785047401E+03  0.93654269941E+03  0.12699999809E+01 0. -1.
</event>
<event>
 5   0  0.6746664E-04  0.1700602E+04  0.7818609E-02  0.8761021E-01
        2   -1    0    0  501    0  0.00000000000E+00  0.00000000000E+00  0.19522826362E+04  0.19522826362E+04  0.25500000920E-02 0.  1.
       -2   -1    0    0    0  501  0.00000000000E+00  0.00000000000E+00 -0.37034174381E+03  0.37034174382E+03  0.25500000920E-02 0. -1.
    10030    2    1    2    0    0  0.00000000000E+00  0.00000000000E+00  0.15819408924E+04  0.23226243800E+04  0.17006019592E+04 0.  0.
        5    1    3    3  502    0  0.27543848800E+03  0.25770716455E+03 -0.24980270054E+03  0.45244096027E+03  0.46999998093E+01 0. -1.
       -5    1    3    3    0  502 -0.27543848800E+03 -0.25770716455E+03  0.18317435929E+04  0.18701834198E+04  0.46999998093E+01 0.  1.
</event>
<event>
 5   0  0.7242144E-04  0.1638322E+04  0.7818609E-02  0.8797345E-01
        2   -1    0    0  501    0  0.00000000000E+00  0.00000000000E+00  0.13465832117E+04  0.13465832117E+04  0.25500000920E-02 0.  1.
       -2   -1    0    0    0  501  0.00000000000E+00  0.00000000000E+00 -0.49831687676E+03  0.49831687676E+03  0.25500000920E-02 0. -1.
    10030    2    1    2    0    0  0.00000000000E+00  0.00000000000E+00  0.84826633492E+03  0.18449000884E+04  0.16383224839E+04 0.  0.
        3    1    3    3  502    0 -0.47047817332E+03 -0.23199590446E+01  0.11792609255E+04  0.12696501228E+04  0.10100000352E+00 0.  1.
       -3    1    3    3    0  502  0.47047817332E+03  0.23199590446E+01 -0.33099459056E+03  0.57524996563E+03  0.10100000352E+00 0. -1.
</event>
<event>
 5   0  0.7049044E-04  0.1675682E+04  0.7818609E-02  0.8775356E-01
       -2   -1    0    0    0  501  0.00000000000E+00  0.00000000000E+00  0.10593163813E+04  0.10593163813E+04  0.25500000920E-02 0.  1.
        2   -1    0    0  501    0  0.00000000000E+00  0.00000000000E+00 -0.66267049847E+03  0.66267049848E+03  0.25500000920E-02 0. -1.
    10030    2    1    2    0    0  0.00000000000E+00  0.00000000000E+00  0.39664588286E+03  0.17219868798E+04  0.16756822067E+04 0.  0.
        4    1    3    3  502    0  0.74875093597E+03  0.17556602734E+03 -0.14331639303E+03  0.78229955610E+03  0.12699999809E+01 0. -1.
       -4    1    3    3    0  502 -0.74875093597E+03 -0.17556602734E+03  0.53996227589E+03  0.93968732372E+03  0.12699999809E+01 0.  1.
</event>
<event>
 5   0  0.3713516E-04  0.1705012E+04  0.7818609E-02  0.8758511E-01
        1   -1    0    0  501    0  0.00000000000E+00  0.00000000000E+00  0.69597484298E+03  0.69597484299E+03  0.50400001928E-02 0.  1.
       -1   -1    0    0    0  501  0.00000000000E+00  0.00000000000E+00 -0.10442426323E+04  0.10442426323E+04  0.50400001928E-02 0. -1.
    10030    2    1    2    0    0  0.00000000000E+00  0.00000000000E+00 -0.34826778935E+03  0.17402174753E+04  0.17050121432E+04 0.  0.
        5    1    3    3  502    0 -0.52625621025E+03  0.45827531001E+03  0.32565307612E+03  0.77008692664E+03  0.46999998093E+01 0.  1.
       -5    1    3    3    0  502  0.52625621025E+03 -0.45827531001E+03 -0.67392086547E+03  0.97013054869E+03  0.46999998093E+01 0. -1.
</event>
<event>
 5   0  0.3915701E-04  0.1714604E+04  0.7818609E-02  0.8753078E-01
       -1   -1    0    0    0  501  0.00000000000E+00  0.00000000000E+00  0.98359589494E+03  0.98359589495E+03  0.50400001928E-02 0. -1.
        1   -1    0    0  501    0  0.00000000000E+00  0.00000000000E+00 -0.74722469318E+03  0.74722469320E+03  0.50400001928E-02 0.  1.
    10030    2    1    2    0    0  0.00000000000E+00  0.00000000000E+00  0.23637120176E+03  0.17308205882E+04  0.17146044918E+04 0.  0.
        2    1    3    3  502    0 -0.22713274506E+03 -0.41857572812E+03 -0.60141837467E+03  0.76713687530E+03  0.25500000920E-02 0.  1.
       -2    1    3    3    0  502  0.22713274506E+03  0.41857572812E+03  0.83778957642E+03  0.96368371286E+03  0.25500000920E-02 0. -1.
</event>
<event>
 5   0  0.7049044E-04  0.1710302E+04  0.7818609E-02  0.8755511E-01
        2   -1    0    0  501    0  0.00000000000E+00  0.00000000000E+00  0.99465294978E+03  0.99465294978E+03  0.25500000920E-02 0.  1.
       -2   -1    0    0    0  501  0.00000000000E+00  0.00000000000E+00 -0.73521419616E+03  0.73521419616E+03  0.25500000920E-02 0. -1.
    10030    2    1    2    0    0  0.00000000000E+00  0.00000000000E+00  0.25943875362E+03  0.17298671459E+04  0.17103016914E+04 0.  0.
        4    1    3    3  502    0 -0.58019716703E+03 -0.62052817622E+03  0.22880633685E+03  0.87979425026E+03  0.12699999809E+01 0. -1.
       -4    1    3    3    0  502  0.58019716703E+03  0.62052817622E+03  0.30632416770E+02  0.85007289568E+03  0.12699999809E+01 0.  1.
</event>
<event>
 5   0  0.7242144E-04  0.1671099E+04  0.7818609E-02  0.8778021E-01
        2   -1    0    0  501    0  0.00000000000E+00  0.00000000000E+00  0.12547193145E+04  0.12547193145E+04  0.25500000920E-02 0. -1.
       -2   -1    0    0    0  501  0.00000000000E+00  0.00000000000E+00 -0.55641389777E+03  0.55641389778E+03  0.25500000920E-02 0.  1.
    10030    2    1    2    0    0  0.00000000000E+00  0.00000000000E+00  0.69830541671E+03  0.18111332123E+04  0.16710993560E+04 0.  0.
        3    1    3    3  502    0 -0.20667417075E+03 -0.27924124648E+01  0.12265744260E+04  0.12438676952E+04  0.10100000352E+00 0. -1.
       -3    1    3    3    0  502  0.20667417075E+03  0.27924124648E+01 -0.52826900932E+03  0.56726551705E+03  0.10100000352E+00 0.  1.
</event>
<event>
 5   0  0.2639750E-04  0.1721805E+04  0.7818609E-02  0.8749025E-01
        3   -1    0    0  501    0  0.00000000000E+00  0.00000000000E+00  0.12058693960E+04  0.12058694002E+04  0.10100000352E+00 0. -1.
       -3   -1    0    0    0  501  0.00000000000E+00  0.00000000000E+00 -0.61462121498E+03  0.61462122328E+03  0.10100000352E+00 0.  1.
    10030    2    1    2    0    0  0.00000000000E+00  0.00000000000E+00  0.59124818100E+03  0.18204906235E+04  0.17218047795E+04 0.  0.
        2    1    3    3  502    0 -0.54304429276E+03 -0.66793505246E+03  0.30713798069E+03  0.91398472492E+03  0.25500000920E-02 0. -1.
       -2    1    3    3    0  502  0.54304429276E+03  0.66793505246E+03  0.28411020031E+03  0.90650589857E+03  0.25500000920E-02 0.  1.
</event>
<event>
 5   0  0.7025426E-04  0.1726863E+04  0.7818609E-02  0.8746190E-01
       -2   -1    0    0    0  501  0.00000000000E+00  0.00000000000E+00  0.71114844606E+03  0.71114844606E+03  0.25500000920E-02 0. -1.
        2   -1    0    0  501    0  0.00000000000E+00  0.00000000000E+00 -0.10483235984E+04  0.10483235984E+04  0.25500000920E-02 0.  1.
    10030    2    1    2    0    0  0.00000000000E+00  0.00000000000E+00 -0.33717515231E+03  0.17594720444E+04  0.17268627021E+04 0.  0.
        2    1    3    3  502    0  0.76535491285E+03  0.24496310646E+03 -0.49036551439E+03  0.94139970461E+03  0.25500000920E-02 0.  1.
       -2    1    3    3    0  502 -0.76535491285E+03 -0.24496310646E+03  0.15319036207E+03  0.81807233982E+03  0.25500000920E-02 0. -1.
</event>
<event>
 5   0  0.7049044E-04  0.1683463E+04  0.7818609E-02  0.8770852E-01
       -2   -1    0    0    0  501  0.00000000000E+00  0.00000000000E+00  0.40454327371E+03  0.40454327372E+03  0.25500000920E-02 0. -1.
        2   -1    0    0  501    0  0.00000000000E+00  0.00000000000E+00 -0.17513877047E+04  0.17513877047E+04  0.25500000920E-02 0.  1.
    10030    2    1    2    0    0  0.00000000000E+00  0.00000000000E+00 -0.13468444310E+04  0.21559309784E+04  0.16834632346E+04 0.  0.
        4    1    3    3  502    0 -0.33950284090E+03  0.43176014510E+02 -0.16582630761E+04  0.16932112655E+04  0.12699999809E+01 0.  1.
       -4    1    3    3    0  502  0.33950284090E+03 -0.43176014510E+02  0.31141864516E+03  0.46271971285E+03  0.12699999809E+01 0. -1.
</event>
<event>
 5   0  0.3723500E-04  0.1804601E+04  0.7818609E-02  0.8703856E-01
       -1   -1    0    0    0  501  0.00000000000E+00  0.00000000000E+00  0.40879454003E+03  0.40879454006E+03  0.50400001928E-02 0. -1.
        1   -1    0    0  501    0  0.00000000000E+00  0.00000000000E+00 -0.19915784930E+04  0.19915784930E+04  0.50400001928E-02 0.  1.
    10030    2    1    2    0    0  0.00000000000E+00  0.00000000000E+00 -0.15827839530E+04  0.24003730331E+04  0.18046012457E+04 0.  0.
        1    1    3    3  502    0 -0.23023692899E+03 -0.81560711746E+03 -0.37942964675E+03  0.92854233634E+03  0.50400001928E-02 0. -1.
       -1    1    3    3    0  502  0.23023692899E+03  0.81560711746E+03 -0.12033543062E+04  0.14718306967E+04  0.50400001928E-02 0.  1.
</event>
<event>
 5   0  0.7025426E-04  0.1628839E+04  0.7818609E-02  0.8803025E-01
       -2   -1    0    0    0  501  0.00000000000E+00  0.00000000000E+00  0.36106276999E+03  0.36106277000E+03  0.25500000920E-02 0.  1.
        2   -1    0    0  501    0  0.00000000000E+00  0.00000000000E+00 -0.18370178707E+04  0.18370178707E+04  0.25500000920E-02 0. -1.
    10030    2    1    2    0    0  0.00000000000E+00  0.00000000000E+00 -0.14759551007E+04  0.21980806407E+04  0.16288385567E+04 0.  0.
        2    1    3    3  502    0 -0.46415405639E+03  0.10936338557E+03 -0.16289181784E+04  0.16972842337E+04  0.25500000920E-02 0. -1.
       -2    1    3    3    0  502  0.46415405639E+03 -0.10936338557E+03  0.15296307762E+03  0.50079640703E+03  0.25500000920E-02 0.  1.
</event>
<event>
 5   0  0.3713516E-04  0.1715489E+04  0.7818609E-02  0.8752580E-01
       -1   -1    0    0    0  501  0.00000000000E+00  0.00000000000E+00  0.11953920125E+04  0.11953920126E+04  0.50400001928E-02 0.  1.
        1   -1    0    0  501    0  0.00000000000E+00  0.00000000000E+00 -0.61546775291E+03  0.61546775293E+03  0.50400001928E-02 0. -1.
    10030    2    1    2    0    0  0.00000000000E+00  0.00000000000E+00  0.57992425963E+03  0.18108597655E+04  0.17154885436E+04 0.  0.
        5    1    3    3  502    0 -0.16291466243E+03 -0.71307183086E+03 -0.18292819586E+03  0.75398769090E+03  0.46999998093E+01 0. -1.
       -5    1    3    3    0  502  0.16291466243E+03  0.71307183086E+03  0.76285245549E+03  0.10568720746E+04  0.46999998093E+01 0.  1.
</event>
<event>
 5   0  0.3635143E-04  0.1684357E+04  0.7818609E-02  0.8770337E-01
        1   -1    0    0  501    0  0.00000000000E+00  0.00000000000E+00  0.73901579228E+03  0.73901579229E+03  0.50400001928E-02 0.  1.
       -1   -1    0    0    0  501  0.00000000000E+00  0.00000000000E+00 -0.95974169612E+03  0.95974169613E+03  0.50400001928E-02 0. -1.
    10030    2    1    2    0    0  0.00000000000E+00  0.00000000000E+00 -0.22072590384E+03  0.16987574884E+04  0.16843565774E+04 0.  0.
        3    1    3    3  502    0 -0.47853335431E+03  0.49974365385E+03  0.37387369348E+03  0.78646006868E+03  0.10100000352E+00 0.  1.
       -3    1    3    3    0  502  0.47853335431E+03 -0.49974365385E+03 -0.59459959732E+03  0.91229741975E+03  0.10100000352E+00 0. -1.
</event>
<event>
 5   0  0.6746664E-04  0.1693129E+04  0.7818609E-02  0.8765293E-01
       -2   -1    0    0    0  501  0.00000000000E+00  0.00000000000E+00  0.66542372064E+03  0.66542372064E+03  0.25500000920E-02 0.  1.
        2   -1    0    0  501    0  0.00000000000E+00  0.00000000000E+00 -0.10770148797E+04  0.10770148797E+04  0.25500000920E-02 0. -1.
    10030    2    1    2    0    0  0.00000000000E+00  0.00000000000E+00 -0.41159115908E+03  0.17424386004E+04  0.16931287588E+04 0.  0.
        5    1    3    3  502    0  0.39540051752E+03 -0.67786153750E+02  0.56137621833E+03  0.69000136261E+03  0.46999998093E+01 0.  1.
       -5    1    3    3    0  502 -0.39540051752E+03  0.67786153750E+02 -0.97296737741E+03  0.10524372377E+04  0.46999998093E+01 0. -1.
</event>
<event>
 5   0  0.3713516E-04  0.1994223E+04  0.7818609E-02  0.8609326E-01
       -1   -1    0    0    0  501  0.00000000000E+00  0.00000000000E+00  0.60316835342E+03  0.60316835344E+03  0.50400001928E-02 0.  1.
        1   -1    0    0  501    0  0.00000000000E+00  0.00000000000E+00 -0.16483475321E+04  0.16483475322E+04  0.50400001928E-02 0. -1.
    10030    2    1    2    0    0  0.00000000000E+00  0.00000000000E+00 -0.10451791787E+04  0.22515158856E+04  0.19942227226E+04 0.  0.
        5    1    3    3  502    0 -0.98687026922E+03 -0.66101700401E+02 -0.38010657991E+03  0.10596157158E+04  0.46999998093E+01 0. -1.
       -5    1    3    3    0  502  0.98687026922E+03  0.66101700401E+02 -0.66507259882E+03  0.11919001698E+04  0.46999998093E+01 0.  1.
</event>
<event>
 5   0  0.7242144E-04  0.1714250E+04  0.7818609E-02  0.8753278E-01
       -2   -1    0    0    0  501  0.00000000000E+00  0.00000000000E+00  0.77174040894E+03  0.77174040895E+03  0.25500000920E-02 0. -1.
        2   -1    0    0  501    0  0.00000000000E+00  0.00000000000E+00 -0.95195675501E+03  0.95195675501E+03  0.25500000920E-02 0.  1.
    10030    2    1    2    0    0  0.00000000000E+00  0.00000000000E+00 -0.18021634607E+03  0.17236971640E+04  0.17142502681E+04 0.  0.
        3    1    3    3  502    0 -0.29055682185E+03  0.17257635196E+03  0.70192396241E+03  0.77903987265E+03  0.10100000352E+00 0. -1.
       -3    1    3    3    0  502  0.29055682185E+03 -0.17257635196E+03 -0.88214030848E+03  0.94465729131E+03  0.10100000352E+00 0.  1.
</event>
<event>
 5   0  0.3723500E-04  0.1649126E+04  0.7818609E-02  0.8790924E-01
        1   -1    0    0  501    0  0.00000000000E+00  0.00000000000E+00  0.18865608961E+04  0.18865608962E+04  0.50400001928E-02 0. -1.
       -1   -1    0    0    0  501  0.00000000000E+00  0.00000000000E+00 -0.36039332347E+03  0.36039332351E+03  0.50400001928E-02 0.  1.
    10030    2    1    2    0    0  0.00000000000E+00  0.00000000000E+00  0.15261675727E+04  0.22469542197E+04  0.16491257700E+04 0.  0.
        1    1    3    3  502    0  0.30305640123E+03 -0.72834065105E+03  0.43613571184E+03  0.90140870057E+03  0.50400001928E-02 0.  1.
       -1    1    3    3    0  502 -0.30305640123E+03  0.72834065105E+03  0.10900318608E+04  0.13455455191E+04  0.50400001928E-02 0. -1.
</event>
<event>
 5   0  0.3713516E-04  0.1490767E+04  0.7818609E-02  0.8890616E-01
        1   -1    0    0  501    0  0.00000000000E+00  0.00000000000E+00  0.11823579597E+04  0.11823579597E+04  0.50400001928E-02 0.  1.
       -1   -1    0    0    0  501  0.00000000000E+00  0.00000000000E+00 -0.46990539411E+03  0.46990539414E+03  0.50400001928E-02 0. -1.
    10030    2    1    2    0    0  0.00000000000E+00  0.00000000000E+00  0.71245256562E+03  0.16522633539E+04  0.14907667599E+04 0.  0.
        5    1    3    3  502    0 -0.56927169709E+03 -0.16010981093E+03  0.85910692369E+03  0.10429727767E+04  0.46999998093E+01 0.  1.
       -5    1    3    3    0  502  0.56927169709E+03  0.16010981093E+03 -0.14665435807E+03  0.60929057715E+03  0.46999998093E+01 0. -1.
</event>
<event>
 5   0  0.7242144E-04  0.1686436E+04  0.7818609E-02  0.8769138E-01
       -2   -1    0    0    0  501  0.00000000000E+00  0.00000000000E+00  0.65069872932E+03  0.65069872932E+03  0.25500000920E-02 0.  1.
        2   -1    0    0  501    0  0.00000000000E+00  0.00000000000E+00 -0.10926974676E+04  0.10926974676E+04  0.25500000920E-02 0. -1.
    10030    2    1    2    0    0  0.00000000000E+00  0.00000000000E+00 -0.44199873825E+03  0.17433961969E+04  0.16864363062E+04 0.  0.
        3    1    3    3  502    0 -0.20115975667E+02  0.79922437580E+03 -0.49810628131E+03  0.94195229871E+03  0.10100000352E+00 0. -1.
       -3    1    3    3    0  502  0.20115975667E+02 -0.79922437580E+03  0.56107543062E+02  0.80144389819E+03  0.10100000352E+00 0.  1.
</event>
<event>
 5   0  0.6746664E-04  0.1687545E+04  0.7818609E-02  0.8768500E-01
       -2   -1    0    0    0  501  0.00000000000E+00  0.00000000000E+00  0.78017248641E+03  0.78017248641E+03  0.25500000920E-02 0.  1.
        2   -1    0    0  501    0  0.00000000000E+00  0.00000000000E+00 -0.91255702625E+03  0.91255702625E+03  0.25500000920E-02 0. -1.
    10030    2    1    2    0    0  0.00000000000E+00  0.00000000000E+00 -0.13238453984E+03  0.16927295127E+04  0.16875448251E+04 0.  0.
        5    1    3    3  502    0 -0.77448807212E+03 -0.32246140432E+03  0.24177048519E+02  0.83929717669E+03  0.46999998093E+01 0.  1.
       -5    1    3    3    0  502  0.77448807212E+03  0.32246140432E+03 -0.15656158835E+03  0.85343233597E+03  0.46999998093E+01 0. -1.
</event>
<event>
 5   0  0.6746664E-04  0.1698278E+04  0.7818609E-02  0.8762347E-01
        2   -1    0    0  501    0  0.00000000000E+00  0.00000000000E+00  0.93655870849E+03  0.93655870850E+03  0.25500000920E-02 0. -1.
       -2   -1    0    0    0  501  0.00000000000E+00  0.00000000000E+00 -0.76987884834E+03  0.76987884834E+03  0.25500000920E-02 0.  1.
    10030    2    1    2    0    0  0.00000000000E+00  0.00000000000E+00  0.16667986015E+03  0.17064375568E+04  0.16982776450E+04 0.  0.
        5    1    3    3  502    0  0.39433988073E+03 -0.99421437099E+02 -0.66564490014E+03  0.78006011741E+03  0.46999998093E+01 0.  1.
       -5    1    3    3    0  502 -0.39433988073E+03  0.99421437099E+02  0.83232476030E+03  0.92637743943E+03  0.46999998093E+01 0. -1.
</event>
<event>
 5   0  0.3803253E-04  0.1724656E+04  0.7818609E-02  0.8747426E-01
        1   -1    0    0  501    0  0.00000000000E+00  0.00000000000E+00  0.10868466618E+04  0.10868466619E+04  0.50400001928E-02 0. -1.
       -1   -1    0    0    0  501  0.00000000000E+00  0.00000000000E+00 -0.68419002095E+03  0.68419002097E+03  0.50400001928E-02 0.  1.
    10030    2    1    2    0    0  0.00000000000E+00  0.00000000000E+00  0.40265664090E+03  0.17710366828E+04  0.17246560705E+04 0.  0.
        4    1    3    3  502    0 -0.23983480783E+03 -0.79992687892E+03 -0.19404118798E+02  0.83533339415E+03  0.12699999809E+01 0.  1.
       -4    1    3    3    0  502  0.23983480783E+03  0.79992687892E+03  0.42206075970E+03  0.93570328867E+03  0.12699999809E+01 0. -1.
</event>
<event>
 5   0  0.3713516E-04  0.1777978E+04  0.7818609E-02  0.8718099E-01
        1   -1    0    0  501    0  0.00000000000E+00  0.00000000000E+00  0.94568748202E+03  0.94568748204E+03  0.50400001928E-02 0.  1.
       -1   -1    0    0    0  501  0.00000000000E+00  0.00000000000E+00 -0.83568946142E+03  0.83568946144E+03  0.50400001928E-02 0. -1.
    10030    2    1    2    0    0  0.00000000000E+00  0.00000000000E+00  0.10999802060E+03  0.17813769435E+04  0.17779775730E+04 0.  0.
        5    1    3    3  502    0 -0.81298685941E+03 -0.27751287579E+03  0.28416748673E+03  0.90483936714E+03  0.46999998093E+01 0.  1.
       -5    1    3    3    0  502  0.81298685941E+03  0.27751287579E+03 -0.17416946612E+03  0.87653757634E+03  0.46999998093E+01 0. -1.
</event>
<event>
 5   0  0.3803253E-04  0.1666112E+04  0.7818609E-02  0.8780931E-01
       -1   -1    0    0    0  501  0.00000000000E+00  0.00000000000E+00  0.71814828151E+03  0.71814828153E+03  0.50400001928E-02 0.  1.
        1   -1    0    0  501    0  0.00000000000E+00  0.00000000000E+00 -0.96634970072E+03  0.96634970074E+03  0.50400001928E-02 0. -1.
    10030    2    1    2    0    0  0.00000000000E+00  0.00000000000E+00 -0.24820141921E+03  0.16844979823E+04  0.16661120934E+04 0.  0.
        4    1    3    3  502    0  0.65022158561E+03 -0.44229909035E+03  0.15382212577E+03  0.80129860538E+03  0.12699999809E+01 0.  1.
       -4    1    3    3    0  502 -0.65022158561E+03  0.44229909035E+03 -0.40202354498E+03  0.88319937689E+03  0.12699999809E+01 0. -1.
</event>
<event>
 5   0  0.3635143E-04  0.1719739E+04  0.7818609E-02  0.8750186E-01
        1   -1    0    0  501    0  0.00000000000E+00  0.00000000000E+00  0.82841290802E+03  0.82841290804E+03  0.50400001928E-02 0. -1.
       -1   -1    0    0    0  501  0.00000000000E+00  0.00000000000E+00 -0.89252041422E+03  0.89252041423E+03  0.50400001928E-02 0.  1.
    10030    2    1    2    0    0  0.00000000000E+00  0.00000000000E+00 -0.64107506196E+02  0.17209333223E+04  0.17197388544E+04 0.  0.
        3    1    3    3  502    0 -0.55053797187E+02 -0.72110684700E+02  0.82361005681E+03  0.82859182189E+03  0.10100000352E+00 0. -1.
       -3    1    3    3    0  502  0.55053797187E+02  0.72110684700E+02 -0.88771756300E+03  0.89234150038E+03  0.10100000352E+00 0.  1.
</event>
<event>
 5   0  0.3803253E-04  0.1698579E+04  0.7818609E-02  0.8762175E-01
       -1   -1    0    0    0  501  0.00000000000E+00  0.00000000000E+00  0.65795690839E+03  0.65795690841E+03  0.50400001928E-02 0.  1.
        1   -1    0    0  501    0  0.00000000000E+00  0.00000000000E+00 -0.10962618235E+04  0.10962618235E+04  0.50400001928E-02 0. -1.
    10030    2    1    2    0    0  0.00000000000E+00  0.00000000000E+00 -0.43830491508E+03  0.17542187319E+04  0.16985794538E+04 0.  0.
        4    1    3    3  502    0 -0.94876589177E+02  0.76313071589E+03  0.15310051498E+03  0.78409912466E+03  0.12699999809E+01 0.  1.
       -4    1    3    3    0  502  0.94876589177E+02 -0.76313071589E+03 -0.59140543005E+03  0.97011960722E+03  0.12699999809E+01 0. -1.
</event>
<event>
 5   0  0.7242144E-04  0.1654172E+04  0.7818609E-02  0.8787942E-01
       -2   -1    0    0    0  501  0.00000000000E+00  0.00000000000E+00  0.56729670770E+03  0.56729670770E+03  0.25500000920E-02 0. -1.
        2   -1    0    0  501    0  0.00000000000E+00  0.00000000000E+00 -0.12058445169E+04  0.12058445169E+04  0.25500000920E-02 0.  1.
    10030    2    1    2    0    0  0.00000000000E+00  0.00000000000E+00 -0.63854780923E+03  0.17731412246E+04  0.16541724510E+04 0.  0.
        3    1    3    3  502    0 -0.37148583072E+03  0.23692968408E+03  0.43102001854E+03  0.61637299114E+03  0.10100000352E+00 0. -1.
       -3    1    3    3    0  502  0.37148583072E+03 -0.23692968408E+03 -0.10695678278E+04  0.11567682335E+04  0.10100000352E+00 0.  1.
</event>
<event>
 5   0  0.6746664E-04  0.1719113E+04  0.7818609E-02  0.8750538E-01
       -2   -1    0    0    0  501  0.00000000000E+00  0.00000000000E+00  0.55789947029E+03  0.55789947029E+03  0.25500000920E-02 0. -1.
        2   -1    0    0  501    0  0.00000000000E+00  0.00000000000E+00 -0.13243202429E+04  0.13243202429E+04  0.25500000920E-02 0.  1.
    10030    2    1    2    0    0  0.00000000000E+00  0.00000000000E+00 -0.76642077265E+03  0.18822197132E+04  0.17191132156E+04 0.  0.
        5    1    3    3  502    0 -0.51966138668E+03 -0.39830269111E+03 -0.99293322637E+03  0.11893828116E+04  0.46999998093E+01 0.  1.
       -5    1    3    3    0  502  0.51966138668E+03  0.39830269111E+03  0.22651245372E+03  0.69283690161E+03  0.46999998093E+01 0. -1.
</event>
<event>
 5   0  0.6746664E-04  0.1227983E+04  0.7818609E-02  0.9088710E-01
       -2   -1    0    0    0  501  0.00000000000E+00  0.00000000000E+00  0.38162618339E+03  0.38162618340E+03  0.25500000920E-02 0. -1.
        2   -1    0    0  501    0  0.00000000000E+00  0.00000000000E+00 -0.98783979793E+03  0.98783979793E+03  0.25500000920E-02 0.  1.
    10030    2    1    2    0    0  0.00000000000E+00  0.00000000000E+00 -0.60621361454E+03  0.13694659813E+04  0.12279829508E+04 0.  0.
        5    1    3    3  502    0 -0.16169887358E+03  0.10360366654E+03  0.34724971239E+03  0.39684341773E+03  0.46999998093E+01 0. -1.
       -5    1    3    3    0  502  0.16169887358E+03 -0.10360366654E+03 -0.95346332693E+03  0.97262256361E+03  0.46999998093E+01 0.  1.
</event>
<event>
 5   0  0.3723500E-04  0.1716781E+04  0.7818609E-02  0.8751851E-01
       -1   -1    0    0    0  501  0.00000000000E+00  0.00000000000E+00  0.38546262819E+03  0.38546262822E+03  0.50400001928E-02 0. -1.
        1   -1    0    0  501    0  0.00000000000E+00  0.00000000000E+00 -0.19115583309E+04  0.19115583309E+04  0.50400001928E-02 0.  1.
    10030    2    1    2    0    0  0.00000000000E+00  0.00000000000E+00 -0.15260957027E+04  0.22970209591E+04  0.17167810556E+04 0.  0.
        1    1    3    3  502    0 -0.70795319210E+03 -0.48542016009E+03 -0.76567115836E+03  0.11502533533E+04  0.50400001928E-02 0. -1.
       -1    1    3    3    0  502  0.70795319210E+03  0.48542016009E+03 -0.76042454431E+03  0.11467676058E+04  0.50400001928E-02 0.  1.
</event>
<event>
 5   0  0.7233728E-04  0.1697738E+04  0.7818609E-02  0.8762655E-01
        2   -1    0    0  501    0  0.00000000000E+00  0.00000000000E+00  0.87400831113E+03  0.87400831114E+03  0.25500000920E-02 0.  1.
       -2   -1    0    0    0  501  0.00000000000E+00  0.00000000000E+00 -0.82445283772E+03  0.82445283773E+03  0.25500000920E-02 0. -1.
    10030    2    1    2    0    0  0.00000000000E+00  0.00000000000E+00  0.49555473410E+02  0.16984611489E+04  0.16977380626E+04 0.  0.
        1    1    3    3  502    0 -0.24248115483E+03  0.77956991635E+03 -0.20781271911E+03  0.84244435494E+03  0.50400001928E-02 0. -1.
       -1    1    3    3    0  502  0.24248115483E+03 -0.77956991635E+03  0.25736819252E+03  0.85601679392E+03  0.50400001928E-02 0.  1.
</event>
<event>
 5   0  0.7233728E-04  0.1736129E+04  0.7818609E-02  0.8741023E-01
       -2   -1    0    0    0  501  0.00000000000E+00  0.00000000000E+00  0.41019650504E+03  0.41019650505E+03  0.25500000920E-02 0. -1.
        2   -1    0    0  501    0  0.00000000000E+00  0.00000000000E+00 -0.18370122174E+04  0.18370122174E+04  0.25500000920E-02 0.  1.
    10030    2    1    2    0    0  0.00000000000E+00  0.00000000000E+00 -0.14268157123E+04  0.22472087224E+04  0.17361290174E+04 0.  0.
        1    1    3    3  502    0  0.68542585781E+03  0.98764698173E+02 -0.35898597518E+02  0.69343477090E+03  0.50400001928E-02 0. -1.
       -1    1    3    3    0  502 -0.68542585781E+03 -0.98764698173E+02 -0.13909171148E+04  0.15537739515E+04  0.50400001928E-02 0.  1.
</event>
<event>
 5   0  0.3635143E-04  0.1736321E+04  0.7818609E-02  0.8740916E-01
        1   -1    0    0  501    0  0.00000000000E+00  0.00000000000E+00  0.10409477981E+04  0.10409477981E+04  0.50400001928E-02 0. -1.
       -1   -1    0    0    0  501  0.00000000000E+00  0.00000000000E+00 -0.72405427478E+03  0.72405427480E+03  0.50400001928E-02 0.  1.
    10030    2    1    2    0    0  0.00000000000E+00  0.00000000000E+00  0.31689352334E+03  0.17650020729E+04  0.17363210568E+04 0.  0.
        3    1    3    3  502    0  0.24724604067E+03  0.21643345829E+03 -0.65839929044E+03  0.73584215858E+03  0.10100000352E+00 0.  1.
       -3    1    3    3    0  502 -0.24724604067E+03 -0.21643345829E+03  0.97529281378E+03  0.10291599143E+04  0.10100000352E+00 0. -1.
</event>
<event>
 5   0  0.7049044E-04  0.1792563E+04  0.7818609E-02  0.8710265E-01
        2   -1    0    0  501    0  0.00000000000E+00  0.00000000000E+00  0.84402603443E+03  0.84402603444E+03  0.25500000920E-02 0.  1.
       -2   -1    0    0    0  501  0.00000000000E+00  0.00000000000E+00 -0.95177175914E+03  0.95177175914E+03  0.25500000920E-02 0. -1.
    10030    2    1    2    0    0  0.00000000000E+00  0.00000000000E+00 -0.10774572471E+03  0.17957977936E+04  0.17925625719E+04 0.  0.
        4    1    3    3  502    0  0.89614331830E+03 -0.11961422239E+02 -0.64020709712E+02  0.89850775552E+03  0.12699999809E+01 0. -1.
       -4    1    3    3    0  502 -0.89614331830E+03  0.11961422239E+02 -0.43725014995E+02  0.89729003806E+03  0.12699999809E+01 0.  1.
</event>
<event>
 5   0  0.3915701E-04  0.1692391E+04  0.7818609E-02  0.8765716E-01
        1   -1    0    0  501    0  0.00000000000E+00  0.00000000000E+00  0.17549497083E+04  0.17549497084E+04  0.50400001928E-02 0.  1.
       -1   -1    0    0    0  501  0.00000000000E+00  0.00000000000E+00 -0.40801556903E+03  0.40801556906E+03  0.50400001928E-02 0. -1.
    10030    2    1    2    0    0  0.00000000000E+00  0.00000000000E+00  0.13469341393E+04  0.21629652774E+04  0.16923909760E+04 0.  0.
        2    1    3    3  502    0  0.68111843186E+03  0.42070725475E+02  0.13129465041E+04  0.14797029387E+04  0.25500000920E-02 0.  1.
       -2    1    3    3    0  502 -0.68111843186E+03 -0.42070725475E+02  0.33987635229E+02  0.68326233872E+03  0.25500000920E-02 0. -1.
</event>
<event>
 5   0  0.7025426E-04  0.1427036E+04  0.7818609E-02  0.8934477E-01
        2   -1    0    0  501    0  0.00000000000E+00  0.00000000000E+00  0.51371118675E+03  0.51371118676E+03  0.25500000920E-02 0. -1.
       -2   -1    0    0    0  501  0.00000000000E+00  0.00000000000E+00 -0.99103973432E+03  0.99103973432E+03  0.25500000920E-02 0.  1.
    10030    2    1    2    0    0  0.00000000000E+00  0.00000000000E+00 -0.47732854757E+03  0.15047509211E+04  0.14270363668E+04 0.  0.
        2    1    3    3  502    0  0.55105674434E+03  0.13279334523E+02 -0.71640310512E+03  0.90392106140E+03  0.25500000920E-02 0.  1.
       -2    1    3    3    0  502 -0.55105674434E+03 -0.13279334523E+02  0.23907455755E+03  0.60082985968E+03  0.25500000920E-02 0. -1.
</event>
<event>
 5   0  0.3723500E-04  0.1632589E+04  0.7818609E-02  0.8800774E-01
        1   -1    0    0  501    0  0.00000000000E+00  0.00000000000E+00  0.17445499642E+04  0.17445499642E+04  0.50400001928E-02 0.  1.
       -1   -1    0    0    0  501  0.00000000000E+00  0.00000000000E+00 -0.38195352872E+03  0.38195352875E+03  0.50400001928E-02 0. -1.
    10030    2    1    2    0    0  0.00000000000E+00  0.00000000000E+00  0.13625964355E+04  0.21265034930E+04  0.16325893726E+04 0.  0.
        1    1    3    3  502    0  0.54783595223E+02  0.28064007773E+03 -0.31458856248E+03  0.42511887655E+03  0.50400001928E-02 0. -1.
       -1    1    3    3    0  502 -0.54783595223E+02 -0.28064007773E+03  0.16771849980E+04  0.17013846164E+04  0.50400001928E-02 0.  1.
</event>
<event>
 5   0  0.7025426E-04  0.1680355E+04  0.7818609E-02  0.8772649E-01
        2   -1    0    0  501    0  0.00000000000E+00  0.00000000000E+00  0.10276002606E+04  0.10276002606E+04  0.25500000920E-02 0.  1.
       -2   -1    0    0    0  501  0.00000000000E+00  0.00000000000E+00 -0.68693840882E+03  0.68693840882E+03  0.25500000920E-02 0. -1.
    10030    2    1    2    0    0  0.00000000000E+00  0.00000000000E+00  0.34066185173E+03  0.17145386694E+04  0.16803548291E+04 0.  0.
        2    1    3    3  502    0  0.18171416199E+03 -0.90379291639E+02  0.10022139713E+04  0.10225562563E+04  0.25500000920E-02 0.  1.
       -2    1    3    3    0  502 -0.18171416199E+03  0.90379291639E+02 -0.66155211959E+03  0.69198241305E+03  0.25500000920E-02 0. -1.
</event>
<event>
 5   0  0.6746664E-04  0.1680923E+04  0.7818609E-02  0.8772320E-01
        2   -1    0    0  501    0  0.00000000000E+00  0.00000000000E+00  0.77871262393E+03  0.77871262394E+03  0.25500000920E-02 0. -1.
       -2   -1    0    0    0  501  0.00000000000E+00  0.00000000000E+00 -0.90710670047E+03  0.90710670048E+03  0.25500000920E-02 0.  1.
    10030    2    1    2    0    0  0.00000000000E+00  0.00000000000E+00 -0.12839407654E+03  0.16858193244E+04  0.16809228881E+04 0.  0.
        5    1    3    3  502    0  0.36620148718E+03 -0.21701274018E+03  0.66258989308E+03  0.78755667417E+03  0.46999998093E+01 0. -1.
       -5    1    3    3    0  502 -0.36620148718E+03  0.21701274018E+03 -0.79098396963E+03  0.89826265024E+03  0.46999998093E+01 0.  1.
</event>
<event>
 5   0  0.6746664E-04  0.1627413E+04  0.7818609E-02  0.8803882E-01
        2   -1    0    0  501    0  0.00000000000E+00  0.00000000000E+00  0.12401009311E+04  0.12401009311E+04  0.25500000920E-02 0.  1.
       -2   -1    0    0    0  501  0.00000000000E+00  0.00000000000E+00 -0.53392307056E+03  0.53392307056E+03  0.25500000920E-02 0. -1.
    10030    2    1    2    0    0  0.00000000000E+00  0.00000000000E+00  0.70617786052E+03  0.17740240016E+04  0.16274132812E+04 0.  0.
        5    1    3    3  502    0 -0.60618803580E+03 -0.48861459747E+03  0.61079335805E+03  0.98959525860E+03  0.46999998093E+01 0.  1.
       -5    1    3    3    0  502  0.60618803580E+03  0.48861459747E+03  0.95384502473E+02  0.78442874305E+03  0.46999998093E+01 0. -1.
</event>
<event>
 5   0  0.6746664E-04  0.1631382E+04  0.7818609E-02  0.8801498E-01
       -2   -1    0    0    0  501  0.00000000000E+00  0.00000000000E+00  0.89975349760E+03  0.89975349761E+03  0.25500000920E-02 0.  1.
        2   -1    0    0  501    0  0.00000000000E+00  0.00000000000E+00 -0.73948206878E+03  0.73948206879E+03  0.25500000920E-02 0. -1.
    10030    2    1    2    0    0  0.00000000000E+00  0.00000000000E+00  0.16027142882E+03  0.16392355664E+04  0.16313817184E+04 0.  0.
        5    1    3    3  502    0  0.64313291932E+03  0.31523262082E+03  0.47231965246E+03  0.85796241249E+03  0.46999998093E+01 0.  1.
       -5    1    3    3    0  502 -0.64313291932E+03 -0.31523262082E+03 -0.31204822364E+03  0.78127315391E+03  0.46999998093E+01 0. -1.
</event>
<event>
 5   0  0.3723500E-04  0.1695166E+04  0.7818609E-02  0.8764126E-01
       -1   -1    0    0    0  501  0.00000000000E+00  0.00000000000E+00  0.13284120706E+04  0.13284120706E+04  0.50400001928E-02 0. -1.
        1   -1    0    0  501    0  0.00000000000E+00  0.00000000000E+00 -0.54079358208E+03  0.54079358210E+03  0.50400001928E-02 0.  1.
    10030    2    1    2    0    0  0.00000000000E+00  0.00000000000E+00  0.78761848855E+03  0.18692056527E+04  0.16951657408E+04 0.  0.
        1    1    3    3  502    0  0.31066045723E+02 -0.33168585008E+03  0.12531948508E+04  0.12967181407E+04  0.50400001928E-02 0. -1.
       -1    1    3    3    0  502 -0.31066045723E+02  0.33168585008E+03 -0.46557636224E+03  0.57248751204E+03  0.50400001928E-02 0.  1.
</event>
<event>
 5   0  0.3635143E-04  0.1570133E+04  0.7818609E-02  0.8839109E-01
        1   -1    0    0  501    0  0.00000000000E+00  0.00000000000E+00  0.15317285488E+04  0.15317285488E+04  0.50400001928E-02 0. -1.
       -1   -1    0    0    0  501  0.00000000000E+00  0.00000000000E+00 -0.40237527243E+03  0.40237527246E+03  0.50400001928E-02 0.  1.
    10030    2    1    2    0    0  0.00000000000E+00  0.00000000000E+00  0.11293532763E+04  0.19341038212E+04  0.15701333601E+04 0.  0.
        3    1    3    3  502    0  0.13276459452E+03  0.44895583978E+03  0.13409525243E+04  0.14203314635E+04  0.10100000352E+00 0. -1.
       -3    1    3    3    0  502 -0.13276459452E+03 -0.44895583978E+03 -0.21159924795E+03  0.51377235773E+03  0.10100000352E+00 0.  1.
</event>
<event>
 5   0  0.3635143E-04  0.1731596E+04  0.7818609E-02  0.8743546E-01
        1   -1    0    0  501    0  0.00000000000E+00  0.00000000000E+00  0.10871738906E+04  0.10871738906E+04  0.50400001928E-02 0. -1.
       -1   -1    0    0    0  501  0.00000000000E+00  0.00000000000E+00 -0.68949972746E+03  0.68949972748E+03  0.50400001928E-02 0.  1.
    10030    2    1    2    0    0  0.00000000000E+00  0.00000000000E+00  0.39767416315E+03  0.17766736181E+04  0.17315959128E+04 0.  0.
        3    1    3    3  502    0  0.37611194843E+03 -0.61121109651E+03  0.69576621098E+03  0.99956482171E+03  0.10100000352E+00 0. -1.
       -3    1    3    3    0  502 -0.37611194843E+03  0.61121109651E+03 -0.29809204784E+03  0.77710879640E+03  0.10100000352E+00 0.  1.
</event>
<event>
 5   0  0.7233728E-04  0.1696113E+04  0.7818609E-02  0.8763584E-01
       -2   -1    0    0    0  501  0.00000000000E+00  0.00000000000E+00  0.92145530977E+03  0.92145530978E+03  0.25500000920E-02 0. -1.
        2   -1    0    0  501    0  0.00000000000E+00  0.00000000000E+00 -0.78050440585E+03  0.78050440585E+03  0.25500000920E-02 0.  1.
    10030    2    1    2    0    0  0.00000000000E+00  0.00000000000E+00  0.14095090393E+03  0.17019597156E+04  0.16961131201E+04 0.  0.
        1    1    3    3  502    0 -0.20827221826E+03 -0.65948465140E+03  0.56298563290E+03  0.89176798844E+03  0.50400001928E-02 0. -1.
       -1    1    3    3    0  502  0.20827221826E+03  0.65948465140E+03 -0.42203472897E+03  0.81019172719E+03  0.50400001928E-02 0.  1.
</event>
<event>
 5   0  0.3713516E-04  0.1677505E+04  0.7818609E-02  0.8774299E-01
        1   -1    0    0  501    0  0.00000000000E+00  0.00000000000E+00  0.83060817251E+03  0.83060817253E+03  0.50400001928E-02 0.  1.
       -1   -1    0    0    0  501  0.00000000000E+00  0.00000000000E+00 -0.84697684765E+03  0.84697684766E+03  0.50400001928E-02 0. -1.
    10030    2    1    2    0    0  0.00000000000E+00  0.00000000000E+00 -0.16368675136E+02  0.16775850202E+04  0.16775051614E+04 0.  0.
        5    1    3    3  502    0 -0.19089429072E+03  0.26979783192E+01 -0.82494587146E+03  0.84676188515E+03  0.46999998093E+01 0. -1.
       -5    1    3    3    0  502  0.19089429072E+03 -0.26979783192E+01  0.80857719632E+03  0.83082313504E+03  0.46999998093E+01 0.  1.
</event>
<event>
 5   0  0.7233728E-04  0.1572019E+04  0.7818609E-02  0.8837924E-01
       -2   -1    0    0    0  501  0.00000000000E+00  0.00000000000E+00  0.96470246553E+03  0.96470246553E+03  0.25500000920E-02 0. -1.
        2   -1    0    0  501    0  0.00000000000E+00  0.00000000000E+00 -0.64041642630E+03  0.64041642630E+03  0.25500000920E-02 0.  1.
    10030    2    1    2    0    0  0.00000000000E+00  0.00000000000E+00  0.32428603923E+03  0.16051188918E+04  0.15720194724E+04 0.  0.
        1    1    3    3  502    0  0.30435256133E+03 -0.33381399663E+03  0.81891979079E+03  0.93524964031E+03  0.50400001928E-02 0. -1.
       -1    1    3    3    0  502 -0.30435256133E+03  0.33381399663E+03 -0.49463375156E+03  0.66986925152E+03  0.50400001928E-02 0.  1.
</event>
<event>
 5   0  0.7242144E-04  0.1684857E+04  0.7818609E-02  0.8770049E-01
       -2   -1    0    0    0  501  0.00000000000E+00  0.00000000000E+00  0.56473080546E+03  0.56473080547E+03  0.25500000920E-02 0. -1.
        2   -1    0    0  501    0  0.00000000000E+00  0.00000000000E+00 -0.12566790905E+04  0.12566790905E+04  0.25500000920E-02 0.  1.
    10030    2    1    2    0    0  0.00000000000E+00  0.00000000000E+00 -0.69194828506E+03  0.18214098960E+04  0.16848565458E+04 0.  0.
        3    1    3    3  502    0 -0.14769347765E+03 -0.36012391794E+03  0.46169405295E+03  0.60387416598E+03  0.10100000352E+00 0. -1.
       -3    1    3    3    0  502  0.14769347765E+03  0.36012391794E+03 -0.11536423380E+04  0.12175357300E+04  0.10100000352E+00 0.  1.
</event>
<event>
 5   0  0.7025426E-04  0.1489502E+04  0.7818609E-02  0.8891464E-01
        2   -1    0    0  501    0  0.00000000000E+00  0.00000000000E+00  0.19739418405E+04  0.19739418406E+04  0.25500000920E-02 0. -1.
       -2   -1    0    0    0  501  0.00000000000E+00  0.00000000000E+00 -0.28098802995E+03  0.28098802996E+03  0.25500000920E-02 0.  1.
    10030    2    1    2    0    0  0.00000000000E+00  0.00000000000E+00  0.16929538106E+04  0.22549298705E+04  0.14895019692E+04 0.  0.
        2    1    3    3  502    0 -0.45609636436E+03 -0.41368999606E+03  0.21228741737E+03  0.65132883707E+03  0.25500000920E-02 0.  1.
       -2    1    3    3    0  502  0.45609636436E+03  0.41368999606E+03  0.14806663932E+04  0.16036010334E+04  0.25500000920E-02 0. -1.
</event>
<event>
 5   0  0.3915701E-04  0.1719301E+04  0.7818609E-02  0.8750432E-01
        1   -1    0    0  501    0  0.00000000000E+00  0.00000000000E+00  0.10497899403E+04  0.10497899403E+04  0.50400001928E-02 0.  1.
       -1   -1    0    0    0  501  0.00000000000E+00  0.00000000000E+00 -0.70394929379E+03  0.70394929380E+03  0.50400001928E-02 0. -1.
    10030    2    1    2    0    0  0.00000000000E+00  0.00000000000E+00  0.34584064654E+03  0.17537392341E+04  0.17193008895E+04 0.  0.
        2    1    3    3  502    0  0.67897188464E+03 -0.19200741730E+03  0.67380535043E+03  0.97564507824E+03  0.25500000920E-02 0.  1.
       -2    1    3    3    0  502 -0.67897188464E+03  0.19200741730E+03 -0.32796470389E+03  0.77809415589E+03  0.25500000920E-02 0. -1.
</event>
<event>
 5   0  0.6746664E-04  0.1534344E+04  0.7818609E-02  0.8861930E-01
        2   -1    0    0  501    0  0.00000000000E+00  0.00000000000E+00  0.10357292354E+04  0.10357292354E+04  0.25500000920E-02 0. -1.
       -2   -1    0    0    0  501  0.00000000000E+00  0.00000000000E+00 -0.56824964996E+03  0.56824964996E+03  0.25500000920E-02 0.  1.
    10030    2    1    2    0    0  0.00000000000E+00  0.00000000000E+00  0.46747958540E+03  0.16039788853E+04  0.15343438669E+04 0.  0.
        5    1    3    3  502    0  0.10130692277E+03 -0.75832393234E+03  0.17448940552E+03  0.78472091956E+03  0.46999998093E+01 0.  1.
       -5    1    3    3    0  502 -0.10130692277E+03  0.75832393234E+03  0.29299017988E+03  0.81925796576E+03  0.46999998093E+01 0. -1.
</event>
<event>
 5   0  0.2639750E-04  0.1671279E+04  0.7818609E-02  0.8777917E-01
       -3   -1    0    0    0  501  0.00000000000E+00  0.00000000000E+00  0.12365979238E+04  0.12365979279E+04  0.10100000352E+00 0.  1.
        3   -1    0    0  501    0  0.00000000000E+00  0.00000000000E+00 -0.56468912246E+03  0.56468913149E+03  0.10100000352E+00 0. -1.
    10030    2    1    2    0    0  0.00000000000E+00  0.00000000000E+00  0.67190880136E+03  0.18012870594E+04  0.16712790411E+04 0.  0.
        1    1    3    3  502    0  0.50865628614E+03  0.66181781095E+03  0.29339364046E+03  0.88476768737E+03  0.50400001928E-02 0. -1.
       -1    1    3    3    0  502 -0.50865628614E+03 -0.66181781095E+03  0.37851516090E+03  0.91651937207E+03  0.50400001928E-02 0.  1.
</event>
<event>
 5   0  0.6746664E-04  0.1700493E+04  0.7818609E-02  0.8761083E-01
        2   -1    0    0  501    0  0.00000000000E+00  0.00000000000E+00  0.13175771071E+04  0.13175771071E+04  0.25500000920E-02 0. -1.
       -2   -1    0    0    0  501  0.00000000000E+00  0.00000000000E+00 -0.54867341144E+03  0.54867341145E+03  0.25500000920E-02 0.  1.
    10030    2    1    2    0    0  0.00000000000E+00  0.00000000000E+00  0.76890369565E+03  0.18662505185E+04  0.17004934886E+04 0.  0.
        5    1    3    3  502    0  0.11073381554E+03  0.72114772984E+01 -0.54067761679E+03  0.55196771519E+03  0.46999998093E+01 0.  1.
       -5    1    3    3    0  502 -0.11073381554E+03 -0.72114772984E+01  0.13095813124E+04  0.13142828034E+04  0.46999998093E+01 0. -1.
</event>
<event>
 5   0  0.7233728E-04  0.1699970E+04  0.7818609E-02  0.8761381E-01
       -2   -1    0    0    0  501  0.00000000000E+00  0.00000000000E+00  0.10078106133E+04  0.10078106134E+04  0.25500000920E-02 0.  1.
        2   -1    0    0  501    0  0.00000000000E+00  0.00000000000E+00 -0.71687544549E+03  0.71687544550E+03  0.25500000920E-02 0. -1.
    10030    2    1    2    0    0  0.00000000000E+00  0.00000000000E+00  0.29093516785E+03  0.17246860588E+04  0.16999702144E+04 0.  0.
        1    1    3    3  502    0 -0.79067179738E+03  0.21814549482E+03  0.37170143931E+03  0.90050613995E+03  0.50400001928E-02 0.  1.
       -1    1    3    3    0  502  0.79067179738E+03 -0.21814549482E+03 -0.80766271456E+02  0.82417991890E+03  0.50400001928E-02 0. -1.
</event>
<event>
 5   0  0.7049044E-04  0.1725302E+04  0.7818609E-02  0.8747064E-01
        2   -1    0    0  501    0  0.00000000000E+00  0.00000000000E+00  0.13886152761E+04  0.13886152761E+04  0.25500000920E-02 0.  1.
       -2   -1    0    0    0  501  0.00000000000E+00  0.00000000000E+00 -0.53590571471E+03  0.53590571471E+03  0.25500000920E-02 0. -1.
    10030    2    1    2    0    0  0.00000000000E+00  0.00000000000E+00  0.85270956140E+03  0.19245209908E+04  0.17253021324E+04 0.  0.
        4    1    3    3  502    0 -0.37505667389E+03 -0.45051772251E+03  0.11323078712E+04  0.12750515499E+04  0.12699999809E+01 0.  1.
       -4    1    3    3    0  502  0.37505667389E+03  0.45051772251E+03 -0.27959830979E+03  0.64946944090E+03  0.12699999809E+01 0. -1.
</event>
<event>
 5   0  0.3915701E-04  0.1729412E+04  0.7818609E-02  0.8744765E-01
       -1   -1    0    0    0  501  0.00000000000E+00  0.00000000000E+00  0.48821687566E+03  0.48821687569E+03  0.50400001928E-02 0.  1.
        1   -1    0    0  501    0  0.00000000000E+00  0.00000000000E+00 -0.15315253599E+04  0.15315253599E+04  0.50400001928E-02 0. -1.
    10030    2    1    2    0    0  0.00000000000E+00  0.00000000000E+00 -0.10433084842E+04  0.20197422356E+04  0.17294120691E+04 0.  0.
        2    1    3    3  502    0  0.99111792374E+02  0.73352560761E+03 -0.10437277746E+04  0.12795509493E+04  0.25500000920E-02 0.  1.
       -2    1    3    3    0  502 -0.99111792374E+02 -0.73352560761E+03  0.41929041026E+00  0.74019128624E+03  0.25500000920E-02 0. -1.
</event>
<event>
 5   0  0.3915701E-04  0.1083695E+04  0.7818609E-02  0.9221231E-01
        1   -1    0    0  501    0  0.00000000000E+00  0.00000000000E+00  0.71424486205E+03  0.71424486207E+03  0.50400001928E-02 0. -1.
       -1   -1    0    0    0  501  0.00000000000E+00  0.00000000000E+00 -0.41106185256E+03  0.41106185259E+03  0.50400001928E-02 0.  1.
    10030    2    1    2    0    0  0.00000000000E+00  0.00000000000E+00  0.30318300950E+03  0.11253067147E+04  0.10836951900E+04 0.  0.
        2    1    3    3  502    0  0.17415358763E+03 -0.48058085907E+03  0.33824732283E+03  0.61294264462E+03  0.25500000920E-02 0.  1.
       -2    1    3    3    0  502 -0.17415358763E+03  0.48058085907E+03 -0.35064313331E+02  0.51236407004E+03  0.25500000920E-02 0. -1.
</event>
<event>
 5   0  0.6746664E-04  0.1705937E+04  0.7818609E-02  0.8757986E-01
        2   -1    0    0  501    0  0.00000000000E+00  0.00000000000E+00  0.14400272324E+04  0.14400272324E+04  0.25500000920E-02 0. -1.
       -2   -1    0    0    0  501  0.00000000000E+00  0.00000000000E+00 -0.50523696711E+03  0.50523696712E+03  0.25500000920E-02 0.  1.
    10030    2    1    2    0    0  0.00000000000E+00  0.00000000000E+00  0.93479026529E+03  0.19452641995E+04  0.17059366828E+04 0.  0.
        5    1    3    3  502    0 -0.88849944649E+02  0.65069012288E+03 -0.15324268353E+03  0.67438665373E+03  0.46999998093E+01 0. -1.
       -5    1    3    3    0  502  0.88849944649E+02 -0.65069012288E+03  0.10880329488E+04  0.12708775458E+04  0.46999998093E+01 0.  1.
</event>
<event>
 5   0  0.7242144E-04  0.1707301E+04  0.7818609E-02  0.8757211E-01
       -2   -1    0    0    0  501  0.00000000000E+00  0.00000000000E+00  0.47562542938E+03  0.47562542939E+03  0.25500000920E-02 0.  1.
        2   -1    0    0  501    0  0.00000000000E+00  0.00000000000E+00 -0.15321291648E+04  0.15321291648E+04  0.25500000920E-02 0. -1.
    10030    2    1    2    0    0  0.00000000000E+00  0.00000000000E+00 -0.10565037354E+04  0.20077545942E+04  0.17073014870E+04 0.  0.
        3    1    3    3  502    0  0.12415116398E+03 -0.76602371443E+03 -0.94653394436E+03  0.12239821733E+04  0.10100000352E+00 0. -1.
       -3    1    3    3    0  502 -0.12415116398E+03  0.76602371443E+03 -0.10996979109E+03  0.78377242089E+03  0.10100000352E+00 0.  1.
</event>
<event>
 5   0  0.3915701E-04  0.1691529E+04  0.7818609E-02  0.8766211E-01
       -1   -1    0    0    0  501  0.00000000000E+00  0.00000000000E+00  0.65904372615E+03  0.65904372617E+03  0.50400001928E-02 0.  1.
        1   -1    0    0  501    0  0.00000000000E+00  0.00000000000E+00 -0.10853869932E+04  0.10853869932E+04  0.50400001928E-02 0. -1.
    10030    2    1    2    0    0  0.00000000000E+00  0.00000000000E+00 -0.42634326702E+03  0.17444307194E+04  0.16915288804E+04 0.  0.
        2    1    3    3  502    0  0.81806287290E+03 -0.64084838572E+02 -0.18641088234E+01  0.82057126776E+03  0.25500000920E-02 0.  1.
       -2    1    3    3    0  502 -0.81806287290E+03  0.64084838572E+02 -0.42447915820E+03  0.92385945160E+03  0.25500000920E-02 0. -1.
</event>
<event>
 5   0  0.7049044E-04  0.1694802E+04  0.7818609E-02  0.8764334E-01
       -2   -1    0    0    0  501  0.00000000000E+00  0.00000000000E+00  0.42855532715E+03  0.42855532715E+03  0.25500000920E-02 0.  1.
        2   -1    0    0  501    0  0.00000000000E+00  0.00000000000E+00 -0.16756035230E+04  0.16756035230E+04  0.25500000920E-02 0. -1.
    10030    2    1    2    0    0  0.00000000000E+00  0.00000000000E+00 -0.12470481958E+04  0.21041588501E+04  0.16948024262E+04 0.  0.
        4    1    3    3  502    0 -0.31335705469E+03  0.15288836311E+03  0.33537264676E+03  0.48378085989E+03  0.12699999809E+01 0.  1.
       -4    1    3    3    0  502  0.31335705469E+03 -0.15288836311E+03 -0.15824208426E+04  0.16203779902E+04  0.12699999809E+01 0. -1.
</event>
<event>
 5   0  0.3915701E-04  0.1700617E+04  0.7818609E-02  0.8761013E-01
        1   -1    0    0  501    0  0.00000000000E+00  0.00000000000E+00  0.11144429620E+04  0.11144429620E+04  0.50400001928E-02 0. -1.
       -1   -1    0    0    0  501  0.00000000000E+00  0.00000000000E+00 -0.64877657240E+03  0.64877657242E+03  0.50400001928E-02 0.  1.
    10030    2    1    2    0    0  0.00000000000E+00  0.00000000000E+00  0.46566638963E+03  0.17632195345E+04  0.17006169293E+04 0.  0.
        2    1    3    3  502    0  0.73488329543E+03  0.29446014522E+03  0.55451937700E+03  0.96656710812E+03  0.25500000920E-02 0.  1.
       -2    1    3    3    0  502 -0.73488329543E+03 -0.29446014522E+03 -0.88852987368E+02  0.79665242634E+03  0.25500000920E-02 0. -1.
</event>
<event>
 5   0  0.3635143E-04  0.1713778E+04  0.7818609E-02  0.8753545E-01
        1   -1    0    0  501    0  0.00000000000E+00  0.00000000000E+00  0.71055435070E+03  0.71055435072E+03  0.50400001928E-02 0.  1.
       -1   -1    0    0    0  501  0.00000000000E+00  0.00000000000E+00 -0.10333606992E+04  0.10333606992E+04  0.50400001928E-02 0. -1.
    10030    2    1    2    0    0  0.00000000000E+00  0.00000000000E+00 -0.32280634849E+03  0.17439150499E+04  0.17137782128E+04 0.  0.
        3    1    3    3  502    0 -0.39860383878E+03  0.75778147923E+03 -0.12702837593E+03  0.86559459855E+03  0.10100000352E+00 0.  1.
       -3    1    3    3    0  502  0.39860383878E+03 -0.75778147923E+03 -0.19577797256E+03  0.87832045137E+03  0.10100000352E+00 0. -1.
</event>
<event>
 5   0  0.7233728E-04  0.1693727E+04  0.7818609E-02  0.8764950E-01
        2   -1    0    0  501    0  0.00000000000E+00  0.00000000000E+00  0.21460484775E+04  0.21460484775E+04  0.25500000920E-02 0.  1.
       -2   -1    0    0    0  501  0.00000000000E+00  0.00000000000E+00 -0.33418536303E+03  0.33418536304E+03  0.25500000920E-02 0. -1.
    10030    2    1    2    0    0  0.00000000000E+00  0.00000000000E+00  0.18118631145E+04  0.24802338406E+04  0.16937272384E+04 0.  0.
        1    1    3    3  502    0  0.51244851501E+03  0.67127968761E+03  0.99805963063E+03  0.13074184203E+04  0.50400001928E-02 0.  1.
       -1    1    3    3    0  502 -0.51244851501E+03 -0.67127968761E+03  0.81380348387E+03  0.11728154202E+04  0.50400001928E-02 0. -1.
</event>
<event>
 5   0  0.3915701E-04  0.1744581E+04  0.7818609E-02  0.8736339E-01
       -1   -1    0    0    0  501  0.00000000000E+00  0.00000000000E+00  0.63989913439E+03  0.63989913441E+03  0.50400001928E-02 0.  1.
        1   -1    0    0  501    0  0.00000000000E+00  0.00000000000E+00 -0.11890789089E+04  0.11890789089E+04  0.50400001928E-02 0. -1.
    10030    2    1    2    0    0  0.00000000000E+00  0.00000000000E+00 -0.54917977455E+03  0.18289780434E+04  0.17445808260E+04 0.  0.
        2    1    3    3  502    0  0.30890738730E+03 -0.47950496199E+03 -0.96647232792E+03  0.11222377391E+04  0.25500000920E-02 0. -1.
       -2    1    3    3    0  502 -0.30890738730E+03  0.47950496199E+03  0.41729255337E+03  0.70674030422E+03  0.25500000920E-02 0.  1.
</event>
<event>
 5   0  0.7233728E-04  0.1635942E+04  0.7818609E-02  0.8798767E-01
       -2   -1    0    0    0  501  0.00000000000E+00  0.00000000000E+00  0.39630695442E+03  0.39630695443E+03  0.25500000920E-02 0.  1.
        2   -1    0    0  501    0  0.00000000000E+00  0.00000000000E+00 -0.16882777616E+04  0.16882777616E+04  0.25500000920E-02 0. -1.
    10030    2    1    2    0    0  0.00000000000E+00  0.00000000000E+00 -0.12919708072E+04  0.20845847160E+04  0.16359415857E+04 0.  0.
        1    1    3    3  502    0 -0.13047016234E+03 -0.36487273907E+03 -0.15639007852E+04  0.16111921813E+04  0.50400001928E-02 0. -1.
       -1    1    3    3    0  502  0.13047016234E+03  0.36487273907E+03  0.27192997805E+03  0.47339253475E+03  0.50400001928E-02 0.  1.
</event>
<event>
 5   0  0.7242144E-04  0.1603176E+04  0.7818609E-02  0.8818599E-01
       -2   -1    0    0    0  501  0.00000000000E+00  0.00000000000E+00  0.43237694062E+03  0.43237694063E+03  0.25500000920E-02 0. -1.
        2   -1    0    0  501    0  0.00000000000E+00  0.00000000000E+00 -0.14860726829E+04  0.14860726829E+04  0.25500000920E-02 0.  1.
    10030    2    1    2    0    0  0.00000000000E+00  0.00000000000E+00 -0.10536957423E+04  0.19184496235E+04  0.16031762975E+04 0.  0.
        3    1    3    3  502    0  0.32195862237E+01  0.20972244551E+03 -0.14526522227E+04  0.14677167166E+04  0.10100000352E+00 0.  1.
       -3    1    3    3    0  502 -0.32195862237E+01 -0.20972244551E+03  0.39895648044E+03  0.45073290691E+03  0.10100000352E+00 0. -1.
</event>
<event>
 5   0  0.3723500E-04  0.1735792E+04  0.7818609E-02  0.8741210E-01
        1   -1    0    0  501    0  0.00000000000E+00  0.00000000000E+00  0.37772278909E+03  0.37772278912E+03  0.50400001928E-02 0.  1.
       -1   -1    0    0    0  501  0.00000000000E+00  0.00000000000E+00 -0.19941707690E+04  0.19941707690E+04  0.50400001928E-02 0. -1.
    10030    2    1    2    0    0  0.00000000000E+00  0.00000000000E+00 -0.16164479799E+04  0.23718935582E+04  0.17357923203E+04 0.  0.
        1    1    3    3  502    0 -0.11771366441E+03  0.50129092900E+03  0.14643760866E+03  0.53534388531E+03  0.50400001928E-02 0.  1.
       -1    1    3    3    0  502  0.11771366441E+03 -0.50129092900E+03 -0.17628855886E+04  0.18365496728E+04  0.50400001928E-02 0. -1.
</event>
<event>
 5   0  0.3723500E-04  0.1731985E+04  0.7818609E-02  0.8743330E-01
        1   -1    0    0  501    0  0.00000000000E+00  0.00000000000E+00  0.49996724488E+03  0.49996724491E+03  0.50400001928E-02 0. -1.
       -1   -1    0    0    0  501  0.00000000000E+00  0.00000000000E+00 -0.14999842159E+04  0.14999842159E+04  0.50400001928E-02 0.  1.
    10030    2    1    2    0    0  0.00000000000E+00  0.00000000000E+00 -0.10000169711E+04  0.19999514609E+04  0.17319849605E+04 0.  0.
        1    1    3    3  502    0  0.54731813929E+02  0.27963092594E+03 -0.14443052874E+04  0.14721436035E+04  0.50400001928E-02 0.  1.
       -1    1    3    3    0  502 -0.54731813929E+02 -0.27963092594E+03  0.44428831634E+03  0.52780785733E+03  0.50400001928E-02 0. -1.
</event>
<event>
 5   0  0.7233728E-04  0.1706190E+04  0.7818609E-02  0.8757842E-01
        2   -1    0    0  501    0  0.00000000000E+00  0.00000000000E+00  0.96876318228E+03  0.96876318229E+03  0.25500000920E-02 0. -1.
       -2   -1    0    0    0  501  0.00000000000E+00  0.00000000000E+00 -0.75123715009E+03  0.75123715010E+03  0.25500000920E-02 0.  1.
    10030    2    1    2    0    0  0.00000000000E+00  0.00000000000E+00  0.21752603219E+03  0.17200003324E+04  0.17061897810E+04 0.  0.
        1    1    3    3  502    0  0.83946259296E+03  0.27815874672E+02 -0.41776647466E+02  0.84096162586E+03  0.50400001928E-02 0. -1.
       -1    1    3    3    0  502 -0.83946259296E+03 -0.27815874672E+02  0.25930267966E+03  0.87903870653E+03  0.50400001928E-02 0.  1.
</event>
<event>
 5   0  0.3915701E-04  0.1685832E+04  0.7818609E-02  0.8769487E-01
       -1   -1    0    0    0  501  0.00000000000E+00  0.00000000000E+00  0.68192800100E+03  0.68192800102E+03  0.50400001928E-02 0. -1.
        1   -1    0    0  501    0  0.00000000000E+00  0.00000000000E+00 -0.10419091463E+04  0.10419091463E+04  0.50400001928E-02 0.  1.
    10030    2    1    2    0    0  0.00000000000E+00  0.00000000000E+00 -0.35998114530E+03  0.17238371473E+04  0.16858315709E+04 0.  0.
        2    1    3    3  502    0  0.48181923387E+03  0.31999600013E+02 -0.88645924230E+03  0.10094472432E+04  0.25500000920E-02 0.  1.
       -2    1    3    3    0  502 -0.48181923387E+03 -0.31999600013E+02  0.52647809700E+03  0.71438990415E+03  0.25500000920E-02 0. -1.
</event>
<event>
 5   0  0.3723500E-04  0.1712073E+04  0.7818609E-02  0.8754509E-01
        1   -1    0    0  501    0  0.00000000000E+00  0.00000000000E+00  0.12420519743E+04  0.12420519743E+04  0.50400001928E-02 0. -1.
       -1   -1    0    0    0  501  0.00000000000E+00  0.00000000000E+00 -0.58999015794E+03  0.58999015796E+03  0.50400001928E-02 0.  1.
    10030    2    1    2    0    0  0.00000000000E+00  0.00000000000E+00  0.65206181636E+03  0.18320421323E+04  0.17120729430E+04 0.  0.
        1    1    3    3  502    0 -0.22729545383E+03 -0.54490227426E+03 -0.33725585162E+03  0.67994354273E+03  0.50400001928E-02 0.  1.
       -1    1    3    3    0  502  0.22729545383E+03  0.54490227426E+03  0.98931766797E+03  0.11520985895E+04  0.50400001928E-02 0. -1.
</event>
<event>
 5   0  0.7242144E-04  0.1659526E+04  0.7818609E-02  0.8784791E-01
       -2   -1    0    0    0  501  0.00000000000E+00  0.00000000000E+00  0.57712603458E+03  0.57712603458E+03  0.25500000920E-02 0.  1.
        2   -1    0    0  501    0  0.00000000000E+00  0.00000000000E+00 -0.11929911291E+04  0.11929911291E+04  0.25500000920E-02 0. -1.
    10030    2    1    2    0    0  0.00000000000E+00  0.00000000000E+00 -0.61586509453E+03  0.17701171637E+04  0.16595255221E+04 0.  0.
        3    1    3    3  502    0  0.49290169362E+03  0.48729820110E+03 -0.79450609623E+03  0.10543488813E+04  0.10100000352E+00 0. -1.
       -3    1    3    3    0  502 -0.49290169362E+03 -0.48729820110E+03  0.17864100170E+03  0.71576828238E+03  0.10100000352E+00 0.  1.
</event>
<event>
 5   0  0.3803253E-04  0.1627084E+04  0.7818609E-02  0.8804080E-01
        1   -1    0    0  501    0  0.00000000000E+00  0.00000000000E+00  0.13435682852E+04  0.13435682852E+04  0.50400001928E-02 0. -1.
       -1   -1    0    0    0  501  0.00000000000E+00  0.00000000000E+00 -0.49260660913E+03  0.49260660916E+03  0.50400001928E-02 0.  1.
    10030    2    1    2    0    0  0.00000000000E+00  0.00000000000E+00  0.85096167605E+03  0.18361748943E+04  0.16270840386E+04 0.  0.
        4    1    3    3  502    0  0.46952023436E+03 -0.66434693804E+03  0.41808936321E+03  0.91466192283E+03  0.12699999809E+01 0.  1.
       -4    1    3    3    0  502 -0.46952023436E+03  0.66434693804E+03  0.43287231284E+03  0.92151297151E+03  0.12699999809E+01 0. -1.
</event>
<event>
 5   0  0.3723500E-04  0.1532379E+04  0.7818609E-02  0.8863202E-01
       -1   -1    0    0    0  501  0.00000000000E+00  0.00000000000E+00  0.72050674652E+03  0.72050674654E+03  0.50400001928E-02 0.  1.
        1   -1    0    0  501    0  0.00000000000E+00  0.00000000000E+00 -0.81476831595E+03  0.81476831597E+03  0.50400001928E-02 0. -1.
    10030    2    1    2    0    0  0.00000000000E+00  0.00000000000E+00 -0.94261569433E+02  0.15352750625E+04  0.15323786327E+04 0.  0.
        1    1    3    3  502    0 -0.47954017541E+03 -0.58632670716E+03 -0.16271035929E+03  0.77473379196E+03  0.50400001928E-02 0.  1.
       -1    1    3    3    0  502  0.47954017541E+03  0.58632670716E+03  0.68448789860E+02  0.76054127055E+03  0.50400001928E-02 0. -1.
</event>
<event>
 5   0  0.3803253E-04  0.1649594E+04  0.7818609E-02  0.8790647E-01
        1   -1    0    0  501    0  0.00000000000E+00  0.00000000000E+00  0.48782766256E+03  0.48782766259E+03  0.50400001928E-02 0. -1.
       -1   -1    0    0    0  501  0.00000000000E+00  0.00000000000E+00 -0.13945293422E+04  0.13945293422E+04  0.50400001928E-02 0.  1.
    10030    2    1    2    0    0  0.00000000000E+00  0.00000000000E+00 -0.90670167959E+03  0.18823570047E+04  0.16495938766E+04 0.  0.
        4    1    3    3  502    0  0.13368473805E+03  0.58290672621E+03  0.19480840261E+03  0.62897041844E+03  0.12699999809E+01 0. -1.
       -4    1    3    3    0  502 -0.13368473805E+03 -0.58290672621E+03 -0.11015100822E+04  0.12533865863E+04  0.12699999809E+01 0.  1.
</event>
<event>
 5   0  0.7025426E-04  0.1144221E+04  0.7818609E-02  0.9163132E-01
        2   -1    0    0  501    0  0.00000000000E+00  0.00000000000E+00  0.99346173125E+03  0.99346173125E+03  0.25500000920E-02 0.  1.
       -2   -1    0    0    0  501  0.00000000000E+00  0.00000000000E+00 -0.32946451933E+03  0.32946451934E+03  0.25500000920E-02 0. -1.
    10030    2    1    2    0    0  0.00000000000E+00  0.00000000000E+00  0.66399721192E+03  0.13229262506E+04  0.11442209433E+04 0.  0.
        2    1    3    3  502    0 -0.10191697159E+02 -0.30556543760E+03 -0.22709135271E+03  0.38084720011E+03  0.25500000920E-02 0. -1.
       -2    1    3    3    0  502  0.10191697159E+02  0.30556543760E+03  0.89108856462E+03  0.94207905048E+03  0.25500000920E-02 0.  1.
</event>
<event>
 5   0  0.7049044E-04  0.1686139E+04  0.7818609E-02  0.8769310E-01
       -2   -1    0    0    0  501  0.00000000000E+00  0.00000000000E+00  0.61690472016E+03  0.61690472016E+03  0.25500000920E-02 0.  1.
        2   -1    0    0  501    0  0.00000000000E+00  0.00000000000E+00 -0.11521488550E+04  0.11521488550E+04  0.25500000920E-02 0. -1.
    10030    2    1    2    0    0  0.00000000000E+00  0.00000000000E+00 -0.53524413480E+03  0.17690535751E+04  0.16861388637E+04 0.  0.
        4    1    3    3  502    0 -0.34207889824E+03  0.64876998256E+03 -0.70381114865E+03  0.10164999797E+04  0.12699999809E+01 0. -1.
       -4    1    3    3    0  502  0.34207889824E+03 -0.64876998256E+03  0.16856701386E+03  0.75255359540E+03  0.12699999809E+01 0.  1.
</event>
<event>
 5   0  0.7242144E-04  0.1833458E+04  0.7818609E-02  0.8688706E-01
       -2   -1    0    0    0  501  0.00000000000E+00  0.00000000000E+00  0.36024135456E+03  0.36024135457E+03  0.25500000920E-02 0. -1.
        2   -1    0    0  501    0  0.00000000000E+00  0.00000000000E+00 -0.23328587375E+04  0.23328587375E+04  0.25500000920E-02 0.  1.
    10030    2    1    2    0    0  0.00000000000E+00  0.00000000000E+00 -0.19726173829E+04  0.26931000920E+04  0.18334581442E+04 0.  0.
        3    1    3    3  502    0 -0.13171885826E+03  0.12291494934E+03 -0.23065992007E+04  0.23136243916E+04  0.10100000352E+00 0.  1.
       -3    1    3    3    0  502  0.13171885826E+03 -0.12291494934E+03  0.33398181782E+03  0.37947570045E+03  0.10100000352E+00 0. -1.
</event>
<event>
 5   0  0.3635143E-04  0.1696539E+04  0.7818609E-02  0.8763341E-01
        1   -1    0    0  501    0  0.00000000000E+00  0.00000000000E+00  0.11134968340E+04  0.11134968340E+04  0.50400001928E-02 0. -1.
       -1   -1    0    0    0  501  0.00000000000E+00  0.00000000000E+00 -0.64621745983E+03  0.64621745985E+03  0.50400001928E-02 0.  1.
    10030    2    1    2    0    0  0.00000000000E+00  0.00000000000E+00  0.46727937419E+03  0.17597142939E+04  0.16965389422E+04 0.  0.
        3    1    3    3  502    0  0.60810572187E+03  0.24866702647E+03  0.79021536091E+03  0.10276517824E+04  0.10100000352E+00 0. -1.
       -3    1    3    3    0  502 -0.60810572187E+03 -0.24866702647E+03 -0.32293598673E+03  0.73206251150E+03  0.10100000352E+00 0.  1.
</event>
<event>
 5   0  0.6746664E-04  0.1678976E+04  0.7818609E-02  0.8773447E-01
       -2   -1    0    0    0  501  0.00000000000E+00  0.00000000000E+00  0.50673158623E+03  0.50673158624E+03  0.25500000920E-02 0. -1.
        2   -1    0    0  501    0  0.00000000000E+00  0.00000000000E+00 -0.13907565828E+04  0.13907565828E+04  0.25500000920E-02 0.  1.
    10030    2    1    2    0    0  0.00000000000E+00  0.00000000000E+00 -0.88402499653E+03  0.18974881690E+04  0.16789762229E+04 0.  0.
        5    1    3    3  502    0 -0.61123600617E+03  0.18380017134E+03  0.17422929836E+03  0.66164181898E+03  0.46999998093E+01 0. -1.
       -5    1    3    3    0  502  0.61123600617E+03 -0.18380017134E+03 -0.10582542949E+04  0.12358463500E+04  0.46999998093E+01 0.  1.
</event>
<event>
 5   0  0.7025426E-04  0.1570341E+04  0.7818609E-02  0.8838979E-01
       -2   -1    0    0    0  501  0.00000000000E+00  0.00000000000E+00  0.12554738490E+04  0.12554738490E+04  0.25500000920E-02 0. -1.
        2   -1    0    0  501    0  0.00000000000E+00  0.00000000000E+00 -0.49104381796E+03  0.49104381797E+03  0.25500000920E-02 0.  1.
    10030    2    1    2    0    0  0.00000000000E+00  0.00000000000E+00  0.76443003100E+03  0.17465176669E+04  0.15703409466E+04 0.  0.
        2    1    3    3  502    0  0.26073651370E+03 -0.28988515010E+03 -0.37576987187E+03  0.54149785451E+03  0.25500000920E-02 0.  1.
       -2    1    3    3    0  502 -0.26073651370E+03  0.28988515010E+03  0.11401999029E+04  0.12050198124E+04  0.25500000920E-02 0. -1.
</event>
<event>
 5   0  0.3635143E-04  0.1702204E+04  0.7818609E-02  0.8760108E-01
       -1   -1    0    0    0  501  0.00000000000E+00  0.00000000000E+00  0.62845746379E+03  0.62845746381E+03  0.50400001928E-02 0. -1.
        1   -1    0    0  501    0  0.00000000000E+00  0.00000000000E+00 -0.11526232809E+04  0.11526232809E+04  0.50400001928E-02 0.  1.
    10030    2    1    2    0    0  0.00000000000E+00  0.00000000000E+00 -0.52416581711E+03  0.17810807447E+04  0.17022041051E+04 0.  0.
        3    1    3    3  502    0 -0.22303651692E+03  0.76671752684E+03  0.46140686979E+02  0.79983124910E+03  0.10100000352E+00 0. -1.
       -3    1    3    3    0  502  0.22303651692E+03 -0.76671752684E+03 -0.57030650409E+03  0.98124949562E+03  0.10100000352E+00 0.  1.
</event>
<event>
 5   0  0.6746664E-04  0.1678342E+04  0.7818609E-02  0.8773814E-01
       -2   -1    0    0    0  501  0.00000000000E+00  0.00000000000E+00  0.65581537690E+03  0.65581537690E+03  0.25500000920E-02 0.  1.
        2   -1    0    0  501    0  0.00000000000E+00  0.00000000000E+00 -0.10737901310E+04  0.10737901311E+04  0.25500000920E-02 0. -1.
    10030    2    1    2    0    0  0.00000000000E+00  0.00000000000E+00 -0.41797475415E+03  0.17296055080E+04  0.16783421338E+04 0.  0.
        5    1    3    3  502    0 -0.39784385033E+03 -0.51356993306E+03  0.33841700594E+03  0.73251755289E+03  0.46999998093E+01 0.  1.
       -5    1    3    3    0  502  0.39784385033E+03  0.51356993306E+03 -0.75639176009E+03  0.99708795506E+03  0.46999998093E+01 0. -1.
</event>
<event>
 5   0  0.3713516E-04  0.1696105E+04  0.7818609E-02  0.8763589E-01
       -1   -1    0    0    0  501  0.00000000000E+00  0.00000000000E+00  0.50021779721E+03  0.50021779723E+03  0.50400001928E-02 0. -1.
        1   -1    0    0  501    0  0.00000000000E+00  0.00000000000E+00 -0.14377590737E+04  0.14377590737E+04  0.50400001928E-02 0.  1.
    10030    2    1    2    0    0  0.00000000000E+00  0.00000000000E+00 -0.93754127650E+03  0.19379768709E+04  0.16961045685E+04 0.  0.
        5    1    3    3  502    0 -0.65907672370E+03  0.47113434669E+03 -0.75515414047E+03  0.11075330994E+04  0.46999998093E+01 0.  1.
       -5    1    3    3    0  502  0.65907672370E+03 -0.47113434669E+03 -0.18238713602E+03  0.83044377157E+03  0.46999998093E+01 0. -1.
</event>
<event>
 5   0  0.6746664E-04  0.1704812E+04  0.7818609E-02  0.8758624E-01
       -2   -1    0    0    0  501  0.00000000000E+00  0.00000000000E+00  0.47297217339E+03  0.47297217339E+03  0.25500000920E-02 0. -1.
        2   -1    0    0  501    0  0.00000000000E+00  0.00000000000E+00 -0.15362349410E+04  0.15362349410E+04  0.25500000920E-02 0.  1.
    10030    2    1    2    0    0  0.00000000000E+00  0.00000000000E+00 -0.10632627676E+04  0.20092071144E+04  0.17048124576E+04 0.  0.
        5    1    3    3  502    0 -0.83782402402E+03 -0.11185846977E+03 -0.40192189740E+03  0.93596191915E+03  0.46999998093E+01 0.  1.
       -5    1    3    3    0  502  0.83782402402E+03  0.11185846977E+03 -0.66134087020E+03  0.10732451952E+04  0.46999998093E+01 0. -1.
</event>
<event>
 5   0  0.7233728E-04  0.1741584E+04  0.7818609E-02  0.8737997E-01
       -2   -1    0    0    0  501  0.00000000000E+00  0.00000000000E+00  0.41887283436E+03  0.41887283437E+03  0.25500000920E-02 0. -1.
        2   -1    0    0  501    0  0.00000000000E+00  0.00000000000E+00 -0.18102831712E+04  0.18102831712E+04  0.25500000920E-02 0.  1.
    10030    2    1    2    0    0  0.00000000000E+00  0.00000000000E+00 -0.13914103369E+04  0.22291560056E+04  0.17415836964E+04 0.  0.
        1    1    3    3  502    0  0.76891657462E+03  0.16924318995E+03 -0.21952855759E+03  0.81735472329E+03  0.50400001928E-02 0.  1.
       -1    1    3    3    0  502 -0.76891657462E+03 -0.16924318995E+03 -0.11718817793E+04  0.14118012823E+04  0.50400001928E-02 0. -1.
</event>
<event>
 5   0  0.7049044E-04  0.1718831E+04  0.7818609E-02  0.8750697E-01
        2   -1    0    0  501    0  0.00000000000E+00  0.00000000000E+00  0.14213674950E+04  0.14213674950E+04  0.25500000920E-02 0.  1.
       -2   -1    0    0    0  501  0.00000000000E+00  0.00000000000E+00 -0.51963705138E+03  0.51963705139E+03  0.25500000920E-02 0. -1.
    10030    2    1    2    0    0  0.00000000000E+00  0.00000000000E+00  0.90173044358E+03  0.19410045464E+04  0.17188312471E+04 0.  0.
        4    1    3    3  502    0  0.42260769217E+03 -0.48494203652E+03  0.10944707235E+04  0.12695014052E+04  0.12699999809E+01 0.  1.
       -4    1    3    3    0  502 -0.42260769217E+03  0.48494203652E+03 -0.19274027988E+03  0.67150314121E+03  0.12699999809E+01 0. -1.
</event>
<event>
 5   0  0.3635143E-04  0.1748498E+04  0.7818609E-02  0.8734177E-01
        1   -1    0    0  501    0  0.00000000000E+00  0.00000000000E+00  0.11687031405E+04  0.11687031405E+04  0.50400001928E-02 0. -1.
       -1   -1    0    0    0  501  0.00000000000E+00  0.00000000000E+00 -0.65398247679E+03  0.65398247681E+03  0.50400001928E-02 0.  1.
    10030    2    1    2    0    0  0.00000000000E+00  0.00000000000E+00  0.51472066370E+03  0.18226856173E+04  0.17484980692E+04 0.  0.
        3    1    3    3  502    0  0.14877924283E+03 -0.72188367256E+03 -0.23275891301E+03  0.77293468132E+03  0.10100000352E+00 0.  1.
       -3    1    3    3    0  502 -0.14877924283E+03  0.72188367256E+03  0.74747957671E+03  0.10497509360E+04  0.10100000352E+00 0. -1.
</event>
<event>
 5   0  0.3803253E-04  0.1699751E+04  0.7818609E-02  0.8761506E-01
        1   -1    0    0  501    0  0.00000000000E+00  0.00000000000E+00  0.13514015936E+04  0.13514015936E+04  0.50400001928E-02 0.  1.
       -1   -1    0    0    0  501  0.00000000000E+00  0.00000000000E+00 -0.53447344318E+03  0.53447344320E+03  0.50400001928E-02 0. -1.
    10030    2    1    2    0    0  0.00000000000E+00  0.00000000000E+00  0.81692815039E+03  0.18858750368E+04  0.16997508792E+04 0.  0.
        4    1    3    3  502    0 -0.26001164911E+03  0.64962403617E+03 -0.12671249171E+03  0.71110837043E+03  0.12699999809E+01 0. -1.
       -4    1    3    3    0  502  0.26001164911E+03 -0.64962403617E+03  0.94364064210E+03  0.11747666663E+04  0.12699999809E+01 0.  1.
</event>
<event>
 5   0  0.7233728E-04  0.1673257E+04  0.7818609E-02  0.8776766E-01
        2   -1    0    0  501    0  0.00000000000E+00  0.00000000000E+00  0.21821731073E+04  0.21821731073E+04  0.25500000920E-02 0. -1.
       -2   -1    0    0    0  501  0.00000000000E+00  0.00000000000E+00 -0.32075693810E+03  0.32075693811E+03  0.25500000920E-02 0.  1.
    10030    2    1    2    0    0  0.00000000000E+00  0.00000000000E+00  0.18614161692E+04  0.25029300454E+04  0.16732569012E+04 0.  0.
        1    1    3    3  502    0  0.44166813932E+03  0.70942001055E+03  0.99053559990E+03  0.12959584374E+04  0.50400001928E-02 0. -1.
       -1    1    3    3    0  502 -0.44166813932E+03 -0.70942001055E+03  0.87088056930E+03  0.12069716081E+04  0.50400001928E-02 0.  1.
</event>
<event>
 5   0  0.3723500E-04  0.1718332E+04  0.7818609E-02  0.8750977E-01
        1   -1    0    0  501    0  0.00000000000E+00  0.00000000000E+00  0.15750084191E+04  0.15750084191E+04  0.50400001928E-02 0.  1.
       -1   -1    0    0    0  501  0.00000000000E+00  0.00000000000E+00 -0.46867452283E+03  0.46867452285E+03  0.50400001928E-02 0. -1.
    10030    2    1    2    0    0  0.00000000000E+00  0.00000000000E+00  0.11063338962E+04  0.20436829419E+04  0.17183321207E+04 0.  0.
        1    1    3    3  502    0  0.77713515120E+03 -0.16391259451E+03  0.94286437333E+03  0.12328015284E+04  0.50400001928E-02 0.  1.
       -1    1    3    3    0  502 -0.77713515120E+03  0.16391259451E+03  0.16346952291E+03  0.81088141354E+03  0.50400001928E-02 0. -1.
</event>
<event>
 5   0  0.7049044E-04  0.1694460E+04  0.7818609E-02  0.8764530E-01
        2   -1    0    0  501    0  0.00000000000E+00  0.00000000000E+00  0.21624333431E+04  0.21624333431E+04  0.25500000920E-02 0.  1.
       -2   -1    0    0    0  501  0.00000000000E+00  0.00000000000E+00 -0.33194034139E+03  0.33194034140E+03  0.25500000920E-02 0. -1.
    10030    2    1    2    0    0  0.00000000000E+00  0.00000000000E+00  0.18304930017E+04  0.24943736845E+04  0.16944602234E+04 0.  0.
        4    1    3    3  502    0  0.54693758671E+03 -0.12232610374E+03  0.18505566917E+04  0.19335630534E+04  0.12699999809E+01 0.  1.
       -4    1    3    3    0  502 -0.54693758671E+03  0.12232610374E+03 -0.20063689971E+02  0.56081063111E+03  0.12699999809E+01 0. -1.
</event>
<event>
 5   0  0.6746664E-04  0.1688215E+04  0.7818609E-02  0.8768115E-01
       -2   -1    0    0    0  501  0.00000000000E+00  0.00000000000E+00  0.35088046606E+03  0.35088046607E+03  0.25500000920E-02 0. -1.
        2   -1    0    0  501    0  0.00000000000E+00  0.00000000000E+00 -0.20306547423E+04  0.20306547423E+04  0.25500000920E-02 0.  1.
    10030    2    1    2    0    0  0.00000000000E+00  0.00000000000E+00 -0.16797742763E+04  0.23815352084E+04  0.16882145390E+04 0.  0.
        5    1    3    3  502    0  0.34823321810E+03  0.48144096686E+03  0.58677462457E+01  0.59422916388E+03  0.46999998093E+01 0. -1.
       -5    1    3    3    0  502 -0.34823321810E+03 -0.48144096686E+03 -0.16856420225E+04  0.17873060445E+04  0.46999998093E+01 0.  1.
</event>
<event>
 5   0  0.6746664E-04  0.1713292E+04  0.7818609E-02  0.8753819E-01
       -2   -1    0    0    0  501  0.00000000000E+00  0.00000000000E+00  0.16547328437E+04  0.16547328437E+04  0.25500000920E-02 0. -1.
        2   -1    0    0  501    0  0.00000000000E+00  0.00000000000E+00 -0.44348111980E+03  0.44348111981E+03  0.25500000920E-02 0.  1.
    10030    2    1    2    0    0  0.00000000000E+00  0.00000000000E+00  0.12112517239E+04  0.20982139635E+04  0.17132924730E+04 0.  0.
        5    1    3    3  502    0  0.51239239118E+03 -0.41315499104E+03  0.12770494997E+04  0.14367047448E+04  0.46999998093E+01 0. -1.
       -5    1    3    3    0  502 -0.51239239118E+03  0.41315499104E+03 -0.65797775757E+02  0.66150921871E+03  0.46999998093E+01 0.  1.
</event>
<event>
 5   0  0.3803253E-04  0.1422471E+04  0.7818609E-02  0.8937711E-01
        1   -1    0    0  501    0  0.00000000000E+00  0.00000000000E+00  0.78513022368E+03  0.78513022369E+03  0.50400001928E-02 0.  1.
       -1   -1    0    0    0  501  0.00000000000E+00  0.00000000000E+00 -0.64429587995E+03  0.64429587997E+03  0.50400001928E-02 0. -1.
    10030    2    1    2    0    0  0.00000000000E+00  0.00000000000E+00  0.14083434373E+03  0.14294261037E+04  0.14224713261E+04 0.  0.
        4    1    3    3  502    0 -0.22469525807E+03  0.61557773008E+03  0.34822979676E+03  0.74208456730E+03  0.12699999809E+01 0. -1.
       -4    1    3    3    0  502  0.22469525807E+03 -0.61557773008E+03 -0.20739545303E+03  0.68734153636E+03  0.12699999809E+01 0.  1.
</event>
<event>
 5   0  0.3803253E-04  0.1713301E+04  0.7818609E-02  0.8753814E-01
       -1   -1    0    0    0  501  0.00000000000E+00  0.00000000000E+00  0.63722678992E+03  0.63722678994E+03  0.50400001928E-02 0. -1.
        1   -1    0    0  501    0  0.00000000000E+00  0.00000000000E+00 -0.11516311993E+04  0.11516311993E+04  0.50400001928E-02 0.  1.
    10030    2    1    2    0    0  0.00000000000E+00  0.00000000000E+00 -0.51440440936E+03  0.17888579892E+04  0.17133012021E+04 0.  0.
        4    1    3    3  502    0 -0.37694493759E+02  0.19786252358E+03  0.61215030676E+03  0.64443778913E+03  0.12699999809E+01 0. -1.
       -4    1    3    3    0  502  0.37694493759E+02 -0.19786252358E+03 -0.11265547161E+04  0.11444202001E+04  0.12699999809E+01 0.  1.
</event>
<event>
 5   0  0.3723500E-04  0.1705643E+04  0.7818609E-02  0.8758153E-01
        1   -1    0    0  501    0  0.00000000000E+00  0.00000000000E+00  0.67075291972E+03  0.67075291974E+03  0.50400001928E-02 0.  1.
       -1   -1    0    0    0  501  0.00000000000E+00  0.00000000000E+00 -0.10843104407E+04  0.10843104407E+04  0.50400001928E-02 0. -1.
    10030    2    1    2    0    0  0.00000000000E+00  0.00000000000E+00 -0.41355752093E+03  0.17550633604E+04  0.17056428629E+04 0.  0.
        1    1    3    3  502    0  0.36607071018E+03  0.25498798762E+03  0.54110802612E+03  0.70130202812E+03  0.50400001928E-02 0.  1.
       -1    1    3    3    0  502 -0.36607071018E+03 -0.25498798762E+03 -0.95466554704E+03  0.10537613323E+04  0.50400001928E-02 0. -1.
</event>
<event>
 5   0  0.6746664E-04  0.1646784E+04  0.7818609E-02  0.8792311E-01
       -2   -1    0    0    0  501  0.00000000000E+00  0.00000000000E+00  0.12516904274E+04  0.12516904274E+04  0.25500000920E-02 0. -1.
        2   -1    0    0  501    0  0.00000000000E+00  0.00000000000E+00 -0.54164722894E+03  0.54164722894E+03  0.25500000920E-02 0.  1.
    10030    2    1    2    0    0  0.00000000000E+00  0.00000000000E+00  0.71004319844E+03  0.17933376563E+04  0.16467843228E+04 0.  0.
        5    1    3    3  502    0 -0.13232443396E+03 -0.17477368449E+03 -0.50926962198E+03  0.55446662161E+03  0.46999998093E+01 0.  1.
       -5    1    3    3    0  502  0.13232443396E+03  0.17477368449E+03  0.12193128204E+04  0.12388710347E+04  0.46999998093E+01 0. -1.
</event>
<event>
 5   0  0.7049044E-04  0.1374970E+04  0.7818609E-02  0.8972138E-01
       -2   -1    0    0    0  501  0.00000000000E+00  0.00000000000E+00  0.75044713114E+03  0.75044713115E+03  0.25500000920E-02 0.  1.
        2   -1    0    0  501    0  0.00000000000E+00  0.00000000000E+00 -0.62980543814E+03  0.62980543814E+03  0.25500000920E-02 0. -1.
    10030    2    1    2    0    0  0.00000000000E+00  0.00000000000E+00  0.12064169300E+03  0.13802525693E+04  0.13749700858E+04 0.  0.
        4    1    3    3  502    0  0.79167284014E+02 -0.20242632350E+02  0.74555367960E+03  0.75001941647E+03  0.12699999809E+01 0.  1.
       -4    1    3    3    0  502 -0.79167284014E+02  0.20242632350E+02 -0.62491198660E+03  0.63023315282E+03  0.12699999809E+01 0. -1.
</event>
<event>
 5   0  0.7233728E-04  0.2068765E+04  0.7818609E-02  0.8575129E-01
        2   -1    0    0  501    0  0.00000000000E+00  0.00000000000E+00  0.10373164586E+04  0.10373164586E+04  0.25500000920E-02 0.  1.
       -2   -1    0    0    0  501  0.00000000000E+00  0.00000000000E+00 -0.10314563534E+04  0.10314563534E+04  0.25500000920E-02 0. -1.
    10030    2    1    2    0    0  0.00000000000E+00  0.00000000000E+00  0.58601051755E+01  0.20687728121E+04  0.20687645122E+04 0.  0.
        1    1    3    3  502    0  0.67068365400E+03  0.75964001619E+03 -0.20462109641E+03  0.10337984867E+04  0.50400001928E-02 0.  1.
       -1    1    3    3    0  502 -0.67068365400E+03 -0.75964001619E+03  0.21048120159E+03  0.10349743254E+04  0.50400001928E-02 0. -1.
</event>
<event>
 5   0  0.7233728E-04  0.1638084E+04  0.7818609E-02  0.8797487E-01
        2   -1    0    0  501    0  0.00000000000E+00  0.00000000000E+00  0.11455726001E+04  0.11455726001E+04  0.25500000920E-02 0.  1.
       -2   -1    0    0    0  501  0.00000000000E+00  0.00000000000E+00 -0.58558489270E+03  0.58558489271E+03  0.25500000920E-02 0. -1.
    10030    2    1    2    0    0  0.00000000000E+00  0.00000000000E+00  0.55998770744E+03  0.17311574928E+04  0.16380842569E+04 0.  0.
        1    1    3    3  502    0  0.11029970996E+03 -0.13696996234E+03 -0.56539688974E+03  0.59211522490E+03  0.50400001928E-02 0. -1.
       -1    1    3    3    0  502 -0.11029970996E+03  0.13696996234E+03  0.11253845972E+04  0.11390422680E+04  0.50400001928E-02 0.  1.
</event>
<event>
 5   0  0.3915701E-04  0.1687745E+04  0.7818609E-02  0.8768385E-01
        1   -1    0    0  501    0  0.00000000000E+00  0.00000000000E+00  0.14936164589E+04  0.14936164589E+04  0.50400001928E-02 0. -1.
       -1   -1    0    0    0  501  0.00000000000E+00  0.00000000000E+00 -0.47677623629E+03  0.47677623632E+03  0.50400001928E-02 0.  1.
    10030    2    1    2    0    0  0.00000000000E+00  0.00000000000E+00  0.10168402226E+04  0.19703926952E+04  0.16877450444E+04 0.  0.
        2    1    3    3  502    0  0.27591451490E+03 -0.50426525889E+03  0.12297134121E+04  0.13574267372E+04  0.25500000920E-02 0. -1.
       -2    1    3    3    0  502 -0.27591451490E+03  0.50426525889E+03 -0.21287318953E+03  0.61296595802E+03  0.25500000920E-02 0.  1.
</event>
<event>
 5   0  0.3713516E-04  0.1684518E+04  0.7818609E-02  0.8770244E-01
        1   -1    0    0  501    0  0.00000000000E+00  0.00000000000E+00  0.83444799732E+03  0.83444799733E+03  0.50400001928E-02 0. -1.
       -1   -1    0    0    0  501  0.00000000000E+00  0.00000000000E+00 -0.85014285827E+03  0.85014285829E+03  0.50400001928E-02 0.  1.
    10030    2    1    2    0    0  0.00000000000E+00  0.00000000000E+00 -0.15694860956E+02  0.16845908556E+04  0.16845177417E+04 0.  0.
        5    1    3    3  502    0  0.19506745248E+03  0.77858335832E+03 -0.26307323820E+03  0.84467329514E+03  0.46999998093E+01 0.  1.
       -5    1    3    3    0  502 -0.19506745248E+03 -0.77858335832E+03  0.24737837725E+03  0.83991756048E+03  0.46999998093E+01 0. -1.
</event>
<event>
 5   0  0.6746664E-04  0.1708635E+04  0.7818609E-02  0.8756455E-01
       -2   -1    0    0    0  501  0.00000000000E+00  0.00000000000E+00  0.68249756916E+03  0.68249756917E+03  0.25500000920E-02 0.  1.
        2   -1    0    0  501    0  0.00000000000E+00  0.00000000000E+00 -0.10693928082E+04  0.10693928082E+04  0.25500000920E-02 0. -1.
    10030    2    1    2    0    0  0.00000000000E+00  0.00000000000E+00 -0.38689523900E+03  0.17518903773E+04  0.17086345333E+04 0.  0.
        5    1    3    3  502    0  0.20942604828E+03 -0.13182484552E+03  0.64493170150E+03  0.69079378196E+03  0.46999998093E+01 0.  1.
       -5    1    3    3    0  502 -0.20942604828E+03  0.13182484552E+03 -0.10318269405E+04  0.10610965954E+04  0.46999998093E+01 0. -1.
</event>
<event>
 5   0  0.3803253E-04  0.1711454E+04  0.7818609E-02  0.8754858E-01
       -1   -1    0    0    0  501  0.00000000000E+00  0.00000000000E+00  0.31249345636E+03  0.31249345640E+03  0.50400001928E-02 0. -1.
        1   -1    0    0  501    0  0.00000000000E+00  0.00000000000E+00 -0.23433094198E+04  0.23433094198E+04  0.50400001928E-02 0.  1.
    10030    2    1    2    0    0  0.00000000000E+00  0.00000000000E+00 -0.20308159634E+04  0.26558028762E+04  0.17114541887E+04 0.  0.
        4    1    3    3  502    0  0.56863733431E+03 -0.56719862028E+03 -0.14736555210E+04  0.16783101323E+04  0.12699999809E+01 0.  1.
       -4    1    3    3    0  502 -0.56863733431E+03  0.56719862028E+03 -0.55716044244E+03  0.97749274388E+03  0.12699999809E+01 0. -1.
</event>
<event>
 5   0  0.7025426E-04  0.1699310E+04  0.7818609E-02  0.8761758E-01
       -2   -1    0    0    0  501  0.00000000000E+00  0.00000000000E+00  0.53341473998E+03  0.53341473999E+03  0.25500000920E-02 0.  1.
        2   -1    0    0  501    0  0.00000000000E+00  0.00000000000E+00 -0.13533821448E+04  0.13533821448E+04  0.25500000920E-02 0. -1.
    10030    2    1    2    0    0  0.00000000000E+00  0.00000000000E+00 -0.81996740477E+03  0.18867968847E+04  0.16993104306E+04 0.  0.
        2    1    3    3  502    0 -0.32425684497E+03 -0.67007305677E+02  0.45883267251E+03  0.56582674194E+03  0.25500000920E-02 0.  1.
       -2    1    3    3    0  502  0.32425684497E+03  0.67007305677E+02 -0.12788000773E+04  0.13209701428E+04  0.25500000920E-02 0. -1.
</event>
<event>
 5   0  0.3723500E-04  0.1695864E+04  0.7818609E-02  0.8763727E-01
       -1   -1    0    0    0  501  0.00000000000E+00  0.00000000000E+00  0.91252885727E+03  0.91252885728E+03  0.50400001928E-02 0. -1.
        1   -1    0    0  501    0  0.00000000000E+00  0.00000000000E+00 -0.78790807535E+03  0.78790807537E+03  0.50400001928E-02 0.  1.
    10030    2    1    2    0    0  0.00000000000E+00  0.00000000000E+00  0.12462078192E+03  0.17004369326E+04  0.16958642111E+04 0.  0.
        1    1    3    3  502    0 -0.36634271880E+03  0.41524742937E+03  0.70618783582E+03  0.89740663843E+03  0.50400001928E-02 0. -1.
       -1    1    3    3    0  502  0.36634271880E+03 -0.41524742937E+03 -0.58156705391E+03  0.80303029421E+03  0.50400001928E-02 0.  1.
</event>
<event>
 5   0  0.7242144E-04  0.1706931E+04  0.7818609E-02  0.8757421E-01
        2   -1    0    0  501    0  0.00000000000E+00  0.00000000000E+00  0.11407752979E+04  0.11407752979E+04  0.25500000920E-02 0.  1.
       -2   -1    0    0    0  501  0.00000000000E+00  0.00000000000E+00 -0.63851593700E+03  0.63851593700E+03  0.25500000920E-02 0. -1.
    10030    2    1    2    0    0  0.00000000000E+00  0.00000000000E+00  0.50225936094E+03  0.17792912349E+04  0.17069308226E+04 0.  0.
        3    1    3    3  502    0  0.28371747260E+02 -0.35030805293E+03 -0.55958237725E+03  0.66079734800E+03  0.10100000352E+00 0. -1.
       -3    1    3    3    0  502 -0.28371747260E+02  0.35030805293E+03  0.10618417382E+04  0.11184938870E+04  0.10100000352E+00 0.  1.
</event>
<event>
 5   0  0.6746664E-04  0.1701636E+04  0.7818609E-02  0.8760432E-01
        2   -1    0    0  501    0  0.00000000000E+00  0.00000000000E+00  0.10240997098E+04  0.10240997098E+04  0.25500000920E-02 0.  1.
       -2   -1    0    0    0  501  0.00000000000E+00  0.00000000000E+00 -0.70685627166E+03  0.70685627167E+03  0.25500000920E-02 0. -1.
    10030    2    1    2    0    0  0.00000000000E+00  0.00000000000E+00  0.31724343818E+03  0.17309559815E+04  0.17016360395E+04 0.  0.
        5    1    3    3  502    0 -0.16611779304E+03  0.36956425059E+03  0.91964087476E+03  0.10049548671E+04  0.46999998093E+01 0.  1.
       -5    1    3    3    0  502  0.16611779304E+03 -0.36956425059E+03 -0.60239743657E+03  0.72600111437E+03  0.46999998093E+01 0. -1.
</event>
<event>
 5   0  0.3723500E-04  0.1732908E+04  0.7818609E-02  0.8742815E-01
        1   -1    0    0  501    0  0.00000000000E+00  0.00000000000E+00  0.27073218373E+04  0.27073218373E+04  0.50400001928E-02 0. -1.
       -1   -1    0    0    0  501  0.00000000000E+00  0.00000000000E+00 -0.27730078277E+03  0.27730078282E+03  0.50400001928E-02 0.  1.
    10030    2    1    2    0    0  0.00000000000E+00  0.00000000000E+00  0.24300210545E+04  0.29846226201E+04  0.17329079200E+04 0.  0.
        1    1    3    3  502    0  0.12362806128E+03 -0.66801338321E+03  0.21412549652E+04  0.22464413199E+04  0.50400001928E-02 0. -1.
       -1    1    3    3    0  502 -0.12362806128E+03  0.66801338321E+03  0.28876608936E+03  0.73818130027E+03  0.50400001928E-02 0.  1.
</event>
<event>
 5   0  0.3803253E-04  0.1798054E+04  0.7818609E-02  0.8707335E-01
       -1   -1    0    0    0  501  0.00000000000E+00  0.00000000000E+00  0.49549508727E+03  0.49549508730E+03  0.50400001928E-02 0. -1.
        1   -1    0    0  501    0  0.00000000000E+00  0.00000000000E+00 -0.16311966821E+04  0.16311966821E+04  0.50400001928E-02 0.  1.
    10030    2    1    2    0    0  0.00000000000E+00  0.00000000000E+00 -0.11357015948E+04  0.21266917694E+04  0.17980544401E+04 0.  0.
        4    1    3    3  502    0 -0.49278834354E+03 -0.38700924930E+03 -0.13303793448E+04  0.14705534076E+04  0.12699999809E+01 0.  1.
       -4    1    3    3    0  502  0.49278834354E+03  0.38700924930E+03  0.19467775001E+03  0.65613836180E+03  0.12699999809E+01 0. -1.
</event>
<event>
 5   0  0.3713516E-04  0.1673230E+04  0.7818609E-02  0.8776781E-01
        1   -1    0    0  501    0  0.00000000000E+00  0.00000000000E+00  0.15814481573E+04  0.15814481573E+04  0.50400001928E-02 0. -1.
       -1   -1    0    0    0  501  0.00000000000E+00  0.00000000000E+00 -0.44258478849E+03  0.44258478852E+03  0.50400001928E-02 0.  1.
    10030    2    1    2    0    0  0.00000000000E+00  0.00000000000E+00  0.11388633689E+04  0.20240329459E+04  0.16732302869E+04 0.  0.
        5    1    3    3  502    0  0.72542034935E+03  0.37640287960E+03  0.78578431173E+03  0.11337516860E+04  0.46999998093E+01 0.  1.
       -5    1    3    3    0  502 -0.72542034935E+03 -0.37640287960E+03  0.35307905712E+03  0.89028125983E+03  0.46999998093E+01 0. -1.
</event>
<event>
 5   0  0.3713516E-04  0.1943728E+04  0.7818609E-02  0.8633391E-01
       -1   -1    0    0    0  501  0.00000000000E+00  0.00000000000E+00  0.56011888240E+03  0.56011888242E+03  0.50400001928E-02 0. -1.
        1   -1    0    0  501    0  0.00000000000E+00  0.00000000000E+00 -0.16862844184E+04  0.16862844185E+04  0.50400001928E-02 0.  1.
    10030    2    1    2    0    0  0.00000000000E+00  0.00000000000E+00 -0.11261655360E+04  0.22464033009E+04  0.19437281126E+04 0.  0.
        5    1    3    3  502    0  0.71904569262E+03  0.46676335217E+03 -0.33966790772E+02  0.85794555065E+03  0.46999998093E+01 0. -1.
       -5    1    3    3    0  502 -0.71904569262E+03 -0.46676335217E+03 -0.10921987453E+04  0.13884577502E+04  0.46999998093E+01 0.  1.
</event>
<event>
 5   0  0.6746664E-04  0.1702630E+04  0.7818609E-02  0.8759866E-01
       -2   -1    0    0    0  501  0.00000000000E+00  0.00000000000E+00  0.60289642851E+03  0.60289642851E+03  0.25500000920E-02 0.  1.
        2   -1    0    0  501    0  0.00000000000E+00  0.00000000000E+00 -0.12020919592E+04  0.12020919592E+04  0.25500000920E-02 0. -1.
    10030    2    1    2    0    0  0.00000000000E+00  0.00000000000E+00 -0.59919553074E+03  0.18049883878E+04  0.17026296708E+04 0.  0.
        5    1    3    3  502    0 -0.49228767414E+03  0.46876307626E+03 -0.84287994316E+03  0.10828456327E+04  0.46999998093E+01 0. -1.
       -5    1    3    3    0  502  0.49228767414E+03 -0.46876307626E+03  0.24368441242E+03  0.72214275502E+03  0.46999998093E+01 0.  1.
</event>
<event>
 5   0  0.6746664E-04  0.1686996E+04  0.7818609E-02  0.8768816E-01
        2   -1    0    0  501    0  0.00000000000E+00  0.00000000000E+00  0.12035001777E+04  0.12035001777E+04  0.25500000920E-02 0. -1.
       -2   -1    0    0    0  501  0.00000000000E+00  0.00000000000E+00 -0.59118335111E+03  0.59118335112E+03  0.25500000920E-02 0.  1.
    10030    2    1    2    0    0  0.00000000000E+00  0.00000000000E+00  0.61231682658E+03  0.17946835288E+04  0.16869964649E+04 0.  0.
        5    1    3    3  502    0 -0.71343159209E+03  0.41338171155E+03  0.49526393209E+03  0.96186149131E+03  0.46999998093E+01 0. -1.
       -5    1    3    3    0  502  0.71343159209E+03 -0.41338171155E+03  0.11705289450E+03  0.83282203750E+03  0.46999998093E+01 0.  1.
</event>
<event>
 5   0  0.7242144E-04  0.1699448E+04  0.7818609E-02  0.8761679E-01
        2   -1    0    0  501    0  0.00000000000E+00  0.00000000000E+00  0.98530302982E+03  0.98530302982E+03  0.25500000920E-02 0.  1.
       -2   -1    0    0    0  501  0.00000000000E+00  0.00000000000E+00 -0.73280075143E+03  0.73280075144E+03  0.25500000920E-02 0. -1.
    10030    2    1    2    0    0  0.00000000000E+00  0.00000000000E+00  0.25250227838E+03  0.17181037813E+04  0.16994479111E+04 0.  0.
        3    1    3    3  502    0  0.32754798462E+03  0.32057123123E+03  0.84963171632E+03  0.96536400393E+03  0.10100000352E+00 0.  1.
       -3    1    3    3    0  502 -0.32754798462E+03 -0.32057123123E+03 -0.59712943793E+03  0.75273977733E+03  0.10100000352E+00 0. -1.
</event>
<event>
 5   0  0.6746664E-04  0.1688658E+04  0.7818609E-02  0.8767860E-01
       -2   -1    0    0    0  501  0.00000000000E+00  0.00000000000E+00  0.54500184638E+03  0.54500184639E+03  0.25500000920E-02 0.  1.
        2   -1    0    0  501    0  0.00000000000E+00  0.00000000000E+00 -0.13080528585E+04  0.13080528585E+04  0.25500000920E-02 0. -1.
    10030    2    1    2    0    0  0.00000000000E+00  0.00000000000E+00 -0.76305101216E+03  0.18530547049E+04  0.16886577191E+04 0.  0.
        5    1    3    3  502    0 -0.38917157199E+03  0.69547354406E+03 -0.75579904682E+02  0.80054504866E+03  0.46999998093E+01 0.  1.
       -5    1    3    3    0  502  0.38917157199E+03 -0.69547354406E+03 -0.68747110748E+03  0.10525096563E+04  0.46999998093E+01 0. -1.
</event>
<event>
 5   0  0.3915701E-04  0.1681415E+04  0.7818609E-02  0.8772036E-01
       -1   -1    0    0    0  501  0.00000000000E+00  0.00000000000E+00  0.71959933704E+03  0.71959933706E+03  0.50400001928E-02 0.  1.
        1   -1    0    0  501    0  0.00000000000E+00  0.00000000000E+00 -0.98219797958E+03  0.98219797959E+03  0.50400001928E-02 0. -1.
    10030    2    1    2    0    0  0.00000000000E+00  0.00000000000E+00 -0.26259864253E+03  0.17017973166E+04  0.16814148982E+04 0.  0.
        2    1    3    3  502    0  0.60187056157E+03 -0.16085843256E+03 -0.70264691625E+03  0.93906139156E+03  0.25500000920E-02 0. -1.
       -2    1    3    3    0  502 -0.60187056157E+03  0.16085843256E+03  0.44004827371E+03  0.76273592508E+03  0.25500000920E-02 0.  1.
</event>
<event>
 5   0  0.7242144E-04  0.1697910E+04  0.7818609E-02  0.8762557E-01
       -2   -1    0    0    0  501  0.00000000000E+00  0.00000000000E+00  0.96973485445E+03  0.96973485446E+03  0.25500000920E-02 0.  1.
        2   -1    0    0  501    0  0.00000000000E+00  0.00000000000E+00 -0.74321849594E+03  0.74321849594E+03  0.25500000920E-02 0. -1.
    10030    2    1    2    0    0  0.00000000000E+00  0.00000000000E+00  0.22651635851E+03  0.17129533504E+04  0.16979103392E+04 0.  0.
        3    1    3    3  502    0 -0.16920548565E+03 -0.28612978969E+03 -0.67483118531E+03  0.75226185055E+03  0.10100000352E+00 0. -1.
       -3    1    3    3    0  502  0.16920548565E+03  0.28612978969E+03  0.90134754382E+03  0.96069149985E+03  0.10100000352E+00 0.  1.
</event>
<event>
 5   0  0.7025426E-04  0.1718816E+04  0.7818609E-02  0.8750705E-01
       -2   -1    0    0    0  501  0.00000000000E+00  0.00000000000E+00  0.68423835066E+03  0.68423835067E+03  0.25500000920E-02 0. -1.
        2   -1    0    0  501    0  0.00000000000E+00  0.00000000000E+00 -0.10794220288E+04  0.10794220288E+04  0.25500000920E-02 0.  1.
    10030    2    1    2    0    0  0.00000000000E+00  0.00000000000E+00 -0.39518367811E+03  0.17636603794E+04  0.17188158117E+04 0.  0.
        2    1    3    3  502    0  0.22860641329E+02 -0.70743672068E+03  0.30256026159E+03  0.76976102434E+03  0.25500000920E-02 0. -1.
       -2    1    3    3    0  502 -0.22860641329E+02  0.70743672068E+03 -0.69774393970E+03  0.99389935511E+03  0.25500000920E-02 0.  1.
</event>
<event>
 5   0  0.7242144E-04  0.1463528E+04  0.7818609E-02  0.8909075E-01
        2   -1    0    0  501    0  0.00000000000E+00  0.00000000000E+00  0.18420463465E+04  0.18420463465E+04  0.25500000920E-02 0. -1.
       -2   -1    0    0    0  501  0.00000000000E+00  0.00000000000E+00 -0.29069782291E+03  0.29069782293E+03  0.25500000920E-02 0.  1.
    10030    2    1    2    0    0  0.00000000000E+00  0.00000000000E+00  0.15513485236E+04  0.21327441695E+04  0.14635284250E+04 0.  0.
        3    1    3    3  502    0  0.44667515474E+03  0.18564173319E+03  0.15758388346E+04  0.16484081988E+04  0.10100000352E+00 0. -1.
       -3    1    3    3    0  502 -0.44667515474E+03 -0.18564173319E+03 -0.24490310976E+02  0.48433597069E+03  0.10100000352E+00 0.  1.
</event>
<event>
 5   0  0.3915701E-04  0.1681833E+04  0.7818609E-02  0.8771794E-01
        1   -1    0    0  501    0  0.00000000000E+00  0.00000000000E+00  0.12405635584E+04  0.12405635584E+04  0.50400001928E-02 0.  1.
       -1   -1    0    0    0  501  0.00000000000E+00  0.00000000000E+00 -0.57001584272E+03  0.57001584274E+03  0.50400001928E-02 0. -1.
    10030    2    1    2    0    0  0.00000000000E+00  0.00000000000E+00  0.67054771570E+03  0.18105794012E+04  0.16818333832E+04 0.  0.
        2    1    3    3  502    0  0.68969996861E+03  0.46845156233E+03  0.45324326328E+03  0.94897964607E+03  0.25500000920E-02 0.  1.
       -2    1    3    3    0  502 -0.68969996861E+03 -0.46845156233E+03  0.21730445243E+03  0.86159975511E+03  0.25500000920E-02 0. -1.
</event>
<event>
 5   0  0.7025426E-04  0.1762893E+04  0.7818609E-02  0.8726285E-01
        2   -1    0    0  501    0  0.00000000000E+00  0.00000000000E+00  0.12616505237E+04  0.12616505237E+04  0.25500000920E-02 0.  1.
       -2   -1    0    0    0  501  0.00000000000E+00  0.00000000000E+00 -0.61581885875E+03  0.61581885876E+03  0.25500000920E-02 0. -1.
    10030    2    1    2    0    0  0.00000000000E+00  0.00000000000E+00  0.64583166491E+03  0.18774693824E+04  0.17628932873E+04 0.  0.
        2    1    3    3  502    0  0.82160442766E+03 -0.31922792118E+03  0.31992541667E+03  0.93770601654E+03  0.25500000920E-02 0. -1.
       -2    1    3    3    0  502 -0.82160442766E+03  0.31922792118E+03  0.32590624824E+03  0.93976336589E+03  0.25500000920E-02 0.  1.
</event>
<event>
 5   0  0.3803253E-04  0.1683385E+04  0.7818609E-02  0.8770898E-01
        1   -1    0    0  501    0  0.00000000000E+00  0.00000000000E+00  0.49797107110E+03  0.49797107113E+03  0.50400001928E-02 0.  1.
       -1   -1    0    0    0  501  0.00000000000E+00  0.00000000000E+00 -0.14226647425E+04  0.14226647425E+04  0.50400001928E-02 0. -1.
    10030    2    1    2    0    0  0.00000000000E+00  0.00000000000E+00 -0.92469367140E+03  0.19206358136E+04  0.16833845499E+04 0.  0.
        4    1    3    3  502    0  0.33068171336E+03  0.73276252804E+03 -0.17790558755E+03  0.82337314083E+03  0.12699999809E+01 0.  1.
       -4    1    3    3    0  502 -0.33068171336E+03 -0.73276252804E+03 -0.74678808385E+03  0.10972626728E+04  0.12699999809E+01 0. -1.
</event>
<event>
 5   0  0.3803253E-04  0.1685936E+04  0.7818609E-02  0.8769426E-01
        1   -1    0    0  501    0  0.00000000000E+00  0.00000000000E+00  0.10153087162E+04  0.10153087162E+04  0.50400001928E-02 0.  1.
       -1   -1    0    0    0  501  0.00000000000E+00  0.00000000000E+00 -0.69988106131E+03  0.69988106132E+03  0.50400001928E-02 0. -1.
    10030    2    1    2    0    0  0.00000000000E+00  0.00000000000E+00  0.31542765487E+03  0.17151897775E+04  0.16859363474E+04 0.  0.
        4    1    3    3  502    0 -0.71347959463E+03 -0.43939234037E+03  0.25137078496E+03  0.87481863558E+03  0.12699999809E+01 0.  1.
       -4    1    3    3    0  502  0.71347959463E+03  0.43939234037E+03  0.64056869913E+02  0.84037114194E+03  0.12699999809E+01 0. -1.
</event>
<event>
 5   0  0.7049044E-04  0.1693784E+04  0.7818609E-02  0.8764917E-01
        2   -1    0    0  501    0  0.00000000000E+00  0.00000000000E+00  0.74041421053E+03  0.74041421053E+03  0.25500000920E-02 0. -1.
       -2   -1    0    0    0  501  0.00000000000E+00  0.00000000000E+00 -0.96868237209E+03  0.96868237209E+03  0.25500000920E-02 0.  1.
    10030    2    1    2    0    0  0.00000000000E+00  0.00000000000E+00 -0.22826816156E+03  0.17090965826E+04  0.16937841584E+04 0.  0.
        4    1    3    3  502    0 -0.70185720070E+03  0.18811571511E+03  0.32480836860E+03  0.79592282393E+03  0.12699999809E+01 0. -1.
       -4    1    3    3    0  502  0.70185720070E+03 -0.18811571511E+03 -0.55307653016E+03  0.91317375869E+03  0.12699999809E+01 0.  1.
</event>
<event>
 5   0  0.3635143E-04  0.1715104E+04  0.7818609E-02  0.8752797E-01
       -1   -1    0    0    0  501  0.00000000000E+00  0.00000000000E+00  0.63395918621E+03  0.63395918623E+03  0.50400001928E-02 0.  1.
        1   -1    0    0  501    0  0.00000000000E+00  0.00000000000E+00 -0.11600041761E+04  0.11600041761E+04  0.50400001928E-02 0. -1.
    10030    2    1    2    0    0  0.00000000000E+00  0.00000000000E+00 -0.52604498991E+03  0.17939633624E+04  0.17151038494E+04 0.  0.
        3    1    3    3  502    0  0.64745503322E+03  0.55898949913E+03 -0.19915764975E+03  0.87825455299E+03  0.10100000352E+00 0. -1.
       -3    1    3    3    0  502 -0.64745503322E+03 -0.55898949913E+03 -0.32688734016E+03  0.91570880937E+03  0.10100000352E+00 0.  1.
</event>
<event>
 5   0  0.2639750E-04  0.1708630E+04  0.7818609E-02  0.8756458E-01
       -4   -1    0    0    0  501  0.00000000000E+00  0.00000000000E+00  0.98013031483E+03  0.98013113762E+03  0.12699999809E+01 0. -1.
        4   -1    0    0  501    0  0.00000000000E+00  0.00000000000E+00 -0.74464824758E+03  0.74464933057E+03  0.12699999809E+01 0.  1.
    10030    2    1    2    0    0  0.00000000000E+00  0.00000000000E+00  0.23548206725E+03  0.17247804682E+04  0.17086298193E+04 0.  0.
        4    1    3    3  502    0 -0.30079376083E+03 -0.78373334193E+03  0.27778783838E+03  0.88424121927E+03  0.12699999809E+01 0. -1.
       -4    1    3    3    0  502  0.30079376083E+03  0.78373334193E+03 -0.42305771135E+02  0.84053924892E+03  0.12699999809E+01 0.  1.
</event>
<event>
 5   0  0.7233728E-04  0.1700488E+04  0.7818609E-02  0.8761086E-01
       -2   -1    0    0    0  501  0.00000000000E+00  0.00000000000E+00  0.30160927301E+03  0.30160927302E+03  0.25500000920E-02 0.  1.
        2   -1    0    0  501    0  0.00000000000E+00  0.00000000000E+00 -0.23968577630E+04  0.23968577630E+04  0.25500000920E-02 0. -1.
    10030    2    1    2    0    0  0.00000000000E+00  0.00000000000E+00 -0.20952484900E+04  0.26984670361E+04  0.17004876094E+04 0.  0.
        1    1    3    3  502    0 -0.45927316862E+03  0.69867544270E+02 -0.21776568356E+04  0.22266572729E+04  0.50400001928E-02 0. -1.
       -1    1    3    3    0  502  0.45927316862E+03 -0.69867544270E+02  0.82408345601E+02  0.47180976315E+03  0.50400001928E-02 0.  1.
</event>
<event>
 5   0  0.7242144E-04  0.1737325E+04  0.7818609E-02  0.8740358E-01
       -2   -1    0    0    0  501  0.00000000000E+00  0.00000000000E+00  0.78848623759E+03  0.78848623759E+03  0.25500000920E-02 0. -1.
        2   -1    0    0  501    0  0.00000000000E+00  0.00000000000E+00 -0.95699193845E+03  0.95699193845E+03  0.25500000920E-02 0.  1.
    10030    2    1    2    0    0  0.00000000000E+00  0.00000000000E+00 -0.16850570086E+03  0.17454781760E+04  0.17373254997E+04 0.  0.
        3    1    3    3  502    0  0.29142333743E+03  0.37122998924E+03  0.64844002868E+03  0.80200607698E+03  0.10100000352E+00 0. -1.
       -3    1    3    3    0  502 -0.29142333743E+03 -0.37122998924E+03 -0.81694572953E+03  0.94347209907E+03  0.10100000352E+00 0.  1.
</event>
<event>
 5   0  0.7025426E-04  0.1700581E+04  0.7818609E-02  0.8761033E-01
       -2   -1    0    0    0  501  0.00000000000E+00  0.00000000000E+00  0.86920093076E+03  0.86920093077E+03  0.25500000920E-02 0.  1.
        2   -1    0    0  501    0  0.00000000000E+00  0.00000000000E+00 -0.83179178225E+03  0.83179178225E+03  0.25500000920E-02 0. -1.
    10030    2    1    2    0    0  0.00000000000E+00  0.00000000000E+00  0.37409148515E+02  0.17009927130E+04  0.17005813022E+04 0.  0.
        2    1    3    3  502    0  0.56490301546E+03  0.61878695462E+03 -0.12618031906E+03  0.84730996985E+03  0.25500000920E-02 0.  1.
       -2    1    3    3    0  502 -0.56490301546E+03 -0.61878695462E+03  0.16358946757E+03  0.85368274317E+03  0.25500000920E-02 0. -1.
</event>
<event>
 5   0  0.3723500E-04  0.1689647E+04  0.7818609E-02  0.8767291E-01
       -1   -1    0    0    0  501  0.00000000000E+00  0.00000000000E+00  0.63738484287E+03  0.63738484289E+03  0.50400001928E-02 0. -1.
        1   -1    0    0  501    0  0.00000000000E+00  0.00000000000E+00 -0.11197732644E+04  0.11197732644E+04  0.50400001928E-02 0.  1.
    10030    2    1    2    0    0  0.00000000000E+00  0.00000000000E+00 -0.48238842153E+03  0.17571581073E+04  0.16896467160E+04 0.  0.
        1    1    3    3  502    0  0.37839594668E+03 -0.30093044446E+03 -0.96168471058E+03  0.10763735910E+04  0.50400001928E-02 0.  1.
       -1    1    3    3    0  502 -0.37839594668E+03  0.30093044446E+03  0.47929628905E+03  0.68078451627E+03  0.50400001928E-02 0. -1.
</event>
<event>
 5   0  0.7049044E-04  0.1940291E+04  0.7818609E-02  0.8635057E-01
       -2   -1    0    0    0  501  0.00000000000E+00  0.00000000000E+00  0.54249617714E+03  0.54249617714E+03  0.25500000920E-02 0.  1.
        2   -1    0    0  501    0  0.00000000000E+00  0.00000000000E+00 -0.17349107370E+04  0.17349107370E+04  0.25500000920E-02 0. -1.
    10030    2    1    2    0    0  0.00000000000E+00  0.00000000000E+00 -0.11924145598E+04  0.22774069141E+04  0.19402911560E+04 0.  0.
        4    1    3    3  502    0 -0.30106231022E+03  0.86566258872E+02 -0.16739126227E+04  0.17029730805E+04  0.12699999809E+01 0. -1.
       -4    1    3    3    0  502  0.30106231022E+03 -0.86566258872E+02  0.48149806280E+03  0.57443383361E+03  0.12699999809E+01 0.  1.
</event>
<event>
 5   0  0.3635143E-04  0.1708813E+04  0.7818609E-02  0.8756354E-01
       -1   -1    0    0    0  501  0.00000000000E+00  0.00000000000E+00  0.78135360455E+03  0.78135360457E+03  0.50400001928E-02 0.  1.
        1   -1    0    0  501    0  0.00000000000E+00  0.00000000000E+00 -0.93428939570E+03  0.93428939572E+03  0.50400001928E-02 0. -1.
    10030    2    1    2    0    0  0.00000000000E+00  0.00000000000E+00 -0.15293579115E+03  0.17156430003E+04  0.17088129061E+04 0.  0.
        3    1    3    3  502    0 -0.33807977952E+03 -0.64295588420E+03  0.37513009251E+03  0.81756516734E+03  0.10100000352E+00 0. -1.
       -3    1    3    3    0  502  0.33807977952E+03  0.64295588420E+03 -0.52806588366E+03  0.89807783294E+03  0.10100000352E+00 0.  1.
</event>
<event>
 5   0  0.7242144E-04  0.1702746E+04  0.7818609E-02  0.8759800E-01
       -2   -1    0    0    0  501  0.00000000000E+00  0.00000000000E+00  0.48587562503E+03  0.48587562504E+03  0.25500000920E-02 0. -1.
        2   -1    0    0  501    0  0.00000000000E+00  0.00000000000E+00 -0.14918134845E+04  0.14918134845E+04  0.25500000920E-02 0.  1.
    10030    2    1    2    0    0  0.00000000000E+00  0.00000000000E+00 -0.10059378595E+04  0.19776891096E+04  0.17027457934E+04 0.  0.
        3    1    3    3  502    0  0.74013161356E+03  0.17064937819E+03 -0.94967446819E+03  0.12160582311E+04  0.10100000352E+00 0.  1.
       -3    1    3    3    0  502 -0.74013161356E+03 -0.17064937819E+03 -0.56263391321E+02  0.76163087849E+03  0.10100000352E+00 0. -1.
</event>
<event>
 5   0  0.7242144E-04  0.1659152E+04  0.7818609E-02  0.8785010E-01
        2   -1    0    0  501    0  0.00000000000E+00  0.00000000000E+00  0.16855666291E+04  0.16855666291E+04  0.25500000920E-02 0.  1.
       -2   -1    0    0    0  501  0.00000000000E+00  0.00000000000E+00 -0.40828805983E+03  0.40828805984E+03  0.25500000920E-02 0. -1.
    10030    2    1    2    0    0  0.00000000000E+00  0.00000000000E+00  0.12772785693E+04  0.20938546890E+04  0.16591524689E+04 0.  0.
        3    1    3    3  502    0 -0.60836843686E+03 -0.38311674871E+03  0.11609713423E+04  0.13655566872E+04  0.10100000352E+00 0.  1.
       -3    1    3    3    0  502  0.60836843686E+03  0.38311674871E+03  0.11630722697E+03  0.72829800175E+03  0.10100000352E+00 0. -1.
</event>
<event>
 5   0  0.3803253E-04  0.1712128E+04  0.7818609E-02  0.8754477E-01
        1   -1    0    0  501    0  0.00000000000E+00  0.00000000000E+00  0.99162362216E+03  0.99162362217E+03  0.50400001928E-02 0.  1.
       -1   -1    0    0    0  501  0.00000000000E+00  0.00000000000E+00 -0.73903617476E+03  0.73903617478E+03  0.50400001928E-02 0. -1.
    10030    2    1    2    0    0  0.00000000000E+00  0.00000000000E+00  0.25258744740E+03  0.17306597969E+04  0.17121281828E+04 0.  0.
        4    1    3    3  502    0  0.40611352457E+03  0.45060534959E+03 -0.48428961268E+03  0.77621608961E+03  0.12699999809E+01 0. -1.
       -4    1    3    3    0  502 -0.40611352457E+03 -0.45060534959E+03  0.73687706007E+03  0.95444370734E+03  0.12699999809E+01 0.  1.
</event>
<event>
 5   0  0.3723500E-04  0.1726485E+04  0.7818609E-02  0.8746401E-01
       -1   -1    0    0    0  501  0.00000000000E+00  0.00000000000E+00  0.10826637711E+04  0.10826637711E+04  0.50400001928E-02 0.  1.
        1   -1    0    0  501    0  0.00000000000E+00  0.00000000000E+00 -0.68829118976E+03  0.68829118978E+03  0.50400001928E-02 0. -1.
    10030    2    1    2    0    0  0.00000000000E+00  0.00000000000E+00  0.39437258130E+03  0.17709549609E+04  0.17264853722E+04 0.  0.
        1    1    3    3  502    0 -0.74147542171E+02 -0.68323640404E+03 -0.33864608305E+03  0.76615338635E+03  0.50400001928E-02 0. -1.
       -1    1    3    3    0  502  0.74147542171E+02  0.68323640404E+03  0.73301866435E+03  0.10048015745E+04  0.50400001928E-02 0.  1.
</event>
<event>
 5   0  0.7233728E-04  0.1721922E+04  0.7818609E-02  0.8748959E-01
       -2   -1    0    0    0  501  0.00000000000E+00  0.00000000000E+00  0.56458170938E+03  0.56458170939E+03  0.25500000920E-02 0. -1.
        2   -1    0    0  501    0  0.00000000000E+00  0.00000000000E+00 -0.13129256532E+04  0.13129256532E+04  0.25500000920E-02 0.  1.
    10030    2    1    2    0    0  0.00000000000E+00  0.00000000000E+00 -0.74834394384E+03  0.18775073626E+04  0.17219219606E+04 0.  0.
        1    1    3    3  502    0 -0.75406889567E+02  0.59616980435E+03  0.29810031706E+03  0.67079686468E+03  0.50400001928E-02 0. -1.
       -1    1    3    3    0  502  0.75406889567E+02 -0.59616980435E+03 -0.10464442609E+04  0.12067104979E+04  0.50400001928E-02 0.  1.
</event>
<event>
 5   0  0.3803253E-04  0.1747633E+04  0.7818609E-02  0.8734654E-01
        1   -1    0    0  501    0  0.00000000000E+00  0.00000000000E+00  0.17237455856E+04  0.17237455856E+04  0.50400001928E-02 0.  1.
       -1   -1    0    0    0  501  0.00000000000E+00  0.00000000000E+00 -0.44296278454E+03  0.44296278457E+03  0.50400001928E-02 0. -1.
    10030    2    1    2    0    0  0.00000000000E+00  0.00000000000E+00  0.12807828011E+04  0.21667083702E+04  0.17476328499E+04 0.  0.
        4    1    3    3  502    0  0.22137267607E+03  0.66059295030E+02 -0.40441459076E+03  0.46574935995E+03  0.12699999809E+01 0. -1.
       -4    1    3    3    0  502 -0.22137267607E+03 -0.66059295030E+02  0.16851973919E+04  0.17009590103E+04  0.12699999809E+01 0.  1.
</event>
<event>
 5   0  0.6746664E-04  0.1531484E+04  0.7818609E-02  0.8863782E-01
       -2   -1    0    0    0  501  0.00000000000E+00  0.00000000000E+00  0.30814980554E+03  0.30814980555E+03  0.25500000920E-02 0. -1.
        2   -1    0    0  501    0  0.00000000000E+00  0.00000000000E+00 -0.19028431030E+04  0.19028431030E+04  0.25500000920E-02 0.  1.
    10030    2    1    2    0    0  0.00000000000E+00  0.00000000000E+00 -0.15946932975E+04  0.22109929086E+04  0.15314838976E+04 0.  0.
        5    1    3    3  502    0  0.44742626383E+03  0.24420010032E+03  0.27600789768E+02  0.51049764364E+03  0.46999998093E+01 0. -1.
       -5    1    3    3    0  502 -0.44742626383E+03 -0.24420010032E+03 -0.16222940873E+04  0.17004952649E+04  0.46999998093E+01 0.  1.
</event>
<event>
 5   0  0.3915701E-04  0.1732555E+04  0.7818609E-02  0.8743012E-01
       -1   -1    0    0    0  501  0.00000000000E+00  0.00000000000E+00  0.46355044400E+03  0.46355044403E+03  0.50400001928E-02 0. -1.
        1   -1    0    0  501    0  0.00000000000E+00  0.00000000000E+00 -0.16188889675E+04  0.16188889675E+04  0.50400001928E-02 0.  1.
    10030    2    1    2    0    0  0.00000000000E+00  0.00000000000E+00 -0.11553385235E+04  0.20824394115E+04  0.17325549916E+04 0.  0.
        2    1    3    3  502    0 -0.81274556529E+03  0.10414232338E+03 -0.91557616143E+03  0.12286906384E+04  0.25500000920E-02 0. -1.
       -2    1    3    3    0  502  0.81274556529E+03 -0.10414232338E+03 -0.23976236207E+03  0.85374877317E+03  0.25500000920E-02 0.  1.
</event>
<event>
 5   0  0.3713516E-04  0.1724350E+04  0.7818609E-02  0.8747597E-01
       -1   -1    0    0    0  501  0.00000000000E+00  0.00000000000E+00  0.96011132832E+03  0.96011132834E+03  0.50400001928E-02 0.  1.
        1   -1    0    0  501    0  0.00000000000E+00  0.00000000000E+00 -0.77422883236E+03  0.77422883238E+03  0.50400001928E-02 0. -1.
    10030    2    1    2    0    0  0.00000000000E+00  0.00000000000E+00  0.18588249596E+03  0.17343401607E+04  0.17243501648E+04 0.  0.
        5    1    3    3  502    0 -0.49755183490E+03  0.78170574503E+02 -0.61086651805E+03  0.79173762069E+03  0.46999998093E+01 0. -1.
       -5    1    3    3    0  502  0.49755183490E+03 -0.78170574503E+02  0.79674901402E+03  0.94260254003E+03  0.46999998093E+01 0.  1.
</event>
<event>
 5   0  0.3723500E-04  0.1610468E+04  0.7818609E-02  0.8814143E-01
       -1   -1    0    0    0  501  0.00000000000E+00  0.00000000000E+00  0.73352190785E+03  0.73352190787E+03  0.50400001928E-02 0.  1.
        1   -1    0    0  501    0  0.00000000000E+00  0.00000000000E+00 -0.88395689542E+03  0.88395689544E+03  0.50400001928E-02 0. -1.
    10030    2    1    2    0    0  0.00000000000E+00  0.00000000000E+00 -0.15043498757E+03  0.16174788033E+04  0.16104679424E+04 0.  0.
        1    1    3    3  502    0  0.71544820243E+03  0.36099516822E+03  0.39807577293E+01  0.80137350112E+03  0.50400001928E-02 0. -1.
       -1    1    3    3    0  502 -0.71544820243E+03 -0.36099516822E+03 -0.15441574530E+03  0.81610530219E+03  0.50400001928E-02 0.  1.
</event>
<event>
 5   0  0.6746664E-04  0.1546580E+04  0.7818609E-02  0.8854055E-01
       -2   -1    0    0    0  501  0.00000000000E+00  0.00000000000E+00  0.74458353773E+03  0.74458353774E+03  0.25500000920E-02 0. -1.
        2   -1    0    0  501    0  0.00000000000E+00  0.00000000000E+00 -0.80310363990E+03  0.80310363990E+03  0.25500000920E-02 0.  1.
    10030    2    1    2    0    0  0.00000000000E+00  0.00000000000E+00 -0.58520102162E+02  0.15476871776E+04  0.15465804206E+04 0.  0.
        5    1    3    3  502    0  0.28861826799E+03 -0.71057242758E+03 -0.12803215205E+03  0.77757829278E+03  0.46999998093E+01 0.  1.
       -5    1    3    3    0  502 -0.28861826799E+03  0.71057242758E+03  0.69512049891E+02  0.77010888485E+03  0.46999998093E+01 0. -1.
</event>
<event>
 5   0  0.3915701E-04  0.1604239E+04  0.7818609E-02  0.8817948E-01
        1   -1    0    0  501    0  0.00000000000E+00  0.00000000000E+00  0.87651330094E+03  0.87651330095E+03  0.50400001928E-02 0.  1.
       -1   -1    0    0    0  501  0.00000000000E+00  0.00000000000E+00 -0.73404021899E+03  0.73404021901E+03  0.50400001928E-02 0. -1.
    10030    2    1    2    0    0  0.00000000000E+00  0.00000000000E+00  0.14247308194E+03  0.16105535200E+04  0.16042394028E+04 0.  0.
        2    1    3    3  502    0  0.28291811871E+02 -0.29914915064E+03  0.81787425205E+03  0.87132596262E+03  0.25500000920E-02 0.  1.
       -2    1    3    3    0  502 -0.28291811871E+02  0.29914915064E+03 -0.67540117011E+03  0.73922755735E+03  0.25500000920E-02 0. -1.
</event>
<event>
 5   0  0.3635143E-04  0.1688902E+04  0.7818609E-02  0.8767719E-01
        1   -1    0    0  501    0  0.00000000000E+00  0.00000000000E+00  0.53022455808E+03  0.53022455811E+03  0.50400001928E-02 0. -1.
       -1   -1    0    0    0  501  0.00000000000E+00  0.00000000000E+00 -0.13448974018E+04  0.13448974019E+04  0.50400001928E-02 0.  1.
    10030    2    1    2    0    0  0.00000000000E+00  0.00000000000E+00 -0.81467284376E+03  0.18751219600E+04  0.16889021648E+04 0.  0.
        3    1    3    3  502    0 -0.45366221857E+03 -0.18309132923E+03 -0.11715361353E+04  0.12695781858E+04  0.10100000352E+00 0.  1.
       -3    1    3    3    0  502  0.45366221857E+03  0.18309132923E+03  0.35686329152E+03  0.60554377417E+03  0.10100000352E+00 0. -1.
</event>
<event>
 5   0  0.7242144E-04  0.1502516E+04  0.7818609E-02  0.8882782E-01
        2   -1    0    0  501    0  0.00000000000E+00  0.00000000000E+00  0.13615256598E+04  0.13615256598E+04  0.25500000920E-02 0.  1.
       -2   -1    0    0    0  501  0.00000000000E+00  0.00000000000E+00 -0.41452660549E+03  0.41452660550E+03  0.25500000920E-02 0. -1.
    10030    2    1    2    0    0  0.00000000000E+00  0.00000000000E+00  0.94699905430E+03  0.17760522653E+04  0.15025160366E+04 0.  0.
        3    1    3    3  502    0  0.23543125583E+03 -0.71044533256E+03  0.39663747473E+03  0.84704294067E+03  0.10100000352E+00 0. -1.
       -3    1    3    3    0  502 -0.23543125583E+03  0.71044533256E+03  0.55036157958E+03  0.92900932463E+03  0.10100000352E+00 0.  1.
</event>
<event>
 5   0  0.6746664E-04  0.1690310E+04  0.7818609E-02  0.8766910E-01
       -2   -1    0    0    0  501  0.00000000000E+00  0.00000000000E+00  0.10465540630E+04  0.10465540630E+04  0.25500000920E-02 0.  1.
        2   -1    0    0  501    0  0.00000000000E+00  0.00000000000E+00 -0.68251357928E+03  0.68251357928E+03  0.25500000920E-02 0. -1.
    10030    2    1    2    0    0  0.00000000000E+00  0.00000000000E+00  0.36404048375E+03  0.17290676423E+04  0.16903104561E+04 0.  0.
        5    1    3    3  502    0 -0.71135207203E+03  0.45624551492E+03  0.19136923218E+03  0.86650217154E+03  0.46999998093E+01 0.  1.
       -5    1    3    3    0  502  0.71135207203E+03 -0.45624551492E+03  0.17267125157E+03  0.86256547077E+03  0.46999998093E+01 0. -1.
</event>
<event>
 5   0  0.7233728E-04  0.1698883E+04  0.7818609E-02  0.8762002E-01
        2   -1    0    0  501    0  0.00000000000E+00  0.00000000000E+00  0.11410008684E+04  0.11410008684E+04  0.25500000920E-02 0.  1.
       -2   -1    0    0    0  501  0.00000000000E+00  0.00000000000E+00 -0.63238394267E+03  0.63238394268E+03  0.25500000920E-02 0. -1.
    10030    2    1    2    0    0  0.00000000000E+00  0.00000000000E+00  0.50861692571E+03  0.17733848111E+04  0.16988827243E+04 0.  0.
        1    1    3    3  502    0  0.31438966770E+03  0.16599712551E+03  0.10596025773E+04  0.11176553721E+04  0.50400001928E-02 0.  1.
       -1    1    3    3    0  502 -0.31438966770E+03 -0.16599712551E+03 -0.55098565161E+03  0.65572943898E+03  0.50400001928E-02 0. -1.
</event>
<event>
 5   0  0.3803253E-04  0.1681321E+04  0.7818609E-02  0.8772090E-01
        1   -1    0    0  501    0  0.00000000000E+00  0.00000000000E+00  0.16459570593E+04  0.16459570593E+04  0.50400001928E-02 0. -1.
       -1   -1    0    0    0  501  0.00000000000E+00  0.00000000000E+00 -0.42936137590E+03  0.42936137593E+03  0.50400001928E-02 0.  1.
    10030    2    1    2    0    0  0.00000000000E+00  0.00000000000E+00  0.12165956834E+04  0.20753184352E+04  0.16813213704E+04 0.  0.
        4    1    3    3  502    0 -0.20466291257E+03  0.62702124656E+03 -0.35058866322E+02  0.66050987004E+03  0.12699999809E+01 0.  1.
       -4    1    3    3    0  502  0.20466291257E+03 -0.62702124656E+03  0.12516545497E+04  0.14148085652E+04  0.12699999809E+01 0. -1.
</event>
<event>
 5   0  0.3635143E-04  0.1686344E+04  0.7818609E-02  0.8769191E-01
        1   -1    0    0  501    0  0.00000000000E+00  0.00000000000E+00  0.83177363286E+03  0.83177363288E+03  0.50400001928E-02 0.  1.
       -1   -1    0    0    0  501  0.00000000000E+00  0.00000000000E+00 -0.85472671415E+03  0.85472671417E+03  0.50400001928E-02 0. -1.
    10030    2    1    2    0    0  0.00000000000E+00  0.00000000000E+00 -0.22953081291E+02  0.16865003470E+04  0.16863441454E+04 0.  0.
        3    1    3    3  502    0  0.53125662991E+03  0.64008926242E+03  0.12634501669E+03  0.84137443753E+03  0.10100000352E+00 0.  1.
       -3    1    3    3    0  502 -0.53125662991E+03 -0.64008926242E+03 -0.14929809798E+03  0.84512590952E+03  0.10100000352E+00 0. -1.
</event>
<event>
 5   0  0.3723500E-04  0.1750685E+04  0.7818609E-02  0.8732973E-01
        1   -1    0    0  501    0  0.00000000000E+00  0.00000000000E+00  0.12809065775E+04  0.12809065775E+04  0.50400001928E-02 0. -1.
       -1   -1    0    0    0  501  0.00000000000E+00  0.00000000000E+00 -0.59818916506E+03  0.59818916508E+03  0.50400001928E-02 0.  1.
    10030    2    1    2    0    0  0.00000000000E+00  0.00000000000E+00  0.68271741241E+03  0.18790957426E+04  0.17506849358E+04 0.  0.
        1    1    3    3  502    0  0.52616243242E+03 -0.67699333004E+03  0.53051665392E+03  0.10082731745E+04  0.50400001928E-02 0.  1.
       -1    1    3    3    0  502 -0.52616243242E+03  0.67699333004E+03  0.15220075849E+03  0.87082256810E+03  0.50400001928E-02 0. -1.
</event>
<event>
 5   0  0.7025426E-04  0.1705306E+04  0.7818609E-02  0.8758344E-01
        2   -1    0    0  501    0  0.00000000000E+00  0.00000000000E+00  0.11591284504E+04  0.11591284504E+04  0.25500000920E-02 0. -1.
       -2   -1    0    0    0  501  0.00000000000E+00  0.00000000000E+00 -0.62720979578E+03  0.62720979578E+03  0.25500000920E-02 0.  1.
    10030    2    1    2    0    0  0.00000000000E+00  0.00000000000E+00  0.53191865463E+03  0.17863382462E+04  0.17053055077E+04 0.  0.
        2    1    3    3  502    0 -0.98708388539E+02  0.29349217335E+03  0.10981500714E+04  0.11409708941E+04  0.25500000920E-02 0.  1.
       -2    1    3    3    0  502  0.98708388539E+02 -0.29349217335E+03 -0.56623141680E+03  0.64536735210E+03  0.25500000920E-02 0. -1.
</event>
<event>
 5   0  0.3723500E-04  0.1711567E+04  0.7818609E-02  0.8754795E-01
        1   -1    0    0  501    0  0.00000000000E+00  0.00000000000E+00  0.13759980670E+04  0.13759980670E+04  0.50400001928E-02 0. -1.
       -1   -1    0    0    0  501  0.00000000000E+00  0.00000000000E+00 -0.53224279293E+03  0.53224279295E+03  0.50400001928E-02 0.  1.
    10030    2    1    2    0    0  0.00000000000E+00  0.00000000000E+00  0.84375527408E+03  0.19082408600E+04  0.17115665973E+04 0.  0.
        1    1    3    3  502    0 -0.20726817093E+02 -0.85237040739E+03  0.50380745222E+03  0.99034683888E+03  0.50400001928E-02 0. -1.
       -1    1    3    3    0  502  0.20726817093E+02  0.85237040739E+03  0.33994782186E+03  0.91789402109E+03  0.50400001928E-02 0.  1.
</event>
<event>
 5   0  0.2639750E-04  0.1612526E+04  0.7818609E-02  0.8812890E-01
        4   -1    0    0  501    0  0.00000000000E+00  0.00000000000E+00  0.83023304740E+03  0.83023401876E+03  0.12699999809E+01 0.  1.
       -4   -1    0    0    0  501  0.00000000000E+00  0.00000000000E+00 -0.78298282208E+03  0.78298385205E+03  0.12699999809E+01 0. -1.
    10030    2    1    2    0    0  0.00000000000E+00  0.00000000000E+00  0.47250225327E+02  0.16132178708E+04  0.16125257563E+04 0.  0.
        2    1    3    3  502    0 -0.62266463633E+03 -0.24448518274E+02  0.53546062380E+03  0.82160030369E+03  0.25500000920E-02 0.  1.
       -2    1    3    3    0  502  0.62266463633E+03  0.24448518274E+02 -0.48821039847E+03  0.79161756711E+03  0.25500000920E-02 0. -1.
</event>
<event>
 5   0  0.3803253E-04  0.1702790E+04  0.7818609E-02  0.8759775E-01
        1   -1    0    0  501    0  0.00000000000E+00  0.00000000000E+00  0.44608941546E+03  0.44608941549E+03  0.50400001928E-02 0.  1.
       -1   -1    0    0    0  501  0.00000000000E+00  0.00000000000E+00 -0.16249517403E+04  0.16249517403E+04  0.50400001928E-02 0. -1.
    10030    2    1    2    0    0  0.00000000000E+00  0.00000000000E+00 -0.11788623249E+04  0.20710411558E+04  0.17027903829E+04 0.  0.
        4    1    3    3  502    0 -0.28094065541E+03  0.52749562633E+03 -0.13269449534E+04  0.14553225793E+04  0.12699999809E+01 0. -1.
       -4    1    3    3    0  502  0.28094065541E+03 -0.52749562633E+03  0.14808262853E+03  0.61571857649E+03  0.12699999809E+01 0.  1.
</event>
<event>
 5   0  0.7233728E-04  0.1766862E+04  0.7818609E-02  0.8724123E-01
       -2   -1    0    0    0  501  0.00000000000E+00  0.00000000000E+00  0.69434704316E+03  0.69434704316E+03  0.25500000920E-02 0.  1.
        2   -1    0    0  501    0  0.00000000000E+00  0.00000000000E+00 -0.11240059862E+04  0.11240059862E+04  0.25500000920E-02 0. -1.
    10030    2    1    2    0    0  0.00000000000E+00  0.00000000000E+00 -0.42965894307E+03  0.18183530294E+04  0.17668618882E+04 0.  0.
        1    1    3    3  502    0  0.19562285805E+03  0.68877676298E+03 -0.74737328673E+03  0.10350113823E+04  0.50400001928E-02 0. -1.
       -1    1    3    3    0  502 -0.19562285805E+03 -0.68877676298E+03  0.31771434367E+03  0.78334164705E+03  0.50400001928E-02 0.  1.
</event>
<event>
 5   0  0.7242144E-04  0.1722039E+04  0.7818609E-02  0.8748894E-01
        2   -1    0    0  501    0  0.00000000000E+00  0.00000000000E+00  0.15577788690E+04  0.15577788690E+04  0.25500000920E-02 0.  1.
       -2   -1    0    0    0  501  0.00000000000E+00  0.00000000000E+00 -0.47590495166E+03  0.47590495167E+03  0.25500000920E-02 0. -1.
    10030    2    1    2    0    0  0.00000000000E+00  0.00000000000E+00  0.10818739173E+04  0.20336838207E+04  0.17220391138E+04 0.  0.
        3    1    3    3  502    0  0.26571367229E+03  0.70242465036E+03  0.43593216799E+02  0.75226625860E+03  0.10100000352E+00 0.  1.
       -3    1    3    3    0  502 -0.26571367229E+03 -0.70242465036E+03  0.10382807005E+04  0.12814175621E+04  0.10100000352E+00 0. -1.
</event>
<event>
 5   0  0.3915701E-04  0.1715249E+04  0.7818609E-02  0.8752715E-01
        1   -1    0    0  501    0  0.00000000000E+00  0.00000000000E+00  0.76564918337E+03  0.76564918339E+03  0.50400001928E-02 0. -1.
       -1   -1    0    0    0  501  0.00000000000E+00  0.00000000000E+00 -0.96064884154E+03  0.96064884155E+03  0.50400001928E-02 0.  1.
    10030    2    1    2    0    0  0.00000000000E+00  0.00000000000E+00 -0.19499965817E+03  0.17262980249E+04  0.17152492543E+04 0.  0.
        2    1    3    3  502    0  0.23205452299E+03 -0.10969468111E+03 -0.92108497905E+03  0.95617977564E+03  0.25500000920E-02 0.  1.
       -2    1    3    3    0  502 -0.23205452299E+03  0.10969468111E+03  0.72608532088E+03  0.77011824931E+03  0.25500000920E-02 0. -1.
</event>
<event>
 5   0  0.2639750E-04  0.1708004E+04  0.7818609E-02  0.8756812E-01
       -3   -1    0    0    0  501  0.00000000000E+00  0.00000000000E+00  0.10449556697E+04  0.10449556745E+04  0.10100000352E+00 0. -1.
        3   -1    0    0  501    0  0.00000000000E+00  0.00000000000E+00 -0.69794304107E+03  0.69794304838E+03  0.10100000352E+00 0.  1.
    10030    2    1    2    0    0  0.00000000000E+00  0.00000000000E+00  0.34701262858E+03  0.17428987229E+04  0.17080041551E+04 0.  0.
        3    1    3    3  502    0  0.11555732678E+03 -0.39630815629E+02  0.10359933305E+04  0.10431712651E+04  0.10100000352E+00 0. -1.
       -3    1    3    3    0  502 -0.11555732678E+03  0.39630815629E+02 -0.68898070194E+03  0.69972745778E+03  0.10100000352E+00 0.  1.
</event>
<event>
 5   0  0.3713516E-04  0.1687023E+04  0.7818609E-02  0.8768801E-01
        1   -1    0    0  501    0  0.00000000000E+00  0.00000000000E+00  0.14743231493E+04  0.14743231494E+04  0.50400001928E-02 0.  1.
       -1   -1    0    0    0  501  0.00000000000E+00  0.00000000000E+00 -0.48260200378E+03  0.48260200380E+03  0.50400001928E-02 0. -1.
    10030    2    1    2    0    0  0.00000000000E+00  0.00000000000E+00  0.99172114557E+03  0.19569251532E+04  0.16870225916E+04 0.  0.
        5    1    3    3  502    0  0.23604952671E+03  0.13607758691E+03 -0.43013555042E+03  0.50919070146E+03  0.46999998093E+01 0. -1.
       -5    1    3    3    0  502 -0.23604952671E+03 -0.13607758691E+03  0.14218566960E+04  0.14477344517E+04  0.46999998093E+01 0.  1.
</event>
<event>
 5   0  0.6746664E-04  0.1655410E+04  0.7818609E-02  0.8787212E-01
       -2   -1    0    0    0  501  0.00000000000E+00  0.00000000000E+00  0.96330931912E+03  0.96330931912E+03  0.25500000920E-02 0. -1.
        2   -1    0    0  501    0  0.00000000000E+00  0.00000000000E+00 -0.71118984402E+03  0.71118984402E+03  0.25500000920E-02 0.  1.
    10030    2    1    2    0    0  0.00000000000E+00  0.00000000000E+00  0.25211947510E+03  0.16744991631E+04  0.16554102868E+04 0.  0.
        5    1    3    3  502    0 -0.14783842537E+03  0.51797277141E+03  0.76173424691E+03  0.93295934791E+03  0.46999998093E+01 0. -1.
       -5    1    3    3    0  502  0.14783842537E+03 -0.51797277141E+03 -0.50961477181E+03  0.74153981524E+03  0.46999998093E+01 0.  1.
</event>
<event>
 5   0  0.7233728E-04  0.1744554E+04  0.7818609E-02  0.8736354E-01
        2   -1    0    0  501    0  0.00000000000E+00  0.00000000000E+00  0.89728814663E+03  0.89728814663E+03  0.25500000920E-02 0.  1.
       -2   -1    0    0    0  501  0.00000000000E+00  0.00000000000E+00 -0.84796327117E+03  0.84796327118E+03  0.25500000920E-02 0. -1.
    10030    2    1    2    0    0  0.00000000000E+00  0.00000000000E+00  0.49324875457E+02  0.17452514178E+04  0.17445542606E+04 0.  0.
        1    1    3    3  502    0 -0.22570618730E+03 -0.53667509837E+03 -0.62513846788E+03  0.85426081980E+03  0.50400001928E-02 0. -1.
       -1    1    3    3    0  502  0.22570618730E+03  0.53667509837E+03  0.67446334334E+03  0.89099059801E+03  0.50400001928E-02 0.  1.
</event>
<event>
 5   0  0.3713516E-04  0.1481093E+04  0.7818609E-02  0.8897124E-01
        1   -1    0    0  501    0  0.00000000000E+00  0.00000000000E+00  0.64344881728E+03  0.64344881730E+03  0.50400001928E-02 0.  1.
       -1   -1    0    0    0  501  0.00000000000E+00  0.00000000000E+00 -0.85229669362E+03  0.85229669364E+03  0.50400001928E-02 0. -1.
    10030    2    1    2    0    0  0.00000000000E+00  0.00000000000E+00 -0.20884787634E+03  0.14957455109E+04  0.14810932442E+04 0.  0.
        5    1    3    3  502    0 -0.10578160316E+03  0.73224491466E+03 -0.72252122606E+02  0.74338067088E+03  0.46999998093E+01 0. -1.
       -5    1    3    3    0  502  0.10578160316E+03 -0.73224491466E+03 -0.13659575374E+03  0.75236484006E+03  0.46999998093E+01 0.  1.
</event>
<event>
 5   0  0.3803253E-04  0.1724702E+04  0.7818609E-02  0.8747400E-01
        1   -1    0    0  501    0  0.00000000000E+00  0.00000000000E+00  0.13036977310E+04  0.13036977310E+04  0.50400001928E-02 0.  1.
       -1   -1    0    0    0  501  0.00000000000E+00  0.00000000000E+00 -0.57041550390E+03  0.57041550393E+03  0.50400001928E-02 0. -1.
    10030    2    1    2    0    0  0.00000000000E+00  0.00000000000E+00  0.73328222706E+03  0.18741132349E+04  0.17247021751E+04 0.  0.
        4    1    3    3  502    0  0.65007144024E+03  0.15166764379E+03  0.95987727427E+03  0.11691714785E+04  0.12699999809E+01 0.  1.
       -4    1    3    3    0  502 -0.65007144024E+03 -0.15166764379E+03 -0.22659504721E+03  0.70494175640E+03  0.12699999809E+01 0. -1.
</event>
<event>
 5   0  0.7049044E-04  0.1685661E+04  0.7818609E-02  0.8769585E-01
       -2   -1    0    0    0  501  0.00000000000E+00  0.00000000000E+00  0.81364885568E+03  0.81364885569E+03  0.25500000920E-02 0. -1.
        2   -1    0    0  501    0  0.00000000000E+00  0.00000000000E+00 -0.87305879530E+03  0.87305879531E+03  0.25500000920E-02 0.  1.
    10030    2    1    2    0    0  0.00000000000E+00  0.00000000000E+00 -0.59409939621E+02  0.16867076510E+04  0.16856610451E+04 0.  0.
        4    1    3    3  502    0  0.19824688088E+03  0.41342395706E+03  0.67794023618E+03  0.81842884283E+03  0.12699999809E+01 0. -1.
       -4    1    3    3    0  502 -0.19824688088E+03 -0.41342395706E+03 -0.73735017580E+03  0.86827880816E+03  0.12699999809E+01 0.  1.
</event>
<event>
 5   0  0.7233728E-04  0.1699859E+04  0.7818609E-02  0.8761445E-01
       -2   -1    0    0    0  501  0.00000000000E+00  0.00000000000E+00  0.79401743734E+03  0.79401743734E+03  0.25500000920E-02 0.  1.
        2   -1    0    0  501    0  0.00000000000E+00  0.00000000000E+00 -0.90977889772E+03  0.90977889772E+03  0.25500000920E-02 0. -1.
    10030    2    1    2    0    0  0.00000000000E+00  0.00000000000E+00 -0.11576146039E+03  0.17037963351E+04  0.16998591811E+04 0.  0.
        1    1    3    3  502    0  0.80329934933E+03 -0.27505210946E+03 -0.19887773109E+02  0.84931680255E+03  0.50400001928E-02 0.  1.
       -1    1    3    3    0  502 -0.80329934933E+03  0.27505210946E+03 -0.95873687277E+02  0.85447953251E+03  0.50400001928E-02 0. -1.
</event>
<event>
 5   0  0.6746664E-04  0.1708659E+04  0.7818609E-02  0.8756441E-01
       -2   -1    0    0    0  501  0.00000000000E+00  0.00000000000E+00  0.34152931423E+03  0.34152931424E+03  0.25500000920E-02 0. -1.
        2   -1    0    0  501    0  0.00000000000E+00  0.00000000000E+00 -0.21370893483E+04  0.21370893483E+04  0.25500000920E-02 0.  1.
    10030    2    1    2    0    0  0.00000000000E+00  0.00000000000E+00 -0.17955600341E+04  0.24786186626E+04  0.17086587250E+04 0.  0.
        5    1    3    3  502    0  0.11023571319E+03 -0.28723870372E+03  0.25835657649E+03  0.40178127880E+03  0.46999998093E+01 0. -1.
       -5    1    3    3    0  502 -0.11023571319E+03  0.28723870372E+03 -0.20539166106E+04  0.20768373838E+04  0.46999998093E+01 0.  1.
</event>
<event>
 5   0  0.6746664E-04  0.1714254E+04  0.7818609E-02  0.8753276E-01
        2   -1    0    0  501    0  0.00000000000E+00  0.00000000000E+00  0.15100218002E+04  0.15100218002E+04  0.25500000920E-02 0.  1.
       -2   -1    0    0    0  501  0.00000000000E+00  0.00000000000E+00 -0.48652732790E+03  0.48652732791E+03  0.25500000920E-02 0. -1.
    10030    2    1    2    0    0  0.00000000000E+00  0.00000000000E+00  0.10234944723E+04  0.19965491281E+04  0.17142542070E+04 0.  0.
        5    1    3    3  502    0  0.15633202198E+03  0.67697007151E+02 -0.46659520478E+03  0.49674516706E+03  0.46999998093E+01 0. -1.
       -5    1    3    3    0  502 -0.15633202198E+03 -0.67697007151E+02  0.14900896770E+04  0.14998039610E+04  0.46999998093E+01 0.  1.
</event>
<event>
 5   0  0.6746664E-04  0.1694722E+04  0.7818609E-02  0.8764380E-01
        2   -1    0    0  501    0  0.00000000000E+00  0.00000000000E+00  0.75908626607E+03  0.75908626608E+03  0.25500000920E-02 0. -1.
       -2   -1    0    0    0  501  0.00000000000E+00  0.00000000000E+00 -0.94590172085E+03  0.94590172085E+03  0.25500000920E-02 0.  1.
    10030    2    1    2    0    0  0.00000000000E+00  0.00000000000E+00 -0.18681545478E+03  0.17049879869E+04  0.16947224025E+04 0.  0.
        5    1    3    3  502    0 -0.57254118277E+03 -0.61976941448E+03 -0.17186331951E+03  0.86109036906E+03  0.46999998093E+01 0. -1.
       -5    1    3    3    0  502  0.57254118277E+03  0.61976941448E+03 -0.14952135265E+02  0.84389761787E+03  0.46999998093E+01 0.  1.
</event>
<event>
 5   0  0.3713516E-04  0.1699604E+04  0.7818609E-02  0.8761590E-01
        1   -1    0    0  501    0  0.00000000000E+00  0.00000000000E+00  0.58993920135E+03  0.58993920137E+03  0.50400001928E-02 0.  1.
       -1   -1    0    0    0  501  0.00000000000E+00  0.00000000000E+00 -0.12241319017E+04  0.12241319017E+04  0.50400001928E-02 0. -1.
    10030    2    1    2    0    0  0.00000000000E+00  0.00000000000E+00 -0.63419270033E+03  0.18140711031E+04  0.16996039497E+04 0.  0.
        5    1    3    3  502    0 -0.41527517128E+03 -0.25969049544E+02  0.47376083485E+03  0.63055473835E+03  0.46999998093E+01 0.  1.
       -5    1    3    3    0  502  0.41527517128E+03  0.25969049544E+02 -0.11079535352E+04  0.11835163647E+04  0.46999998093E+01 0. -1.
</event>
<event>
 5   0  0.7233728E-04  0.1736676E+04  0.7818609E-02  0.8740719E-01
       -2   -1    0    0    0  501  0.00000000000E+00  0.00000000000E+00  0.90878070751E+03  0.90878070751E+03  0.25500000920E-02 0.  1.
        2   -1    0    0  501    0  0.00000000000E+00  0.00000000000E+00 -0.82969535329E+03  0.82969535330E+03  0.25500000920E-02 0. -1.
    10030    2    1    2    0    0  0.00000000000E+00  0.00000000000E+00  0.79085354216E+02  0.17384760608E+04  0.17366762855E+04 0.  0.
        1    1    3    3  502    0  0.28821809922E+02  0.56161827196E+03 -0.62278138384E+03  0.83910811712E+03  0.50400001928E-02 0. -1.
       -1    1    3    3    0  502 -0.28821809922E+02 -0.56161827196E+03  0.70186673806E+03  0.89936794369E+03  0.50400001928E-02 0.  1.
</event>
<event>
 5   0  0.3915701E-04  0.1693712E+04  0.7818609E-02  0.8764959E-01
        1   -1    0    0  501    0  0.00000000000E+00  0.00000000000E+00  0.82955088404E+03  0.82955088406E+03  0.50400001928E-02 0. -1.
       -1   -1    0    0    0  501  0.00000000000E+00  0.00000000000E+00 -0.86452190589E+03  0.86452190591E+03  0.50400001928E-02 0.  1.
    10030    2    1    2    0    0  0.00000000000E+00  0.00000000000E+00 -0.34971021846E+02  0.16940727900E+04  0.16937117952E+04 0.  0.
        2    1    3    3  502    0 -0.56191496567E+03  0.63029542022E+03  0.46903406466E+02  0.84570720402E+03  0.25500000920E-02 0. -1.
       -2    1    3    3    0  502  0.56191496567E+03 -0.63029542022E+03 -0.81874428312E+02  0.84836558594E+03  0.25500000920E-02 0.  1.
</event>
<event>
 5   0  0.3915701E-04  0.1701899E+04  0.7818609E-02  0.8760282E-01
        1   -1    0    0  501    0  0.00000000000E+00  0.00000000000E+00  0.11685891682E+04  0.11685891682E+04  0.50400001928E-02 0.  1.
       -1   -1    0    0    0  501  0.00000000000E+00  0.00000000000E+00 -0.61964904234E+03  0.61964904237E+03  0.50400001928E-02 0. -1.
    10030    2    1    2    0    0  0.00000000000E+00  0.00000000000E+00  0.54894012589E+03  0.17882382106E+04  0.17018991263E+04 0.  0.
        2    1    3    3  502    0  0.35179483948E+02 -0.76669119267E+03  0.66062218841E+03  0.10126572257E+04  0.25500000920E-02 0.  1.
       -2    1    3    3    0  502 -0.35179483948E+02  0.76669119267E+03 -0.11168206251E+03  0.77558098488E+03  0.25500000920E-02 0. -1.
</event>
<event>
 5   0  0.3635143E-04  0.1771033E+04  0.7818609E-02  0.8721857E-01
       -1   -1    0    0    0  501  0.00000000000E+00  0.00000000000E+00  0.75767749626E+03  0.75767749628E+03  0.50400001928E-02 0.  1.
        1   -1    0    0  501    0  0.00000000000E+00  0.00000000000E+00 -0.10349252981E+04  0.10349252981E+04  0.50400001928E-02 0. -1.
    10030    2    1    2    0    0  0.00000000000E+00  0.00000000000E+00 -0.27724780181E+03  0.17926027944E+04  0.17710331546E+04 0.  0.
        3    1    3    3  502    0  0.48585775826E+03 -0.73811032976E+03 -0.19654830741E+03  0.90526011041E+03  0.10100000352E+00 0. -1.
       -3    1    3    3    0  502 -0.48585775826E+03  0.73811032976E+03 -0.80699494400E+02  0.88734268395E+03  0.10100000352E+00 0.  1.
</event>
<event>
 5   0  0.7233728E-04  0.1723682E+04  0.7818609E-02  0.8747972E-01
        2   -1    0    0  501    0  0.00000000000E+00  0.00000000000E+00  0.15884140801E+04  0.15884140801E+04  0.25500000920E-02 0.  1.
       -2   -1    0    0    0  501  0.00000000000E+00  0.00000000000E+00 -0.46761722471E+03  0.46761722471E+03  0.25500000920E-02 0. -1.
    10030    2    1    2    0    0  0.00000000000E+00  0.00000000000E+00  0.11207968554E+04  0.20560313048E+04  0.17236818544E+04 0.  0.
        1    1    3    3  502    0 -0.50315314647E+03 -0.59842219009E+03  0.99294361977E+03  0.12638074373E+04  0.50400001928E-02 0.  1.
       -1    1    3    3    0  502  0.50315314647E+03  0.59842219009E+03  0.12785323558E+03  0.79222386752E+03  0.50400001928E-02 0. -1.
</event>
<event>
 5   0  0.3803253E-04  0.1708964E+04  0.7818609E-02  0.8756268E-01
        1   -1    0    0  501    0  0.00000000000E+00  0.00000000000E+00  0.30295557717E+03  0.30295557721E+03  0.50400001928E-02 0. -1.
       -1   -1    0    0    0  501  0.00000000000E+00  0.00000000000E+00 -0.24100545398E+04  0.24100545398E+04  0.50400001928E-02 0.  1.
    10030    2    1    2    0    0  0.00000000000E+00  0.00000000000E+00 -0.21070989626E+04  0.27130101170E+04  0.17089639717E+04 0.  0.
        4    1    3    3  502    0  0.52622239447E+03 -0.25384062843E+03 -0.20434182018E+04  0.21253010689E+04  0.12699999809E+01 0.  1.
       -4    1    3    3    0  502 -0.52622239447E+03  0.25384062843E+03 -0.63680760866E+02  0.58770904816E+03  0.12699999809E+01 0. -1.
</event>
<event>
 5   0  0.3803253E-04  0.1699706E+04  0.7818609E-02  0.8761532E-01
        1   -1    0    0  501    0  0.00000000000E+00  0.00000000000E+00  0.17438998125E+04  0.17438998125E+04  0.50400001928E-02 0.  1.
       -1   -1    0    0    0  501  0.00000000000E+00  0.00000000000E+00 -0.41415810467E+03  0.41415810470E+03  0.50400001928E-02 0. -1.
    10030    2    1    2    0    0  0.00000000000E+00  0.00000000000E+00  0.13297417078E+04  0.21580579172E+04  0.16997061406E+04 0.  0.
        4    1    3    3  502    0  0.63940641883E+01  0.52651995062E+02  0.17417951821E+04  0.17426029915E+04  0.12699999809E+01 0.  1.
       -4    1    3    3    0  502 -0.63940641883E+01 -0.52651995062E+02 -0.41205347433E+03  0.41545492565E+03  0.12699999809E+01 0. -1.
</event>
<event>
 5   0  0.3713516E-04  0.1785080E+04  0.7818609E-02  0.8714274E-01
       -1   -1    0    0    0  501  0.00000000000E+00  0.00000000000E+00  0.37571440042E+03  0.37571440045E+03  0.50400001928E-02 0. -1.
        1   -1    0    0  501    0  0.00000000000E+00  0.00000000000E+00 -0.21203006409E+04  0.21203006409E+04  0.50400001928E-02 0.  1.
    10030    2    1    2    0    0  0.00000000000E+00  0.00000000000E+00 -0.17445862404E+04  0.24960150413E+04  0.17850798123E+04 0.  0.
        5    1    3    3  502    0 -0.13695369953E+03  0.32258559135E+03  0.27546684303E+03  0.44578229122E+03  0.46999998093E+01 0. -1.
       -5    1    3    3    0  502  0.13695369953E+03 -0.32258559135E+03 -0.20200530835E+04  0.20502327501E+04  0.46999998093E+01 0.  1.
</event>
<event>
 5   0  0.7025426E-04  0.1579149E+04  0.7818609E-02  0.8833461E-01
        2   -1    0    0  501    0  0.00000000000E+00  0.00000000000E+00  0.10959947632E+04  0.10959947632E+04  0.25500000920E-02 0.  1.
       -2   -1    0    0    0  501  0.00000000000E+00  0.00000000000E+00 -0.56882348049E+03  0.56882348050E+03  0.25500000920E-02 0. -1.
    10030    2    1    2    0    0  0.00000000000E+00  0.00000000000E+00  0.52717128275E+03  0.16648182437E+04  0.15791485755E+04 0.  0.
        2    1    3    3  502    0  0.58498079519E+03 -0.96321719893E+02 -0.28619075529E+03  0.65832025100E+03  0.25500000920E-02 0. -1.
       -2    1    3    3    0  502 -0.58498079519E+03  0.96321719893E+02  0.81336203804E+03  0.10064979927E+04  0.25500000920E-02 0.  1.
</event>
<event>
 5   0  0.7049044E-04  0.1714770E+04  0.7818609E-02  0.8752985E-01
        2   -1    0    0  501    0  0.00000000000E+00  0.00000000000E+00  0.92039074441E+03  0.92039074441E+03  0.25500000920E-02 0.  1.
       -2   -1    0    0    0  501  0.00000000000E+00  0.00000000000E+00 -0.79869224045E+03  0.79869224045E+03  0.25500000920E-02 0. -1.
    10030    2    1    2    0    0  0.00000000000E+00  0.00000000000E+00  0.12169850396E+03  0.17190829849E+04  0.17147698921E+04 0.  0.
        4    1    3    3  502    0 -0.46454948238E+01 -0.41775484654E+03  0.81144243670E+03  0.91267800095E+03  0.12699999809E+01 0.  1.
       -4    1    3    3    0  502  0.46454948238E+01  0.41775484654E+03 -0.68974393274E+03  0.80640498392E+03  0.12699999809E+01 0. -1.
</event>
<event>
 5   0  0.6746664E-04  0.1650056E+04  0.7818609E-02  0.8790373E-01
        2   -1    0    0  501    0  0.00000000000E+00  0.00000000000E+00  0.10290835461E+04  0.10290835461E+04  0.25500000920E-02 0. -1.
       -2   -1    0    0    0  501  0.00000000000E+00  0.00000000000E+00 -0.66143449102E+03  0.66143449102E+03  0.25500000920E-02 0.  1.
    10030    2    1    2    0    0  0.00000000000E+00  0.00000000000E+00  0.36764905509E+03  0.16905180371E+04  0.16500561827E+04 0.  0.
        5    1    3    3  502    0 -0.10357710701E+03 -0.49727369914E+03  0.84987375830E+03  0.99010951111E+03  0.46999998093E+01 0. -1.
       -5    1    3    3    0  502  0.10357710701E+03  0.49727369914E+03 -0.48222470321E+03  0.70040852603E+03  0.46999998093E+01 0.  1.
</event>
<event>
 5   0  0.7242144E-04  0.1704774E+04  0.7818609E-02  0.8758646E-01
        2   -1    0    0  501    0  0.00000000000E+00  0.00000000000E+00  0.92758373862E+03  0.92758373862E+03  0.25500000920E-02 0. -1.
       -2   -1    0    0    0  501  0.00000000000E+00  0.00000000000E+00 -0.78328615470E+03  0.78328615470E+03  0.25500000920E-02 0.  1.
    10030    2    1    2    0    0  0.00000000000E+00  0.00000000000E+00  0.14429758392E+03  0.17108698933E+04  0.17047738851E+04 0.  0.
        3    1    3    3  502    0  0.10005919003E+03  0.68605421233E+03  0.56978608631E+03  0.89740649547E+03  0.10100000352E+00 0.  1.
       -3    1    3    3    0  502 -0.10005919003E+03 -0.68605421233E+03 -0.42548850239E+03  0.81346339785E+03  0.10100000352E+00 0. -1.
</event>
<event>
 5   0  0.6746664E-04  0.1656677E+04  0.7818609E-02  0.8786466E-01
        2   -1    0    0  501    0  0.00000000000E+00  0.00000000000E+00  0.16826792699E+04  0.16826792699E+04  0.25500000920E-02 0.  1.
       -2   -1    0    0    0  501  0.00000000000E+00  0.00000000000E+00 -0.40776921993E+03  0.40776921993E+03  0.25500000920E-02 0. -1.
    10030    2    1    2    0    0  0.00000000000E+00  0.00000000000E+00  0.12749100499E+04  0.20904484898E+04  0.16566771723E+04 0.  0.
        5    1    3    3  502    0 -0.42110891100E+03 -0.28313734731E+03 -0.18865795441E+03  0.54139947001E+03  0.46999998093E+01 0. -1.
       -5    1    3    3    0  502  0.42110891100E+03  0.28313734731E+03  0.14635680043E+04  0.15490490198E+04  0.46999998093E+01 0.  1.
</event>
<event>
 5   0  0.7025426E-04  0.1718085E+04  0.7818609E-02  0.8751116E-01
        2   -1    0    0  501    0  0.00000000000E+00  0.00000000000E+00  0.71076005875E+03  0.71076005875E+03  0.25500000920E-02 0. -1.
       -2   -1    0    0    0  501  0.00000000000E+00  0.00000000000E+00 -0.10382606949E+04  0.10382606949E+04  0.25500000920E-02 0.  1.
    10030    2    1    2    0    0  0.00000000000E+00  0.00000000000E+00 -0.32750063619E+03  0.17490207537E+04  0.17180852511E+04 0.  0.
        2    1    3    3  502    0  0.51442454640E+03 -0.45981214586E+03  0.35722046350E+03  0.77695964050E+03  0.25500000920E-02 0.  1.
       -2    1    3    3    0  502 -0.51442454640E+03  0.45981214586E+03 -0.68472109969E+03  0.97206111320E+03  0.25500000920E-02 0. -1.
</event>
<event>
 5   0  0.3723500E-04  0.1679671E+04  0.7818609E-02  0.8773045E-01
       -1   -1    0    0    0  501  0.00000000000E+00  0.00000000000E+00  0.71212141472E+03  0.71212141474E+03  0.50400001928E-02 0.  1.
        1   -1    0    0  501    0  0.00000000000E+00  0.00000000000E+00 -0.99045386764E+03  0.99045386765E+03  0.50400001928E-02 0. -1.
    10030    2    1    2    0    0  0.00000000000E+00  0.00000000000E+00 -0.27833245292E+03  0.17025752824E+04  0.16796706933E+04 0.  0.
        1    1    3    3  502    0  0.26968674871E+03 -0.36205528441E+03  0.57866327265E+03  0.73393879482E+03  0.50400001928E-02 0.  1.
       -1    1    3    3    0  502 -0.26968674871E+03  0.36205528441E+03 -0.85699572557E+03  0.96863648758E+03  0.50400001928E-02 0. -1.
</event>
<event>
 5   0  0.3803253E-04  0.1774399E+04  0.7818609E-02  0.8720034E-01
        1   -1    0    0  501    0  0.00000000000E+00  0.00000000000E+00  0.57916874497E+03  0.57916874499E+03  0.50400001928E-02 0.  1.
       -1   -1    0    0    0  501  0.00000000000E+00  0.00000000000E+00 -0.13590557593E+04  0.13590557593E+04  0.50400001928E-02 0. -1.
    10030    2    1    2    0    0  0.00000000000E+00  0.00000000000E+00 -0.77988701436E+03  0.19382245043E+04  0.17743986232E+04 0.  0.
        4    1    3    3  502    0 -0.40350664038E+03 -0.57382782755E+02 -0.12507437865E+04  0.13154740685E+04  0.12699999809E+01 0. -1.
       -4    1    3    3    0  502  0.40350664038E+03  0.57382782755E+02  0.47085677212E+03  0.62275043584E+03  0.12699999809E+01 0.  1.
</event>
<event>
 5   0  0.7049044E-04  0.1712611E+04  0.7818609E-02  0.8754205E-01
       -2   -1    0    0    0  501  0.00000000000E+00  0.00000000000E+00  0.36076638049E+03  0.36076638050E+03  0.25500000920E-02 0.  1.
        2   -1    0    0  501    0  0.00000000000E+00  0.00000000000E+00 -0.20325030789E+04  0.20325030789E+04  0.25500000920E-02 0. -1.
    10030    2    1    2    0    0  0.00000000000E+00  0.00000000000E+00 -0.16717366984E+04  0.23932694594E+04  0.17126106144E+04 0.  0.
        4    1    3    3  502    0 -0.29680124239E+03 -0.73364596582E+03 -0.12928326943E+04  0.15158315767E+04  0.12699999809E+01 0. -1.
       -4    1    3    3    0  502  0.29680124239E+03  0.73364596582E+03 -0.37890400404E+03  0.87743788261E+03  0.12699999809E+01 0.  1.
</event>
<event>
 5   0  0.7049044E-04  0.1698917E+04  0.7818609E-02  0.8761982E-01
        2   -1    0    0  501    0  0.00000000000E+00  0.00000000000E+00  0.80230593306E+03  0.80230593307E+03  0.25500000920E-02 0. -1.
       -2   -1    0    0    0  501  0.00000000000E+00  0.00000000000E+00 -0.89938235219E+03  0.89938235219E+03  0.25500000920E-02 0.  1.
    10030    2    1    2    0    0  0.00000000000E+00  0.00000000000E+00 -0.97076419126E+02  0.17016882853E+04  0.16989170636E+04 0.  0.
        4    1    3    3  502    0  0.63188828197E+03  0.30089383045E+03  0.43365985865E+03  0.82333613063E+03  0.12699999809E+01 0. -1.
       -4    1    3    3    0  502 -0.63188828197E+03 -0.30089383045E+03 -0.53073627778E+03  0.87835215463E+03  0.12699999809E+01 0.  1.
</event>
<event>
 5   0  0.3915701E-04  0.1696946E+04  0.7818609E-02  0.8763108E-01
       -1   -1    0    0    0  501  0.00000000000E+00  0.00000000000E+00  0.32798569720E+03  0.32798569724E+03  0.50400001928E-02 0. -1.
        1   -1    0    0  501    0  0.00000000000E+00  0.00000000000E+00 -0.21949333189E+04  0.21949333189E+04  0.50400001928E-02 0.  1.
    10030    2    1    2    0    0  0.00000000000E+00  0.00000000000E+00 -0.18669476217E+04  0.25229190161E+04  0.16969463574E+04 0.  0.
        2    1    3    3  502    0 -0.69997277317E+02  0.20514741871E+03  0.28612627908E+03  0.35896146008E+03  0.25500000920E-02 0. -1.
       -2    1    3    3    0  502  0.69997277317E+02 -0.20514741871E+03 -0.21530739008E+04  0.21639575560E+04  0.25500000920E-02 0.  1.
</event>
<event>
 5   0  0.2639750E-04  0.1490818E+04  0.7818609E-02  0.8890582E-01
        4   -1    0    0  501    0  0.00000000000E+00  0.00000000000E+00  0.86764421435E+03  0.86764514382E+03  0.12699999809E+01 0.  1.
       -4   -1    0    0    0  501  0.00000000000E+00  0.00000000000E+00 -0.64039297771E+03  0.64039423702E+03  0.12699999809E+01 0. -1.
    10030    2    1    2    0    0  0.00000000000E+00  0.00000000000E+00  0.22725123663E+03  0.15080393808E+04  0.14908184496E+04 0.  0.
        5    1    3    3  502    0  0.49603441637E+03  0.54902882899E+03  0.22417421914E+02  0.74027523806E+03  0.46999998093E+01 0. -1.
       -5    1    3    3    0  502 -0.49603441637E+03 -0.54902882899E+03  0.20483381472E+03  0.76776414277E+03  0.46999998093E+01 0.  1.
</event>
<event>
 5   0  0.7025426E-04  0.1750201E+04  0.7818609E-02  0.8733240E-01
       -2   -1    0    0    0  501  0.00000000000E+00  0.00000000000E+00  0.55656358319E+03  0.55656358319E+03  0.25500000920E-02 0.  1.
        2   -1    0    0  501    0  0.00000000000E+00  0.00000000000E+00 -0.13759453840E+04  0.13759453840E+04  0.25500000920E-02 0. -1.
    10030    2    1    2    0    0  0.00000000000E+00  0.00000000000E+00 -0.81938180085E+03  0.19325089672E+04  0.17502012378E+04 0.  0.
        2    1    3    3  502    0  0.14849513601E+02  0.37417081095E+03 -0.12830117821E+04  0.13365416331E+04  0.25500000920E-02 0. -1.
       -2    1    3    3    0  502 -0.14849513601E+02 -0.37417081095E+03  0.46362998130E+03  0.59596733416E+03  0.25500000920E-02 0.  1.
</event>
<event>
 5   0  0.7242144E-04  0.1713194E+04  0.7818609E-02  0.8753875E-01
        2   -1    0    0  501    0  0.00000000000E+00  0.00000000000E+00  0.69485158364E+03  0.69485158365E+03  0.25500000920E-02 0. -1.
       -2   -1    0    0    0  501  0.00000000000E+00  0.00000000000E+00 -0.10559924334E+04  0.10559924334E+04  0.25500000920E-02 0.  1.
    10030    2    1    2    0    0  0.00000000000E+00  0.00000000000E+00 -0.36114084978E+03  0.17508440171E+04  0.17131935264E+04 0.  0.
        3    1    3    3  502    0 -0.45332799685E+03  0.17873910504E+03 -0.90054133188E+03  0.10239280448E+04  0.10100000352E+00 0.  1.
       -3    1    3    3    0  502  0.45332799685E+03 -0.17873910504E+03  0.53940048210E+03  0.72691597223E+03  0.10100000352E+00 0. -1.
</event>
<event>
 5   0  0.7025426E-04  0.1695990E+04  0.7818609E-02  0.8763655E-01
       -2   -1    0    0    0  501  0.00000000000E+00  0.00000000000E+00  0.17185682851E+04  0.17185682851E+04  0.25500000920E-02 0.  1.
        2   -1    0    0  501    0  0.00000000000E+00  0.00000000000E+00 -0.41842699812E+03  0.41842699813E+03  0.25500000920E-02 0. -1.
    10030    2    1    2    0    0  0.00000000000E+00  0.00000000000E+00  0.13001412870E+04  0.21369952833E+04  0.16959898215E+04 0.  0.
        2    1    3    3  502    0 -0.29223908667E+03  0.55624702359E+03 -0.67460952087E+02  0.63195364948E+03  0.25500000920E-02 0. -1.
       -2    1    3    3    0  502  0.29223908667E+03 -0.55624702359E+03  0.13676022391E+04  0.15050416338E+04  0.25500000920E-02 0.  1.
</event>
<event>
 5   0  0.7233728E-04  0.1706350E+04  0.7818609E-02  0.8757751E-01
       -2   -1    0    0    0  501  0.00000000000E+00  0.00000000000E+00  0.62713320528E+03  0.62713320528E+03  0.25500000920E-02 0.  1.
        2   -1    0    0  501    0  0.00000000000E+00  0.00000000000E+00 -0.11606901413E+04  0.11606901413E+04  0.25500000920E-02 0. -1.
    10030    2    1    2    0    0  0.00000000000E+00  0.00000000000E+00 -0.53355693603E+03  0.17878233466E+04  0.17063497047E+04 0.  0.
        1    1    3    3  502    0 -0.67802956198E+03 -0.47251969909E+03 -0.44744082883E+02  0.82764786348E+03  0.50400001928E-02 0. -1.
       -1    1    3    3    0  502  0.67802956198E+03  0.47251969909E+03 -0.48881285315E+03  0.96017548311E+03  0.50400001928E-02 0.  1.
</event>
<event>
 5   0  0.3713516E-04  0.1712420E+04  0.7818609E-02  0.8754312E-01
        1   -1    0    0  501    0  0.00000000000E+00  0.00000000000E+00  0.18943485982E+04  0.18943485982E+04  0.50400001928E-02 0.  1.
       -1   -1    0    0    0  501  0.00000000000E+00  0.00000000000E+00 -0.38699106993E+03  0.38699106996E+03  0.50400001928E-02 0. -1.
    10030    2    1    2    0    0  0.00000000000E+00  0.00000000000E+00  0.15073575283E+04  0.22813396682E+04  0.17124204985E+04 0.  0.
        5    1    3    3  502    0 -0.44521997639E+03  0.56049226977E+03  0.12781160175E+03  0.72713843757E+03  0.46999998093E+01 0. -1.
       -5    1    3    3    0  502  0.44521997639E+03 -0.56049226977E+03  0.13795459266E+04  0.15542012306E+04  0.46999998093E+01 0.  1.
</event>
<event>
 5   0  0.6746664E-04  0.1693377E+04  0.7818609E-02  0.8765151E-01
        2   -1    0    0  501    0  0.00000000000E+00  0.00000000000E+00  0.49196354289E+03  0.49196354290E+03  0.25500000920E-02 0.  1.
       -2   -1    0    0    0  501  0.00000000000E+00  0.00000000000E+00 -0.14571840101E+04  0.14571840101E+04  0.25500000920E-02 0. -1.
    10030    2    1    2    0    0  0.00000000000E+00  0.00000000000E+00 -0.96522046725E+03  0.19491475530E+04  0.16933769908E+04 0.  0.
        5    1    3    3  502    0  0.18374146997E+03  0.79340333420E+03 -0.74911937010E+03  0.11065494563E+04  0.46999998093E+01 0. -1.
       -5    1    3    3    0  502 -0.18374146997E+03 -0.79340333420E+03 -0.21610109715E+03  0.84259809678E+03  0.46999998093E+01 0.  1.
</event>
<event>
 5   0  0.7049044E-04  0.1610460E+04  0.7818609E-02  0.8814148E-01
        2   -1    0    0  501    0  0.00000000000E+00  0.00000000000E+00  0.15342310992E+04  0.15342310992E+04  0.25500000920E-02 0.  1.
       -2   -1    0    0    0  501  0.00000000000E+00  0.00000000000E+00 -0.42261913912E+03  0.42261913913E+03  0.25500000920E-02 0. -1.
    10030    2    1    2    0    0  0.00000000000E+00  0.00000000000E+00  0.11116119601E+04  0.19568502383E+04  0.16104600912E+04 0.  0.
        4    1    3    3  502    0 -0.45690008783E+03  0.36906193545E+03  0.12251300751E+04  0.13586426006E+04  0.12699999809E+01 0.  1.
       -4    1    3    3    0  502  0.45690008783E+03 -0.36906193545E+03 -0.11351811501E+03  0.59820763769E+03  0.12699999809E+01 0. -1.
</event>
<event>
 5   0  0.7025426E-04  0.1720759E+04  0.7818609E-02  0.8749612E-01
       -2   -1    0    0    0  501  0.00000000000E+00  0.00000000000E+00  0.47813681605E+03  0.47813681606E+03  0.25500000920E-02 0.  1.
        2   -1    0    0  501    0  0.00000000000E+00  0.00000000000E+00 -0.15482032220E+04  0.15482032220E+04  0.25500000920E-02 0. -1.
    10030    2    1    2    0    0  0.00000000000E+00  0.00000000000E+00 -0.10700664060E+04  0.20263400381E+04  0.17207590874E+04 0.  0.
        2    1    3    3  502    0  0.27603451288E+03  0.40482300782E+03  0.29779185230E+03  0.57337309604E+03  0.25500000920E-02 0.  1.
       -2    1    3    3    0  502 -0.27603451288E+03 -0.40482300782E+03 -0.13678582583E+04  0.14529669420E+04  0.25500000920E-02 0. -1.
</event>
<event>
 5   0  0.3635143E-04  0.1741146E+04  0.7818609E-02  0.8738239E-01
        1   -1    0    0  501    0  0.00000000000E+00  0.00000000000E+00  0.15618702837E+04  0.15618702837E+04  0.50400001928E-02 0.  1.
       -1   -1    0    0    0  501  0.00000000000E+00  0.00000000000E+00 -0.48524991526E+03  0.48524991528E+03  0.50400001928E-02 0. -1.
    10030    2    1    2    0    0  0.00000000000E+00  0.00000000000E+00  0.10766203684E+04  0.20471201989E+04  0.17411460856E+04 0.  0.
        3    1    3    3  502    0  0.76737101046E+03  0.34042435260E+03  0.26725268815E+03  0.88100568503E+03  0.10100000352E+00 0.  1.
       -3    1    3    3    0  502 -0.76737101046E+03 -0.34042435260E+03  0.80936768024E+03  0.11661145139E+04  0.10100000352E+00 0. -1.
</event>
<event>
 5   0  0.3713516E-04  0.1645144E+04  0.7818609E-02  0.8793285E-01
       -1   -1    0    0    0  501  0.00000000000E+00  0.00000000000E+00  0.63611709389E+03  0.63611709391E+03  0.50400001928E-02 0. -1.
        1   -1    0    0  501    0  0.00000000000E+00  0.00000000000E+00 -0.10636791718E+04  0.10636791718E+04  0.50400001928E-02 0.  1.
    10030    2    1    2    0    0  0.00000000000E+00  0.00000000000E+00 -0.42756207790E+03  0.16997962657E+04  0.16451437671E+04 0.  0.
        5    1    3    3  502    0 -0.54063724865E+03  0.55784076043E+03 -0.49318545998E+03  0.92017875250E+03  0.46999998093E+01 0.  1.
       -5    1    3    3    0  502  0.54063724865E+03 -0.55784076043E+03  0.65623382081E+02  0.77961751321E+03  0.46999998093E+01 0. -1.
</event>
<event>
 5   0  0.7233728E-04  0.1682228E+04  0.7818609E-02  0.8771566E-01
        2   -1    0    0  501    0  0.00000000000E+00  0.00000000000E+00  0.32271541051E+03  0.32271541052E+03  0.25500000920E-02 0.  1.
       -2   -1    0    0    0  501  0.00000000000E+00  0.00000000000E+00 -0.21922509313E+04  0.21922509313E+04  0.25500000920E-02 0. -1.
    10030    2    1    2    0    0  0.00000000000E+00  0.00000000000E+00 -0.18695355208E+04  0.25149663419E+04  0.16822284735E+04 0.  0.
        1    1    3    3  502    0 -0.46379794186E+03  0.69875988894E+03 -0.83904853247E+03  0.11863289397E+04  0.50400001928E-02 0. -1.
       -1    1    3    3    0  502  0.46379794186E+03 -0.69875988894E+03 -0.10304869884E+04  0.13286374022E+04  0.50400001928E-02 0.  1.
</event>
<event>
 5   0  0.6746664E-04  0.1659488E+04  0.7818609E-02  0.8784813E-01
        2   -1    0    0  501    0  0.00000000000E+00  0.00000000000E+00  0.45767251976E+03  0.45767251977E+03  0.25500000920E-02 0.  1.
       -2   -1    0    0    0  501  0.00000000000E+00  0.00000000000E+00 -0.15042966331E+04  0.15042966332E+04  0.25500000920E-02 0. -1.
    10030    2    1    2    0    0  0.00000000000E+00  0.00000000000E+00 -0.10466241134E+04  0.19619691529E+04  0.16594881507E+04 0.  0.
        5    1    3    3  502    0  0.69757307053E+03  0.90423232092E+01 -0.10543664245E+04  0.12642786874E+04  0.46999998093E+01 0. -1.
       -5    1    3    3    0  502 -0.69757307053E+03 -0.90423232092E+01  0.77423110644E+01  0.69769046555E+03  0.46999998093E+01 0.  1.
</event>
<event>
 5   0  0.6746664E-04  0.1713954E+04  0.7818609E-02  0.8753446E-01
        2   -1    0    0  501    0  0.00000000000E+00  0.00000000000E+00  0.45996801063E+03  0.45996801064E+03  0.25500000920E-02 0. -1.
       -2   -1    0    0    0  501  0.00000000000E+00  0.00000000000E+00 -0.15966527407E+04  0.15966527407E+04  0.25500000920E-02 0.  1.
    10030    2    1    2    0    0  0.00000000000E+00  0.00000000000E+00 -0.11366847301E+04  0.20566207513E+04  0.17139535406E+04 0.  0.
        5    1    3    3  502    0  0.54018024578E+03 -0.32372811001E+03 -0.12657395248E+04  0.14137585443E+04  0.46999998093E+01 0.  1.
       -5    1    3    3    0  502 -0.54018024578E+03  0.32372811001E+03  0.12905479470E+03  0.64286220699E+03  0.46999998093E+01 0. -1.
</event>
<event>
 5   0  0.3803253E-04  0.1770231E+04  0.7818609E-02  0.8722292E-01
       -1   -1    0    0    0  501  0.00000000000E+00  0.00000000000E+00  0.10201056758E+04  0.10201056758E+04  0.50400001928E-02 0. -1.
        1   -1    0    0  501    0  0.00000000000E+00  0.00000000000E+00 -0.76798875744E+03  0.76798875746E+03  0.50400001928E-02 0.  1.
    10030    2    1    2    0    0  0.00000000000E+00  0.00000000000E+00  0.25211691836E+03  0.17880944333E+04  0.17702312735E+04 0.  0.
        4    1    3    3  502    0 -0.35960427751E+03  0.77723180069E+03  0.35197487003E+03  0.92590087507E+03  0.12699999809E+01 0.  1.
       -4    1    3    3    0  502  0.35960427751E+03 -0.77723180069E+03 -0.99857951669E+02  0.86219355821E+03  0.12699999809E+01 0. -1.
</event>
<event>
 5   0  0.3803253E-04  0.1681535E+04  0.7818609E-02  0.8771966E-01
       -1   -1    0    0    0  501  0.00000000000E+00  0.00000000000E+00  0.71414223037E+03  0.71414223039E+03  0.50400001928E-02 0. -1.
        1   -1    0    0  501    0  0.00000000000E+00  0.00000000000E+00 -0.98984492581E+03  0.98984492582E+03  0.50400001928E-02 0.  1.
    10030    2    1    2    0    0  0.00000000000E+00  0.00000000000E+00 -0.27570269544E+03  0.17039871562E+04  0.16815350880E+04 0.  0.
        4    1    3    3  502    0  0.41971900360E+03 -0.62868401148E+03 -0.51084315633E+03  0.91234312161E+03  0.12699999809E+01 0.  1.
       -4    1    3    3    0  502 -0.41971900360E+03  0.62868401148E+03  0.23514046089E+03  0.79164403460E+03  0.12699999809E+01 0. -1.
</event>
<event>
 5   0  0.3915701E-04  0.1638171E+04  0.7818609E-02  0.8797435E-01
       -1   -1    0    0    0  501  0.00000000000E+00  0.00000000000E+00  0.44547192473E+03  0.44547192475E+03  0.50400001928E-02 0.  1.
        1   -1    0    0  501    0  0.00000000000E+00  0.00000000000E+00 -0.15060457910E+04  0.15060457910E+04  0.50400001928E-02 0. -1.
    10030    2    1    2    0    0  0.00000000000E+00  0.00000000000E+00 -0.10605738663E+04  0.19515177158E+04  0.16381710744E+04 0.  0.
        2    1    3    3  502    0  0.13060875672E+03 -0.74982686749E+03 -0.16973647498E+03  0.77981372743E+03  0.25500000920E-02 0.  1.
       -2    1    3    3    0  502 -0.13060875672E+03  0.74982686749E+03 -0.89083739130E+03  0.11717039883E+04  0.25500000920E-02 0. -1.
</event>
<event>
 5   0  0.7233728E-04  0.1689586E+04  0.7818609E-02  0.8767326E-01
        2   -1    0    0  501    0  0.00000000000E+00  0.00000000000E+00  0.10662581161E+04  0.10662581161E+04  0.25500000920E-02 0.  1.
       -2   -1    0    0    0  501  0.00000000000E+00  0.00000000000E+00 -0.66932720677E+03  0.66932720677E+03  0.25500000920E-02 0. -1.
    10030    2    1    2    0    0  0.00000000000E+00  0.00000000000E+00  0.39693090933E+03  0.17355853229E+04  0.16895864187E+04 0.  0.
        1    1    3    3  502    0 -0.11316183020E+03 -0.15935870877E+03  0.10427136181E+04  0.10608734549E+04  0.50400001928E-02 0.  1.
       -1    1    3    3    0  502  0.11316183020E+03  0.15935870877E+03 -0.64578270876E+03  0.67471186801E+03  0.50400001928E-02 0. -1.
</event>
<event>
 5   0  0.6746664E-04  0.1692310E+04  0.7818609E-02  0.8765762E-01
       -2   -1    0    0    0  501  0.00000000000E+00  0.00000000000E+00  0.73021916064E+03  0.73021916065E+03  0.25500000920E-02 0.  1.
        2   -1    0    0  501    0  0.00000000000E+00  0.00000000000E+00 -0.98049809639E+03  0.98049809639E+03  0.25500000920E-02 0. -1.
    10030    2    1    2    0    0  0.00000000000E+00  0.00000000000E+00 -0.25027893574E+03  0.17107172570E+04  0.16923102517E+04 0.  0.
        5    1    3    3  502    0 -0.10792474660E+03 -0.70117989928E+03 -0.59130103354E+03  0.92355833835E+03  0.46999998093E+01 0. -1.
       -5    1    3    3    0  502  0.10792474660E+03  0.70117989928E+03  0.34102209780E+03  0.78715891868E+03  0.46999998093E+01 0.  1.
</event>
<event>
 5   0  0.7242144E-04  0.2055482E+04  0.7818609E-02  0.8581112E-01
       -2   -1    0    0    0  501  0.00000000000E+00  0.00000000000E+00  0.98250555905E+03  0.98250555906E+03  0.25500000920E-02 0. -1.
        2   -1    0    0  501    0  0.00000000000E+00  0.00000000000E+00 -0.10750589581E+04  0.10750589581E+04  0.25500000920E-02 0.  1.
    10030    2    1    2    0    0  0.00000000000E+00  0.00000000000E+00 -0.92553399043E+02  0.20575645172E+04  0.20554818439E+04 0.  0.
        3    1    3    3  502    0  0.99691458578E+03 -0.24872647965E+03 -0.22847014118E+02  0.10277283441E+04  0.10100000352E+00 0. -1.
       -3    1    3    3    0  502 -0.99691458578E+03  0.24872647965E+03 -0.69706384926E+02  0.10298361731E+04  0.10100000352E+00 0.  1.
</event>
<event>
 5   0  0.3803253E-04  0.1618445E+04  0.7818609E-02  0.8809296E-01
        1   -1    0    0  501    0  0.00000000000E+00  0.00000000000E+00  0.55366798747E+03  0.55366798749E+03  0.50400001928E-02 0. -1.
       -1   -1    0    0    0  501  0.00000000000E+00  0.00000000000E+00 -0.11827328604E+04  0.11827328604E+04  0.50400001928E-02 0.  1.
    10030    2    1    2    0    0  0.00000000000E+00  0.00000000000E+00 -0.62906487291E+03  0.17364008479E+04  0.16184453312E+04 0.  0.
        4    1    3    3  502    0 -0.12910981106E+03  0.39724861020E+03  0.42906372598E+03  0.59880973228E+03  0.12699999809E+01 0. -1.
       -4    1    3    3    0  502  0.12910981106E+03 -0.39724861020E+03 -0.10581285989E+04  0.11375911156E+04  0.12699999809E+01 0.  1.
</event>
<event>
 5   0  0.7233728E-04  0.1587361E+04  0.7818609E-02  0.8828351E-01
        2   -1    0    0  501    0  0.00000000000E+00  0.00000000000E+00  0.10912047633E+04  0.10912047633E+04  0.25500000920E-02 0. -1.
       -2   -1    0    0    0  501  0.00000000000E+00  0.00000000000E+00 -0.57727811492E+03  0.57727811492E+03  0.25500000920E-02 0.  1.
    10030    2    1    2    0    0  0.00000000000E+00  0.00000000000E+00  0.51392664840E+03  0.16684828782E+04  0.15873608648E+04 0.  0.
        1    1    3    3  502    0  0.48209903854E+03  0.63047576530E+03  0.26019538877E+03  0.83523698072E+03  0.50400001928E-02 0.  1.
       -1    1    3    3    0  502 -0.48209903854E+03 -0.63047576530E+03  0.25373125963E+03  0.83324589752E+03  0.50400001928E-02 0. -1.
</event>
<event>
 5   0  0.3803253E-04  0.1833224E+04  0.7818609E-02  0.8688828E-01
        1   -1    0    0  501    0  0.00000000000E+00  0.00000000000E+00  0.60469784448E+03  0.60469784450E+03  0.50400001928E-02 0. -1.
       -1   -1    0    0    0  501  0.00000000000E+00  0.00000000000E+00 -0.13894169877E+04  0.13894169877E+04  0.50400001928E-02 0.  1.
    10030    2    1    2    0    0  0.00000000000E+00  0.00000000000E+00 -0.78471914322E+03  0.19941148322E+04  0.18332238898E+04 0.  0.
        4    1    3    3  502    0  0.87812106397E+03  0.25961352438E+03 -0.34777372609E+03  0.97951210430E+03  0.12699999809E+01 0.  1.
       -4    1    3    3    0  502 -0.87812106397E+03 -0.25961352438E+03 -0.43694541714E+03  0.10146027279E+04  0.12699999809E+01 0. -1.
</event>
<event>
 5   0  0.7242144E-04  0.1392807E+04  0.7818609E-02  0.8959042E-01
       -2   -1    0    0    0  501  0.00000000000E+00  0.00000000000E+00  0.26763992183E+03  0.26763992184E+03  0.25500000920E-02 0. -1.
        2   -1    0    0  501    0  0.00000000000E+00  0.00000000000E+00 -0.18120525707E+04  0.18120525707E+04  0.25500000920E-02 0.  1.
    10030    2    1    2    0    0  0.00000000000E+00  0.00000000000E+00 -0.15444126488E+04  0.20796924925E+04  0.13928066749E+04 0.  0.
        3    1    3    3  502    0 -0.29510974828E+02 -0.61062196700E+03 -0.27417868942E+03  0.67000302100E+03  0.10100000352E+00 0. -1.
       -3    1    3    3    0  502  0.29510974828E+02  0.61062196700E+03 -0.12702339594E+04  0.14096894715E+04  0.10100000352E+00 0.  1.
</event>
<event>
 5   0  0.7049044E-04  0.1725261E+04  0.7818609E-02  0.8747087E-01
        2   -1    0    0  501    0  0.00000000000E+00  0.00000000000E+00  0.16240804513E+04  0.16240804513E+04  0.25500000920E-02 0.  1.
       -2   -1    0    0    0  501  0.00000000000E+00  0.00000000000E+00 -0.45818609821E+03  0.45818609822E+03  0.25500000920E-02 0. -1.
    10030    2    1    2    0    0  0.00000000000E+00  0.00000000000E+00  0.11658943531E+04  0.20822665495E+04  0.17252606587E+04 0.  0.
        4    1    3    3  502    0 -0.43564341069E+03  0.51185547055E+03 -0.69629978271E+02  0.67574488587E+03  0.12699999809E+01 0. -1.
       -4    1    3    3    0  502  0.43564341069E+03 -0.51185547055E+03  0.12355243313E+04  0.14065216636E+04  0.12699999809E+01 0.  1.
</event>
<event>
 5   0  0.3723500E-04  0.1723927E+04  0.7818609E-02  0.8747835E-01
        1   -1    0    0  501    0  0.00000000000E+00  0.00000000000E+00  0.60231381638E+03  0.60231381640E+03  0.50400001928E-02 0. -1.
       -1   -1    0    0    0  501  0.00000000000E+00  0.00000000000E+00 -0.12335440953E+04  0.12335440953E+04  0.50400001928E-02 0.  1.
    10030    2    1    2    0    0  0.00000000000E+00  0.00000000000E+00 -0.63123027889E+03  0.18358579117E+04  0.17239265086E+04 0.  0.
        1    1    3    3  502    0 -0.45834849471E+03  0.56675615569E+03 -0.80558021322E+03  0.10863955829E+04  0.50400001928E-02 0.  1.
       -1    1    3    3    0  502  0.45834849471E+03 -0.56675615569E+03  0.17434993433E+03  0.74946232877E+03  0.50400001928E-02 0. -1.
</event>
<event>
 5   0  0.7233728E-04  0.1778014E+04  0.7818609E-02  0.8718080E-01
       -2   -1    0    0    0  501  0.00000000000E+00  0.00000000000E+00  0.36210100235E+03  0.36210100236E+03  0.25500000920E-02 0.  1.
        2   -1    0    0  501    0  0.00000000000E+00  0.00000000000E+00 -0.21826318425E+04  0.21826318425E+04  0.25500000920E-02 0. -1.
    10030    2    1    2    0    0  0.00000000000E+00  0.00000000000E+00 -0.18205308401E+04  0.25447328448E+04  0.17780136984E+04 0.  0.
        1    1    3    3  502    0 -0.77683712708E+03 -0.28782048849E+03 -0.13718576250E+04  0.16025947395E+04  0.50400001928E-02 0. -1.
       -1    1    3    3    0  502  0.77683712708E+03  0.28782048849E+03 -0.44867321508E+03  0.94213810536E+03  0.50400001928E-02 0.  1.
</event>
<event>
 5   0  0.3713516E-04  0.1666961E+04  0.7818609E-02  0.8780436E-01
        1   -1    0    0  501    0  0.00000000000E+00  0.00000000000E+00  0.86473778570E+03  0.86473778571E+03  0.50400001928E-02 0.  1.
       -1   -1    0    0    0  501  0.00000000000E+00  0.00000000000E+00 -0.80335270336E+03  0.80335270338E+03  0.50400001928E-02 0. -1.
    10030    2    1    2    0    0  0.00000000000E+00  0.00000000000E+00  0.61385082338E+02  0.16680904891E+04  0.16669606328E+04 0.  0.
        5    1    3    3  502    0 -0.80588063338E+03  0.67037045217E+02 -0.17126047001E+03  0.82661345214E+03  0.46999998093E+01 0. -1.
       -5    1    3    3    0  502  0.80588063338E+03 -0.67037045217E+02  0.23264555235E+03  0.84147703695E+03  0.46999998093E+01 0.  1.
</event>
<event>
 5   0  0.3713516E-04  0.1674585E+04  0.7818609E-02  0.8775994E-01
       -1   -1    0    0    0  501  0.00000000000E+00  0.00000000000E+00  0.35986716997E+03  0.35986717000E+03  0.50400001928E-02 0. -1.
        1   -1    0    0  501    0  0.00000000000E+00  0.00000000000E+00 -0.19481037689E+04  0.19481037689E+04  0.50400001928E-02 0.  1.
    10030    2    1    2    0    0  0.00000000000E+00  0.00000000000E+00 -0.15882365989E+04  0.23079709389E+04  0.16745848323E+04 0.  0.
        5    1    3    3  502    0 -0.53587623712E+03 -0.24140368030E+03  0.27750482773E+02  0.58841418887E+03  0.46999998093E+01 0. -1.
       -5    1    3    3    0  502  0.53587623712E+03  0.24140368030E+03 -0.16159870817E+04  0.17195567500E+04  0.46999998093E+01 0.  1.
</event>
<event>
 5   0  0.3803253E-04  0.1117407E+04  0.7818609E-02  0.9188390E-01
       -1   -1    0    0    0  501  0.00000000000E+00  0.00000000000E+00  0.78208470000E+03  0.78208470001E+03  0.50400001928E-02 0. -1.
        1   -1    0    0  501    0  0.00000000000E+00  0.00000000000E+00 -0.39912499560E+03  0.39912499564E+03  0.50400001928E-02 0.  1.
    10030    2    1    2    0    0  0.00000000000E+00  0.00000000000E+00  0.38295970439E+03  0.11812096956E+04  0.11174069133E+04 0.  0.
        4    1    3    3  502    0  0.91488365227E+02  0.39632173898E+03  0.59637345588E+03  0.72187530331E+03  0.12699999809E+01 0. -1.
       -4    1    3    3    0  502 -0.91488365227E+02 -0.39632173898E+03 -0.21341375149E+03  0.45933439233E+03  0.12699999809E+01 0.  1.
</event>
<event>
 5   0  0.3635143E-04  0.1754098E+04  0.7818609E-02  0.8731098E-01
        1   -1    0    0  501    0  0.00000000000E+00  0.00000000000E+00  0.19338669046E+04  0.19338669046E+04  0.50400001928E-02 0.  1.
       -1   -1    0    0    0  501  0.00000000000E+00  0.00000000000E+00 -0.39775991553E+03  0.39775991556E+03  0.50400001928E-02 0. -1.
    10030    2    1    2    0    0  0.00000000000E+00  0.00000000000E+00  0.15361069891E+04  0.23316268202E+04  0.17540977586E+04 0.  0.
        3    1    3    3  502    0 -0.60826866486E+02  0.35003176239E+03 -0.29782630281E+03  0.46359751856E+03  0.10100000352E+00 0. -1.
       -3    1    3    3    0  502  0.60826866486E+02 -0.35003176239E+03  0.18339332919E+04  0.18680293016E+04  0.10100000352E+00 0.  1.
</event>
<event>
 5   0  0.3635143E-04  0.1707803E+04  0.7818609E-02  0.8756927E-01
       -1   -1    0    0    0  501  0.00000000000E+00  0.00000000000E+00  0.57032263974E+03  0.57032263976E+03  0.50400001928E-02 0.  1.
        1   -1    0    0  501    0  0.00000000000E+00  0.00000000000E+00 -0.12784828646E+04  0.12784828646E+04  0.50400001928E-02 0. -1.
    10030    2    1    2    0    0  0.00000000000E+00  0.00000000000E+00 -0.70816022482E+03  0.18488055043E+04  0.17078029420E+04 0.  0.
        3    1    3    3  502    0  0.51028270880E+03 -0.16904505509E+03  0.36416076738E+03  0.64929018801E+03  0.10100000352E+00 0.  1.
       -3    1    3    3    0  502 -0.51028270880E+03  0.16904505509E+03 -0.10723209922E+04  0.11995153163E+04  0.10100000352E+00 0. -1.
</event>
<event>
 5   0  0.3803253E-04  0.1714312E+04  0.7818609E-02  0.8753244E-01
       -1   -1    0    0    0  501  0.00000000000E+00  0.00000000000E+00  0.45054822590E+03  0.45054822593E+03  0.50400001928E-02 0. -1.
        1   -1    0    0  501    0  0.00000000000E+00  0.00000000000E+00 -0.16307156347E+04  0.16307156347E+04  0.50400001928E-02 0.  1.
    10030    2    1    2    0    0  0.00000000000E+00  0.00000000000E+00 -0.11801674088E+04  0.20812638606E+04  0.17143115658E+04 0.  0.
        4    1    3    3  502    0  0.60500566100E+03  0.34629856763E+03  0.15434986575E+02  0.69727641542E+03  0.12699999809E+01 0. -1.
       -4    1    3    3    0  502 -0.60500566100E+03 -0.34629856763E+03 -0.11956023953E+04  0.13839874452E+04  0.12699999809E+01 0.  1.
</event>
<event>
 5   0  0.3635143E-04  0.1605599E+04  0.7818609E-02  0.8817116E-01
        1   -1    0    0  501    0  0.00000000000E+00  0.00000000000E+00  0.15157655508E+04  0.15157655508E+04  0.50400001928E-02 0.  1.
       -1   -1    0    0    0  501  0.00000000000E+00  0.00000000000E+00 -0.42518907513E+03  0.42518907516E+03  0.50400001928E-02 0. -1.
    10030    2    1    2    0    0  0.00000000000E+00  0.00000000000E+00  0.10905764756E+04  0.19409546259E+04  0.16055988947E+04 0.  0.
        3    1    3    3  502    0  0.16156925799E+03  0.73889029516E+03  0.87061360171E+03  0.11532699368E+04  0.10100000352E+00 0. -1.
       -3    1    3    3    0  502 -0.16156925799E+03 -0.73889029516E+03  0.21996287392E+03  0.78768468915E+03  0.10100000352E+00 0.  1.
</event>
<event>
 5   0  0.3723500E-04  0.1675999E+04  0.7818609E-02  0.8775173E-01
        1   -1    0    0  501    0  0.00000000000E+00  0.00000000000E+00  0.99145278154E+03  0.99145278155E+03  0.50400001928E-02 0.  1.
       -1   -1    0    0    0  501  0.00000000000E+00  0.00000000000E+00 -0.70829681382E+03  0.70829681384E+03  0.50400001928E-02 0. -1.
    10030    2    1    2    0    0  0.00000000000E+00  0.00000000000E+00  0.28315596772E+03  0.16997495954E+04  0.16759986232E+04 0.  0.
        1    1    3    3  502    0 -0.83110928051E+03 -0.10723672286E+03  0.14229175941E+03  0.84999370333E+03  0.50400001928E-02 0. -1.
       -1    1    3    3    0  502  0.83110928051E+03  0.10723672286E+03  0.14086420831E+03  0.84975589206E+03  0.50400001928E-02 0.  1.
</event>
<event>
 5   0  0.3713516E-04  0.1639728E+04  0.7818609E-02  0.8796507E-01
        1   -1    0    0  501    0  0.00000000000E+00  0.00000000000E+00  0.43207103640E+03  0.43207103643E+03  0.50400001928E-02 0. -1.
       -1   -1    0    0    0  501  0.00000000000E+00  0.00000000000E+00 -0.15557087783E+04  0.15557087783E+04  0.50400001928E-02 0.  1.
    10030    2    1    2    0    0  0.00000000000E+00  0.00000000000E+00 -0.11236377419E+04  0.19877798147E+04  0.16397276654E+04 0.  0.
        5    1    3    3  502    0 -0.46131273978E+03 -0.56951351931E+03 -0.11640609813E+03  0.74211020895E+03  0.46999998093E+01 0. -1.
       -5    1    3    3    0  502  0.46131273978E+03  0.56951351931E+03 -0.10072316437E+04  0.12456696058E+04  0.46999998093E+01 0.  1.
</event>
<event>
 5   0  0.7242144E-04  0.1212588E+04  0.7818609E-02  0.9101909E-01
       -2   -1    0    0    0  501  0.00000000000E+00  0.00000000000E+00  0.15695600511E+03  0.15695600513E+03  0.25500000920E-02 0.  1.
        2   -1    0    0  501    0  0.00000000000E+00  0.00000000000E+00 -0.23420110774E+04  0.23420110774E+04  0.25500000920E-02 0. -1.
    10030    2    1    2    0    0  0.00000000000E+00  0.00000000000E+00 -0.21850550723E+04  0.24989670826E+04  0.12125884754E+04 0.  0.
        3    1    3    3  502    0  0.54158294186E+03 -0.33982561546E+02 -0.16498190112E+04  0.17367698976E+04  0.10100000352E+00 0. -1.
       -3    1    3    3    0  502 -0.54158294186E+03  0.33982561546E+02 -0.53523606111E+03  0.76219718493E+03  0.10100000352E+00 0.  1.
</event>
<event>
 5   0  0.7025426E-04  0.1703846E+04  0.7818609E-02  0.8759174E-01
       -2   -1    0    0    0  501  0.00000000000E+00  0.00000000000E+00  0.57716974794E+03  0.57716974795E+03  0.25500000920E-02 0.  1.
        2   -1    0    0  501    0  0.00000000000E+00  0.00000000000E+00 -0.12574691148E+04  0.12574691148E+04  0.25500000920E-02 0. -1.
    10030    2    1    2    0    0  0.00000000000E+00  0.00000000000E+00 -0.68029936684E+03  0.18346388627E+04  0.17038463922E+04 0.  0.
        2    1    3    3  502    0 -0.66923950129E+03  0.52697273843E+03 -0.32525470356E+03  0.91179624881E+03  0.25500000920E-02 0. -1.
       -2    1    3    3    0  502  0.66923950129E+03 -0.52697273843E+03 -0.35504466329E+03  0.92284261393E+03  0.25500000920E-02 0.  1.
</event>
<event>
 5   0  0.3713516E-04  0.1671256E+04  0.7818609E-02  0.8777930E-01
       -1   -1    0    0    0  501  0.00000000000E+00  0.00000000000E+00  0.79745073265E+03  0.79745073266E+03  0.50400001928E-02 0.  1.
        1   -1    0    0  501    0  0.00000000000E+00  0.00000000000E+00 -0.87563313834E+03  0.87563313835E+03  0.50400001928E-02 0. -1.
    10030    2    1    2    0    0  0.00000000000E+00  0.00000000000E+00 -0.78182405690E+02  0.16730838710E+04  0.16712561596E+04 0.  0.
        5    1    3    3  502    0 -0.26725137359E+03 -0.15666751020E+03  0.73782722732E+03  0.80023691043E+03  0.46999998093E+01 0.  1.
       -5    1    3    3    0  502  0.26725137359E+03  0.15666751020E+03 -0.81600963301E+03  0.87284696059E+03  0.46999998093E+01 0. -1.
</event>
<event>
 5   0  0.7242144E-04  0.1716216E+04  0.7818609E-02  0.8752170E-01
        2   -1    0    0  501    0  0.00000000000E+00  0.00000000000E+00  0.16909634468E+04  0.16909634468E+04  0.25500000920E-02 0.  1.
       -2   -1    0    0    0  501  0.00000000000E+00  0.00000000000E+00 -0.43546117227E+03  0.43546117228E+03  0.25500000920E-02 0. -1.
    10030    2    1    2    0    0  0.00000000000E+00  0.00000000000E+00  0.12555022745E+04  0.21264246191E+04  0.17162155165E+04 0.  0.
        3    1    3    3  502    0  0.15512327208E+03 -0.21570762345E+03  0.16387151157E+04  0.16601145289E+04  0.10100000352E+00 0.  1.
       -3    1    3    3    0  502 -0.15512327208E+03  0.21570762345E+03 -0.38321284119E+03  0.46631009018E+03  0.10100000352E+00 0. -1.
</event>
<event>
 5   0  0.7233728E-04  0.1696555E+04  0.7818609E-02  0.8763332E-01
        2   -1    0    0  501    0  0.00000000000E+00  0.00000000000E+00  0.29102337056E+04  0.29102337056E+04  0.25500000920E-02 0. -1.
       -2   -1    0    0    0  501  0.00000000000E+00  0.00000000000E+00 -0.24725658773E+03  0.24725658774E+03  0.25500000920E-02 0.  1.
    10030    2    1    2    0    0  0.00000000000E+00  0.00000000000E+00  0.26629771178E+04  0.31574902933E+04  0.16965546918E+04 0.  0.
        1    1    3    3  502    0  0.17844635608E+03 -0.19739405068E+02 -0.21149219467E+03  0.27741970828E+03  0.50400001928E-02 0.  1.
       -1    1    3    3    0  502 -0.17844635608E+03  0.19739405068E+02  0.28744693125E+04  0.28800705850E+04  0.50400001928E-02 0. -1.
</event>
<event>
 5   0  0.7049044E-04  0.1651752E+04  0.7818609E-02  0.8789370E-01
       -2   -1    0    0    0  501  0.00000000000E+00  0.00000000000E+00  0.84959622867E+03  0.84959622867E+03  0.25500000920E-02 0. -1.
        2   -1    0    0  501    0  0.00000000000E+00  0.00000000000E+00 -0.80281840023E+03  0.80281840024E+03  0.25500000920E-02 0.  1.
    10030    2    1    2    0    0  0.00000000000E+00  0.00000000000E+00  0.46777828434E+02  0.16524146289E+04  0.16517523848E+04 0.  0.
        4    1    3    3  502    0 -0.50361023600E+00  0.54670260694E+03  0.64265719573E+03  0.84373803884E+03  0.12699999809E+01 0. -1.
       -4    1    3    3    0  502  0.50361023600E+00 -0.54670260694E+03 -0.59587936730E+03  0.80867659007E+03  0.12699999809E+01 0.  1.
</event>
<event>
 5   0  0.7025426E-04  0.1268486E+04  0.7818609E-02  0.9054936E-01
       -2   -1    0    0    0  501  0.00000000000E+00  0.00000000000E+00  0.40976781527E+03  0.40976781528E+03  0.25500000920E-02 0. -1.
        2   -1    0    0  501    0  0.00000000000E+00  0.00000000000E+00 -0.98168855014E+03  0.98168855014E+03  0.25500000920E-02 0.  1.
    10030    2    1    2    0    0  0.00000000000E+00  0.00000000000E+00 -0.57192073487E+03  0.13914563654E+04  0.12684862987E+04 0.  0.
        2    1    3    3  502    0 -0.48960973984E+03 -0.14400396574E+03  0.12712187374E+03  0.52594183165E+03  0.25500000920E-02 0. -1.
       -2    1    3    3    0  502  0.48960973984E+03  0.14400396574E+03 -0.69904260862E+03  0.86551453377E+03  0.25500000920E-02 0.  1.
</event>
<event>
 5   0  0.3713516E-04  0.1697745E+04  0.7818609E-02  0.8762652E-01
        1   -1    0    0  501    0  0.00000000000E+00  0.00000000000E+00  0.18489024785E+04  0.18489024785E+04  0.50400001928E-02 0.  1.
       -1   -1    0    0    0  501  0.00000000000E+00  0.00000000000E+00 -0.38973635426E+03  0.38973635429E+03  0.50400001928E-02 0. -1.
    10030    2    1    2    0    0  0.00000000000E+00  0.00000000000E+00  0.14591661243E+04  0.22386388328E+04  0.16977449884E+04 0.  0.
        5    1    3    3  502    0 -0.84449185540E+03  0.84497445125E+02  0.70848103012E+03  0.11055649108E+04  0.46999998093E+01 0.  1.
       -5    1    3    3    0  502  0.84449185540E+03 -0.84497445125E+02  0.75068509413E+03  0.11330739220E+04  0.46999998093E+01 0. -1.
</event>
<event>
 5   0  0.7025426E-04  0.1753756E+04  0.7818609E-02  0.8731286E-01
        2   -1    0    0  501    0  0.00000000000E+00  0.00000000000E+00  0.90494079866E+03  0.90494079866E+03  0.25500000920E-02 0.  1.
       -2   -1    0    0    0  501  0.00000000000E+00  0.00000000000E+00 -0.84968542985E+03  0.84968542986E+03  0.25500000920E-02 0. -1.
    10030    2    1    2    0    0  0.00000000000E+00  0.00000000000E+00  0.55255368804E+02  0.17546262285E+04  0.17537559825E+04 0.  0.
        2    1    3    3  502    0  0.15164557105E+03  0.22193587958E+03  0.86270532350E+03  0.90361075086E+03  0.25500000920E-02 0.  1.
       -2    1    3    3    0  502 -0.15164557105E+03 -0.22193587958E+03 -0.80744995470E+03  0.85101547766E+03  0.25500000920E-02 0. -1.
</event>
<event>
 5   0  0.3713516E-04  0.1716099E+04  0.7818609E-02  0.8752235E-01
        1   -1    0    0  501    0  0.00000000000E+00  0.00000000000E+00  0.13969276990E+04  0.13969276991E+04  0.50400001928E-02 0. -1.
       -1   -1    0    0    0  501  0.00000000000E+00  0.00000000000E+00 -0.52704872500E+03  0.52704872503E+03  0.50400001928E-02 0.  1.
    10030    2    1    2    0    0  0.00000000000E+00  0.00000000000E+00  0.86987897404E+03  0.19239764241E+04  0.17160990213E+04 0.  0.
        5    1    3    3  502    0  0.72382671893E+03 -0.35691542735E+03  0.10824272438E+03  0.81428024579E+03  0.46999998093E+01 0.  1.
       -5    1    3    3    0  502 -0.72382671893E+03  0.35691542735E+03  0.76163624966E+03  0.11096961783E+04  0.46999998093E+01 0. -1.
</event>
<event>
 5   0  0.3915701E-04  0.1649248E+04  0.7818609E-02  0.8790851E-01
       -1   -1    0    0    0  501  0.00000000000E+00  0.00000000000E+00  0.33861123961E+03  0.33861123965E+03  0.50400001928E-02 0.  1.
        1   -1    0    0  501    0  0.00000000000E+00  0.00000000000E+00 -0.20082168010E+04  0.20082168010E+04  0.50400001928E-02 0. -1.
    10030    2    1    2    0    0  0.00000000000E+00  0.00000000000E+00 -0.16696055614E+04  0.23468280407E+04  0.16492480474E+04 0.  0.
        2    1    3    3  502    0 -0.36822527547E+03  0.61055305716E+03 -0.24527482338E+03  0.75400572153E+03  0.25500000920E-02 0.  1.
       -2    1    3    3    0  502  0.36822527547E+03 -0.61055305716E+03 -0.14243307380E+04  0.15928223192E+04  0.25500000920E-02 0. -1.
</event>
<event>
 5   0  0.3915701E-04  0.1705286E+04  0.7818609E-02  0.8758355E-01
        1   -1    0    0  501    0  0.00000000000E+00  0.00000000000E+00  0.11082831624E+04  0.11082831624E+04  0.50400001928E-02 0. -1.
       -1   -1    0    0    0  501  0.00000000000E+00  0.00000000000E+00 -0.65596955242E+03  0.65596955244E+03  0.50400001928E-02 0.  1.
    10030    2    1    2    0    0  0.00000000000E+00  0.00000000000E+00  0.45231360996E+03  0.17642527148E+04  0.17052859115E+04 0.  0.
        2    1    3    3  502    0  0.29204490225E+03 -0.53466639026E+03  0.84330856458E+03  0.10403498012E+04  0.25500000920E-02 0. -1.
       -2    1    3    3    0  502 -0.29204490225E+03  0.53466639026E+03 -0.39099495462E+03  0.72390291362E+03  0.25500000920E-02 0.  1.
</event>
<event>
 5   0  0.3803253E-04  0.1682859E+04  0.7818609E-02  0.8771201E-01
        1   -1    0    0  501    0  0.00000000000E+00  0.00000000000E+00  0.10350149612E+04  0.10350149612E+04  0.50400001928E-02 0. -1.
       -1   -1    0    0    0  501  0.00000000000E+00  0.00000000000E+00 -0.68405160427E+03  0.68405160429E+03  0.50400001928E-02 0.  1.
    10030    2    1    2    0    0  0.00000000000E+00  0.00000000000E+00  0.35096335697E+03  0.17190665655E+04  0.16828590490E+04 0.  0.
        4    1    3    3  502    0 -0.77478590876E+02  0.26079936065E+03  0.98884331966E+03  0.10255885931E+04  0.12699999809E+01 0. -1.
       -4    1    3    3    0  502  0.77478590876E+02 -0.26079936065E+03 -0.63787996269E+03  0.69347797244E+03  0.12699999809E+01 0.  1.
</event>
<event>
 5   0  0.7233728E-04  0.1237299E+04  0.7818609E-02  0.9080821E-01
       -2   -1    0    0    0  501  0.00000000000E+00  0.00000000000E+00  0.20721387501E+03  0.20721387502E+03  0.25500000920E-02 0. -1.
        2   -1    0    0  501    0  0.00000000000E+00  0.00000000000E+00 -0.18470166358E+04  0.18470166358E+04  0.25500000920E-02 0.  1.
    10030    2    1    2    0    0  0.00000000000E+00  0.00000000000E+00 -0.16398027608E+04  0.20542305108E+04  0.12372994372E+04 0.  0.
        1    1    3    3  502    0  0.13817593773E+02 -0.10629986173E+03  0.19167789119E+03  0.21961557435E+03  0.50400001928E-02 0. -1.
       -1    1    3    3    0  502 -0.13817593773E+02  0.10629986173E+03 -0.18314806520E+04  0.18346149365E+04  0.50400001928E-02 0.  1.
</event>
<event>
 5   0  0.7049044E-04  0.1478885E+04  0.7818609E-02  0.8898617E-01
       -2   -1    0    0    0  501  0.00000000000E+00  0.00000000000E+00  0.42861860753E+03  0.42861860754E+03  0.25500000920E-02 0. -1.
        2   -1    0    0  501    0  0.00000000000E+00  0.00000000000E+00 -0.12756680000E+04  0.12756680000E+04  0.25500000920E-02 0.  1.
    10030    2    1    2    0    0  0.00000000000E+00  0.00000000000E+00 -0.84704939248E+03  0.17042866076E+04  0.14788847715E+04 0.  0.
        4    1    3    3  502    0 -0.42898923777E+02 -0.42028761394E+03 -0.11228900321E+04  0.11997356513E+04  0.12699999809E+01 0.  1.
       -4    1    3    3    0  502  0.42898923777E+02  0.42028761394E+03  0.27584063957E+03  0.50455095623E+03  0.12699999809E+01 0. -1.
</event>
<event>
 5   0  0.3635143E-04  0.1670725E+04  0.7818609E-02  0.8778240E-01
        1   -1    0    0  501    0  0.00000000000E+00  0.00000000000E+00  0.85481312049E+03  0.85481312051E+03  0.50400001928E-02 0. -1.
       -1   -1    0    0    0  501  0.00000000000E+00  0.00000000000E+00 -0.81635404893E+03  0.81635404894E+03  0.50400001928E-02 0.  1.
    10030    2    1    2    0    0  0.00000000000E+00  0.00000000000E+00  0.38459071563E+02  0.16711671695E+04  0.16707245758E+04 0.  0.
        3    1    3    3  502    0 -0.11233761422E+03 -0.44631745523E+03 -0.67810013168E+03  0.81953572783E+03  0.10100000352E+00 0.  1.
       -3    1    3    3    0  502  0.11233761422E+03  0.44631745523E+03  0.71655920324E+03  0.85163144162E+03  0.10100000352E+00 0. -1.
</event>
<event>
 5   0  0.7242144E-04  0.1709772E+04  0.7818609E-02  0.8755811E-01
       -2   -1    0    0    0  501  0.00000000000E+00  0.00000000000E+00  0.94604542721E+03  0.94604542721E+03  0.25500000920E-02 0.  1.
        2   -1    0    0  501    0  0.00000000000E+00  0.00000000000E+00 -0.77251066382E+03  0.77251066383E+03  0.25500000920E-02 0. -1.
    10030    2    1    2    0    0  0.00000000000E+00  0.00000000000E+00  0.17353476339E+03  0.17185560910E+04  0.17097721263E+04 0.  0.
        3    1    3    3  502    0  0.20273513225E+01 -0.85161537152E+03  0.11702250905E+02  0.85169818835E+03  0.10100000352E+00 0.  1.
       -3    1    3    3    0  502 -0.20273513225E+01  0.85161537152E+03  0.16183251248E+03  0.86685790269E+03  0.10100000352E+00 0. -1.
</event>
<event>
 5   0  0.3635143E-04  0.1718006E+04  0.7818609E-02  0.8751161E-01
       -1   -1    0    0    0  501  0.00000000000E+00  0.00000000000E+00  0.10884057201E+04  0.10884057201E+04  0.50400001928E-02 0. -1.
        1   -1    0    0  501    0  0.00000000000E+00  0.00000000000E+00 -0.67795129556E+03  0.67795129558E+03  0.50400001928E-02 0.  1.
    10030    2    1    2    0    0  0.00000000000E+00  0.00000000000E+00  0.41045442456E+03  0.17663570157E+04  0.17180059000E+04 0.  0.
        3    1    3    3  502    0 -0.27243991617E+03  0.36858191068E+03 -0.54172464755E+03  0.70960674798E+03  0.10100000352E+00 0.  1.
       -3    1    3    3    0  502  0.27243991617E+03 -0.36858191068E+03  0.95217907211E+03  0.10567502677E+04  0.10100000352E+00 0. -1.
</event>
<event>
 5   0  0.3915701E-04  0.1714191E+04  0.7818609E-02  0.8753312E-01
        1   -1    0    0  501    0  0.00000000000E+00  0.00000000000E+00  0.47129728358E+03  0.47129728361E+03  0.50400001928E-02 0. -1.
       -1   -1    0    0    0  501  0.00000000000E+00  0.00000000000E+00 -0.15587028306E+04  0.15587028306E+04  0.50400001928E-02 0.  1.
    10030    2    1    2    0    0  0.00000000000E+00  0.00000000000E+00 -0.10874055470E+04  0.20300001142E+04  0.17141906662E+04 0.  0.
        2    1    3    3  502    0 -0.40823694723E+03 -0.41572309641E+03  0.20069756248E+03  0.61624882114E+03  0.25500000920E-02 0. -1.
       -2    1    3    3    0  502  0.40823694723E+03  0.41572309641E+03 -0.12881031095E+04  0.14137512931E+04  0.25500000920E-02 0.  1.
</event>
<event>
 5   0  0.7025426E-04  0.1583926E+04  0.7818609E-02  0.8830484E-01
        2   -1    0    0  501    0  0.00000000000E+00  0.00000000000E+00  0.11127131190E+04  0.11127131190E+04  0.25500000920E-02 0. -1.
       -2   -1    0    0    0  501  0.00000000000E+00  0.00000000000E+00 -0.56367200256E+03  0.56367200256E+03  0.25500000920E-02 0.  1.
    10030    2    1    2    0    0  0.00000000000E+00  0.00000000000E+00  0.54904111649E+03  0.16763851216E+04  0.15839257964E+04 0.  0.
        2    1    3    3  502    0  0.29006600927E+03 -0.47294734529E+03  0.87265401277E+03  0.10340901833E+04  0.25500000920E-02 0. -1.
       -2    1    3    3    0  502 -0.29006600927E+03  0.47294734529E+03 -0.32361289628E+03  0.64229493833E+03  0.25500000920E-02 0.  1.
</event>
<event>
 5   0  0.3713516E-04  0.1692954E+04  0.7818609E-02  0.8765393E-01
        1   -1    0    0  501    0  0.00000000000E+00  0.00000000000E+00  0.69847026188E+03  0.69847026190E+03  0.50400001928E-02 0. -1.
       -1   -1    0    0    0  501  0.00000000000E+00  0.00000000000E+00 -0.10258462455E+04  0.10258462455E+04  0.50400001928E-02 0.  1.
    10030    2    1    2    0    0  0.00000000000E+00  0.00000000000E+00 -0.32737598361E+03  0.17243165074E+04  0.16929537451E+04 0.  0.
        5    1    3    3  502    0  0.46857047832E+03  0.69626499557E+03 -0.51383059831E+02  0.84083621832E+03  0.46999998093E+01 0. -1.
       -5    1    3    3    0  502 -0.46857047832E+03 -0.69626499557E+03 -0.27599292378E+03  0.88348028907E+03  0.46999998093E+01 0.  1.
</event>
<event>
 5   0  0.3723500E-04  0.1710379E+04  0.7818609E-02  0.8755467E-01
        1   -1    0    0  501    0  0.00000000000E+00  0.00000000000E+00  0.11506518761E+04  0.11506518761E+04  0.50400001928E-02 0. -1.
       -1   -1    0    0    0  501  0.00000000000E+00  0.00000000000E+00 -0.63559535164E+03  0.63559535166E+03  0.50400001928E-02 0.  1.
    10030    2    1    2    0    0  0.00000000000E+00  0.00000000000E+00  0.51505652449E+03  0.17862472278E+04  0.17103788865E+04 0.  0.
        1    1    3    3  502    0  0.42857339557E+03  0.50631341598E+03 -0.30615456482E+03  0.73058815223E+03  0.50400001928E-02 0.  1.
       -1    1    3    3    0  502 -0.42857339557E+03 -0.50631341598E+03  0.82121108931E+03  0.10556590756E+04  0.50400001928E-02 0. -1.
</event>
<event>
 5   0  0.7049044E-04  0.1273053E+04  0.7818609E-02  0.9051211E-01
        2   -1    0    0  501    0  0.00000000000E+00  0.00000000000E+00  0.56591338265E+03  0.56591338266E+03  0.25500000920E-02 0. -1.
       -2   -1    0    0    0  501  0.00000000000E+00  0.00000000000E+00 -0.71595089847E+03  0.71595089847E+03  0.25500000920E-02 0.  1.
    10030    2    1    2    0    0  0.00000000000E+00  0.00000000000E+00 -0.15003751582E+03  0.12818642811E+04  0.12730533292E+04 0.  0.
        4    1    3    3  502    0  0.41258908585E+03  0.48254068109E+03 -0.28993328676E+02  0.63554503277E+03  0.12699999809E+01 0. -1.
       -4    1    3    3    0  502 -0.41258908585E+03 -0.48254068109E+03 -0.12104418714E+03  0.64631924836E+03  0.12699999809E+01 0.  1.
</event>
<event>
 5   0  0.3723500E-04  0.1712130E+04  0.7818609E-02  0.8754476E-01
       -1   -1    0    0    0  501  0.00000000000E+00  0.00000000000E+00  0.68254337185E+03  0.68254337187E+03  0.50400001928E-02 0. -1.
        1   -1    0    0  501    0  0.00000000000E+00  0.00000000000E+00 -0.10737005505E+04  0.10737005505E+04  0.50400001928E-02 0.  1.
    10030    2    1    2    0    0  0.00000000000E+00  0.00000000000E+00 -0.39115717867E+03  0.17562439224E+04  0.17121298948E+04 0.  0.
        1    1    3    3  502    0 -0.69450929784E+02 -0.68413347750E+03 -0.71860352293E+03  0.99461201978E+03  0.50400001928E-02 0.  1.
       -1    1    3    3    0  502  0.69450929784E+02  0.68413347750E+03  0.32744634427E+03  0.76163190262E+03  0.50400001928E-02 0. -1.
</event>
<event>
 5   0  0.7049044E-04  0.1643944E+04  0.7818609E-02  0.8793997E-01
       -2   -1    0    0    0  501  0.00000000000E+00  0.00000000000E+00  0.39179906843E+03  0.39179906844E+03  0.25500000920E-02 0. -1.
        2   -1    0    0  501    0  0.00000000000E+00  0.00000000000E+00 -0.17244496214E+04  0.17244496214E+04  0.25500000920E-02 0.  1.
    10030    2    1    2    0    0  0.00000000000E+00  0.00000000000E+00 -0.13326505530E+04  0.21162486898E+04  0.16439437402E+04 0.  0.
        4    1    3    3  502    0 -0.23211527071E+03  0.54088907887E+03  0.72272699351E+02  0.59301218412E+03  0.12699999809E+01 0. -1.
       -4    1    3    3    0  502  0.23211527071E+03 -0.54088907887E+03 -0.14049232523E+04  0.15232365057E+04  0.12699999809E+01 0.  1.
</event>
<event>
 5   0  0.6746664E-04  0.1773328E+04  0.7818609E-02  0.8720613E-01
       -2   -1    0    0    0  501  0.00000000000E+00  0.00000000000E+00  0.76804773669E+03  0.76804773670E+03  0.25500000920E-02 0.  1.
        2   -1    0    0  501    0  0.00000000000E+00  0.00000000000E+00 -0.10235997365E+04  0.10235997365E+04  0.25500000920E-02 0. -1.
    10030    2    1    2    0    0  0.00000000000E+00  0.00000000000E+00 -0.25555199980E+03  0.17916474732E+04  0.17733284647E+04 0.  0.
        5    1    3    3  502    0  0.94565961887E+02 -0.34709531486E+03  0.69098652895E+03  0.77903937765E+03  0.46999998093E+01 0.  1.
       -5    1    3    3    0  502 -0.94565961887E+02  0.34709531486E+03 -0.94653852875E+03  0.10126080955E+04  0.46999998093E+01 0. -1.
</event>
<event>
 5   0  0.3803253E-04  0.1684416E+04  0.7818609E-02  0.8770303E-01
        1   -1    0    0  501    0  0.00000000000E+00  0.00000000000E+00  0.23057584160E+04  0.23057584160E+04  0.50400001928E-02 0.  1.
       -1   -1    0    0    0  501  0.00000000000E+00  0.00000000000E+00 -0.30762719644E+03  0.30762719648E+03  0.50400001928E-02 0. -1.
    10030    2    1    2    0    0  0.00000000000E+00  0.00000000000E+00  0.19981312196E+04  0.26133856125E+04  0.16844156224E+04 0.  0.
        4    1    3    3  502    0  0.79220513300E+03 -0.28078087586E+03  0.91572328164E+03  0.12429712846E+04  0.12699999809E+01 0.  1.
       -4    1    3    3    0  502 -0.79220513300E+03  0.28078087586E+03  0.10824079379E+04  0.13704143279E+04  0.12699999809E+01 0. -1.
</event>
<event>
 5   0  0.6746664E-04  0.1741959E+04  0.7818609E-02  0.8737789E-01
        2   -1    0    0  501    0  0.00000000000E+00  0.00000000000E+00  0.17304219202E+04  0.17304219202E+04  0.25500000920E-02 0.  1.
       -2   -1    0    0    0  501  0.00000000000E+00  0.00000000000E+00 -0.43839317004E+03  0.43839317004E+03  0.25500000920E-02 0. -1.
    10030    2    1    2    0    0  0.00000000000E+00  0.00000000000E+00  0.12920287502E+04  0.21688150903E+04  0.17419588412E+04 0.  0.
        5    1    3    3  502    0  0.63153266163E+02 -0.67855919551E+03 -0.29245036989E+02  0.68213508855E+03  0.46999998093E+01 0. -1.
       -5    1    3    3    0  502 -0.63153266163E+02  0.67855919551E+03  0.13212737872E+04  0.14866800017E+04  0.46999998093E+01 0.  1.
</event>
<event>
 5   0  0.2639750E-04  0.1609194E+04  0.7818609E-02  0.8814920E-01
        4   -1    0    0  501    0  0.00000000000E+00  0.00000000000E+00  0.15418313681E+04  0.15418318912E+04  0.12699999809E+01 0.  1.
       -4   -1    0    0    0  501  0.00000000000E+00  0.00000000000E+00 -0.41987332778E+03  0.41987524848E+03  0.12699999809E+01 0. -1.
    10030    2    1    2    0    0  0.00000000000E+00  0.00000000000E+00  0.11219580403E+04  0.19617071397E+04  0.16091939154E+04 0.  0.
        3    1    3    3  502    0 -0.38243970064E+03 -0.31438779614E+03  0.13341723374E+04  0.14230655807E+04  0.10100000352E+00 0.  1.
       -3    1    3    3    0  502  0.38243970064E+03  0.31438779614E+03 -0.21221429701E+03  0.53864155896E+03  0.10100000352E+00 0. -1.
</event>
<event>
 5   0  0.7025426E-04  0.1682464E+04  0.7818609E-02  0.8771429E-01
        2   -1    0    0  501    0  0.00000000000E+00  0.00000000000E+00  0.90615787894E+03  0.90615787894E+03  0.25500000920E-02 0.  1.
       -2   -1    0    0    0  501  0.00000000000E+00  0.00000000000E+00 -0.78095824171E+03  0.78095824171E+03  0.25500000920E-02 0. -1.
    10030    2    1    2    0    0  0.00000000000E+00  0.00000000000E+00  0.12519963723E+03  0.16871161207E+04  0.16824642211E+04 0.  0.
        2    1    3    3  502    0 -0.40753997424E+03 -0.16419843711E+03  0.78195454881E+03  0.89694084184E+03  0.25500000920E-02 0.  1.
       -2    1    3    3    0  502  0.40753997424E+03  0.16419843711E+03 -0.65675491158E+03  0.79017527881E+03  0.25500000920E-02 0. -1.
</event>
<event>
 5   0  0.3713516E-04  0.1740445E+04  0.7818609E-02  0.8738627E-01
       -1   -1    0    0    0  501  0.00000000000E+00  0.00000000000E+00  0.80048499285E+03  0.80048499287E+03  0.50400001928E-02 0. -1.
        1   -1    0    0  501    0  0.00000000000E+00  0.00000000000E+00 -0.94603582419E+03  0.94603582420E+03  0.50400001928E-02 0.  1.
    10030    2    1    2    0    0  0.00000000000E+00  0.00000000000E+00 -0.14555083133E+03  0.17465208171E+04  0.17404453223E+04 0.  0.
        5    1    3    3  502    0 -0.27652878829E+03 -0.12875455924E+03 -0.89061699676E+03  0.94141735282E+03  0.46999998093E+01 0.  1.
       -5    1    3    3    0  502  0.27652878829E+03  0.12875455924E+03  0.74506616543E+03  0.80510346425E+03  0.46999998093E+01 0. -1.
</event>
</LesHouchesEvents>
