<LesHouchesEvents version="3.0">
<header>
<!--
#*********************************************************************
#                                                                    *
#                        MadGraph5_aMC@NLO                           *
#                                                                    *
#                           Going Beyond                             *
#                                                                    *
#                   http://madgraph.hep.uiuc.edu                     *
#                   http://madgraph.phys.ucl.ac.be                   *
#                   http://amcatnlo.cern.ch                          *
#                                                                    *
#                     The MadGraph5_aMC@NLO team                     *
#                                                                    *
#....................................................................*
#                                                                    *
# This file contains all the information necessary to reproduce      *
# the events generated:                                              *
#                                                                    *
# 1. software version                                                *
# 2. proc_card          : code generation info including model       *
# 3. param_card         : model primary parameters in the LH format  *
# 4. run_card           : running parameters (collider and cuts)     *
# 5. pythia_card        : present only if pythia has been run        *
# 6. pgs_card           : present only if pgs has been run           *
# 7. delphes_cards      : present only if delphes has been run       *
#                                                                    *
#                                                                    *
#*********************************************************************
-->
<MGVersion>
#5.2.2.3
</MGVersion>
<MG5ProcCard>
#************************************************************
#*                     MadGraph5_aMC@NLO                    *
#*                                                          *
#*                *                       *                 *
#*                  *        * *        *                   *
#*                    * * * * 5 * * * *                     *
#*                  *        * *        *                   *
#*                *                       *                 *
#*                                                          *
#*                                                          *
#*         VERSION 2.2.3                 2015-02-10         *
#*                                                          *
#*    The MadGraph5_aMC@NLO Development Team - Find us at   *
#*    https://server06.fynu.ucl.ac.be/projects/madgraph     *
#*                                                          *
#************************************************************
#*                                                          *
#*               Command File for MadGraph5_aMC@NLO         *
#*                                                          *
#*     run as ./bin/mg5_aMC  filename                       *
#*                                                          *
#************************************************************
set group_subprocesses Auto
set ignore_six_quark_processes False
set loop_optimized_output True
set gauge unitary
set complex_mass_scheme False
import model sm
define p = g u c d s u~ c~ d~ s~
define j = g u c d s u~ c~ d~ s~
define l+ = e+ mu+
define l- = e- mu-
define vl = ve vm vt
define vl~ = ve~ vm~ vt~
import model Zprime_UFO
generate p p > zph, zph > j j
add process p p > zph, zph > b b~
output Dijet_signal
</MG5ProcCard>
<MGProcCard>
#*********************************************************************
#                        MadGraph/MadEvent                           *
#                   http://madgraph.hep.uiuc.edu                     *
#                                                                    *
#                          proc_card.dat                             *
#*********************************************************************
#                                                                    *
#            This Files is generated by MADGRAPH 5                   *
#                                                                    *
# WARNING: This Files is generated for MADEVENT (compatibility issue)*
#          This files is NOT a valid MG4 proc_card.dat               *
#          Running this in MG4 will NEVER reproduce the result of MG5*
#                                                                    *
#*********************************************************************
#*********************************************************************
# Process(es) requested : mg2 input                                  *
#*********************************************************************
# Begin PROCESS # This is TAG. Do not modify this line
p p > zph , zph > j j           #Process
# Be carefull the coupling are here in MG5 convention
          
end_coup           # End the couplings input

done               # this tells MG there are no more procs
# End PROCESS  # This is TAG. Do not modify this line
#*********************************************************************
# Model information                                                  *
#*********************************************************************
# Begin MODEL  # This is TAG. Do not modify this line
Zprime_UFO
# End   MODEL  # This is TAG. Do not modify this line
#*********************************************************************
# Start multiparticle definitions                                    *
#*********************************************************************
# Begin MULTIPARTICLES # This is TAG. Do not modify this line

# End  MULTIPARTICLES # This is TAG. Do not modify this line
</MGProcCard>
<MGRunCard>
#*********************************************************************
#                       MadGraph5_aMC@NLO                            *
#                                                                    *
#                     run_card.dat MadEvent                          *
#                                                                    *
#  This file is used to set the parameters of the run.               *
#                                                                    *
#  Some notation/conventions:                                        *
#                                                                    *
#   Lines starting with a '# ' are info or comments                  *
#                                                                    *
#   mind the format:   value    = variable     ! comment             *
#*********************************************************************
#
#*******************                                                 
# Running parameters
#*******************                                                 
#                                                                    
#*********************************************************************
# Tag name for the run (one word)                                    *
#*********************************************************************
  tag_1     = run_tag ! name of the run 
#*********************************************************************
# Run to generate the grid pack                                      *
#*********************************************************************
  .false.     = gridpack  !True = setting up the grid pack
#*********************************************************************
# Number of events and rnd seed                                      *
# Warning: Do not generate more than 1M events in a single run       *
# If you want to run Pythia, avoid more than 50k events in a run.    *
#*********************************************************************
  2000 = nevents ! Number of unweighted events requested 
 2802 = iseed   ! rnd seed (0=assigned automatically=default))
#*********************************************************************
# Collider type and energy                                           *
# lpp: 0=No PDF, 1=proton, -1=antiproton, 2=photon from proton,      *
#                                         3=photon from electron     *
#*********************************************************************
        1     = lpp1    ! beam 1 type 
        1     = lpp2    ! beam 2 type
     4000     = ebeam1  ! beam 1 total energy in GeV
     4000     = ebeam2  ! beam 2 total energy in GeV
#*********************************************************************
# Beam polarization from -100 (left-handed) to 100 (right-handed)    *
#*********************************************************************
        0     = polbeam1 ! beam polarization for beam 1
        0     = polbeam2 ! beam polarization for beam 2
#*********************************************************************
# PDF CHOICE: this automatically fixes also alpha_s and its evol.    *
#*********************************************************************
 'nn23lo1'    = pdlabel     ! PDF set                                     
 230000    = lhaid     ! if pdlabel=lhapdf, this is the lhapdf number
#*********************************************************************
# Renormalization and factorization scales                           *
#*********************************************************************
 F        = fixed_ren_scale  ! if .true. use fixed ren scale
 F        = fixed_fac_scale  ! if .true. use fixed fac scale
 91.1880  = scale            ! fixed ren scale
 91.1880  = dsqrt_q2fact1    ! fixed fact scale for pdf1
 91.1880  = dsqrt_q2fact2    ! fixed fact scale for pdf2
 1        = scalefact        ! scale factor for event-by-event scales
#*********************************************************************
# Matching - Warning! ickkw > 1 is still beta
#*********************************************************************
 0        = ickkw            ! 0 no matching, 1 MLM, 2 CKKW matching
 1        = highestmult      ! for ickkw=2, highest mult group
 1        = ktscheme         ! for ickkw=1, 1 Durham kT, 2 Pythia pTE
 1        = alpsfact         ! scale factor for QCD emission vx
 F        = chcluster        ! cluster only according to channel diag
 T        = pdfwgt           ! for ickkw=1, perform pdf reweighting
 5        = asrwgtflavor     ! highest quark flavor for a_s reweight
 T        = clusinfo         ! include clustering tag in output
 3.0      = lhe_version       ! Change the way clustering information pass to shower.        
#*********************************************************************
#**********************************************************
#
#**********************************************************
# Automatic ptj and mjj cuts if xqcut > 0
# (turn off for VBF and single top processes)
#**********************************************************
   T  = auto_ptj_mjj  ! Automatic setting of ptj and mjj
#**********************************************************
#                                                                    
#**********************************
# BW cutoff (M+/-bwcutoff*Gamma)
#**********************************
  15  = bwcutoff      ! (M+/-bwcutoff*Gamma)
#**********************************************************
# Apply pt/E/eta/dr/mij cuts on decay products or not
# (note that etmiss/ptll/ptheavy/ht/sorted cuts always apply)
#**********************************************************
   T  = cut_decays    ! Cut decay products 
#*************************************************************
# Number of helicities to sum per event (0 = all helicities)
# 0 gives more stable result, but longer run time (needed for
# long decay chains e.g.).
# Use >=2 if most helicities contribute, e.g. pure QCD.
#*************************************************************
   0  = nhel          ! Number of helicities used per event
#*******************                                                 
# Standard Cuts
#*******************                                                 
#                                                                    
#*********************************************************************
# Minimum and maximum pt's (for max, -1 means no cut)                *
#*********************************************************************
 20  = ptj       ! minimum pt for the jets 
  0  = ptb       ! minimum pt for the b 
 10  = pta       ! minimum pt for the photons 
 10  = ptl       ! minimum pt for the charged leptons 
  0  = misset    ! minimum missing Et (sum of neutrino's momenta)
  0  = ptheavy   ! minimum pt for one heavy final state
 1.0 = ptonium   ! minimum pt for the quarkonium states
 -1  = ptjmax    ! maximum pt for the jets
 -1  = ptbmax    ! maximum pt for the b
 -1  = ptamax    ! maximum pt for the photons
 -1  = ptlmax    ! maximum pt for the charged leptons
 -1  = missetmax ! maximum missing Et (sum of neutrino's momenta)
#*********************************************************************
# Minimum and maximum E's (in the center of mass frame)              *
#*********************************************************************
  0  = ej     ! minimum E for the jets 
  0  = eb     ! minimum E for the b 
  0  = ea     ! minimum E for the photons 
  0  = el     ! minimum E for the charged leptons 
 -1   = ejmax ! maximum E for the jets
 -1   = ebmax ! maximum E for the b
 -1   = eamax ! maximum E for the photons
 -1   = elmax ! maximum E for the charged leptons
#*********************************************************************
# Maximum and minimum absolute rapidity (for max, -1 means no cut)   *
#*********************************************************************
   5  = etaj    ! max rap for the jets 
  -1  = etab    ! max rap for the b
 2.5  = etaa    ! max rap for the photons 
 2.5  = etal    ! max rap for the charged leptons 
 0.6  = etaonium ! max rap for the quarkonium states
   0  = etajmin ! min rap for the jets
   0  = etabmin ! min rap for the b
   0  = etaamin ! min rap for the photons
   0  = etalmin ! main rap for the charged leptons
#*********************************************************************
# Minimum and maximum DeltaR distance                                *
#*********************************************************************
 0.4 = drjj    ! min distance between jets 
 0   = drbb    ! min distance between b's 
 0.4 = drll    ! min distance between leptons 
 0.4 = draa    ! min distance between gammas 
 0   = drbj    ! min distance between b and jet 
 0.4 = draj    ! min distance between gamma and jet 
 0.4 = drjl    ! min distance between jet and lepton 
 0   = drab    ! min distance between gamma and b 
 0   = drbl    ! min distance between b and lepton 
 0.4 = dral    ! min distance between gamma and lepton 
 -1  = drjjmax ! max distance between jets
 -1  = drbbmax ! max distance between b's
 -1  = drllmax ! max distance between leptons
 -1  = draamax ! max distance between gammas
 -1  = drbjmax ! max distance between b and jet
 -1  = drajmax ! max distance between gamma and jet
 -1  = drjlmax ! max distance between jet and lepton
 -1  = drabmax ! max distance between gamma and b
 -1  = drblmax ! max distance between b and lepton
 -1  = dralmax ! maxdistance between gamma and lepton
#*********************************************************************
# Minimum and maximum invariant mass for pairs                       *
# WARNING: for four lepton final state mmll cut require to have      *
#          different lepton masses for each flavor!                  *           
#*********************************************************************
 0   = mmjj    ! min invariant mass of a jet pair 
 0   = mmbb    ! min invariant mass of a b pair 
 0   = mmaa    ! min invariant mass of gamma gamma pair
 0   = mmll    ! min invariant mass of l+l- (same flavour) lepton pair
 -1  = mmjjmax ! max invariant mass of a jet pair
 -1  = mmbbmax ! max invariant mass of a b pair
 -1  = mmaamax ! max invariant mass of gamma gamma pair
 -1  = mmllmax ! max invariant mass of l+l- (same flavour) lepton pair
#*********************************************************************
# Minimum and maximum invariant mass for all letpons                 *
#*********************************************************************
 0   = mmnl    ! min invariant mass for all letpons (l+- and vl) 
 -1  = mmnlmax ! max invariant mass for all letpons (l+- and vl) 
#*********************************************************************
# Minimum and maximum pt for 4-momenta sum of leptons                *
#*********************************************************************
 0   = ptllmin  ! Minimum pt for 4-momenta sum of leptons(l and vl)
 -1  = ptllmax  ! Maximum pt for 4-momenta sum of leptons(l and vl)
#*********************************************************************
# Inclusive cuts                                                     *
#*********************************************************************
 0  = xptj ! minimum pt for at least one jet  
 0  = xptb ! minimum pt for at least one b 
 0  = xpta ! minimum pt for at least one photon 
 0  = xptl ! minimum pt for at least one charged lepton 
#*********************************************************************
# Control the pt's of the jets sorted by pt                          *
#*********************************************************************
 0   = ptj1min ! minimum pt for the leading jet in pt
 0   = ptj2min ! minimum pt for the second jet in pt
 0   = ptj3min ! minimum pt for the third jet in pt
 0   = ptj4min ! minimum pt for the fourth jet in pt
 -1  = ptj1max ! maximum pt for the leading jet in pt 
 -1  = ptj2max ! maximum pt for the second jet in pt
 -1  = ptj3max ! maximum pt for the third jet in pt
 -1  = ptj4max ! maximum pt for the fourth jet in pt
 0   = cutuse  ! reject event if fails any (0) / all (1) jet pt cuts
#*********************************************************************
# Control the pt's of leptons sorted by pt                           *
#*********************************************************************
 0   = ptl1min ! minimum pt for the leading lepton in pt
 0   = ptl2min ! minimum pt for the second lepton in pt
 0   = ptl3min ! minimum pt for the third lepton in pt
 0   = ptl4min ! minimum pt for the fourth lepton in pt
 -1  = ptl1max ! maximum pt for the leading lepton in pt 
 -1  = ptl2max ! maximum pt for the second lepton in pt
 -1  = ptl3max ! maximum pt for the third lepton in pt
 -1  = ptl4max ! maximum pt for the fourth lepton in pt
#*********************************************************************
# Control the Ht(k)=Sum of k leading jets                            *
#*********************************************************************
 0   = htjmin ! minimum jet HT=Sum(jet pt)
 -1  = htjmax ! maximum jet HT=Sum(jet pt)
 0   = ihtmin  !inclusive Ht for all partons (including b)
 -1  = ihtmax  !inclusive Ht for all partons (including b)
 0   = ht2min ! minimum Ht for the two leading jets
 0   = ht3min ! minimum Ht for the three leading jets
 0   = ht4min ! minimum Ht for the four leading jets
 -1  = ht2max ! maximum Ht for the two leading jets
 -1  = ht3max ! maximum Ht for the three leading jets
 -1  = ht4max ! maximum Ht for the four leading jets
#***********************************************************************
# Photon-isolation cuts, according to hep-ph/9801442                   *
# When ptgmin=0, all the other parameters are ignored                  *
# When ptgmin>0, pta and draj are not going to be used                 *
#***********************************************************************
   0 = ptgmin ! Min photon transverse momentum
 0.4 = R0gamma ! Radius of isolation code
 1.0 = xn ! n parameter of eq.(3.4) in hep-ph/9801442
 1.0 = epsgamma ! epsilon_gamma parameter of eq.(3.4) in hep-ph/9801442
 .true. = isoEM ! isolate photons from EM energy (photons and leptons)
#*********************************************************************
# WBF cuts                                                           *
#*********************************************************************
 0   = xetamin ! minimum rapidity for two jets in the WBF case  
 0   = deltaeta ! minimum rapidity for two jets in the WBF case 
#*********************************************************************
# KT DURHAM CUT                                                      *
#*********************************************************************
 -1    =  ktdurham        
 0.4  =  dparameter 
#*********************************************************************
# maximal pdg code for quark to be considered as a light jet         *
# (otherwise b cuts are applied)                                     *
#*********************************************************************
 4 = maxjetflavor    ! Maximum jet pdg code
#*********************************************************************
# Jet measure cuts                                                   *
#*********************************************************************
 0   = xqcut   ! minimum kt jet measure between partons
#*********************************************************************
#
#*********************************************************************
# Store info for systematics studies                                 *
# WARNING: If use_syst is T, matched Pythia output is                *
#          meaningful ONLY if plotted taking matchscale              *
#          reweighting into account!                                 *
#*********************************************************************
   F  = use_syst      ! Enable systematics studies
#
#**************************************
# Parameter of the systematics study
#  will be used by SysCalc (if installed)
#**************************************                                  
#
0.5 1 2 = sys_scalefact  # factorization/renormalization scale factor
0.5 1 2 = sys_alpsfact  # \alpha_s emission scale factors
30 50 = sys_matchscale # variation of merging scale
# PDF sets and number of members (0 or none for all members).
CT10nlo.LHgrid = sys_pdf # matching scales
# MSTW2008nlo68cl.LHgrid 1  = sys_pdf
</MGRunCard>
<slha>
######################################################################
## PARAM_CARD AUTOMATICALY GENERATED BY MG5 FOLLOWING UFO MODEL   ####
######################################################################
##                                                                  ##
##  Width set on Auto will be computed following the information    ##
##        present in the decay.py files of the model.               ##
##        See  arXiv:1402.1178 for more details.                    ##
##                                                                  ##
######################################################################

###################################
## INFORMATION FOR CKMBLOCK
###################################
Block ckmblock 
    1 2.277360e-01 # cabi 

###################################
## INFORMATION FOR FRBLOCK
###################################
Block frblock 
    1 1.600000e+00 # gz 

###################################
## INFORMATION FOR MASS
###################################
Block mass 
    1 5.040000e-03 # MD 
    2 2.550000e-03 # MU 
    3 1.010000e-01 # MS 
    4 1.270000e+00 # MC 
    5 4.700000e+00 # MB 
    6 1.720000e+02 # MT 
   11 5.110000e-04 # Me 
   13 1.056600e-01 # MM 
   15 1.777000e+00 # MTA 
   23 9.118760e+01 # MZ 
   25 1.200000e+02 # MH 
  10030 9.000000e+02 # MZph 
  10031 3.000000e+02 # MZpl 
## Dependent parameters, given by model restrictions.
## Those values should be edited following the 
## analytical expression. MG5 ignores those values 
## but they are important for interfacing the output of MG5
## to external program such as Pythia.
  12 0.000000 # ve : 0.0 
  14 0.000000 # vm : 0.0 
  16 0.000000 # vt : 0.0 
  21 0.000000 # g : 0.0 
  22 0.000000 # a : 0.0 
  24 79.824360 # w+ : cmath.sqrt(MZ__exp__2/2. + cmath.sqrt(MZ__exp__4/4. - (aEW*cmath.pi*MZ__exp__2)/(Gf*sqrt__2))) 

###################################
## INFORMATION FOR SMINPUTS
###################################
Block sminputs 
    1 1.279000e+02 # aEWM1 
    2 1.166370e-05 # Gf 
    3 1.184000e-01 # aS 

###################################
## INFORMATION FOR YUKAWA
###################################
Block yukawa 
    1 5.040000e-03 # ymdo 
    2 2.550000e-03 # ymup 
    3 1.010000e-01 # yms 
    4 1.270000e+00 # ymc 
    5 4.700000e+00 # ymb 
    6 1.720000e+02 # ymt 
   11 5.110000e-04 # yme 
   13 1.056600e-01 # ymm 
   15 1.777000e+00 # ymtau 

###################################
## INFORMATION FOR DECAY
###################################
DECAY   6 1.508336e+00 # WT 
DECAY  23 2.495200e+00 # WZ 
DECAY  24 2.085000e+00 # WW 
DECAY  25 5.753088e-03 # WH 
## Dependent parameters, given by model restrictions.
## Those values should be edited following the 
## analytical expression. MG5 ignores those values 
## but they are important for interfacing the output of MG5
## to external program such as Pythia.
DECAY  1 0.000000 # d : 0.0 
DECAY  2 0.000000 # u : 0.0 
DECAY  3 0.000000 # s : 0.0 
DECAY  4 0.000000 # c : 0.0 
DECAY  5 0.000000 # b : 0.0 
DECAY  11 0.000000 # e- : 0.0 
DECAY  12 0.000000 # ve : 0.0 
DECAY  13 0.000000 # mu- : 0.0 
DECAY  14 0.000000 # vm : 0.0 
DECAY  15 0.000000 # ta- : 0.0 
DECAY  16 0.000000 # vt : 0.0 
DECAY  21 0.000000 # g : 0.0 
DECAY  22 0.000000 # a : 0.0 
DECAY  10030 0.308725 # zph : (gz__exp__2*MZph*(5 + cmath.sqrt(1 - (4*MT__exp__2)/MZph__exp__2)))/(144.*cmath.pi) 
DECAY  10031 0.132629 # zpl : (5*gz__exp__2*MZpl)/(144.*cmath.pi) 
#===========================================================
# QUANTUM NUMBERS OF NEW STATE(S) (NON SM PDG CODE)
#===========================================================

Block QNUMBERS 10030  # zph 
        1 0  # 3 times electric charge
        2 3  # number of spin states (2S+1)
        3 1  # colour rep (1: singlet, 3: triplet, 8: octet)
        4 0  # Particle/Antiparticle distinction (0=own anti)
Block QNUMBERS 10031  # zpl 
        1 0  # 3 times electric charge
        2 3  # number of spin states (2S+1)
        3 1  # colour rep (1: singlet, 3: triplet, 8: octet)
        4 0  # Particle/Antiparticle distinction (0=own anti)
</slha>
## END BANNER##
<MGGenerationInfo>
#  Number of Events        :         4134
#  Integrated weight (pb)  :  0.83213E+01
#  Max wgt                 :  0.28037E-02
#  Average wgt             :  0.20129E-02
</MGGenerationInfo>
</header>
<init>
     2212     2212  0.40000000000E+04  0.40000000000E+04 0 0  247000  247000 2   1
  0.83091170335E+01  0.19541348148E-01  0.28037170000E-02   0
</init>
<event>
 5   0  0.2679861E-02  0.8264892E+03  0.7818609E-02  0.9522447E-01
       -2   -1    0    0    0  501  0.00000000000E+00  0.00000000000E+00  0.48138522697E+03  0.48138522698E+03  0.25500000920E-02 0. -1.
        2   -1    0    0  501    0  0.00000000000E+00  0.00000000000E+00 -0.35474939378E+03  0.35474939378E+03  0.25500000920E-02 0.  1.
    10030    2    1    2    0    0  0.00000000000E+00  0.00000000000E+00  0.12663583320E+03  0.83613462076E+03  0.82648924360E+03 0.  0.
        1    1    3    3  502    0 -0.45197402601E+02 -0.22723916201E+03  0.40949646776E+03  0.47049739541E+03  0.50400001928E-02 0. -1.
       -1    1    3    3    0  502  0.45197402601E+02  0.22723916201E+03 -0.28286063457E+03  0.36563722535E+03  0.50400001928E-02 0.  1.
</event>
<event>
 5   0  0.1040163E-02  0.1026424E+04  0.7818609E-02  0.9280029E-01
        3   -1    0    0  501    0  0.00000000000E+00  0.00000000000E+00  0.16735424677E+04  0.16735424707E+04  0.10100000352E+00 0.  1.
       -3   -1    0    0    0  501  0.00000000000E+00  0.00000000000E+00 -0.15738265890E+03  0.15738269131E+03  0.10100000352E+00 0. -1.
    10030    2    1    2    0    0  0.00000000000E+00  0.00000000000E+00  0.15161598088E+04  0.18309251620E+04  0.10264240757E+04 0.  0.
        3    1    3    3  502    0 -0.20527094592E+03 -0.21698942923E+03  0.15025126471E+04  0.15319154149E+04  0.10100000352E+00 0.  1.
       -3    1    3    3    0  502  0.20527094592E+03  0.21698942923E+03  0.13647161678E+02  0.29900974710E+03  0.10100000352E+00 0. -1.
</event>
<event>
 5   0  0.2679861E-02  0.9021866E+03  0.7818609E-02  0.9422852E-01
       -2   -1    0    0    0  501  0.00000000000E+00  0.00000000000E+00  0.22065499763E+03  0.22065499765E+03  0.25500000920E-02 0. -1.
        2   -1    0    0  501    0  0.00000000000E+00  0.00000000000E+00 -0.92218691489E+03  0.92218691489E+03  0.25500000920E-02 0.  1.
    10030    2    1    2    0    0  0.00000000000E+00  0.00000000000E+00 -0.70153191725E+03  0.11428419125E+04  0.90218656947E+03 0.  0.
        1    1    3    3  502    0 -0.15957688486E+03  0.26646650882E+03 -0.76516056660E+03  0.82579650957E+03  0.50400001928E-02 0.  1.
       -1    1    3    3    0  502  0.15957688486E+03 -0.26646650882E+03  0.63628649351E+02  0.31704540297E+03  0.50400001928E-02 0. -1.
</event>
<event>
 5   0  0.2414128E-02  0.9103503E+03  0.7818609E-02  0.9412735E-01
        2   -1    0    0  501    0  0.00000000000E+00  0.00000000000E+00  0.60349693729E+03  0.60349693729E+03  0.25500000920E-02 0.  1.
       -2   -1    0    0    0  501  0.00000000000E+00  0.00000000000E+00 -0.34330649898E+03  0.34330649899E+03  0.25500000920E-02 0. -1.
    10030    2    1    2    0    0  0.00000000000E+00  0.00000000000E+00  0.26019043830E+03  0.94680343629E+03  0.91035030773E+03 0.  0.
        3    1    3    3  502    0 -0.43792448270E+03  0.12367688343E+03  0.11915811752E+03  0.47039610034E+03  0.10100000352E+00 0.  1.
       -3    1    3    3    0  502  0.43792448270E+03 -0.12367688343E+03  0.14103232078E+03  0.47640733595E+03  0.10100000352E+00 0. -1.
</event>
<event>
 5   0  0.2679861E-02  0.7781450E+03  0.7818609E-02  0.9592201E-01
        2   -1    0    0  501    0  0.00000000000E+00  0.00000000000E+00  0.45266058260E+03  0.45266058261E+03  0.25500000920E-02 0.  1.
       -2   -1    0    0    0  501  0.00000000000E+00  0.00000000000E+00 -0.33441701978E+03  0.33441701979E+03  0.25500000920E-02 0. -1.
    10030    2    1    2    0    0  0.00000000000E+00  0.00000000000E+00  0.11824356282E+03  0.78707760240E+03  0.77814498139E+03 0.  0.
        1    1    3    3  502    0  0.29808447851E+03  0.23864177976E+03 -0.16388711669E+02  0.38219477400E+03  0.50400001928E-02 0. -1.
       -1    1    3    3    0  502 -0.29808447851E+03 -0.23864177976E+03  0.13463227449E+03  0.40488282840E+03  0.50400001928E-02 0.  1.
</event>
<event>
 5   0  0.2414128E-02  0.8808299E+03  0.7818609E-02  0.9449867E-01
        2   -1    0    0  501    0  0.00000000000E+00  0.00000000000E+00  0.11027764892E+04  0.11027764892E+04  0.25500000920E-02 0. -1.
       -2   -1    0    0    0  501  0.00000000000E+00  0.00000000000E+00 -0.17588816589E+03  0.17588816591E+03  0.25500000920E-02 0.  1.
    10030    2    1    2    0    0  0.00000000000E+00  0.00000000000E+00  0.92688832333E+03  0.12786646551E+04  0.88082991342E+03 0.  0.
        3    1    3    3  502    0  0.29698556305E+03 -0.31854750581E+03  0.55855148929E+03  0.70827446270E+03  0.10100000352E+00 0.  1.
       -3    1    3    3    0  502 -0.29698556305E+03  0.31854750581E+03  0.36833683404E+03  0.57039019244E+03  0.10100000352E+00 0. -1.
</event>
<event>
 5   0  0.1559275E-02  0.8949616E+03  0.7818609E-02  0.9431902E-01
       -1   -1    0    0    0  501  0.00000000000E+00  0.00000000000E+00  0.55261103236E+03  0.55261103238E+03  0.50400001928E-02 0.  1.
        1   -1    0    0  501    0  0.00000000000E+00  0.00000000000E+00 -0.36235084084E+03  0.36235084087E+03  0.50400001928E-02 0. -1.
    10030    2    1    2    0    0  0.00000000000E+00  0.00000000000E+00  0.19026019152E+03  0.91496187325E+03  0.89496161316E+03 0.  0.
        1    1    3    3  502    0  0.20906479554E+02 -0.11414878356E+03 -0.34669921986E+03  0.36560549059E+03  0.50400001928E-02 0. -1.
       -1    1    3    3    0  502 -0.20906479554E+02  0.11414878356E+03  0.53695941138E+03  0.54935638266E+03  0.50400001928E-02 0.  1.
</event>
<event>
 5   0  0.1497410E-02  0.8796438E+03  0.7818609E-02  0.9451392E-01
       -1   -1    0    0    0  501  0.00000000000E+00  0.00000000000E+00  0.35628125834E+03  0.35628125837E+03  0.50400001928E-02 0. -1.
        1   -1    0    0  501    0  0.00000000000E+00  0.00000000000E+00 -0.54295116172E+03  0.54295116175E+03  0.50400001928E-02 0.  1.
    10030    2    1    2    0    0  0.00000000000E+00  0.00000000000E+00 -0.18666990339E+03  0.89923242012E+03  0.87964384416E+03 0.  0.
        3    1    3    3  502    0  0.35206468181E+03  0.21872693817E+03  0.57089036531E+02  0.41838998787E+03  0.10100000352E+00 0. -1.
       -3    1    3    3    0  502 -0.35206468181E+03 -0.21872693817E+03 -0.24375893992E+03  0.48084243225E+03  0.10100000352E+00 0.  1.
</event>
<event>
 5   0  0.2679861E-02  0.9193341E+03  0.7818609E-02  0.9401730E-01
       -2   -1    0    0    0  501  0.00000000000E+00  0.00000000000E+00  0.36337500271E+03  0.36337500272E+03  0.25500000920E-02 0.  1.
        2   -1    0    0  501    0  0.00000000000E+00  0.00000000000E+00 -0.58147590664E+03  0.58147590665E+03  0.25500000920E-02 0. -1.
    10030    2    1    2    0    0  0.00000000000E+00  0.00000000000E+00 -0.21810090393E+03  0.94485090936E+03  0.91933412676E+03 0.  0.
        1    1    3    3  502    0 -0.48665107583E+01  0.19087632219E+03  0.32068954491E+03  0.37322813069E+03  0.50400001928E-02 0.  1.
       -1    1    3    3    0  502  0.48665107583E+01 -0.19087632219E+03 -0.53879044885E+03  0.57162277867E+03  0.50400001928E-02 0. -1.
</event>
<event>
 5   0  0.1040163E-02  0.8859868E+03  0.7818609E-02  0.9443270E-01
        4   -1    0    0  501    0  0.00000000000E+00  0.00000000000E+00  0.93743950051E+03  0.93744036078E+03  0.12699999809E+01 0. -1.
       -4   -1    0    0    0  501  0.00000000000E+00  0.00000000000E+00 -0.20933664088E+03  0.20934049325E+03  0.12699999809E+01 0.  1.
    10030    2    1    2    0    0  0.00000000000E+00  0.00000000000E+00  0.72810285963E+03  0.11467808540E+04  0.88598676795E+03 0.  0.
        3    1    3    3  502    0  0.12248776646E+03  0.41458959039E+03  0.23885753810E+03  0.49390354838E+03  0.10100000352E+00 0.  1.
       -3    1    3    3    0  502 -0.12248776646E+03 -0.41458959039E+03  0.48924532154E+03  0.65287730566E+03  0.10100000352E+00 0. -1.
</event>
<event>
 5   0  0.2679861E-02  0.9308787E+03  0.7818609E-02  0.9387784E-01
        2   -1    0    0  501    0  0.00000000000E+00  0.00000000000E+00  0.14602009804E+04  0.14602009804E+04  0.25500000920E-02 0. -1.
       -2   -1    0    0    0  501  0.00000000000E+00  0.00000000000E+00 -0.14835887994E+03  0.14835887996E+03  0.25500000920E-02 0.  1.
    10030    2    1    2    0    0  0.00000000000E+00  0.00000000000E+00  0.13118421004E+04  0.16085598603E+04  0.93087868587E+03 0.  0.
        1    1    3    3  502    0 -0.19443555802E+03  0.40962827828E+03  0.83742925056E+03  0.95230681102E+03  0.50400001928E-02 0.  1.
       -1    1    3    3    0  502  0.19443555802E+03 -0.40962827828E+03  0.47441284985E+03  0.65625304930E+03  0.50400001928E-02 0. -1.
</event>
<event>
 5   0  0.1040163E-02  0.9009666E+03  0.7818609E-02  0.9424374E-01
        4   -1    0    0  501    0  0.00000000000E+00  0.00000000000E+00  0.30692780569E+03  0.30693043317E+03  0.12699999809E+01 0. -1.
       -4   -1    0    0    0  501  0.00000000000E+00  0.00000000000E+00 -0.66117608882E+03  0.66117730854E+03  0.12699999809E+01 0.  1.
    10030    2    1    2    0    0  0.00000000000E+00  0.00000000000E+00 -0.35424828313E+03  0.96810774171E+03  0.90096656623E+03 0.  0.
        2    1    3    3  502    0 -0.87174690736E+02  0.39457942151E+03 -0.39106680958E+03  0.56233939587E+03  0.25500000920E-02 0.  1.
       -2    1    3    3    0  502  0.87174690736E+02 -0.39457942151E+03  0.36818526456E+02  0.40576834584E+03  0.25500000920E-02 0. -1.
</event>
<event>
 5   0  0.2803717E-02  0.8948742E+03  0.7818609E-02  0.9432012E-01
       -2   -1    0    0    0  501  0.00000000000E+00  0.00000000000E+00  0.20138313412E+03  0.20138313414E+03  0.25500000920E-02 0. -1.
        2   -1    0    0  501    0  0.00000000000E+00  0.00000000000E+00 -0.99412471873E+03  0.99412471873E+03  0.25500000920E-02 0.  1.
    10030    2    1    2    0    0  0.00000000000E+00  0.00000000000E+00 -0.79274158461E+03  0.11955078529E+04  0.89487418462E+03 0.  0.
        5    1    3    3  502    0  0.23597761330E+03 -0.31153288800E+03 -0.10539198307E+03  0.40480579835E+03  0.46999998093E+01 0. -1.
       -5    1    3    3    0  502 -0.23597761330E+03  0.31153288800E+03 -0.68734960154E+03  0.79070205452E+03  0.46999998093E+01 0.  1.
</event>
<event>
 5   0  0.1537870E-02  0.8837026E+03  0.7818609E-02  0.9446186E-01
       -1   -1    0    0    0  501  0.00000000000E+00  0.00000000000E+00  0.51296175593E+03  0.51296175595E+03  0.50400001928E-02 0.  1.
        1   -1    0    0  501    0  0.00000000000E+00  0.00000000000E+00 -0.38059866211E+03  0.38059866215E+03  0.50400001928E-02 0. -1.
    10030    2    1    2    0    0  0.00000000000E+00  0.00000000000E+00  0.13236309381E+03  0.89356041810E+03  0.88370256998E+03 0.  0.
        5    1    3    3  502    0  0.25576512075E+03  0.21150877865E+03  0.36108319150E+03  0.49046398606E+03  0.46999998093E+01 0.  1.
       -5    1    3    3    0  502 -0.25576512075E+03 -0.21150877865E+03 -0.22872009768E+03  0.40309643204E+03  0.46999998093E+01 0. -1.
</event>
<event>
 5   0  0.1040163E-02  0.8630099E+03  0.7818609E-02  0.9473040E-01
       -3   -1    0    0    0  501  0.00000000000E+00  0.00000000000E+00  0.21108771990E+04  0.21108772014E+04  0.10100000352E+00 0.  1.
        3   -1    0    0  501    0  0.00000000000E+00  0.00000000000E+00 -0.88208096476E+02  0.88208154300E+02  0.10100000352E+00 0. -1.
    10030    2    1    2    0    0  0.00000000000E+00  0.00000000000E+00  0.20226691025E+04  0.21990853557E+04  0.86300990923E+03 0.  0.
        2    1    3    3  502    0 -0.35977942729E+03  0.19789824700E+03  0.13493049361E+04  0.14104002138E+04  0.25500000920E-02 0.  1.
       -2    1    3    3    0  502  0.35977942729E+03 -0.19789824700E+03  0.67336416645E+03  0.78868514195E+03  0.25500000920E-02 0. -1.
</event>
<event>
 5   0  0.1559275E-02  0.9375317E+03  0.7818609E-02  0.9379844E-01
       -1   -1    0    0    0  501  0.00000000000E+00  0.00000000000E+00  0.97317050863E+02  0.97317050994E+02  0.50400001928E-02 0.  1.
        1   -1    0    0  501    0  0.00000000000E+00  0.00000000000E+00 -0.22579951629E+04  0.22579951629E+04  0.50400001928E-02 0. -1.
    10030    2    1    2    0    0  0.00000000000E+00  0.00000000000E+00 -0.21606781120E+04  0.23553122139E+04  0.93753171739E+03 0.  0.
        1    1    3    3  502    0  0.17929092890E+03  0.79587982386E+02 -0.10752749245E+02  0.19645637116E+03  0.50400001928E-02 0.  1.
       -1    1    3    3    0  502 -0.17929092890E+03 -0.79587982386E+02 -0.21499253628E+04  0.21588558427E+04  0.50400001928E-02 0. -1.
</event>
<event>
 5   0  0.1497410E-02  0.1051803E+04  0.7818609E-02  0.9253485E-01
        1   -1    0    0  501    0  0.00000000000E+00  0.00000000000E+00  0.56079995192E+03  0.56079995194E+03  0.50400001928E-02 0.  1.
       -1   -1    0    0    0  501  0.00000000000E+00  0.00000000000E+00 -0.49317475180E+03  0.49317475182E+03  0.50400001928E-02 0. -1.
    10030    2    1    2    0    0  0.00000000000E+00  0.00000000000E+00  0.67625200126E+02  0.10539747038E+04  0.10518029799E+04 0.  0.
        3    1    3    3  502    0 -0.12148805576E+03 -0.96176771210E+02 -0.46978157219E+03  0.49467570668E+03  0.10100000352E+00 0. -1.
       -3    1    3    3    0  502  0.12148805576E+03  0.96176771210E+02  0.53740677231E+03  0.55929899709E+03  0.10100000352E+00 0.  1.
</event>
<event>
 5   0  0.1497410E-02  0.9030056E+03  0.7818609E-02  0.9421832E-01
        1   -1    0    0  501    0  0.00000000000E+00  0.00000000000E+00  0.88123877491E+03  0.88123877493E+03  0.50400001928E-02 0.  1.
       -1   -1    0    0    0  501  0.00000000000E+00  0.00000000000E+00 -0.23132750366E+03  0.23132750371E+03  0.50400001928E-02 0. -1.
    10030    2    1    2    0    0  0.00000000000E+00  0.00000000000E+00  0.64991127126E+03  0.11125662786E+04  0.90300557244E+03 0.  0.
        3    1    3    3  502    0  0.12025718639E+03  0.35576113931E+03  0.63377785715E+03  0.73668321654E+03  0.10100000352E+00 0.  1.
       -3    1    3    3    0  502 -0.12025718639E+03 -0.35576113931E+03  0.16133414109E+02  0.37588306210E+03  0.10100000352E+00 0. -1.
</event>
<event>
 5   0  0.2679861E-02  0.9572788E+03  0.7818609E-02  0.9356683E-01
       -2   -1    0    0    0  501  0.00000000000E+00  0.00000000000E+00  0.15671517996E+03  0.15671517998E+03  0.25500000920E-02 0. -1.
        2   -1    0    0  501    0  0.00000000000E+00  0.00000000000E+00 -0.14618602815E+04  0.14618602815E+04  0.25500000920E-02 0.  1.
    10030    2    1    2    0    0  0.00000000000E+00  0.00000000000E+00 -0.13051451016E+04  0.16185754615E+04  0.95727884571E+03 0.  0.
        1    1    3    3  502    0 -0.35004647883E+03  0.32626274398E+03 -0.63437913170E+03  0.79461739108E+03  0.50400001928E-02 0.  1.
       -1    1    3    3    0  502  0.35004647883E+03 -0.32626274398E+03 -0.67076596988E+03  0.82395807043E+03  0.50400001928E-02 0. -1.
</event>
<event>
 5   0  0.1560728E-02  0.8623122E+03  0.7818609E-02  0.9473959E-01
       -1   -1    0    0    0  501  0.00000000000E+00  0.00000000000E+00  0.18468525045E+03  0.18468525052E+03  0.50400001928E-02 0. -1.
        1   -1    0    0  501    0  0.00000000000E+00  0.00000000000E+00 -0.10065535356E+04  0.10065535356E+04  0.50400001928E-02 0.  1.
    10030    2    1    2    0    0  0.00000000000E+00  0.00000000000E+00 -0.82186828514E+03  0.11912387861E+04  0.86231222156E+03 0.  0.
        4    1    3    3  502    0  0.15409753170E+03  0.61569310700E+02 -0.96066880579E+03  0.97489640302E+03  0.12699999809E+01 0.  1.
       -4    1    3    3    0  502 -0.15409753170E+03 -0.61569310700E+02  0.13880052065E+03  0.21634238311E+03  0.12699999809E+01 0. -1.
</event>
<event>
 5   0  0.1559275E-02  0.9128244E+03  0.7818609E-02  0.9409691E-01
        1   -1    0    0  501    0  0.00000000000E+00  0.00000000000E+00  0.64741028315E+03  0.64741028317E+03  0.50400001928E-02 0. -1.
       -1   -1    0    0    0  501  0.00000000000E+00  0.00000000000E+00 -0.32176207348E+03  0.32176207352E+03  0.50400001928E-02 0.  1.
    10030    2    1    2    0    0  0.00000000000E+00  0.00000000000E+00  0.32564820967E+03  0.96917235670E+03  0.91282435360E+03 0.  0.
        1    1    3    3  502    0  0.25552029177E+03 -0.28973787063E+03 -0.95229460962E+02  0.39787850337E+03  0.50400001928E-02 0.  1.
       -1    1    3    3    0  502 -0.25552029177E+03  0.28973787063E+03  0.42087767063E+03  0.57129385333E+03  0.50400001928E-02 0. -1.
</event>
<event>
 5   0  0.2628383E-02  0.8472752E+03  0.7818609E-02  0.9494001E-01
       -2   -1    0    0    0  501  0.00000000000E+00  0.00000000000E+00  0.47812114332E+03  0.47812114333E+03  0.25500000920E-02 0. -1.
        2   -1    0    0  501    0  0.00000000000E+00  0.00000000000E+00 -0.37536266141E+03  0.37536266142E+03  0.25500000920E-02 0.  1.
    10030    2    1    2    0    0  0.00000000000E+00  0.00000000000E+00  0.10275848191E+03  0.85348380474E+03  0.84727522055E+03 0.  0.
        2    1    3    3  502    0 -0.33045424626E+03  0.31782958039E+02 -0.21371959470E+03  0.39482430328E+03  0.25500000920E-02 0.  1.
       -2    1    3    3    0  502  0.33045424626E+03 -0.31782958039E+02  0.31647807661E+03  0.45865950146E+03  0.25500000920E-02 0. -1.
</event>
<event>
 5   0  0.1497410E-02  0.8939210E+03  0.7818609E-02  0.9433212E-01
        1   -1    0    0  501    0  0.00000000000E+00  0.00000000000E+00  0.29454801892E+03  0.29454801896E+03  0.50400001928E-02 0.  1.
       -1   -1    0    0    0  501  0.00000000000E+00  0.00000000000E+00 -0.67823814509E+03  0.67823814511E+03  0.50400001928E-02 0. -1.
    10030    2    1    2    0    0  0.00000000000E+00  0.00000000000E+00 -0.38369012617E+03  0.97278616407E+03  0.89392103012E+03 0.  0.
        3    1    3    3  502    0 -0.32474130323E+03  0.84266893576E+02 -0.51322294587E+03  0.61315220439E+03  0.10100000352E+00 0. -1.
       -3    1    3    3    0  502  0.32474130323E+03 -0.84266893576E+02  0.12953281969E+03  0.35963395968E+03  0.10100000352E+00 0.  1.
</event>
<event>
 5   0  0.1040163E-02  0.9012106E+03  0.7818609E-02  0.9424069E-01
        3   -1    0    0  501    0  0.00000000000E+00  0.00000000000E+00  0.11648730056E+04  0.11648730100E+04  0.10100000352E+00 0. -1.
       -3   -1    0    0    0  501  0.00000000000E+00  0.00000000000E+00 -0.17430665322E+03  0.17430668248E+03  0.10100000352E+00 0.  1.
    10030    2    1    2    0    0  0.00000000000E+00  0.00000000000E+00  0.99056635238E+03  0.13391796925E+04  0.90121060261E+03 0.  0.
        2    1    3    3  502    0 -0.28894875845E+03  0.26425821115E+03  0.82663092177E+03  0.91468162111E+03  0.25500000920E-02 0. -1.
       -2    1    3    3    0  502  0.28894875845E+03 -0.26425821115E+03  0.16393543062E+03  0.42449807136E+03  0.25500000920E-02 0.  1.
</event>
<event>
 5   0  0.2414128E-02  0.8191520E+03  0.7818609E-02  0.9532702E-01
       -2   -1    0    0    0  501  0.00000000000E+00  0.00000000000E+00  0.15689388857E+03  0.15689388859E+03  0.25500000920E-02 0.  1.
        2   -1    0    0  501    0  0.00000000000E+00  0.00000000000E+00 -0.10692098997E+04  0.10692098997E+04  0.25500000920E-02 0. -1.
    10030    2    1    2    0    0  0.00000000000E+00  0.00000000000E+00 -0.91231601117E+03  0.12261037883E+04  0.81915199783E+03 0.  0.
        3    1    3    3  502    0 -0.27188375849E+02  0.34239120548E+03 -0.79011990133E+03  0.86154536389E+03  0.10100000352E+00 0. -1.
       -3    1    3    3    0  502  0.27188375849E+02 -0.34239120548E+03 -0.12219610984E+03  0.36455842445E+03  0.10100000352E+00 0.  1.
</event>
<event>
 5   0  0.1560728E-02  0.8795901E+03  0.7818609E-02  0.9451461E-01
        1   -1    0    0  501    0  0.00000000000E+00  0.00000000000E+00  0.29769778423E+03  0.29769778427E+03  0.50400001928E-02 0.  1.
       -1   -1    0    0    0  501  0.00000000000E+00  0.00000000000E+00 -0.64971830090E+03  0.64971830092E+03  0.50400001928E-02 0. -1.
    10030    2    1    2    0    0  0.00000000000E+00  0.00000000000E+00 -0.35202051667E+03  0.94741608519E+03  0.87959012860E+03 0.  0.
        4    1    3    3  502    0 -0.19861161375E+03  0.27115868406E+02 -0.59764962648E+03  0.63037174141E+03  0.12699999809E+01 0. -1.
       -4    1    3    3    0  502  0.19861161375E+03 -0.27115868406E+02  0.24562910981E+03  0.31704434378E+03  0.12699999809E+01 0.  1.
</event>
<event>
 5   0  0.2628383E-02  0.7616060E+03  0.7818609E-02  0.9617316E-01
       -2   -1    0    0    0  501  0.00000000000E+00  0.00000000000E+00  0.18551257723E+03  0.18551257725E+03  0.25500000920E-02 0.  1.
        2   -1    0    0  501    0  0.00000000000E+00  0.00000000000E+00 -0.78167714308E+03  0.78167714308E+03  0.25500000920E-02 0. -1.
    10030    2    1    2    0    0  0.00000000000E+00  0.00000000000E+00 -0.59616456585E+03  0.96718972033E+03  0.76160604352E+03 0.  0.
        2    1    3    3  502    0  0.36004161277E+03 -0.32267559372E+02 -0.14600911923E+03  0.38985871956E+03  0.25500000920E-02 0.  1.
       -2    1    3    3    0  502 -0.36004161277E+03  0.32267559372E+02 -0.45015544663E+03  0.57733100077E+03  0.25500000920E-02 0. -1.
</event>
<event>
 5   0  0.1459111E-02  0.8989100E+03  0.7818609E-02  0.9426945E-01
        1   -1    0    0  501    0  0.00000000000E+00  0.00000000000E+00  0.13870038701E+04  0.13870038701E+04  0.50400001928E-02 0. -1.
       -1   -1    0    0    0  501  0.00000000000E+00  0.00000000000E+00 -0.14564473837E+03  0.14564473846E+03  0.50400001928E-02 0.  1.
    10030    2    1    2    0    0  0.00000000000E+00  0.00000000000E+00  0.12413591317E+04  0.15326486086E+04  0.89891004189E+03 0.  0.
        2    1    3    3  502    0  0.45326385564E+02  0.18456866571E+03 -0.73762674351E+02  0.20386516555E+03  0.25500000920E-02 0.  1.
       -2    1    3    3    0  502 -0.45326385564E+02 -0.18456866571E+03  0.13151218061E+04  0.13287834430E+04  0.25500000920E-02 0. -1.
</event>
<event>
 5   0  0.2414128E-02  0.9086362E+03  0.7818609E-02  0.9414850E-01
        2   -1    0    0  501    0  0.00000000000E+00  0.00000000000E+00  0.74596608810E+03  0.74596608811E+03  0.25500000920E-02 0.  1.
       -2   -1    0    0    0  501  0.00000000000E+00  0.00000000000E+00 -0.27669477437E+03  0.27669477438E+03  0.25500000920E-02 0. -1.
    10030    2    1    2    0    0  0.00000000000E+00  0.00000000000E+00  0.46927131373E+03  0.10226608625E+04  0.90863616139E+03 0.  0.
        3    1    3    3  502    0  0.13642585893E+03 -0.42680736769E+03  0.31907264099E+03  0.55007627156E+03  0.10100000352E+00 0. -1.
       -3    1    3    3    0  502 -0.13642585893E+03  0.42680736769E+03  0.15019867274E+03  0.47258459094E+03  0.10100000352E+00 0.  1.
</event>
<event>
 5   0  0.2803717E-02  0.9438612E+03  0.7818609E-02  0.9372355E-01
       -2   -1    0    0    0  501  0.00000000000E+00  0.00000000000E+00  0.76455576203E+03  0.76455576203E+03  0.25500000920E-02 0. -1.
        2   -1    0    0  501    0  0.00000000000E+00  0.00000000000E+00 -0.29130441645E+03  0.29130441646E+03  0.25500000920E-02 0.  1.
    10030    2    1    2    0    0  0.00000000000E+00  0.00000000000E+00  0.47325134558E+03  0.10558601785E+04  0.94386115528E+03 0.  0.
        5    1    3    3  502    0 -0.43567077063E+01  0.31155051094E+03 -0.15985020060E+03  0.35022404029E+03  0.46999998093E+01 0.  1.
       -5    1    3    3    0  502  0.43567077063E+01 -0.31155051094E+03  0.63310154618E+03  0.70563613820E+03  0.46999998093E+01 0. -1.
</event>
<event>
 5   0  0.1459111E-02  0.8648997E+03  0.7818609E-02  0.9470554E-01
        1   -1    0    0  501    0  0.00000000000E+00  0.00000000000E+00  0.73010623353E+03  0.73010623354E+03  0.50400001928E-02 0. -1.
       -1   -1    0    0    0  501  0.00000000000E+00  0.00000000000E+00 -0.25614472817E+03  0.25614472822E+03  0.50400001928E-02 0.  1.
    10030    2    1    2    0    0  0.00000000000E+00  0.00000000000E+00  0.47396150535E+03  0.98625096177E+03  0.86489967686E+03 0.  0.
        2    1    3    3  502    0  0.21435378671E+03 -0.26601453664E+03  0.53932677372E+03  0.63842356507E+03  0.25500000920E-02 0.  1.
       -2    1    3    3    0  502 -0.21435378671E+03  0.26601453664E+03 -0.65365268366E+02  0.34782739670E+03  0.25500000920E-02 0. -1.
</event>
<event>
 5   0  0.2414128E-02  0.9178703E+03  0.7818609E-02  0.9403514E-01
        2   -1    0    0  501    0  0.00000000000E+00  0.00000000000E+00  0.46027453587E+03  0.46027453588E+03  0.25500000920E-02 0. -1.
       -2   -1    0    0    0  501  0.00000000000E+00  0.00000000000E+00 -0.45759966854E+03  0.45759966854E+03  0.25500000920E-02 0.  1.
    10030    2    1    2    0    0  0.00000000000E+00  0.00000000000E+00  0.26748673386E+01  0.91787420442E+03  0.91787030687E+03 0.  0.
        3    1    3    3  502    0  0.22910048116E+03 -0.63325339294E+02  0.39392582462E+03  0.46008118259E+03  0.10100000352E+00 0. -1.
       -3    1    3    3    0  502 -0.22910048116E+03  0.63325339294E+02 -0.39125095728E+03  0.45779302184E+03  0.10100000352E+00 0.  1.
</event>
<event>
 5   0  0.2679861E-02  0.9248850E+03  0.7818609E-02  0.9394998E-01
       -2   -1    0    0    0  501  0.00000000000E+00  0.00000000000E+00  0.82863021542E+03  0.82863021542E+03  0.25500000920E-02 0. -1.
        2   -1    0    0  501    0  0.00000000000E+00  0.00000000000E+00 -0.25808019103E+03  0.25808019105E+03  0.25500000920E-02 0.  1.
    10030    2    1    2    0    0  0.00000000000E+00  0.00000000000E+00  0.57055002438E+03  0.10867104065E+04  0.92488495349E+03 0.  0.
        1    1    3    3  502    0 -0.37095297205E+03 -0.21522263135E+03  0.82015172945E+02  0.43663872610E+03  0.50400001928E-02 0.  1.
       -1    1    3    3    0  502  0.37095297205E+03  0.21522263135E+03  0.48853485144E+03  0.65007168036E+03  0.50400001928E-02 0. -1.
</event>
<event>
 5   0  0.1497410E-02  0.7744031E+03  0.7818609E-02  0.9597825E-01
       -1   -1    0    0    0  501  0.00000000000E+00  0.00000000000E+00  0.14996630152E+03  0.14996630161E+03  0.50400001928E-02 0.  1.
        1   -1    0    0  501    0  0.00000000000E+00  0.00000000000E+00 -0.99972475526E+03  0.99972475527E+03  0.50400001928E-02 0. -1.
    10030    2    1    2    0    0  0.00000000000E+00  0.00000000000E+00 -0.84975845374E+03  0.11496910569E+04  0.77440305822E+03 0.  0.
        3    1    3    3  502    0  0.26013280154E+03  0.19478413998E+03 -0.73740789007E+03  0.80584138772E+03  0.10100000352E+00 0. -1.
       -3    1    3    3    0  502 -0.26013280154E+03 -0.19478413998E+03 -0.11235056366E+03  0.34384966916E+03  0.10100000352E+00 0.  1.
</event>
<event>
 5   0  0.2414128E-02  0.8111156E+03  0.7818609E-02  0.9544066E-01
       -2   -1    0    0    0  501  0.00000000000E+00  0.00000000000E+00  0.16612680334E+03  0.16612680336E+03  0.25500000920E-02 0. -1.
        2   -1    0    0  501    0  0.00000000000E+00  0.00000000000E+00 -0.99006972202E+03  0.99006972202E+03  0.25500000920E-02 0.  1.
    10030    2    1    2    0    0  0.00000000000E+00  0.00000000000E+00 -0.82394291868E+03  0.11561965254E+04  0.81111557258E+03 0.  0.
        3    1    3    3  502    0 -0.39920999412E+03  0.13398889887E+02 -0.51204666390E+03  0.64941507979E+03  0.10100000352E+00 0.  1.
       -3    1    3    3    0  502  0.39920999412E+03 -0.13398889887E+02 -0.31189625478E+03  0.50678144560E+03  0.10100000352E+00 0. -1.
</event>
<event>
 5   0  0.1560728E-02  0.8966281E+03  0.7818609E-02  0.9429806E-01
        1   -1    0    0  501    0  0.00000000000E+00  0.00000000000E+00  0.27486600524E+03  0.27486600529E+03  0.50400001928E-02 0. -1.
       -1   -1    0    0    0  501  0.00000000000E+00  0.00000000000E+00 -0.73121266603E+03  0.73121266605E+03  0.50400001928E-02 0.  1.
    10030    2    1    2    0    0  0.00000000000E+00  0.00000000000E+00 -0.45634666079E+03  0.10060786713E+04  0.89662813814E+03 0.  0.
        4    1    3    3  502    0  0.52447013271E+02 -0.64703401162E+02  0.26610625990E+03  0.27883933327E+03  0.12699999809E+01 0. -1.
       -4    1    3    3    0  502 -0.52447013271E+02  0.64703401162E+02 -0.72245292069E+03  0.72723933807E+03  0.12699999809E+01 0.  1.
</event>
<event>
 5   0  0.1559275E-02  0.8907344E+03  0.7818609E-02  0.9437239E-01
       -1   -1    0    0    0  501  0.00000000000E+00  0.00000000000E+00  0.48036277034E+03  0.48036277037E+03  0.50400001928E-02 0. -1.
        1   -1    0    0  501    0  0.00000000000E+00  0.00000000000E+00 -0.41292110778E+03  0.41292110781E+03  0.50400001928E-02 0.  1.
    10030    2    1    2    0    0  0.00000000000E+00  0.00000000000E+00  0.67441662567E+02  0.89328387818E+03  0.89073436510E+03 0.  0.
        1    1    3    3  502    0 -0.16370314615E+03 -0.34819299430E+03 -0.19123091119E+03  0.42965840241E+03  0.50400001928E-02 0.  1.
       -1    1    3    3    0  502  0.16370314615E+03  0.34819299430E+03  0.25867257376E+03  0.46362547577E+03  0.50400001928E-02 0. -1.
</event>
<event>
 5   0  0.1497410E-02  0.8609657E+03  0.7818609E-02  0.9475736E-01
        1   -1    0    0  501    0  0.00000000000E+00  0.00000000000E+00  0.70900572384E+03  0.70900572386E+03  0.50400001928E-02 0.  1.
       -1   -1    0    0    0  501  0.00000000000E+00  0.00000000000E+00 -0.26137374128E+03  0.26137374133E+03  0.50400001928E-02 0. -1.
    10030    2    1    2    0    0  0.00000000000E+00  0.00000000000E+00  0.44763198256E+03  0.97037946518E+03  0.86096568726E+03 0.  0.
        3    1    3    3  502    0 -0.95914605764E+02 -0.41966144066E+03  0.22340637877E+03  0.48500078006E+03  0.10100000352E+00 0.  1.
       -3    1    3    3    0  502  0.95914605764E+02  0.41966144066E+03  0.22422560379E+03  0.48537868513E+03  0.10100000352E+00 0. -1.
</event>
<event>
 5   0  0.2705111E-02  0.8663778E+03  0.7818609E-02  0.9468615E-01
       -2   -1    0    0    0  501  0.00000000000E+00  0.00000000000E+00  0.20194203063E+03  0.20194203065E+03  0.25500000920E-02 0. -1.
        2   -1    0    0  501    0  0.00000000000E+00  0.00000000000E+00 -0.92924014674E+03  0.92924014674E+03  0.25500000920E-02 0.  1.
    10030    2    1    2    0    0  0.00000000000E+00  0.00000000000E+00 -0.72729811611E+03  0.11311821774E+04  0.86637784410E+03 0.  0.
        4    1    3    3  502    0 -0.20082807793E+03 -0.97579829072E+02  0.12102028901E+03  0.25397098885E+03  0.12699999809E+01 0. -1.
       -4    1    3    3    0  502  0.20082807793E+03  0.97579829072E+02 -0.84831840512E+03  0.87721118853E+03  0.12699999809E+01 0.  1.
</event>
<event>
 5   0  0.2705111E-02  0.9025051E+03  0.7818609E-02  0.9422455E-01
       -2   -1    0    0    0  501  0.00000000000E+00  0.00000000000E+00  0.11889549553E+03  0.11889549556E+03  0.25500000920E-02 0. -1.
        2   -1    0    0  501    0  0.00000000000E+00  0.00000000000E+00 -0.17126710270E+04  0.17126710270E+04  0.25500000920E-02 0.  1.
    10030    2    1    2    0    0  0.00000000000E+00  0.00000000000E+00 -0.15937755314E+04  0.18315665225E+04  0.90250511459E+03 0.  0.
        4    1    3    3  502    0  0.12659595677E+03 -0.30730316847E+03 -0.14163296213E+04  0.14548034172E+04  0.12699999809E+01 0.  1.
       -4    1    3    3    0  502 -0.12659595677E+03  0.30730316847E+03 -0.17744591014E+03  0.37676310534E+03  0.12699999809E+01 0. -1.
</event>
<event>
 5   0  0.1040163E-02  0.8685892E+03  0.7818609E-02  0.9465721E-01
        4   -1    0    0  501    0  0.00000000000E+00  0.00000000000E+00  0.13554124802E+03  0.13554719774E+03  0.12699999809E+01 0.  1.
       -4   -1    0    0    0  501  0.00000000000E+00  0.00000000000E+00 -0.13915086996E+04  0.13915092792E+04  0.12699999809E+01 0. -1.
    10030    2    1    2    0    0  0.00000000000E+00  0.00000000000E+00 -0.12559674516E+04  0.15270564769E+04  0.86858922638E+03 0.  0.
        4    1    3    3  502    0 -0.36490279947E+02  0.42982086182E+03 -0.71646089021E+03  0.83629859134E+03  0.12699999809E+01 0.  1.
       -4    1    3    3    0  502  0.36490279947E+02 -0.42982086182E+03 -0.53950656137E+03  0.69075788555E+03  0.12699999809E+01 0. -1.
</event>
<event>
 5   0  0.1497410E-02  0.8952056E+03  0.7818609E-02  0.9431595E-01
       -1   -1    0    0    0  501  0.00000000000E+00  0.00000000000E+00  0.21063108863E+03  0.21063108869E+03  0.50400001928E-02 0.  1.
        1   -1    0    0  501    0  0.00000000000E+00  0.00000000000E+00 -0.95118097242E+03  0.95118097243E+03  0.50400001928E-02 0. -1.
    10030    2    1    2    0    0  0.00000000000E+00  0.00000000000E+00 -0.74054988379E+03  0.11618120611E+04  0.89520563839E+03 0.  0.
        3    1    3    3  502    0  0.36698448994E+03 -0.93417978619E+02 -0.67997127393E+03  0.77830937175E+03  0.10100000352E+00 0. -1.
       -3    1    3    3    0  502 -0.36698448994E+03  0.93417978619E+02 -0.60578609855E+02  0.38350268937E+03  0.10100000352E+00 0.  1.
</event>
<event>
 5   0  0.1537870E-02  0.9245346E+03  0.7818609E-02  0.9395421E-01
        1   -1    0    0  501    0  0.00000000000E+00  0.00000000000E+00  0.44054179958E+03  0.44054179961E+03  0.50400001928E-02 0.  1.
       -1   -1    0    0    0  501  0.00000000000E+00  0.00000000000E+00 -0.48506422034E+03  0.48506422037E+03  0.50400001928E-02 0. -1.
    10030    2    1    2    0    0  0.00000000000E+00  0.00000000000E+00 -0.44522420761E+02  0.92560601998E+03  0.92453461713E+03 0.  0.
        5    1    3    3  502    0  0.32423636976E+03 -0.89750639071E+01 -0.35197430119E+03  0.47866248437E+03  0.46999998093E+01 0. -1.
       -5    1    3    3    0  502 -0.32423636976E+03  0.89750639071E+01  0.30745188043E+03  0.44694353561E+03  0.46999998093E+01 0.  1.
</event>
<event>
 5   0  0.2628383E-02  0.8871966E+03  0.7818609E-02  0.9441729E-01
       -2   -1    0    0    0  501  0.00000000000E+00  0.00000000000E+00  0.28008364022E+03  0.28008364023E+03  0.25500000920E-02 0.  1.
        2   -1    0    0  501    0  0.00000000000E+00  0.00000000000E+00 -0.70257396227E+03  0.70257396228E+03  0.25500000920E-02 0. -1.
    10030    2    1    2    0    0  0.00000000000E+00  0.00000000000E+00 -0.42249032206E+03  0.98265760251E+03  0.88719664761E+03 0.  0.
        2    1    3    3  502    0 -0.11382258903E+03  0.26303926236E+02 -0.68522998770E+03  0.69511697891E+03  0.25500000920E-02 0. -1.
       -2    1    3    3    0  502  0.11382258903E+03 -0.26303926236E+02  0.26273966565E+03  0.28754062360E+03  0.25500000920E-02 0.  1.
</event>
<event>
 5   0  0.2414128E-02  0.7504070E+03  0.7818609E-02  0.9634712E-01
       -2   -1    0    0    0  501  0.00000000000E+00  0.00000000000E+00  0.31717056835E+03  0.31717056836E+03  0.25500000920E-02 0. -1.
        2   -1    0    0  501    0  0.00000000000E+00  0.00000000000E+00 -0.44385476889E+03  0.44385476890E+03  0.25500000920E-02 0.  1.
    10030    2    1    2    0    0  0.00000000000E+00  0.00000000000E+00 -0.12668420054E+03  0.76102533726E+03  0.75040700775E+03 0.  0.
        3    1    3    3  502    0  0.12070710201E+03  0.23204445359E+03 -0.33615191792E+03  0.42592599714E+03  0.10100000352E+00 0.  1.
       -3    1    3    3    0  502 -0.12070710201E+03 -0.23204445359E+03  0.20946771739E+03  0.33509934012E+03  0.10100000352E+00 0. -1.
</event>
<event>
 5   0  0.2679861E-02  0.9247282E+03  0.7818609E-02  0.9395187E-01
       -2   -1    0    0    0  501  0.00000000000E+00  0.00000000000E+00  0.49666397751E+03  0.49666397752E+03  0.25500000920E-02 0. -1.
        2   -1    0    0  501    0  0.00000000000E+00  0.00000000000E+00 -0.43043296129E+03  0.43043296130E+03  0.25500000920E-02 0.  1.
    10030    2    1    2    0    0  0.00000000000E+00  0.00000000000E+00  0.66231016218E+02  0.92709693882E+03  0.92472816895E+03 0.  0.
        1    1    3    3  502    0 -0.28484825078E+03 -0.18642901133E+03  0.34678472007E+03  0.48595673093E+03  0.50400001928E-02 0. -1.
       -1    1    3    3    0  502  0.28484825078E+03  0.18642901133E+03 -0.28055370385E+03  0.44114020788E+03  0.50400001928E-02 0.  1.
</event>
<event>
 5   0  0.2628383E-02  0.9052618E+03  0.7818609E-02  0.9419028E-01
        2   -1    0    0  501    0  0.00000000000E+00  0.00000000000E+00  0.55536120906E+03  0.55536120906E+03  0.25500000920E-02 0.  1.
       -2   -1    0    0    0  501  0.00000000000E+00  0.00000000000E+00 -0.36890359670E+03  0.36890359671E+03  0.25500000920E-02 0. -1.
    10030    2    1    2    0    0  0.00000000000E+00  0.00000000000E+00  0.18645761236E+03  0.92426480577E+03  0.90526183504E+03 0.  0.
        2    1    3    3  502    0  0.38533728879E+03 -0.11803970914E+03 -0.11714639642E+03  0.41969212199E+03  0.25500000920E-02 0.  1.
       -2    1    3    3    0  502 -0.38533728879E+03  0.11803970914E+03  0.30360400878E+03  0.50457268378E+03  0.25500000920E-02 0. -1.
</event>
<event>
 5   0  0.2414128E-02  0.9247585E+03  0.7818609E-02  0.9395151E-01
       -2   -1    0    0    0  501  0.00000000000E+00  0.00000000000E+00  0.71534994316E+03  0.71534994317E+03  0.25500000920E-02 0.  1.
        2   -1    0    0  501    0  0.00000000000E+00  0.00000000000E+00 -0.29886708255E+03  0.29886708256E+03  0.25500000920E-02 0. -1.
    10030    2    1    2    0    0  0.00000000000E+00  0.00000000000E+00  0.41648286061E+03  0.10142170257E+04  0.92475845609E+03 0.  0.
        3    1    3    3  502    0  0.40573883117E+03  0.55483619993E+02 -0.27217884693E+02  0.41041838977E+03  0.10100000352E+00 0. -1.
       -3    1    3    3    0  502 -0.40573883117E+03 -0.55483619993E+02  0.44370074530E+03  0.60379863597E+03  0.10100000352E+00 0.  1.
</event>
<event>
 5   0  0.1497410E-02  0.8935631E+03  0.7818609E-02  0.9433664E-01
       -1   -1    0    0    0  501  0.00000000000E+00  0.00000000000E+00  0.33646334079E+03  0.33646334083E+03  0.50400001928E-02 0.  1.
        1   -1    0    0  501    0  0.00000000000E+00  0.00000000000E+00 -0.59327050225E+03  0.59327050227E+03  0.50400001928E-02 0. -1.
    10030    2    1    2    0    0  0.00000000000E+00  0.00000000000E+00 -0.25680716146E+03  0.92973384310E+03  0.89356314876E+03 0.  0.
        3    1    3    3  502    0 -0.33921033287E+03 -0.20794511663E+03  0.83069666596E+02  0.40645467295E+03  0.10100000352E+00 0. -1.
       -3    1    3    3    0  502  0.33921033287E+03  0.20794511663E+03 -0.33987682805E+03  0.52327917014E+03  0.10100000352E+00 0.  1.
</event>
<event>
 5   0  0.2803717E-02  0.9521688E+03  0.7818609E-02  0.9362619E-01
       -2   -1    0    0    0  501  0.00000000000E+00  0.00000000000E+00  0.22487571110E+03  0.22487571112E+03  0.25500000920E-02 0. -1.
        2   -1    0    0  501    0  0.00000000000E+00  0.00000000000E+00 -0.10079183821E+04  0.10079183821E+04  0.25500000920E-02 0.  1.
    10030    2    1    2    0    0  0.00000000000E+00  0.00000000000E+00 -0.78304267103E+03  0.12327940933E+04  0.95216881471E+03 0.  0.
        5    1    3    3  502    0  0.24599907446E+03  0.10387724718E+02 -0.91904845778E+03  0.95147023453E+03  0.46999998093E+01 0.  1.
       -5    1    3    3    0  502 -0.24599907446E+03 -0.10387724718E+02  0.13600578674E+03  0.28132385872E+03  0.46999998093E+01 0. -1.
</event>
<event>
 5   0  0.1537870E-02  0.9031028E+03  0.7818609E-02  0.9421711E-01
       -1   -1    0    0    0  501  0.00000000000E+00  0.00000000000E+00  0.27954153325E+03  0.27954153329E+03  0.50400001928E-02 0.  1.
        1   -1    0    0  501    0  0.00000000000E+00  0.00000000000E+00 -0.72940391334E+03  0.72940391336E+03  0.50400001928E-02 0. -1.
    10030    2    1    2    0    0  0.00000000000E+00  0.00000000000E+00 -0.44986238010E+03  0.10089454467E+04  0.90310284757E+03 0.  0.
        5    1    3    3  502    0 -0.84922339175E+02 -0.39775622733E+03 -0.58497289074E+01  0.40679003110E+03  0.46999998093E+01 0.  1.
       -5    1    3    3    0  502  0.84922339175E+02  0.39775622733E+03 -0.44401265119E+03  0.60215541556E+03  0.46999998093E+01 0. -1.
</event>
<event>
 5   0  0.1497410E-02  0.1007470E+04  0.7818609E-02  0.9300390E-01
       -1   -1    0    0    0  501  0.00000000000E+00  0.00000000000E+00  0.46033854749E+03  0.46033854752E+03  0.50400001928E-02 0. -1.
        1   -1    0    0  501    0  0.00000000000E+00  0.00000000000E+00 -0.55122216453E+03  0.55122216455E+03  0.50400001928E-02 0.  1.
    10030    2    1    2    0    0  0.00000000000E+00  0.00000000000E+00 -0.90883617040E+02  0.10115607121E+04  0.10074697228E+04 0.  0.
        3    1    3    3  502    0  0.21582794403E+03  0.36462001644E+03  0.22809671710E+03  0.48120430211E+03  0.10100000352E+00 0. -1.
       -3    1    3    3    0  502 -0.21582794403E+03 -0.36462001644E+03 -0.31898033414E+03  0.53035640996E+03  0.10100000352E+00 0.  1.
</event>
<event>
 5   0  0.1040163E-02  0.9410392E+03  0.7818609E-02  0.9375686E-01
        3   -1    0    0  501    0  0.00000000000E+00  0.00000000000E+00  0.22779857658E+03  0.22779859897E+03  0.10100000352E+00 0. -1.
       -3   -1    0    0    0  501  0.00000000000E+00  0.00000000000E+00 -0.97186164295E+03  0.97186164819E+03  0.10100000352E+00 0.  1.
    10030    2    1    2    0    0  0.00000000000E+00  0.00000000000E+00 -0.74406306637E+03  0.11996602472E+04  0.94103924567E+03 0.  0.
        5    1    3    3  502    0 -0.43932422682E+03  0.89802825218E+02 -0.19041349173E+03  0.48718550012E+03  0.46999998093E+01 0. -1.
       -5    1    3    3    0  502  0.43932422682E+03 -0.89802825218E+02 -0.55364957463E+03  0.71247474705E+03  0.46999998093E+01 0.  1.
</event>
<event>
 5   0  0.2414128E-02  0.9297058E+03  0.7818609E-02  0.9389191E-01
       -2   -1    0    0    0  501  0.00000000000E+00  0.00000000000E+00  0.19704638704E+03  0.19704638706E+03  0.25500000920E-02 0. -1.
        2   -1    0    0  501    0  0.00000000000E+00  0.00000000000E+00 -0.10966362190E+04  0.10966362190E+04  0.25500000920E-02 0.  1.
    10030    2    1    2    0    0  0.00000000000E+00  0.00000000000E+00 -0.89958983199E+03  0.12936826061E+04  0.92970577038E+03 0.  0.
        3    1    3    3  502    0 -0.21524032011E+03 -0.81207090797E+02 -0.10118721451E+04  0.10376937098E+04  0.10100000352E+00 0.  1.
       -3    1    3    3    0  502  0.21524032011E+03  0.81207090797E+02  0.11228231314E+03  0.25598889633E+03  0.10100000352E+00 0. -1.
</event>
<event>
 5   0  0.1559275E-02  0.8776363E+03  0.7818609E-02  0.9453977E-01
       -1   -1    0    0    0  501  0.00000000000E+00  0.00000000000E+00  0.20394125328E+03  0.20394125334E+03  0.50400001928E-02 0. -1.
        1   -1    0    0  501    0  0.00000000000E+00  0.00000000000E+00 -0.94420022986E+03  0.94420022987E+03  0.50400001928E-02 0.  1.
    10030    2    1    2    0    0  0.00000000000E+00  0.00000000000E+00 -0.74025897658E+03  0.11481414832E+04  0.87763632164E+03 0.  0.
        1    1    3    3  502    0  0.27973788636E+03 -0.17231011585E+03  0.10419389758E+02  0.32871359084E+03  0.50400001928E-02 0. -1.
       -1    1    3    3    0  502 -0.27973788636E+03  0.17231011585E+03 -0.75067836633E+03  0.81942789237E+03  0.50400001928E-02 0.  1.
</event>
<event>
 5   0  0.1497410E-02  0.9129719E+03  0.7818609E-02  0.9409510E-01
       -1   -1    0    0    0  501  0.00000000000E+00  0.00000000000E+00  0.33799424725E+03  0.33799424729E+03  0.50400001928E-02 0.  1.
        1   -1    0    0  501    0  0.00000000000E+00  0.00000000000E+00 -0.61651764703E+03  0.61651764706E+03  0.50400001928E-02 0. -1.
    10030    2    1    2    0    0  0.00000000000E+00  0.00000000000E+00 -0.27852339978E+03  0.95451189435E+03  0.91297189016E+03 0.  0.
        3    1    3    3  502    0  0.16090489491E+03 -0.81149014523E+02  0.29923024870E+03  0.34930545329E+03  0.10100000352E+00 0.  1.
       -3    1    3    3    0  502 -0.16090489491E+03  0.81149014523E+02 -0.57775364848E+03  0.60520644105E+03  0.10100000352E+00 0. -1.
</event>
<event>
 5   0  0.1459111E-02  0.9010322E+03  0.7818609E-02  0.9424292E-01
        1   -1    0    0  501    0  0.00000000000E+00  0.00000000000E+00  0.57118354874E+03  0.57118354876E+03  0.50400001928E-02 0.  1.
       -1   -1    0    0    0  501  0.00000000000E+00  0.00000000000E+00 -0.35534068969E+03  0.35534068973E+03  0.50400001928E-02 0. -1.
    10030    2    1    2    0    0  0.00000000000E+00  0.00000000000E+00  0.21584285905E+03  0.92652423849E+03  0.90103219959E+03 0.  0.
        2    1    3    3  502    0  0.14737568267E+03  0.40689079989E+03  0.23670465766E+03  0.49326342844E+03  0.25500000920E-02 0.  1.
       -2    1    3    3    0  502 -0.14737568267E+03 -0.40689079989E+03 -0.20861798608E+02  0.43326081005E+03  0.25500000920E-02 0. -1.
</event>
<event>
 5   0  0.1497410E-02  0.8877157E+03  0.7818609E-02  0.9441069E-01
       -1   -1    0    0    0  501  0.00000000000E+00  0.00000000000E+00  0.24986776418E+03  0.24986776423E+03  0.50400001928E-02 0. -1.
        1   -1    0    0  501    0  0.00000000000E+00  0.00000000000E+00 -0.78845613713E+03  0.78845613715E+03  0.50400001928E-02 0.  1.
    10030    2    1    2    0    0  0.00000000000E+00  0.00000000000E+00 -0.53858837296E+03  0.10383239014E+04  0.88771565756E+03 0.  0.
        3    1    3    3  502    0 -0.68217740136E+02 -0.29147135416E+03 -0.65261484638E+03  0.71799398206E+03  0.10100000352E+00 0.  1.
       -3    1    3    3    0  502  0.68217740136E+02  0.29147135416E+03  0.11402647342E+03  0.32032991931E+03  0.10100000352E+00 0. -1.
</event>
<event>
 5   0  0.2705111E-02  0.8206549E+03  0.7818609E-02  0.9530592E-01
       -2   -1    0    0    0  501  0.00000000000E+00  0.00000000000E+00  0.29267658777E+03  0.29267658778E+03  0.25500000920E-02 0.  1.
        2   -1    0    0  501    0  0.00000000000E+00  0.00000000000E+00 -0.57527191365E+03  0.57527191366E+03  0.25500000920E-02 0. -1.
    10030    2    1    2    0    0  0.00000000000E+00  0.00000000000E+00 -0.28259532589E+03  0.86794850144E+03  0.82065491099E+03 0.  0.
        4    1    3    3  502    0  0.17564094118E+02  0.19839133124E+03  0.23812356858E+03  0.31043850362E+03  0.12699999809E+01 0.  1.
       -4    1    3    3    0  502 -0.17564094118E+02 -0.19839133124E+03 -0.52071889447E+03  0.55750999782E+03  0.12699999809E+01 0. -1.
</event>
<event>
 5   0  0.2679861E-02  0.8789188E+03  0.7818609E-02  0.9452325E-01
        2   -1    0    0  501    0  0.00000000000E+00  0.00000000000E+00  0.23221345325E+03  0.23221345326E+03  0.25500000920E-02 0.  1.
       -2   -1    0    0    0  501  0.00000000000E+00  0.00000000000E+00 -0.83166826775E+03  0.83166826776E+03  0.25500000920E-02 0. -1.
    10030    2    1    2    0    0  0.00000000000E+00  0.00000000000E+00 -0.59945481450E+03  0.10638817210E+04  0.87891879129E+03 0.  0.
        1    1    3    3  502    0  0.19522432198E+03 -0.10774042635E+03 -0.75810699319E+03  0.79021943061E+03  0.50400001928E-02 0. -1.
       -1    1    3    3    0  502 -0.19522432198E+03  0.10774042635E+03  0.15865217869E+03  0.27366229041E+03  0.50400001928E-02 0.  1.
</event>
<event>
 5   0  0.1560728E-02  0.8025609E+03  0.7818609E-02  0.9556318E-01
        1   -1    0    0  501    0  0.00000000000E+00  0.00000000000E+00  0.24585489638E+03  0.24585489643E+03  0.50400001928E-02 0.  1.
       -1   -1    0    0    0  501  0.00000000000E+00  0.00000000000E+00 -0.65496358445E+03  0.65496358447E+03  0.50400001928E-02 0. -1.
    10030    2    1    2    0    0  0.00000000000E+00  0.00000000000E+00 -0.40910868807E+03  0.90081848090E+03  0.80256091162E+03 0.  0.
        4    1    3    3  502    0  0.17865248577E+03 -0.35707390157E+03 -0.24953438140E+03  0.47083702303E+03  0.12699999809E+01 0.  1.
       -4    1    3    3    0  502 -0.17865248577E+03  0.35707390157E+03 -0.15957430668E+03  0.42998145787E+03  0.12699999809E+01 0. -1.
</event>
<event>
 5   0  0.2628383E-02  0.9201092E+03  0.7818609E-02  0.9400787E-01
        2   -1    0    0  501    0  0.00000000000E+00  0.00000000000E+00  0.34922704110E+03  0.34922704111E+03  0.25500000920E-02 0. -1.
       -2   -1    0    0    0  501  0.00000000000E+00  0.00000000000E+00 -0.60605345545E+03  0.60605345545E+03  0.25500000920E-02 0.  1.
    10030    2    1    2    0    0  0.00000000000E+00  0.00000000000E+00 -0.25682641434E+03  0.95528049657E+03  0.92010924352E+03 0.  0.
        2    1    3    3  502    0  0.23180715229E+03 -0.43795739770E+02 -0.53847614690E+03  0.58788534890E+03  0.25500000920E-02 0.  1.
       -2    1    3    3    0  502 -0.23180715229E+03  0.43795739770E+02  0.28164973255E+03  0.36739514766E+03  0.25500000920E-02 0. -1.
</event>
<event>
 5   0  0.1497410E-02  0.8640469E+03  0.7818609E-02  0.9471675E-01
        1   -1    0    0  501    0  0.00000000000E+00  0.00000000000E+00  0.14200544866E+04  0.14200544866E+04  0.50400001928E-02 0. -1.
       -1   -1    0    0    0  501  0.00000000000E+00  0.00000000000E+00 -0.13143459056E+03  0.13143459065E+03  0.50400001928E-02 0.  1.
    10030    2    1    2    0    0  0.00000000000E+00  0.00000000000E+00  0.12886198960E+04  0.15514890773E+04  0.86404694339E+03 0.  0.
        3    1    3    3  502    0 -0.49085130384E+02 -0.26489098937E+03  0.12507567294E+04  0.12794408906E+04  0.10100000352E+00 0. -1.
       -3    1    3    3    0  502  0.49085130384E+02  0.26489098937E+03  0.37863166669E+02  0.27204818666E+03  0.10100000352E+00 0.  1.
</event>
<event>
 5   0  0.2628383E-02  0.9135789E+03  0.7818609E-02  0.9408765E-01
        2   -1    0    0  501    0  0.00000000000E+00  0.00000000000E+00  0.59984775517E+03  0.59984775518E+03  0.25500000920E-02 0.  1.
       -2   -1    0    0    0  501  0.00000000000E+00  0.00000000000E+00 -0.34784923319E+03  0.34784923320E+03  0.25500000920E-02 0. -1.
    10030    2    1    2    0    0  0.00000000000E+00  0.00000000000E+00  0.25199852199E+03  0.94769698838E+03  0.91357885631E+03 0.  0.
        2    1    3    3  502    0  0.27341836508E+03  0.28181106309E+03 -0.11613040607E+03  0.40946471015E+03  0.25500000920E-02 0. -1.
       -2    1    3    3    0  502 -0.27341836508E+03 -0.28181106309E+03  0.36812892806E+03  0.53823227822E+03  0.25500000920E-02 0.  1.
</event>
<event>
 5   0  0.1459111E-02  0.9013089E+03  0.7818609E-02  0.9423947E-01
        1   -1    0    0  501    0  0.00000000000E+00  0.00000000000E+00  0.66509462327E+03  0.66509462328E+03  0.50400001928E-02 0. -1.
       -1   -1    0    0    0  501  0.00000000000E+00  0.00000000000E+00 -0.30535418770E+03  0.30535418774E+03  0.50400001928E-02 0.  1.
    10030    2    1    2    0    0  0.00000000000E+00  0.00000000000E+00  0.35974043557E+03  0.97044881103E+03  0.90130888925E+03 0.  0.
        2    1    3    3  502    0 -0.24239416698E+03 -0.24133735479E+03 -0.13604990739E+03  0.36811442285E+03  0.25500000920E-02 0.  1.
       -2    1    3    3    0  502  0.24239416698E+03  0.24133735479E+03  0.49579034296E+03  0.60233438818E+03  0.25500000920E-02 0. -1.
</event>
<event>
 5   0  0.1459111E-02  0.9229017E+03  0.7818609E-02  0.9397397E-01
        1   -1    0    0  501    0  0.00000000000E+00  0.00000000000E+00  0.36924192154E+03  0.36924192158E+03  0.50400001928E-02 0.  1.
       -1   -1    0    0    0  501  0.00000000000E+00  0.00000000000E+00 -0.57668668576E+03  0.57668668578E+03  0.50400001928E-02 0. -1.
    10030    2    1    2    0    0  0.00000000000E+00  0.00000000000E+00 -0.20744476422E+03  0.94592860736E+03  0.92290172826E+03 0.  0.
        2    1    3    3  502    0 -0.50455799885E+02  0.38525686703E+03  0.15142290272E+03  0.41701023586E+03  0.25500000920E-02 0.  1.
       -2    1    3    3    0  502  0.50455799885E+02 -0.38525686703E+03 -0.35886766694E+03  0.52891837150E+03  0.25500000920E-02 0. -1.
</event>
<event>
 5   0  0.1459111E-02  0.8902024E+03  0.7818609E-02  0.9437912E-01
       -1   -1    0    0    0  501  0.00000000000E+00  0.00000000000E+00  0.97136628853E+03  0.97136628854E+03  0.50400001928E-02 0.  1.
        1   -1    0    0  501    0  0.00000000000E+00  0.00000000000E+00 -0.20395508732E+03  0.20395508739E+03  0.50400001928E-02 0. -1.
    10030    2    1    2    0    0  0.00000000000E+00  0.00000000000E+00  0.76741120120E+03  0.11753213759E+04  0.89020244045E+03 0.  0.
        2    1    3    3  502    0 -0.34640008764E+03 -0.51950534495E+02  0.74629940732E+03  0.82441172003E+03  0.25500000920E-02 0.  1.
       -2    1    3    3    0  502  0.34640008764E+03  0.51950534495E+02  0.21111793889E+02  0.35090965590E+03  0.25500000920E-02 0. -1.
</event>
<event>
 5   0  0.2628383E-02  0.9009133E+03  0.7818609E-02  0.9424440E-01
       -2   -1    0    0    0  501  0.00000000000E+00  0.00000000000E+00  0.69344618217E+03  0.69344618217E+03  0.25500000920E-02 0.  1.
        2   -1    0    0  501    0  0.00000000000E+00  0.00000000000E+00 -0.29261276857E+03  0.29261276859E+03  0.25500000920E-02 0. -1.
    10030    2    1    2    0    0  0.00000000000E+00  0.00000000000E+00  0.40083341359E+03  0.98605895076E+03  0.90091333041E+03 0.  0.
        2    1    3    3  502    0  0.30023382245E+03  0.28322534238E+03  0.29363921062E+01  0.41275363731E+03  0.25500000920E-02 0. -1.
       -2    1    3    3    0  502 -0.30023382245E+03 -0.28322534238E+03  0.39789702149E+03  0.57330531344E+03  0.25500000920E-02 0.  1.
</event>
<event>
 5   0  0.1537870E-02  0.9185521E+03  0.7818609E-02  0.9402683E-01
       -1   -1    0    0    0  501  0.00000000000E+00  0.00000000000E+00  0.84832676020E+02  0.84832676169E+02  0.50400001928E-02 0. -1.
        1   -1    0    0  501    0  0.00000000000E+00  0.00000000000E+00 -0.24864771157E+04  0.24864771157E+04  0.50400001928E-02 0.  1.
    10030    2    1    2    0    0  0.00000000000E+00  0.00000000000E+00 -0.24016444397E+04  0.25713097919E+04  0.91855213850E+03 0.  0.
        5    1    3    3  502    0 -0.29631300103E+02  0.27501759009E+03 -0.17458021290E+03  0.32712846030E+03  0.46999998093E+01 0. -1.
       -5    1    3    3    0  502  0.29631300103E+02 -0.27501759009E+03 -0.22270642268E+04  0.22441813316E+04  0.46999998093E+01 0.  1.
</event>
<event>
 5   0  0.2803717E-02  0.9710709E+03  0.7818609E-02  0.9340855E-01
        2   -1    0    0  501    0  0.00000000000E+00  0.00000000000E+00  0.79082055692E+03  0.79082055693E+03  0.25500000920E-02 0.  1.
       -2   -1    0    0    0  501  0.00000000000E+00  0.00000000000E+00 -0.29810136539E+03  0.29810136540E+03  0.25500000920E-02 0. -1.
    10030    2    1    2    0    0  0.00000000000E+00  0.00000000000E+00  0.49271919153E+03  0.10889219223E+04  0.97107093007E+03 0.  0.
        5    1    3    3  502    0  0.37386915135E+03 -0.30786039466E+03  0.28465755777E+03  0.56179015666E+03  0.46999998093E+01 0. -1.
       -5    1    3    3    0  502 -0.37386915135E+03  0.30786039466E+03  0.20806163376E+03  0.52713176566E+03  0.46999998093E+01 0.  1.
</event>
<event>
 5   0  0.2803717E-02  0.8213300E+03  0.7818609E-02  0.9529646E-01
       -2   -1    0    0    0  501  0.00000000000E+00  0.00000000000E+00  0.90166141048E+02  0.90166141084E+02  0.25500000920E-02 0. -1.
        2   -1    0    0  501    0  0.00000000000E+00  0.00000000000E+00 -0.18703887531E+04  0.18703887531E+04  0.25500000920E-02 0.  1.
    10030    2    1    2    0    0  0.00000000000E+00  0.00000000000E+00 -0.17802226120E+04  0.19605548942E+04  0.82132998523E+03 0.  0.
        5    1    3    3  502    0 -0.21953822061E+03 -0.34499643328E+03 -0.97955645085E+03  0.10614954073E+04  0.46999998093E+01 0. -1.
       -5    1    3    3    0  502  0.21953822061E+03  0.34499643328E+03 -0.80066616118E+03  0.89905948688E+03  0.46999998093E+01 0.  1.
</event>
<event>
 5   0  0.2705111E-02  0.7963793E+03  0.7818609E-02  0.9565273E-01
        2   -1    0    0  501    0  0.00000000000E+00  0.00000000000E+00  0.10787601791E+04  0.10787601791E+04  0.25500000920E-02 0. -1.
       -2   -1    0    0    0  501  0.00000000000E+00  0.00000000000E+00 -0.14697891813E+03  0.14697891815E+03  0.25500000920E-02 0.  1.
    10030    2    1    2    0    0  0.00000000000E+00  0.00000000000E+00  0.93178126097E+03  0.12257390973E+04  0.79637931681E+03 0.  0.
        4    1    3    3  502    0 -0.43136181140E+02  0.30625120219E+03  0.79867551621E+02  0.31942286654E+03  0.12699999809E+01 0.  1.
       -4    1    3    3    0  502  0.43136181140E+02 -0.30625120219E+03  0.85191370935E+03  0.90631623071E+03  0.12699999809E+01 0. -1.
</event>
<event>
 5   0  0.1560728E-02  0.8646893E+03  0.7818609E-02  0.9470831E-01
        1   -1    0    0  501    0  0.00000000000E+00  0.00000000000E+00  0.15238822882E+04  0.15238822882E+04  0.50400001928E-02 0. -1.
       -1   -1    0    0    0  501  0.00000000000E+00  0.00000000000E+00 -0.12266164073E+03  0.12266164083E+03  0.50400001928E-02 0.  1.
    10030    2    1    2    0    0  0.00000000000E+00  0.00000000000E+00  0.14012206475E+04  0.16465439290E+04  0.86468931261E+03 0.  0.
        4    1    3    3  502    0 -0.22232509571E+03 -0.30238861545E+02 -0.31142779327E+01  0.22439730069E+03  0.12699999809E+01 0.  1.
       -4    1    3    3    0  502  0.22232509571E+03  0.30238861545E+02  0.14043349254E+04  0.14221466283E+04  0.12699999809E+01 0. -1.
</event>
<event>
 5   0  0.1459111E-02  0.9084484E+03  0.7818609E-02  0.9415082E-01
        1   -1    0    0  501    0  0.00000000000E+00  0.00000000000E+00  0.11457471103E+04  0.11457471103E+04  0.50400001928E-02 0. -1.
       -1   -1    0    0    0  501  0.00000000000E+00  0.00000000000E+00 -0.18007431953E+03  0.18007431960E+03  0.50400001928E-02 0.  1.
    10030    2    1    2    0    0  0.00000000000E+00  0.00000000000E+00  0.96567279081E+03  0.13258214299E+04  0.90844841636E+03 0.  0.
        2    1    3    3  502    0 -0.43018031651E+03 -0.68014887801E+02  0.67108937937E+03  0.80002630256E+03  0.25500000920E-02 0. -1.
       -2    1    3    3    0  502  0.43018031651E+03  0.68014887801E+02  0.29458341144E+03  0.52579512738E+03  0.25500000920E-02 0.  1.
</event>
<event>
 5   0  0.1040163E-02  0.9345229E+03  0.7818609E-02  0.9383426E-01
       -3   -1    0    0    0  501  0.00000000000E+00  0.00000000000E+00  0.15177868928E+03  0.15177872288E+03  0.10100000352E+00 0.  1.
        3   -1    0    0  501    0  0.00000000000E+00  0.00000000000E+00 -0.14384973298E+04  0.14384973333E+04  0.10100000352E+00 0. -1.
    10030    2    1    2    0    0  0.00000000000E+00  0.00000000000E+00 -0.12867186405E+04  0.15902760562E+04  0.93452291311E+03 0.  0.
        4    1    3    3  502    0 -0.92238874104E+02  0.37996086565E+03 -0.10787194230E+04  0.11473950827E+04  0.12699999809E+01 0. -1.
       -4    1    3    3    0  502  0.92238874104E+02 -0.37996086565E+03 -0.20799921751E+03  0.44288097352E+03  0.12699999809E+01 0.  1.
</event>
<event>
 5   0  0.2628383E-02  0.9807797E+03  0.7818609E-02  0.9329880E-01
       -2   -1    0    0    0  501  0.00000000000E+00  0.00000000000E+00  0.54098884208E+03  0.54098884209E+03  0.25500000920E-02 0. -1.
        2   -1    0    0  501    0  0.00000000000E+00  0.00000000000E+00 -0.44452342088E+03  0.44452342089E+03  0.25500000920E-02 0.  1.
    10030    2    1    2    0    0  0.00000000000E+00  0.00000000000E+00  0.96465421199E+02  0.98551226298E+03  0.98077971176E+03 0.  0.
        2    1    3    3  502    0  0.83263591281E+02 -0.89431235905E+02  0.52544691317E+03  0.53946754319E+03  0.25500000920E-02 0. -1.
       -2    1    3    3    0  502 -0.83263591281E+02  0.89431235905E+02 -0.42898149197E+03  0.44604471979E+03  0.25500000920E-02 0.  1.
</event>
<event>
 5   0  0.1459111E-02  0.8988960E+03  0.7818609E-02  0.9426963E-01
       -1   -1    0    0    0  501  0.00000000000E+00  0.00000000000E+00  0.19401379635E+03  0.19401379642E+03  0.50400001928E-02 0.  1.
        1   -1    0    0  501    0  0.00000000000E+00  0.00000000000E+00 -0.10411811117E+04  0.10411811117E+04  0.50400001928E-02 0. -1.
    10030    2    1    2    0    0  0.00000000000E+00  0.00000000000E+00 -0.84716731534E+03  0.12351949081E+04  0.89889599001E+03 0.  0.
        2    1    3    3  502    0  0.44665966472E+03 -0.40796080559E+02 -0.46327478191E+03  0.64481989721E+03  0.25500000920E-02 0. -1.
       -2    1    3    3    0  502 -0.44665966472E+03  0.40796080559E+02 -0.38389253343E+03  0.59037501091E+03  0.25500000920E-02 0.  1.
</event>
<event>
 5   0  0.2414128E-02  0.8848035E+03  0.7818609E-02  0.9444780E-01
       -2   -1    0    0    0  501  0.00000000000E+00  0.00000000000E+00  0.31456890807E+03  0.31456890809E+03  0.25500000920E-02 0. -1.
        2   -1    0    0  501    0  0.00000000000E+00  0.00000000000E+00 -0.62218258472E+03  0.62218258473E+03  0.25500000920E-02 0.  1.
    10030    2    1    2    0    0  0.00000000000E+00  0.00000000000E+00 -0.30761367665E+03  0.93675149281E+03  0.88480347266E+03 0.  0.
        3    1    3    3  502    0 -0.23086037878E+03  0.85602318498E+02  0.23532542209E+03  0.34059115653E+03  0.10100000352E+00 0. -1.
       -3    1    3    3    0  502  0.23086037878E+03 -0.85602318498E+02 -0.54293909873E+03  0.59616033628E+03  0.10100000352E+00 0.  1.
</event>
<event>
 5   0  0.2803717E-02  0.9143038E+03  0.7818609E-02  0.9407876E-01
        2   -1    0    0  501    0  0.00000000000E+00  0.00000000000E+00  0.17799879352E+04  0.17799879352E+04  0.25500000920E-02 0. -1.
       -2   -1    0    0    0  501  0.00000000000E+00  0.00000000000E+00 -0.11740970307E+03  0.11740970309E+03  0.25500000920E-02 0.  1.
    10030    2    1    2    0    0  0.00000000000E+00  0.00000000000E+00  0.16625782321E+04  0.18973976383E+04  0.91430378968E+03 0.  0.
        5    1    3    3  502    0 -0.31176610333E+03  0.12164016415E+03  0.14775226894E+04  0.15149553856E+04  0.46999998093E+01 0. -1.
       -5    1    3    3    0  502  0.31176610333E+03 -0.12164016415E+03  0.18505554269E+03  0.38244225264E+03  0.46999998093E+01 0.  1.
</event>
<event>
 5   0  0.1537870E-02  0.8995721E+03  0.7818609E-02  0.9426116E-01
       -1   -1    0    0    0  501  0.00000000000E+00  0.00000000000E+00  0.40304812207E+03  0.40304812210E+03  0.50400001928E-02 0.  1.
        1   -1    0    0  501    0  0.00000000000E+00  0.00000000000E+00 -0.50194379507E+03  0.50194379510E+03  0.50400001928E-02 0. -1.
    10030    2    1    2    0    0  0.00000000000E+00  0.00000000000E+00 -0.98895673007E+02  0.90499191719E+03  0.89957212943E+03 0.  0.
        5    1    3    3  502    0 -0.69258712500E+02 -0.43038261611E+02  0.39552498715E+03  0.40387023495E+03  0.46999998093E+01 0.  1.
       -5    1    3    3    0  502  0.69258712500E+02  0.43038261611E+02 -0.49442066016E+03  0.50112168224E+03  0.46999998093E+01 0. -1.
</event>
<event>
 5   0  0.1497410E-02  0.8979068E+03  0.7818609E-02  0.9428202E-01
       -1   -1    0    0    0  501  0.00000000000E+00  0.00000000000E+00  0.26245833216E+03  0.26245833221E+03  0.50400001928E-02 0. -1.
        1   -1    0    0  501    0  0.00000000000E+00  0.00000000000E+00 -0.76796622826E+03  0.76796622828E+03  0.50400001928E-02 0.  1.
    10030    2    1    2    0    0  0.00000000000E+00  0.00000000000E+00 -0.50550789610E+03  0.10304245605E+04  0.89790675565E+03 0.  0.
        3    1    3    3  502    0  0.80828054699E+02 -0.23999823180E+03 -0.67817666698E+03  0.72391707227E+03  0.10100000352E+00 0.  1.
       -3    1    3    3    0  502 -0.80828054699E+02  0.23999823180E+03  0.17266877088E+03  0.30650748821E+03  0.10100000352E+00 0. -1.
</event>
<event>
 5   0  0.2414128E-02  0.8979818E+03  0.7818609E-02  0.9428108E-01
        2   -1    0    0  501    0  0.00000000000E+00  0.00000000000E+00  0.84666777383E+03  0.84666777383E+03  0.25500000920E-02 0. -1.
       -2   -1    0    0    0  501  0.00000000000E+00  0.00000000000E+00 -0.23810145522E+03  0.23810145523E+03  0.25500000920E-02 0.  1.
    10030    2    1    2    0    0  0.00000000000E+00  0.00000000000E+00  0.60856631861E+03  0.10847692291E+04  0.89798180169E+03 0.  0.
        3    1    3    3  502    0  0.34478886063E+03  0.27959750128E+03  0.38566648833E+03  0.58804147095E+03  0.10100000352E+00 0. -1.
       -3    1    3    3    0  502 -0.34478886063E+03 -0.27959750128E+03  0.22289983029E+03  0.49672775811E+03  0.10100000352E+00 0.  1.
</event>
<event>
 5   0  0.2679861E-02  0.9310087E+03  0.7818609E-02  0.9387628E-01
       -2   -1    0    0    0  501  0.00000000000E+00  0.00000000000E+00  0.26658928109E+03  0.26658928110E+03  0.25500000920E-02 0.  1.
        2   -1    0    0  501    0  0.00000000000E+00  0.00000000000E+00 -0.81283946155E+03  0.81283946155E+03  0.25500000920E-02 0. -1.
    10030    2    1    2    0    0  0.00000000000E+00  0.00000000000E+00 -0.54625018046E+03  0.10794287427E+04  0.93100867387E+03 0.  0.
        1    1    3    3  502    0 -0.26752733648E+03  0.35429436621E+03 -0.11081098781E+03  0.45757452806E+03  0.50400001928E-02 0. -1.
       -1    1    3    3    0  502  0.26752733648E+03 -0.35429436621E+03 -0.43543919265E+03  0.62185421459E+03  0.50400001928E-02 0.  1.
</event>
<event>
 5   0  0.2679861E-02  0.4549550E+03  0.7818609E-02  0.1026255E+00
       -2   -1    0    0    0  501  0.00000000000E+00  0.00000000000E+00  0.33390070777E+03  0.33390070778E+03  0.25500000920E-02 0.  1.
        2   -1    0    0  501    0  0.00000000000E+00  0.00000000000E+00 -0.15497423953E+03  0.15497423955E+03  0.25500000920E-02 0. -1.
    10030    2    1    2    0    0  0.00000000000E+00  0.00000000000E+00  0.17892646824E+03  0.48887494733E+03  0.45495497919E+03 0.  0.
        1    1    3    3  502    0  0.14107874659E+03  0.18223042690E+02  0.28021057703E+03  0.31425031349E+03  0.50400001928E-02 0.  1.
       -1    1    3    3    0  502 -0.14107874659E+03 -0.18223042690E+02 -0.10128410879E+03  0.17462463384E+03  0.50400001928E-02 0. -1.
</event>
<event>
 5   0  0.2628383E-02  0.8677002E+03  0.7818609E-02  0.9466884E-01
        2   -1    0    0  501    0  0.00000000000E+00  0.00000000000E+00  0.51806171472E+03  0.51806171473E+03  0.25500000920E-02 0. -1.
       -2   -1    0    0    0  501  0.00000000000E+00  0.00000000000E+00 -0.36332718232E+03  0.36332718233E+03  0.25500000920E-02 0.  1.
    10030    2    1    2    0    0  0.00000000000E+00  0.00000000000E+00  0.15473453240E+03  0.88138889705E+03  0.86770018574E+03 0.  0.
        2    1    3    3  502    0  0.24330694263E+03  0.17129901558E+03 -0.24334179278E+03  0.38439153112E+03  0.25500000920E-02 0.  1.
       -2    1    3    3    0  502 -0.24330694263E+03 -0.17129901558E+03  0.39807632518E+03  0.49699736594E+03  0.25500000920E-02 0. -1.
</event>
<event>
 5   0  0.1559275E-02  0.8767052E+03  0.7818609E-02  0.9455179E-01
        1   -1    0    0  501    0  0.00000000000E+00  0.00000000000E+00  0.60089999483E+03  0.60089999485E+03  0.50400001928E-02 0.  1.
       -1   -1    0    0    0  501  0.00000000000E+00  0.00000000000E+00 -0.31977536311E+03  0.31977536315E+03  0.50400001928E-02 0. -1.
    10030    2    1    2    0    0  0.00000000000E+00  0.00000000000E+00  0.28112463172E+03  0.92067535800E+03  0.87670522770E+03 0.  0.
        1    1    3    3  502    0  0.22270397315E+03  0.97576959270E+02  0.52359459656E+03  0.57729509283E+03  0.50400001928E-02 0.  1.
       -1    1    3    3    0  502 -0.22270397315E+03 -0.97576959270E+02 -0.24246996484E+03  0.34338026517E+03  0.50400001928E-02 0. -1.
</event>
<event>
 5   0  0.2679861E-02  0.9044451E+03  0.7818609E-02  0.9420042E-01
        2   -1    0    0  501    0  0.00000000000E+00  0.00000000000E+00  0.12948812951E+04  0.12948812951E+04  0.25500000920E-02 0. -1.
       -2   -1    0    0    0  501  0.00000000000E+00  0.00000000000E+00 -0.15793356023E+03  0.15793356025E+03  0.25500000920E-02 0.  1.
    10030    2    1    2    0    0  0.00000000000E+00  0.00000000000E+00  0.11369477349E+04  0.14528148553E+04  0.90444505200E+03 0.  0.
        1    1    3    3  502    0 -0.14088204917E+03  0.26353574997E+03  0.11136870282E+04  0.11530818011E+04  0.50400001928E-02 0. -1.
       -1    1    3    3    0  502  0.14088204917E+03 -0.26353574997E+03  0.23260706672E+02  0.29973305422E+03  0.50400001928E-02 0.  1.
</event>
<event>
 5   0  0.2705111E-02  0.9203808E+03  0.7818609E-02  0.9400457E-01
       -2   -1    0    0    0  501  0.00000000000E+00  0.00000000000E+00  0.22037038202E+03  0.22037038203E+03  0.25500000920E-02 0. -1.
        2   -1    0    0  501    0  0.00000000000E+00  0.00000000000E+00 -0.96099666867E+03  0.96099666868E+03  0.25500000920E-02 0.  1.
    10030    2    1    2    0    0  0.00000000000E+00  0.00000000000E+00 -0.74062628665E+03  0.11813670507E+04  0.92038079729E+03 0.  0.
        4    1    3    3  502    0 -0.12265890121E+03  0.10192425322E+03 -0.92439018201E+03  0.93804721679E+03  0.12699999809E+01 0.  1.
       -4    1    3    3    0  502  0.12265890121E+03 -0.10192425322E+03  0.18376389535E+03  0.24331983392E+03  0.12699999809E+01 0. -1.
</event>
<event>
 5   0  0.2414128E-02  0.8665224E+03  0.7818609E-02  0.9468426E-01
       -2   -1    0    0    0  501  0.00000000000E+00  0.00000000000E+00  0.80785029336E+02  0.80785029376E+02  0.25500000920E-02 0. -1.
        2   -1    0    0  501    0  0.00000000000E+00  0.00000000000E+00 -0.23236390412E+04  0.23236390412E+04  0.25500000920E-02 0.  1.
    10030    2    1    2    0    0  0.00000000000E+00  0.00000000000E+00 -0.22428540118E+04  0.24044240705E+04  0.86652235553E+03 0.  0.
        3    1    3    3  502    0  0.33700939127E+03 -0.70398371219E+02 -0.39157625584E+03  0.52140505829E+03  0.10100000352E+00 0. -1.
       -3    1    3    3    0  502 -0.33700939127E+03  0.70398371219E+02 -0.18512777560E+04  0.18830190122E+04  0.10100000352E+00 0.  1.
</event>
<event>
 5   0  0.1497410E-02  0.8426003E+03  0.7818609E-02  0.9500323E-01
       -1   -1    0    0    0  501  0.00000000000E+00  0.00000000000E+00  0.45671648950E+03  0.45671648953E+03  0.50400001928E-02 0. -1.
        1   -1    0    0  501    0  0.00000000000E+00  0.00000000000E+00 -0.38863021251E+03  0.38863021254E+03  0.50400001928E-02 0.  1.
    10030    2    1    2    0    0  0.00000000000E+00  0.00000000000E+00  0.68086276990E+02  0.84534670207E+03  0.84260032375E+03 0.  0.
        3    1    3    3  502    0  0.33881351359E+03  0.63021632647E+02  0.27717057558E+03  0.44225542545E+03  0.10100000352E+00 0. -1.
       -3    1    3    3    0  502 -0.33881351359E+03 -0.63021632647E+02 -0.20908429859E+03  0.40309127662E+03  0.10100000352E+00 0.  1.
</event>
<event>
 5   0  0.1040163E-02  0.8918959E+03  0.7818609E-02  0.9435769E-01
        4   -1    0    0  501    0  0.00000000000E+00  0.00000000000E+00  0.74583590858E+03  0.74583698985E+03  0.12699999809E+01 0.  1.
       -4   -1    0    0    0  501  0.00000000000E+00  0.00000000000E+00 -0.26663707720E+03  0.26664010170E+03  0.12699999809E+01 0. -1.
    10030    2    1    2    0    0  0.00000000000E+00  0.00000000000E+00  0.47919883139E+03  0.10124770916E+04  0.89189592494E+03 0.  0.
        1    1    3    3  502    0 -0.40081007804E+02 -0.43879378114E+03  0.16158312175E+03  0.46931394057E+03  0.50400001928E-02 0. -1.
       -1    1    3    3    0  502  0.40081007804E+02  0.43879378114E+03  0.31761570964E+03  0.54316315099E+03  0.50400001928E-02 0.  1.
</event>
<event>
 5   0  0.2679861E-02  0.8373377E+03  0.7818609E-02  0.9507491E-01
       -2   -1    0    0    0  501  0.00000000000E+00  0.00000000000E+00  0.16542801030E+03  0.16542801032E+03  0.25500000920E-02 0. -1.
        2   -1    0    0  501    0  0.00000000000E+00  0.00000000000E+00 -0.10595763961E+04  0.10595763962E+04  0.25500000920E-02 0.  1.
    10030    2    1    2    0    0  0.00000000000E+00  0.00000000000E+00 -0.89414838585E+03  0.12250044065E+04  0.83733772156E+03 0.  0.
        1    1    3    3  502    0  0.86736151699E+02  0.37878269265E+03 -0.21909341061E+03  0.44609574181E+03  0.50400001928E-02 0. -1.
       -1    1    3    3    0  502 -0.86736151699E+02 -0.37878269265E+03 -0.67505497524E+03  0.77890866466E+03  0.50400001928E-02 0.  1.
</event>
<event>
 5   0  0.2705111E-02  0.9232783E+03  0.7818609E-02  0.9396941E-01
        2   -1    0    0  501    0  0.00000000000E+00  0.00000000000E+00  0.15808508630E+04  0.15808508630E+04  0.25500000920E-02 0. -1.
       -2   -1    0    0    0  501  0.00000000000E+00  0.00000000000E+00 -0.13480759717E+03  0.13480759719E+03  0.25500000920E-02 0.  1.
    10030    2    1    2    0    0  0.00000000000E+00  0.00000000000E+00  0.14460432659E+04  0.17156584602E+04  0.92327830333E+03 0.  0.
        4    1    3    3  502    0 -0.35490966229E+03  0.28596906630E+03  0.58685144381E+03  0.74305814394E+03  0.12699999809E+01 0.  1.
       -4    1    3    3    0  502  0.35490966229E+03 -0.28596906630E+03  0.85919182204E+03  0.97260031628E+03  0.12699999809E+01 0. -1.
</event>
<event>
 5   0  0.2414128E-02  0.9303891E+03  0.7818609E-02  0.9388371E-01
        2   -1    0    0  501    0  0.00000000000E+00  0.00000000000E+00  0.36020696190E+03  0.36020696190E+03  0.25500000920E-02 0. -1.
       -2   -1    0    0    0  501  0.00000000000E+00  0.00000000000E+00 -0.60078230031E+03  0.60078230031E+03  0.25500000920E-02 0.  1.
    10030    2    1    2    0    0  0.00000000000E+00  0.00000000000E+00 -0.24057533841E+03  0.96098926222E+03  0.93038909530E+03 0.  0.
        3    1    3    3  502    0 -0.25804157115E+03 -0.20683025710E+03 -0.45822060581E+03  0.56509321486E+03  0.10100000352E+00 0.  1.
       -3    1    3    3    0  502  0.25804157115E+03  0.20683025710E+03  0.21764526740E+03  0.39589604736E+03  0.10100000352E+00 0. -1.
</event>
<event>
 5   0  0.1559275E-02  0.8110571E+03  0.7818609E-02  0.9544149E-01
       -1   -1    0    0    0  501  0.00000000000E+00  0.00000000000E+00  0.58069053048E+03  0.58069053050E+03  0.50400001928E-02 0.  1.
        1   -1    0    0  501    0  0.00000000000E+00  0.00000000000E+00 -0.28320318053E+03  0.28320318058E+03  0.50400001928E-02 0. -1.
    10030    2    1    2    0    0  0.00000000000E+00  0.00000000000E+00  0.29748734995E+03  0.86389371108E+03  0.81105710074E+03 0.  0.
        1    1    3    3  502    0  0.13372513131E+03  0.75097157460E+02  0.54860811330E+03  0.56964274402E+03  0.50400001928E-02 0.  1.
       -1    1    3    3    0  502 -0.13372513131E+03 -0.75097157460E+02 -0.25112076336E+03  0.29425096706E+03  0.50400001928E-02 0. -1.
</event>
<event>
 5   0  0.2628383E-02  0.9275588E+03  0.7818609E-02  0.9391772E-01
       -2   -1    0    0    0  501  0.00000000000E+00  0.00000000000E+00  0.10776206612E+03  0.10776206615E+03  0.25500000920E-02 0. -1.
        2   -1    0    0  501    0  0.00000000000E+00  0.00000000000E+00 -0.19959836989E+04  0.19959836989E+04  0.25500000920E-02 0.  1.
    10030    2    1    2    0    0  0.00000000000E+00  0.00000000000E+00 -0.18882216328E+04  0.21037457650E+04  0.92755879029E+03 0.  0.
        2    1    3    3  502    0  0.27649040757E+03 -0.22704618898E+03 -0.27477055367E+03  0.45110505936E+03  0.25500000920E-02 0. -1.
       -2    1    3    3    0  502 -0.27649040757E+03  0.22704618898E+03 -0.16134510791E+04  0.16526407057E+04  0.25500000920E-02 0.  1.
</event>
<event>
 5   0  0.1560728E-02  0.9026670E+03  0.7818609E-02  0.9422254E-01
        1   -1    0    0  501    0  0.00000000000E+00  0.00000000000E+00  0.94215297327E+03  0.94215297328E+03  0.50400001928E-02 0. -1.
       -1   -1    0    0    0  501  0.00000000000E+00  0.00000000000E+00 -0.21620897461E+03  0.21620897467E+03  0.50400001928E-02 0.  1.
    10030    2    1    2    0    0  0.00000000000E+00  0.00000000000E+00  0.72594399866E+03  0.11583619480E+04  0.90266700021E+03 0.  0.
        4    1    3    3  502    0 -0.40742141722E+03  0.58273549100E+02  0.60067880572E+03  0.72815153524E+03  0.12699999809E+01 0. -1.
       -4    1    3    3    0  502  0.40742141722E+03 -0.58273549100E+02  0.12526519294E+03  0.43021041271E+03  0.12699999809E+01 0.  1.
</event>
<event>
 5   0  0.1459111E-02  0.8966880E+03  0.7818609E-02  0.9429731E-01
        1   -1    0    0  501    0  0.00000000000E+00  0.00000000000E+00  0.39303376998E+03  0.39303377001E+03  0.50400001928E-02 0. -1.
       -1   -1    0    0    0  501  0.00000000000E+00  0.00000000000E+00 -0.51143784597E+03  0.51143784599E+03  0.50400001928E-02 0.  1.
    10030    2    1    2    0    0  0.00000000000E+00  0.00000000000E+00 -0.11840407598E+03  0.90447161600E+03  0.89668800536E+03 0.  0.
        2    1    3    3  502    0 -0.28710435225E+03 -0.10149924545E+03 -0.39111972122E+03  0.49568704062E+03  0.25500000920E-02 0.  1.
       -2    1    3    3    0  502  0.28710435225E+03  0.10149924545E+03  0.27271564524E+03  0.40878457538E+03  0.25500000920E-02 0. -1.
</event>
<event>
 5   0  0.2803717E-02  0.8938356E+03  0.7818609E-02  0.9433320E-01
        2   -1    0    0  501    0  0.00000000000E+00  0.00000000000E+00  0.18887561612E+04  0.18887561612E+04  0.25500000920E-02 0.  1.
       -2   -1    0    0    0  501  0.00000000000E+00  0.00000000000E+00 -0.10574976385E+03  0.10574976388E+03  0.25500000920E-02 0. -1.
    10030    2    1    2    0    0  0.00000000000E+00  0.00000000000E+00  0.17830063973E+04  0.19945059251E+04  0.89383559573E+03 0.  0.
        5    1    3    3  502    0  0.18782059844E+02  0.28655597682E+01  0.18877994004E+04  0.18879008563E+04  0.46999998093E+01 0.  1.
       -5    1    3    3    0  502 -0.18782059844E+02 -0.28655597682E+01 -0.10479300303E+03  0.10660506877E+03  0.46999998093E+01 0. -1.
</event>
<event>
 5   0  0.1559275E-02  0.9061223E+03  0.7818609E-02  0.9417960E-01
       -1   -1    0    0    0  501  0.00000000000E+00  0.00000000000E+00  0.13523650205E+03  0.13523650215E+03  0.50400001928E-02 0. -1.
        1   -1    0    0  501    0  0.00000000000E+00  0.00000000000E+00 -0.15178180315E+04  0.15178180316E+04  0.50400001928E-02 0.  1.
    10030    2    1    2    0    0  0.00000000000E+00  0.00000000000E+00 -0.13825815295E+04  0.16530545337E+04  0.90612229069E+03 0.  0.
        1    1    3    3  502    0 -0.33767797482E+03  0.22782845777E+03 -0.10530956102E+04  0.11291335550E+04  0.50400001928E-02 0.  1.
       -1    1    3    3    0  502  0.33767797482E+03 -0.22782845777E+03 -0.32948591928E+03  0.52392097865E+03  0.50400001928E-02 0. -1.
</event>
<event>
 5   0  0.2705111E-02  0.9799496E+03  0.7818609E-02  0.9330813E-01
       -2   -1    0    0    0  501  0.00000000000E+00  0.00000000000E+00  0.13215120620E+03  0.13215120622E+03  0.25500000920E-02 0.  1.
        2   -1    0    0  501    0  0.00000000000E+00  0.00000000000E+00 -0.18166714019E+04  0.18166714019E+04  0.25500000920E-02 0. -1.
    10030    2    1    2    0    0  0.00000000000E+00  0.00000000000E+00 -0.16845201958E+04  0.19488226082E+04  0.97994962535E+03 0.  0.
        4    1    3    3  502    0  0.39767241041E+02  0.40962874313E+03 -0.13710311967E+04  0.14314696280E+04  0.12699999809E+01 0. -1.
       -4    1    3    3    0  502 -0.39767241041E+02 -0.40962874313E+03 -0.31348899903E+03  0.51735298015E+03  0.12699999809E+01 0.  1.
</event>
<event>
 5   0  0.1537870E-02  0.9345774E+03  0.7818609E-02  0.9383361E-01
       -1   -1    0    0    0  501  0.00000000000E+00  0.00000000000E+00  0.63140635452E+03  0.63140635454E+03  0.50400001928E-02 0.  1.
        1   -1    0    0  501    0  0.00000000000E+00  0.00000000000E+00 -0.34582913415E+03  0.34582913419E+03  0.50400001928E-02 0. -1.
    10030    2    1    2    0    0  0.00000000000E+00  0.00000000000E+00  0.28557722037E+03  0.97723548873E+03  0.93457736525E+03 0.  0.
        5    1    3    3  502    0 -0.47524259037E+02 -0.46198468473E+03  0.19659835131E+03  0.50434254814E+03  0.46999998093E+01 0.  1.
       -5    1    3    3    0  502  0.47524259037E+02  0.46198468473E+03  0.88978869062E+02  0.47289294059E+03  0.46999998093E+01 0. -1.
</event>
<event>
 5   0  0.2414128E-02  0.8837212E+03  0.7818609E-02  0.9446163E-01
       -2   -1    0    0    0  501  0.00000000000E+00  0.00000000000E+00  0.24771658077E+03  0.24771658078E+03  0.25500000920E-02 0.  1.
        2   -1    0    0  501    0  0.00000000000E+00  0.00000000000E+00 -0.78816195479E+03  0.78816195480E+03  0.25500000920E-02 0. -1.
    10030    2    1    2    0    0  0.00000000000E+00  0.00000000000E+00 -0.54044537402E+03  0.10358785356E+04  0.88372118803E+03 0.  0.
        3    1    3    3  502    0  0.88774389510E+02 -0.35879603024E+03  0.13592787843E+02  0.36986518845E+03  0.10100000352E+00 0.  1.
       -3    1    3    3    0  502 -0.88774389510E+02  0.35879603024E+03 -0.55403816187E+03  0.66601334713E+03  0.10100000352E+00 0. -1.
</event>
<event>
 5   0  0.2414128E-02  0.8151811E+03  0.7818609E-02  0.9538299E-01
       -2   -1    0    0    0  501  0.00000000000E+00  0.00000000000E+00  0.35231928430E+03  0.35231928431E+03  0.25500000920E-02 0.  1.
        2   -1    0    0  501    0  0.00000000000E+00  0.00000000000E+00 -0.47153272372E+03  0.47153272373E+03  0.25500000920E-02 0. -1.
    10030    2    1    2    0    0  0.00000000000E+00  0.00000000000E+00 -0.11921343942E+03  0.82385200803E+03  0.81518113754E+03 0.  0.
        3    1    3    3  502    0  0.17516445717E+03  0.73526429091E+02 -0.42405491036E+03  0.46466256577E+03  0.10100000352E+00 0.  1.
       -3    1    3    3    0  502 -0.17516445717E+03 -0.73526429091E+02  0.30484147093E+03  0.35918944226E+03  0.10100000352E+00 0. -1.
</event>
<event>
 5   0  0.1497410E-02  0.8579704E+03  0.7818609E-02  0.9479701E-01
        1   -1    0    0  501    0  0.00000000000E+00  0.00000000000E+00  0.12980878137E+04  0.12980878137E+04  0.50400001928E-02 0. -1.
       -1   -1    0    0    0  501  0.00000000000E+00  0.00000000000E+00 -0.14176877563E+03  0.14176877572E+03  0.50400001928E-02 0.  1.
    10030    2    1    2    0    0  0.00000000000E+00  0.00000000000E+00  0.11563190381E+04  0.14398565894E+04  0.85797044257E+03 0.  0.
        3    1    3    3  502    0  0.39977174243E+03  0.10364041273E+03  0.77292998872E+03  0.87634442936E+03  0.10100000352E+00 0. -1.
       -3    1    3    3    0  502 -0.39977174243E+03 -0.10364041273E+03  0.38338904937E+03  0.56351216009E+03  0.10100000352E+00 0.  1.
</event>
<event>
 5   0  0.2628383E-02  0.8997958E+03  0.7818609E-02  0.9425837E-01
       -2   -1    0    0    0  501  0.00000000000E+00  0.00000000000E+00  0.17165195503E+03  0.17165195505E+03  0.25500000920E-02 0. -1.
        2   -1    0    0  501    0  0.00000000000E+00  0.00000000000E+00 -0.11791774878E+04  0.11791774878E+04  0.25500000920E-02 0.  1.
    10030    2    1    2    0    0  0.00000000000E+00  0.00000000000E+00 -0.10075255328E+04  0.13508294429E+04  0.89979580157E+03 0.  0.
        2    1    3    3  502    0  0.37003719493E+03  0.22209207369E+03 -0.69458085018E+03  0.81773771606E+03  0.25500000920E-02 0.  1.
       -2    1    3    3    0  502 -0.37003719493E+03 -0.22209207369E+03 -0.31294468263E+03  0.53309172683E+03  0.25500000920E-02 0. -1.
</event>
<event>
 5   0  0.2705111E-02  0.9857165E+03  0.7818609E-02  0.9324351E-01
       -2   -1    0    0    0  501  0.00000000000E+00  0.00000000000E+00  0.28330811199E+03  0.28330811200E+03  0.25500000920E-02 0.  1.
        2   -1    0    0  501    0  0.00000000000E+00  0.00000000000E+00 -0.85740305725E+03  0.85740305725E+03  0.25500000920E-02 0. -1.
    10030    2    1    2    0    0  0.00000000000E+00  0.00000000000E+00 -0.57409494526E+03  0.11407111693E+04  0.98571647318E+03 0.  0.
        4    1    3    3  502    0 -0.47818098849E+03  0.11926528069E+03 -0.28110556944E+03  0.56736515491E+03  0.12699999809E+01 0. -1.
       -4    1    3    3    0  502  0.47818098849E+03 -0.11926528069E+03 -0.29298937582E+03  0.57334601435E+03  0.12699999809E+01 0.  1.
</event>
<event>
 5   0  0.2705111E-02  0.6158719E+03  0.7818609E-02  0.9873013E-01
        2   -1    0    0  501    0  0.00000000000E+00  0.00000000000E+00  0.70274860117E+03  0.70274860117E+03  0.25500000920E-02 0. -1.
       -2   -1    0    0    0  501  0.00000000000E+00  0.00000000000E+00 -0.13493381921E+03  0.13493381923E+03  0.25500000920E-02 0.  1.
    10030    2    1    2    0    0  0.00000000000E+00  0.00000000000E+00  0.56781478196E+03  0.83768242040E+03  0.61587191107E+03 0.  0.
        4    1    3    3  502    0  0.38348128700E+02  0.19430259110E+02 -0.13082856745E+03  0.13771652372E+03  0.12699999809E+01 0.  1.
       -4    1    3    3    0  502 -0.38348128700E+02 -0.19430259110E+02  0.69864334941E+03  0.69996589668E+03  0.12699999809E+01 0. -1.
</event>
<event>
 5   0  0.1459111E-02  0.9037092E+03  0.7818609E-02  0.9420957E-01
       -1   -1    0    0    0  501  0.00000000000E+00  0.00000000000E+00  0.56299360989E+03  0.56299360991E+03  0.50400001928E-02 0. -1.
        1   -1    0    0  501    0  0.00000000000E+00  0.00000000000E+00 -0.36265521079E+03  0.36265521083E+03  0.50400001928E-02 0.  1.
    10030    2    1    2    0    0  0.00000000000E+00  0.00000000000E+00  0.20033839909E+03  0.92564882074E+03  0.90370917069E+03 0.  0.
        2    1    3    3  502    0  0.99762498029E+00  0.37283531415E+03  0.36164174450E+03  0.51941497678E+03  0.25500000920E-02 0. -1.
       -2    1    3    3    0  502 -0.99762498029E+00 -0.37283531415E+03 -0.16130334541E+03  0.40623384396E+03  0.25500000920E-02 0.  1.
</event>
<event>
 5   0  0.1497410E-02  0.8470072E+03  0.7818609E-02  0.9494363E-01
        1   -1    0    0  501    0  0.00000000000E+00  0.00000000000E+00  0.57493319048E+03  0.57493319050E+03  0.50400001928E-02 0.  1.
       -1   -1    0    0    0  501  0.00000000000E+00  0.00000000000E+00 -0.31195852975E+03  0.31195852979E+03  0.50400001928E-02 0. -1.
    10030    2    1    2    0    0  0.00000000000E+00  0.00000000000E+00  0.26297466073E+03  0.88689172029E+03  0.84700723216E+03 0.  0.
        3    1    3    3  502    0 -0.24092967121E+03  0.68274120874E+02  0.48910582611E+03  0.54948428675E+03  0.10100000352E+00 0.  1.
       -3    1    3    3    0  502  0.24092967121E+03 -0.68274120874E+02 -0.22613116537E+03  0.33740743354E+03  0.10100000352E+00 0. -1.
</event>
<event>
 5   0  0.1559275E-02  0.8940758E+03  0.7818609E-02  0.9433017E-01
        1   -1    0    0  501    0  0.00000000000E+00  0.00000000000E+00  0.53862308293E+03  0.53862308296E+03  0.50400001928E-02 0.  1.
       -1   -1    0    0    0  501  0.00000000000E+00  0.00000000000E+00 -0.37102549610E+03  0.37102549614E+03  0.50400001928E-02 0. -1.
    10030    2    1    2    0    0  0.00000000000E+00  0.00000000000E+00  0.16759758683E+03  0.90964857909E+03  0.89407582807E+03 0.  0.
        1    1    3    3  502    0 -0.17227191046E+03  0.20378500324E+03 -0.28110818796E+03  0.38759224972E+03  0.50400001928E-02 0. -1.
       -1    1    3    3    0  502  0.17227191046E+03 -0.20378500324E+03  0.44870577479E+03  0.52205632937E+03  0.50400001928E-02 0.  1.
</event>
<event>
 5   0  0.1459111E-02  0.8356332E+03  0.7818609E-02  0.9509825E-01
       -1   -1    0    0    0  501  0.00000000000E+00  0.00000000000E+00  0.17265064438E+03  0.17265064446E+03  0.50400001928E-02 0. -1.
        1   -1    0    0  501    0  0.00000000000E+00  0.00000000000E+00 -0.10111210990E+04  0.10111210990E+04  0.50400001928E-02 0.  1.
    10030    2    1    2    0    0  0.00000000000E+00  0.00000000000E+00 -0.83847045458E+03  0.11837717434E+04  0.83563319545E+03 0.  0.
        2    1    3    3  502    0  0.39282979328E+03 -0.85272152596E+00 -0.21762359973E+03  0.44908351649E+03  0.25500000920E-02 0. -1.
       -2    1    3    3    0  502 -0.39282979328E+03  0.85272152596E+00 -0.62084685485E+03  0.73468822694E+03  0.25500000920E-02 0.  1.
</event>
<event>
 5   0  0.1559275E-02  0.8955581E+03  0.7818609E-02  0.9431151E-01
        1   -1    0    0  501    0  0.00000000000E+00  0.00000000000E+00  0.57947538712E+03  0.57947538715E+03  0.50400001928E-02 0.  1.
       -1   -1    0    0    0  501  0.00000000000E+00  0.00000000000E+00 -0.34601309111E+03  0.34601309115E+03  0.50400001928E-02 0. -1.
    10030    2    1    2    0    0  0.00000000000E+00  0.00000000000E+00  0.23346229601E+03  0.92548847829E+03  0.89555808287E+03 0.  0.
        1    1    3    3  502    0  0.23710827242E+02 -0.33622366155E+03 -0.18790465230E+03  0.38589728205E+03  0.50400001928E-02 0. -1.
       -1    1    3    3    0  502 -0.23710827242E+02  0.33622366155E+03  0.42136694831E+03  0.53959119625E+03  0.50400001928E-02 0.  1.
</event>
<event>
 5   0  0.2628383E-02  0.9012114E+03  0.7818609E-02  0.9424068E-01
        2   -1    0    0  501    0  0.00000000000E+00  0.00000000000E+00  0.80854321437E+03  0.80854321437E+03  0.25500000920E-02 0. -1.
       -2   -1    0    0    0  501  0.00000000000E+00  0.00000000000E+00 -0.25112508538E+03  0.25112508539E+03  0.25500000920E-02 0.  1.
    10030    2    1    2    0    0  0.00000000000E+00  0.00000000000E+00  0.55741812899E+03  0.10596682998E+04  0.90121137087E+03 0.  0.
        2    1    3    3  502    0 -0.40535767627E+03  0.16975768065E+03  0.39577893271E+03  0.59141650251E+03  0.25500000920E-02 0. -1.
       -2    1    3    3    0  502  0.40535767627E+03 -0.16975768065E+03  0.16163919628E+03  0.46825179725E+03  0.25500000920E-02 0.  1.
</event>
<event>
 5   0  0.1560728E-02  0.9035621E+03  0.7818609E-02  0.9421140E-01
       -1   -1    0    0    0  501  0.00000000000E+00  0.00000000000E+00  0.27649943854E+03  0.27649943859E+03  0.50400001928E-02 0. -1.
        1   -1    0    0  501    0  0.00000000000E+00  0.00000000000E+00 -0.73817907511E+03  0.73817907513E+03  0.50400001928E-02 0.  1.
    10030    2    1    2    0    0  0.00000000000E+00  0.00000000000E+00 -0.46167963657E+03  0.10146785137E+04  0.90356206171E+03 0.  0.
        4    1    3    3  502    0  0.36744294494E+03  0.22968252898E+03 -0.37437049583E+03  0.57264584426E+03  0.12699999809E+01 0.  1.
       -4    1    3    3    0  502 -0.36744294494E+03 -0.22968252898E+03 -0.87309140739E+02  0.44203266945E+03  0.12699999809E+01 0. -1.
</event>
<event>
 5   0  0.2628383E-02  0.5333283E+03  0.7818609E-02  0.1005428E+00
       -2   -1    0    0    0  501  0.00000000000E+00  0.00000000000E+00  0.16495052799E+03  0.16495052801E+03  0.25500000920E-02 0. -1.
        2   -1    0    0  501    0  0.00000000000E+00  0.00000000000E+00 -0.43109753284E+03  0.43109753285E+03  0.25500000920E-02 0.  1.
    10030    2    1    2    0    0  0.00000000000E+00  0.00000000000E+00 -0.26614700485E+03  0.59604806086E+03  0.53332828789E+03 0.  0.
        2    1    3    3  502    0 -0.15715272706E+03 -0.71113506606E+02  0.94202777905E+02  0.19654076884E+03  0.25500000920E-02 0.  1.
       -2    1    3    3    0  502  0.15715272706E+03  0.71113506606E+02 -0.36034978275E+03  0.39950729203E+03  0.25500000920E-02 0. -1.
</event>
<event>
 5   0  0.1560728E-02  0.8839583E+03  0.7818609E-02  0.9445860E-01
        1   -1    0    0  501    0  0.00000000000E+00  0.00000000000E+00  0.21875448759E+04  0.21875448759E+04  0.50400001928E-02 0.  1.
       -1   -1    0    0    0  501  0.00000000000E+00  0.00000000000E+00 -0.89298993410E+02  0.89298993552E+02  0.50400001928E-02 0. -1.
    10030    2    1    2    0    0  0.00000000000E+00  0.00000000000E+00  0.20982458824E+04  0.22768438694E+04  0.88395826965E+03 0.  0.
        4    1    3    3  502    0  0.24679216500E+03 -0.36412735929E+03  0.11598747196E+04  0.12404862291E+04  0.12699999809E+01 0.  1.
       -4    1    3    3    0  502 -0.24679216500E+03  0.36412735929E+03  0.93837116281E+03  0.10363576403E+04  0.12699999809E+01 0. -1.
</event>
<event>
 5   0  0.1497410E-02  0.7570499E+03  0.7818609E-02  0.9624355E-01
        1   -1    0    0  501    0  0.00000000000E+00  0.00000000000E+00  0.16211087117E+04  0.16211087117E+04  0.50400001928E-02 0.  1.
       -1   -1    0    0    0  501  0.00000000000E+00  0.00000000000E+00 -0.88384661634E+02  0.88384661778E+02  0.50400001928E-02 0. -1.
    10030    2    1    2    0    0  0.00000000000E+00  0.00000000000E+00  0.15327240501E+04  0.17094933735E+04  0.75704991932E+03 0.  0.
        3    1    3    3  502    0  0.39980788820E+00  0.37634014764E+03  0.67466352598E+03  0.77253022598E+03  0.10100000352E+00 0. -1.
       -3    1    3    3    0  502 -0.39980788820E+00 -0.37634014764E+03  0.85806052408E+03  0.93696314749E+03  0.10100000352E+00 0.  1.
</event>
<event>
 5   0  0.2628383E-02  0.8847336E+03  0.7818609E-02  0.9444869E-01
       -2   -1    0    0    0  501  0.00000000000E+00  0.00000000000E+00  0.54098960344E+03  0.54098960344E+03  0.25500000920E-02 0.  1.
        2   -1    0    0  501    0  0.00000000000E+00  0.00000000000E+00 -0.36172302292E+03  0.36172302293E+03  0.25500000920E-02 0. -1.
    10030    2    1    2    0    0  0.00000000000E+00  0.00000000000E+00  0.17926658052E+03  0.90271262637E+03  0.88473362031E+03 0.  0.
        2    1    3    3  502    0 -0.13203196569E+03 -0.40412920535E+03 -0.35061254123E+02  0.42659365458E+03  0.25500000920E-02 0. -1.
       -2    1    3    3    0  502  0.13203196569E+03  0.40412920535E+03  0.21432783464E+03  0.47611897178E+03  0.25500000920E-02 0.  1.
</event>
<event>
 5   0  0.2414128E-02  0.7659983E+03  0.7818609E-02  0.9610581E-01
        2   -1    0    0  501    0  0.00000000000E+00  0.00000000000E+00  0.31345113171E+03  0.31345113173E+03  0.25500000920E-02 0. -1.
       -2   -1    0    0    0  501  0.00000000000E+00  0.00000000000E+00 -0.46797835885E+03  0.46797835885E+03  0.25500000920E-02 0.  1.
    10030    2    1    2    0    0  0.00000000000E+00  0.00000000000E+00 -0.15452722713E+03  0.78142949058E+03  0.76599829296E+03 0.  0.
        3    1    3    3  502    0 -0.25108905312E+03 -0.26350770078E+03  0.44327746420E+02  0.36667012459E+03  0.10100000352E+00 0. -1.
       -3    1    3    3    0  502  0.25108905312E+03  0.26350770078E+03 -0.19885497355E+03  0.41475936599E+03  0.10100000352E+00 0.  1.
</event>
<event>
 5   0  0.2803717E-02  0.8895807E+03  0.7818609E-02  0.9438701E-01
       -2   -1    0    0    0  501  0.00000000000E+00  0.00000000000E+00  0.20673499090E+03  0.20673499091E+03  0.25500000920E-02 0. -1.
        2   -1    0    0  501    0  0.00000000000E+00  0.00000000000E+00 -0.95696643579E+03  0.95696643580E+03  0.25500000920E-02 0.  1.
    10030    2    1    2    0    0  0.00000000000E+00  0.00000000000E+00 -0.75023144490E+03  0.11637014267E+04  0.88958068190E+03 0.  0.
        5    1    3    3  502    0 -0.64758899223E+01  0.28458662160E+03 -0.82215895394E+03  0.87005684750E+03  0.46999998093E+01 0.  1.
       -5    1    3    3    0  502  0.64758899223E+01 -0.28458662160E+03  0.71927509044E+02  0.29364457921E+03  0.46999998093E+01 0. -1.
</event>
<event>
 5   0  0.1560728E-02  0.8886850E+03  0.7818609E-02  0.9439837E-01
       -1   -1    0    0    0  501  0.00000000000E+00  0.00000000000E+00  0.15017533297E+03  0.15017533306E+03  0.50400001928E-02 0. -1.
        1   -1    0    0  501    0  0.00000000000E+00  0.00000000000E+00 -0.13147317312E+04  0.13147317312E+04  0.50400001928E-02 0.  1.
    10030    2    1    2    0    0  0.00000000000E+00  0.00000000000E+00 -0.11645563982E+04  0.14649070643E+04  0.88868504110E+03 0.  0.
        4    1    3    3  502    0  0.30987406054E+03 -0.20652531849E+03 -0.98187128042E+03  0.10501178338E+04  0.12699999809E+01 0.  1.
       -4    1    3    3    0  502 -0.30987406054E+03  0.20652531849E+03 -0.18268511781E+03  0.41478923050E+03  0.12699999809E+01 0. -1.
</event>
<event>
 5   0  0.1559275E-02  0.9464886E+03  0.7818609E-02  0.9369264E-01
       -1   -1    0    0    0  501  0.00000000000E+00  0.00000000000E+00  0.18851334192E+03  0.18851334199E+03  0.50400001928E-02 0. -1.
        1   -1    0    0  501    0  0.00000000000E+00  0.00000000000E+00 -0.11880335700E+04  0.11880335700E+04  0.50400001928E-02 0.  1.
    10030    2    1    2    0    0  0.00000000000E+00  0.00000000000E+00 -0.99952022808E+03  0.13765469120E+04  0.94648862360E+03 0.  0.
        1    1    3    3  502    0 -0.51656991084E+02  0.44067225600E+03 -0.73917868447E+03  0.86211693495E+03  0.50400001928E-02 0.  1.
       -1    1    3    3    0  502  0.51656991084E+02 -0.44067225600E+03 -0.26034154361E+03  0.51442997705E+03  0.50400001928E-02 0. -1.
</event>
<event>
 5   0  0.1497410E-02  0.9263128E+03  0.7818609E-02  0.9393274E-01
        1   -1    0    0  501    0  0.00000000000E+00  0.00000000000E+00  0.94858335405E+03  0.94858335406E+03  0.50400001928E-02 0.  1.
       -1   -1    0    0    0  501  0.00000000000E+00  0.00000000000E+00 -0.22614126243E+03  0.22614126249E+03  0.50400001928E-02 0. -1.
    10030    2    1    2    0    0  0.00000000000E+00  0.00000000000E+00  0.72244209162E+03  0.11747246166E+04  0.92631277061E+03 0.  0.
        3    1    3    3  502    0  0.38927148172E+03 -0.75221996752E+02  0.66485029110E+03  0.77409079251E+03  0.10100000352E+00 0.  1.
       -3    1    3    3    0  502 -0.38927148172E+03  0.75221996752E+02  0.57591800514E+02  0.40063382404E+03  0.10100000352E+00 0. -1.
</event>
<event>
 5   0  0.2414128E-02  0.9369659E+03  0.7818609E-02  0.9380516E-01
        2   -1    0    0  501    0  0.00000000000E+00  0.00000000000E+00  0.79707718992E+03  0.79707718993E+03  0.25500000920E-02 0.  1.
       -2   -1    0    0    0  501  0.00000000000E+00  0.00000000000E+00 -0.27535136366E+03  0.27535136368E+03  0.25500000920E-02 0. -1.
    10030    2    1    2    0    0  0.00000000000E+00  0.00000000000E+00  0.52172582626E+03  0.10724285536E+04  0.93696593577E+03 0.  0.
        3    1    3    3  502    0  0.35414106021E+03 -0.44752090290E+02 -0.86412860323E+02  0.36726806660E+03  0.10100000352E+00 0. -1.
       -3    1    3    3    0  502 -0.35414106021E+03  0.44752090290E+02  0.60813868658E+03  0.70516048700E+03  0.10100000352E+00 0.  1.
</event>
<event>
 5   0  0.2628383E-02  0.8794344E+03  0.7818609E-02  0.9451661E-01
        2   -1    0    0  501    0  0.00000000000E+00  0.00000000000E+00  0.80246033915E+03  0.80246033916E+03  0.25500000920E-02 0.  1.
       -2   -1    0    0    0  501  0.00000000000E+00  0.00000000000E+00 -0.24094798473E+03  0.24094798475E+03  0.25500000920E-02 0. -1.
    10030    2    1    2    0    0  0.00000000000E+00  0.00000000000E+00  0.56151235442E+03  0.10434083239E+04  0.87943436721E+03 0.  0.
        2    1    3    3  502    0 -0.39204966577E+03 -0.10712232753E+03  0.47990050273E+03  0.62887409392E+03  0.25500000920E-02 0.  1.
       -2    1    3    3    0  502  0.39204966577E+03  0.10712232753E+03  0.81611851696E+02  0.41453422998E+03  0.25500000920E-02 0. -1.
</event>
<event>
 5   0  0.1040163E-02  0.8166512E+03  0.7818609E-02  0.9536223E-01
        4   -1    0    0  501    0  0.00000000000E+00  0.00000000000E+00  0.46018225537E+03  0.46018400783E+03  0.12699999809E+01 0.  1.
       -4   -1    0    0    0  501  0.00000000000E+00  0.00000000000E+00 -0.36230893737E+03  0.36231116322E+03  0.12699999809E+01 0. -1.
    10030    2    1    2    0    0  0.00000000000E+00  0.00000000000E+00  0.97873318007E+02  0.82249517105E+03  0.81665116177E+03 0.  0.
        1    1    3    3  502    0  0.54258728593E+02  0.19945132311E+03 -0.30572665350E+03  0.36904420684E+03  0.50400001928E-02 0. -1.
       -1    1    3    3    0  502 -0.54258728593E+02 -0.19945132311E+03  0.40359997150E+03  0.45345096421E+03  0.50400001928E-02 0.  1.
</event>
<event>
 5   0  0.1459111E-02  0.8441624E+03  0.7818609E-02  0.9498206E-01
       -1   -1    0    0    0  501  0.00000000000E+00  0.00000000000E+00  0.27780535351E+03  0.27780535356E+03  0.50400001928E-02 0.  1.
        1   -1    0    0  501    0  0.00000000000E+00  0.00000000000E+00 -0.64128540564E+03  0.64128540566E+03  0.50400001928E-02 0. -1.
    10030    2    1    2    0    0  0.00000000000E+00  0.00000000000E+00 -0.36348005213E+03  0.91909075922E+03  0.84416235132E+03 0.  0.
        2    1    3    3  502    0 -0.91173857026E+02 -0.19829242015E+03 -0.57508254168E+03  0.61510363830E+03  0.25500000920E-02 0. -1.
       -2    1    3    3    0  502  0.91173857026E+02  0.19829242015E+03  0.21160248955E+03  0.30398712092E+03  0.25500000920E-02 0.  1.
</event>
<event>
 5   0  0.2705111E-02  0.9135218E+03  0.7818609E-02  0.9408835E-01
        2   -1    0    0  501    0  0.00000000000E+00  0.00000000000E+00  0.10753529998E+04  0.10753529998E+04  0.25500000920E-02 0.  1.
       -2   -1    0    0    0  501  0.00000000000E+00  0.00000000000E+00 -0.19401120485E+03  0.19401120486E+03  0.25500000920E-02 0. -1.
    10030    2    1    2    0    0  0.00000000000E+00  0.00000000000E+00  0.88134179496E+03  0.12693642047E+04  0.91352182490E+03 0.  0.
        4    1    3    3  502    0 -0.15786870906E+03 -0.77753975979E+02  0.10263544313E+04  0.10413324357E+04  0.12699999809E+01 0.  1.
       -4    1    3    3    0  502  0.15786870906E+03  0.77753975979E+02 -0.14501263632E+03  0.22803176900E+03  0.12699999809E+01 0. -1.
</event>
<event>
 5   0  0.1497410E-02  0.9111520E+03  0.7818609E-02  0.9411747E-01
       -1   -1    0    0    0  501  0.00000000000E+00  0.00000000000E+00  0.26127247461E+03  0.26127247466E+03  0.50400001928E-02 0. -1.
        1   -1    0    0  501    0  0.00000000000E+00  0.00000000000E+00 -0.79437948313E+03  0.79437948315E+03  0.50400001928E-02 0.  1.
    10030    2    1    2    0    0  0.00000000000E+00  0.00000000000E+00 -0.53310700852E+03  0.10556519578E+04  0.91115200350E+03 0.  0.
        3    1    3    3  502    0 -0.28772560967E+03  0.12038309508E+03 -0.65128815510E+03  0.72211798705E+03  0.10100000352E+00 0.  1.
       -3    1    3    3    0  502  0.28772560967E+03 -0.12038309508E+03  0.11818114658E+03  0.33353397076E+03  0.10100000352E+00 0. -1.
</event>
<event>
 5   0  0.2679861E-02  0.8968725E+03  0.7818609E-02  0.9429499E-01
       -2   -1    0    0    0  501  0.00000000000E+00  0.00000000000E+00  0.49708857099E+03  0.49708857100E+03  0.25500000920E-02 0.  1.
        2   -1    0    0  501    0  0.00000000000E+00  0.00000000000E+00 -0.40454575702E+03  0.40454575703E+03  0.25500000920E-02 0. -1.
    10030    2    1    2    0    0  0.00000000000E+00  0.00000000000E+00  0.92542813972E+02  0.90163432803E+03  0.89687250435E+03 0.  0.
        1    1    3    3  502    0  0.96880773688E+02 -0.24501610587E+03  0.41107031427E+03  0.48825974619E+03  0.50400001928E-02 0.  1.
       -1    1    3    3    0  502 -0.96880773688E+02  0.24501610587E+03 -0.31852750030E+03  0.41337458185E+03  0.50400001928E-02 0. -1.
</event>
<event>
 5   0  0.1040163E-02  0.9415631E+03  0.7818609E-02  0.9375067E-01
        4   -1    0    0  501    0  0.00000000000E+00  0.00000000000E+00  0.34525200534E+03  0.34525434116E+03  0.12699999809E+01 0. -1.
       -4   -1    0    0    0  501  0.00000000000E+00  0.00000000000E+00 -0.64194701913E+03  0.64194827538E+03  0.12699999809E+01 0.  1.
    10030    2    1    2    0    0  0.00000000000E+00  0.00000000000E+00 -0.29669501379E+03  0.98720261654E+03  0.94156310192E+03 0.  0.
        1    1    3    3  502    0  0.24764142661E+03 -0.22574499411E+03 -0.49505455186E+03  0.59780104373E+03  0.50400001928E-02 0.  1.
       -1    1    3    3    0  502 -0.24764142661E+03  0.22574499411E+03  0.19835953807E+03  0.38940157281E+03  0.50400001928E-02 0. -1.
</event>
<event>
 5   0  0.1560728E-02  0.8832793E+03  0.7818609E-02  0.9446728E-01
       -1   -1    0    0    0  501  0.00000000000E+00  0.00000000000E+00  0.70672020305E+03  0.70672020307E+03  0.50400001928E-02 0.  1.
        1   -1    0    0  501    0  0.00000000000E+00  0.00000000000E+00 -0.27598701059E+03  0.27598701064E+03  0.50400001928E-02 0. -1.
    10030    2    1    2    0    0  0.00000000000E+00  0.00000000000E+00  0.43073319245E+03  0.98270721371E+03  0.88327933565E+03 0.  0.
        4    1    3    3  502    0 -0.34536548531E+03 -0.26092167511E+03  0.11782459954E+03  0.44859969700E+03  0.12699999809E+01 0. -1.
       -4    1    3    3    0  502  0.34536548531E+03  0.26092167511E+03  0.31290859291E+03  0.53410751671E+03  0.12699999809E+01 0.  1.
</event>
<event>
 5   0  0.2705111E-02  0.8795912E+03  0.7818609E-02  0.9451459E-01
       -2   -1    0    0    0  501  0.00000000000E+00  0.00000000000E+00  0.17427952575E+03  0.17427952577E+03  0.25500000920E-02 0.  1.
        2   -1    0    0  501    0  0.00000000000E+00  0.00000000000E+00 -0.11098273485E+04  0.11098273485E+04  0.25500000920E-02 0. -1.
    10030    2    1    2    0    0  0.00000000000E+00  0.00000000000E+00 -0.93554782274E+03  0.12841068743E+04  0.87959123226E+03 0.  0.
        4    1    3    3  502    0 -0.89444900329E+02  0.32184510579E+03 -0.88539933289E+03  0.94631826247E+03  0.12699999809E+01 0.  1.
       -4    1    3    3    0  502  0.89444900329E+02 -0.32184510579E+03 -0.50148489854E+02  0.33778861178E+03  0.12699999809E+01 0. -1.
</event>
<event>
 5   0  0.2628383E-02  0.9072039E+03  0.7818609E-02  0.9416621E-01
       -2   -1    0    0    0  501  0.00000000000E+00  0.00000000000E+00  0.24523967935E+03  0.24523967936E+03  0.25500000920E-02 0. -1.
        2   -1    0    0  501    0  0.00000000000E+00  0.00000000000E+00 -0.83899449650E+03  0.83899449650E+03  0.25500000920E-02 0.  1.
    10030    2    1    2    0    0  0.00000000000E+00  0.00000000000E+00 -0.59375481715E+03  0.10842341759E+04  0.90720392703E+03 0.  0.
        2    1    3    3  502    0  0.11180427087E+03  0.41772714601E+03 -0.13318892498E+03  0.45247701957E+03  0.25500000920E-02 0. -1.
       -2    1    3    3    0  502 -0.11180427087E+03 -0.41772714601E+03 -0.46056589217E+03  0.63175715630E+03  0.25500000920E-02 0.  1.
</event>
<event>
 5   0  0.1537870E-02  0.9035353E+03  0.7818609E-02  0.9421173E-01
        1   -1    0    0  501    0  0.00000000000E+00  0.00000000000E+00  0.12741983723E+04  0.12741983723E+04  0.50400001928E-02 0.  1.
       -1   -1    0    0    0  501  0.00000000000E+00  0.00000000000E+00 -0.16017443280E+03  0.16017443288E+03  0.50400001928E-02 0. -1.
    10030    2    1    2    0    0  0.00000000000E+00  0.00000000000E+00  0.11140239395E+04  0.14343728052E+04  0.90353528237E+03 0.  0.
        5    1    3    3  502    0 -0.34946270356E+03 -0.92668170911E+02  0.98699131683E+03  0.10511353484E+04  0.46999998093E+01 0.  1.
       -5    1    3    3    0  502  0.34946270356E+03  0.92668170911E+02  0.12703262263E+03  0.38323745680E+03  0.46999998093E+01 0. -1.
</event>
<event>
 5   0  0.2803717E-02  0.7793172E+03  0.7818609E-02  0.9590447E-01
        2   -1    0    0  501    0  0.00000000000E+00  0.00000000000E+00  0.79155396112E+03  0.79155396112E+03  0.25500000920E-02 0. -1.
       -2   -1    0    0    0  501  0.00000000000E+00  0.00000000000E+00 -0.19181739709E+03  0.19181739711E+03  0.25500000920E-02 0.  1.
    10030    2    1    2    0    0  0.00000000000E+00  0.00000000000E+00  0.59973656402E+03  0.98337135823E+03  0.77931718958E+03 0.  0.
        5    1    3    3  502    0 -0.17108953709E+03 -0.34522956798E+03  0.22676176688E+03  0.44709962338E+03  0.46999998093E+01 0.  1.
       -5    1    3    3    0  502  0.17108953709E+03  0.34522956798E+03  0.37297479714E+03  0.53627173485E+03  0.46999998093E+01 0. -1.
</event>
<event>
 5   0  0.2628383E-02  0.8963104E+03  0.7818609E-02  0.9430205E-01
       -2   -1    0    0    0  501  0.00000000000E+00  0.00000000000E+00  0.29141532272E+03  0.29141532273E+03  0.25500000920E-02 0.  1.
        2   -1    0    0  501    0  0.00000000000E+00  0.00000000000E+00 -0.68919883471E+03  0.68919883471E+03  0.25500000920E-02 0. -1.
    10030    2    1    2    0    0  0.00000000000E+00  0.00000000000E+00 -0.39778351199E+03  0.98061415744E+03  0.89631043917E+03 0.  0.
        2    1    3    3  502    0 -0.34185306980E+02  0.31235990557E+02 -0.68657440357E+03  0.68813424123E+03  0.25500000920E-02 0. -1.
       -2    1    3    3    0  502  0.34185306980E+02 -0.31235990557E+02  0.28879089158E+03  0.29247991621E+03  0.25500000920E-02 0.  1.
</event>
<event>
 5   0  0.2803717E-02  0.8564363E+03  0.7818609E-02  0.9481739E-01
        2   -1    0    0  501    0  0.00000000000E+00  0.00000000000E+00  0.67007991653E+03  0.67007991654E+03  0.25500000920E-02 0. -1.
       -2   -1    0    0    0  501  0.00000000000E+00  0.00000000000E+00 -0.27365506610E+03  0.27365506611E+03  0.25500000920E-02 0.  1.
    10030    2    1    2    0    0  0.00000000000E+00  0.00000000000E+00  0.39642485044E+03  0.94373498265E+03  0.85643625299E+03 0.  0.
        5    1    3    3  502    0 -0.19663710251E+03  0.31656528991E+03 -0.34159365479E+02  0.37425751176E+03  0.46999998093E+01 0.  1.
       -5    1    3    3    0  502  0.19663710251E+03 -0.31656528991E+03  0.43058421592E+03  0.56947747089E+03  0.46999998093E+01 0. -1.
</event>
<event>
 5   0  0.1497410E-02  0.9136766E+03  0.7818609E-02  0.9408645E-01
       -1   -1    0    0    0  501  0.00000000000E+00  0.00000000000E+00  0.15263329882E+03  0.15263329890E+03  0.50400001928E-02 0.  1.
        1   -1    0    0  501    0  0.00000000000E+00  0.00000000000E+00 -0.13673373677E+04  0.13673373677E+04  0.50400001928E-02 0. -1.
    10030    2    1    2    0    0  0.00000000000E+00  0.00000000000E+00 -0.12147040689E+04  0.15199706666E+04  0.91367655787E+03 0.  0.
        3    1    3    3  502    0  0.39105850018E+03 -0.23144535481E+03 -0.52919049805E+03  0.69752153820E+03  0.10100000352E+00 0.  1.
       -3    1    3    3    0  502 -0.39105850018E+03  0.23144535481E+03 -0.68551357081E+03  0.82244912840E+03  0.10100000352E+00 0. -1.
</event>
<event>
 5   0  0.2679861E-02  0.1002720E+04  0.7818609E-02  0.9305566E-01
        2   -1    0    0  501    0  0.00000000000E+00  0.00000000000E+00  0.90098656196E+03  0.90098656197E+03  0.25500000920E-02 0. -1.
       -2   -1    0    0    0  501  0.00000000000E+00  0.00000000000E+00 -0.27898521401E+03  0.27898521403E+03  0.25500000920E-02 0.  1.
    10030    2    1    2    0    0  0.00000000000E+00  0.00000000000E+00  0.62200134795E+03  0.11799717760E+04  0.10027201580E+04 0.  0.
        1    1    3    3  502    0 -0.46002566563E+03 -0.19515556025E+03  0.26316203915E+03  0.56476859386E+03  0.50400001928E-02 0.  1.
       -1    1    3    3    0  502  0.46002566563E+03  0.19515556025E+03  0.35883930880E+03  0.61520318213E+03  0.50400001928E-02 0. -1.
</event>
<event>
 5   0  0.1497410E-02  0.8890336E+03  0.7818609E-02  0.9439395E-01
        1   -1    0    0  501    0  0.00000000000E+00  0.00000000000E+00  0.15132867572E+04  0.15132867572E+04  0.50400001928E-02 0. -1.
       -1   -1    0    0    0  501  0.00000000000E+00  0.00000000000E+00 -0.13057351637E+03  0.13057351647E+03  0.50400001928E-02 0.  1.
    10030    2    1    2    0    0  0.00000000000E+00  0.00000000000E+00  0.13827132408E+04  0.16438602737E+04  0.88903357249E+03 0.  0.
        3    1    3    3  502    0 -0.39577048436E+03  0.11746555301E+03  0.99609941934E+03  0.10782608663E+04  0.10100000352E+00 0. -1.
       -3    1    3    3    0  502  0.39577048436E+03 -0.11746555301E+03  0.38661382151E+03  0.56559940737E+03  0.10100000352E+00 0.  1.
</event>
<event>
 5   0  0.2628383E-02  0.8646041E+03  0.7818609E-02  0.9470943E-01
        2   -1    0    0  501    0  0.00000000000E+00  0.00000000000E+00  0.18471774170E+04  0.18471774170E+04  0.25500000920E-02 0.  1.
       -2   -1    0    0    0  501  0.00000000000E+00  0.00000000000E+00 -0.10117330420E+03  0.10117330423E+03  0.25500000920E-02 0. -1.
    10030    2    1    2    0    0  0.00000000000E+00  0.00000000000E+00  0.17460041128E+04  0.19483507212E+04  0.86460405447E+03 0.  0.
        2    1    3    3  502    0 -0.13296486143E+03  0.93923301596E+02 -0.29462430314E+02  0.16543662159E+03  0.25500000920E-02 0. -1.
       -2    1    3    3    0  502  0.13296486143E+03 -0.93923301596E+02  0.17754665431E+04  0.17829140996E+04  0.25500000920E-02 0.  1.
</event>
<event>
 5   0  0.2414128E-02  0.9198647E+03  0.7818609E-02  0.9401085E-01
        2   -1    0    0  501    0  0.00000000000E+00  0.00000000000E+00  0.18923984925E+04  0.18923984925E+04  0.25500000920E-02 0.  1.
       -2   -1    0    0    0  501  0.00000000000E+00  0.00000000000E+00 -0.11178287477E+03  0.11178287480E+03  0.25500000920E-02 0. -1.
    10030    2    1    2    0    0  0.00000000000E+00  0.00000000000E+00  0.17806156177E+04  0.20041813673E+04  0.91986465034E+03 0.  0.
        3    1    3    3  502    0  0.32004285948E+03  0.30871504871E+03  0.11463056688E+04  0.12295320694E+04  0.10100000352E+00 0.  1.
       -3    1    3    3    0  502 -0.32004285948E+03 -0.30871504871E+03  0.63430994893E+03  0.77464929789E+03  0.10100000352E+00 0. -1.
</event>
<event>
 5   0  0.2679861E-02  0.9075925E+03  0.7818609E-02  0.9416140E-01
       -2   -1    0    0    0  501  0.00000000000E+00  0.00000000000E+00  0.25161836972E+03  0.25161836974E+03  0.25500000920E-02 0.  1.
        2   -1    0    0  501    0  0.00000000000E+00  0.00000000000E+00 -0.81842607741E+03  0.81842607741E+03  0.25500000920E-02 0. -1.
    10030    2    1    2    0    0  0.00000000000E+00  0.00000000000E+00 -0.56680770769E+03  0.10700444471E+04  0.90759249743E+03 0.  0.
        1    1    3    3  502    0  0.79584725205E+02  0.44380784420E+03 -0.22291909353E+03  0.50298315414E+03  0.50400001928E-02 0. -1.
       -1    1    3    3    0  502 -0.79584725205E+02 -0.44380784420E+03 -0.34388861415E+03  0.56706129301E+03  0.50400001928E-02 0.  1.
</event>
<event>
 5   0  0.2803717E-02  0.9159303E+03  0.7818609E-02  0.9405884E-01
        2   -1    0    0  501    0  0.00000000000E+00  0.00000000000E+00  0.14795773174E+04  0.14795773174E+04  0.25500000920E-02 0. -1.
       -2   -1    0    0    0  501  0.00000000000E+00  0.00000000000E+00 -0.14175134863E+03  0.14175134865E+03  0.25500000920E-02 0.  1.
    10030    2    1    2    0    0  0.00000000000E+00  0.00000000000E+00  0.13378259688E+04  0.16213286661E+04  0.91593030339E+03 0.  0.
        5    1    3    3  502    0  0.38816048453E+03  0.87136611360E+02  0.26740371091E+03  0.47936226948E+03  0.46999998093E+01 0.  1.
       -5    1    3    3    0  502 -0.38816048453E+03 -0.87136611360E+02  0.10704222579E+04  0.11419663966E+04  0.46999998093E+01 0. -1.
</event>
<event>
 5   0  0.1560728E-02  0.8981441E+03  0.7818609E-02  0.9427904E-01
        1   -1    0    0  501    0  0.00000000000E+00  0.00000000000E+00  0.37436966174E+03  0.37436966177E+03  0.50400001928E-02 0.  1.
       -1   -1    0    0    0  501  0.00000000000E+00  0.00000000000E+00 -0.53868072461E+03  0.53868072464E+03  0.50400001928E-02 0. -1.
    10030    2    1    2    0    0  0.00000000000E+00  0.00000000000E+00 -0.16431106288E+03  0.91305038641E+03  0.89814413249E+03 0.  0.
        4    1    3    3  502    0 -0.39047758272E+03  0.13744392187E+02 -0.30719445152E+03  0.49702283134E+03  0.12699999809E+01 0. -1.
       -4    1    3    3    0  502  0.39047758272E+03 -0.13744392187E+02  0.14288338865E+03  0.41602755507E+03  0.12699999809E+01 0.  1.
</event>
<event>
 5   0  0.1497410E-02  0.1005178E+04  0.7818609E-02  0.9302884E-01
        1   -1    0    0  501    0  0.00000000000E+00  0.00000000000E+00  0.13872629200E+04  0.13872629200E+04  0.50400001928E-02 0. -1.
       -1   -1    0    0    0  501  0.00000000000E+00  0.00000000000E+00 -0.18208191986E+03  0.18208191993E+03  0.50400001928E-02 0.  1.
    10030    2    1    2    0    0  0.00000000000E+00  0.00000000000E+00  0.12051810001E+04  0.15693448399E+04  0.10051775881E+04 0.  0.
        3    1    3    3  502    0 -0.16097165581E+03  0.17189093334E+03 -0.90611471747E+02  0.25232680387E+03  0.10100000352E+00 0.  1.
       -3    1    3    3    0  502  0.16097165581E+03 -0.17189093334E+03  0.12957924719E+04  0.13170180361E+04  0.10100000352E+00 0. -1.
</event>
<event>
 5   0  0.1040163E-02  0.8882145E+03  0.7818609E-02  0.9440435E-01
        3   -1    0    0  501    0  0.00000000000E+00  0.00000000000E+00  0.11228897470E+03  0.11228902012E+03  0.10100000352E+00 0. -1.
       -3   -1    0    0    0  501  0.00000000000E+00  0.00000000000E+00 -0.17564611761E+04  0.17564611791E+04  0.10100000352E+00 0.  1.
    10030    2    1    2    0    0  0.00000000000E+00  0.00000000000E+00 -0.16441722014E+04  0.18687501992E+04  0.88821454553E+03 0.  0.
        4    1    3    3  502    0  0.38380380315E+03  0.21856525003E+03 -0.72445038093E+03  0.84847280166E+03  0.12699999809E+01 0. -1.
       -4    1    3    3    0  502 -0.38380380315E+03 -0.21856525003E+03 -0.91972182052E+03  0.10202773975E+04  0.12699999809E+01 0.  1.
</event>
<event>
 5   0  0.2705111E-02  0.8486082E+03  0.7818609E-02  0.9492207E-01
       -2   -1    0    0    0  501  0.00000000000E+00  0.00000000000E+00  0.16403558578E+03  0.16403558580E+03  0.25500000920E-02 0.  1.
        2   -1    0    0  501    0  0.00000000000E+00  0.00000000000E+00 -0.10975299136E+04  0.10975299136E+04  0.25500000920E-02 0. -1.
    10030    2    1    2    0    0  0.00000000000E+00  0.00000000000E+00 -0.93349432779E+03  0.12615654994E+04  0.84860818356E+03 0.  0.
        4    1    3    3  502    0 -0.34819857790E+03 -0.10623830434E+03 -0.14273188097E+03  0.39102791422E+03  0.12699999809E+01 0.  1.
       -4    1    3    3    0  502  0.34819857790E+03  0.10623830434E+03 -0.79076244682E+03  0.87053758515E+03  0.12699999809E+01 0. -1.
</event>
<event>
 5   0  0.1560728E-02  0.8925563E+03  0.7818609E-02  0.9434935E-01
       -1   -1    0    0    0  501  0.00000000000E+00  0.00000000000E+00  0.14363803093E+03  0.14363803102E+03  0.50400001928E-02 0. -1.
        1   -1    0    0  501    0  0.00000000000E+00  0.00000000000E+00 -0.13865699199E+04  0.13865699199E+04  0.50400001928E-02 0.  1.
    10030    2    1    2    0    0  0.00000000000E+00  0.00000000000E+00 -0.12429318890E+04  0.15302079510E+04  0.89255626853E+03 0.  0.
        4    1    3    3  502    0  0.34454193800E+02  0.43125962834E+03 -0.80919666137E+03  0.91759076291E+03  0.12699999809E+01 0.  1.
       -4    1    3    3    0  502 -0.34454193800E+02 -0.43125962834E+03 -0.43373522762E+03  0.61261718804E+03  0.12699999809E+01 0. -1.
</event>
<event>
 5   0  0.1040163E-02  0.6050625E+03  0.7818609E-02  0.9894958E-01
        3   -1    0    0  501    0  0.00000000000E+00  0.00000000000E+00  0.74001395888E+03  0.74001396577E+03  0.10100000352E+00 0. -1.
       -3   -1    0    0    0  501  0.00000000000E+00  0.00000000000E+00 -0.12368029806E+03  0.12368033930E+03  0.10100000352E+00 0.  1.
    10030    2    1    2    0    0  0.00000000000E+00  0.00000000000E+00  0.61633366082E+03  0.86369430507E+03  0.60506253491E+03 0.  0.
        4    1    3    3  502    0 -0.12861833488E+03  0.61158068806E+01  0.69894177388E+03  0.71070478776E+03  0.12699999809E+01 0. -1.
       -4    1    3    3    0  502  0.12861833488E+03 -0.61158068806E+01 -0.82608113068E+02  0.15298951731E+03  0.12699999809E+01 0.  1.
</event>
<event>
 5   0  0.1559275E-02  0.9142406E+03  0.7818609E-02  0.9407953E-01
       -1   -1    0    0    0  501  0.00000000000E+00  0.00000000000E+00  0.27753527974E+03  0.27753527978E+03  0.50400001928E-02 0. -1.
        1   -1    0    0  501    0  0.00000000000E+00  0.00000000000E+00 -0.75290957085E+03  0.75290957087E+03  0.50400001928E-02 0.  1.
    10030    2    1    2    0    0  0.00000000000E+00  0.00000000000E+00 -0.47537429111E+03  0.10304448507E+04  0.91424059940E+03 0.  0.
        1    1    3    3  502    0  0.21467518649E+03  0.38838546077E+03 -0.36131088454E+03  0.57225366503E+03  0.50400001928E-02 0.  1.
       -1    1    3    3    0  502 -0.21467518649E+03 -0.38838546077E+03 -0.11406340658E+03  0.45819118562E+03  0.50400001928E-02 0. -1.
</event>
<event>
 5   0  0.2679861E-02  0.9110486E+03  0.7818609E-02  0.9411875E-01
        2   -1    0    0  501    0  0.00000000000E+00  0.00000000000E+00  0.58370482066E+03  0.58370482067E+03  0.25500000920E-02 0. -1.
       -2   -1    0    0    0  501  0.00000000000E+00  0.00000000000E+00 -0.35549202542E+03  0.35549202543E+03  0.25500000920E-02 0.  1.
    10030    2    1    2    0    0  0.00000000000E+00  0.00000000000E+00  0.22821279524E+03  0.93919684610E+03  0.91104864624E+03 0.  0.
        1    1    3    3  502    0  0.21748399518E+03 -0.32126495304E+02  0.52539534909E+03  0.56953636647E+03  0.50400001928E-02 0. -1.
       -1    1    3    3    0  502 -0.21748399518E+03  0.32126495304E+02 -0.29718255385E+03  0.36966047963E+03  0.50400001928E-02 0.  1.
</event>
<event>
 5   0  0.1537870E-02  0.9287576E+03  0.7818609E-02  0.9390330E-01
       -1   -1    0    0    0  501  0.00000000000E+00  0.00000000000E+00  0.35937650152E+03  0.35937650156E+03  0.50400001928E-02 0. -1.
        1   -1    0    0  501    0  0.00000000000E+00  0.00000000000E+00 -0.60006058550E+03  0.60006058552E+03  0.50400001928E-02 0.  1.
    10030    2    1    2    0    0  0.00000000000E+00  0.00000000000E+00 -0.24068408397E+03  0.95943708708E+03  0.92875760874E+03 0.  0.
        5    1    3    3  502    0  0.30789732035E+03 -0.32041282182E+03 -0.25955427270E+03  0.51464127967E+03  0.46999998093E+01 0. -1.
       -5    1    3    3    0  502 -0.30789732035E+03  0.32041282182E+03  0.18870188721E+02  0.44479580741E+03  0.46999998093E+01 0.  1.
</event>
<event>
 5   0  0.2705111E-02  0.1177741E+04  0.7818609E-02  0.9132566E-01
        2   -1    0    0  501    0  0.00000000000E+00  0.00000000000E+00  0.79803222926E+03  0.79803222927E+03  0.25500000920E-02 0. -1.
       -2   -1    0    0    0  501  0.00000000000E+00  0.00000000000E+00 -0.43452933337E+03  0.43452933337E+03  0.25500000920E-02 0.  1.
    10030    2    1    2    0    0  0.00000000000E+00  0.00000000000E+00  0.36350289589E+03  0.12325615626E+04  0.11777409097E+04 0.  0.
        4    1    3    3  502    0  0.29014287973E+03 -0.34504480541E+03 -0.21473391831E+03  0.49935065533E+03  0.12699999809E+01 0.  1.
       -4    1    3    3    0  502 -0.29014287973E+03  0.34504480541E+03  0.57823681420E+03  0.73321090731E+03  0.12699999809E+01 0. -1.
</event>
<event>
 5   0  0.2679861E-02  0.8847050E+03  0.7818609E-02  0.9444905E-01
       -2   -1    0    0    0  501  0.00000000000E+00  0.00000000000E+00  0.81512857292E+03  0.81512857292E+03  0.25500000920E-02 0.  1.
        2   -1    0    0  501    0  0.00000000000E+00  0.00000000000E+00 -0.24005505094E+03  0.24005505095E+03  0.25500000920E-02 0. -1.
    10030    2    1    2    0    0  0.00000000000E+00  0.00000000000E+00  0.57507352198E+03  0.10551836239E+04  0.88470499287E+03 0.  0.
        1    1    3    3  502    0 -0.34131798852E+03  0.74154740558E+02 -0.36206653606E+02  0.35115212747E+03  0.50400001928E-02 0. -1.
       -1    1    3    3    0  502  0.34131798852E+03 -0.74154740558E+02  0.61128017558E+03  0.70403149640E+03  0.50400001928E-02 0.  1.
</event>
<event>
 5   0  0.2414128E-02  0.8886423E+03  0.7818609E-02  0.9439891E-01
       -2   -1    0    0    0  501  0.00000000000E+00  0.00000000000E+00  0.37108042880E+03  0.37108042881E+03  0.25500000920E-02 0. -1.
        2   -1    0    0  501    0  0.00000000000E+00  0.00000000000E+00 -0.53201752876E+03  0.53201752877E+03  0.25500000920E-02 0.  1.
    10030    2    1    2    0    0  0.00000000000E+00  0.00000000000E+00 -0.16093709996E+03  0.90309795757E+03  0.88864231884E+03 0.  0.
        3    1    3    3  502    0 -0.97113115948E+02  0.15793018064E+03 -0.49082958561E+03  0.52467760726E+03  0.10100000352E+00 0.  1.
       -3    1    3    3    0  502  0.97113115948E+02 -0.15793018064E+03  0.32989248564E+03  0.37842035032E+03  0.10100000352E+00 0. -1.
</event>
<event>
 5   0  0.2628383E-02  0.8408394E+03  0.7818609E-02  0.9502715E-01
       -2   -1    0    0    0  501  0.00000000000E+00  0.00000000000E+00  0.93271966078E+02  0.93271966113E+02  0.25500000920E-02 0. -1.
        2   -1    0    0  501    0  0.00000000000E+00  0.00000000000E+00 -0.18950252418E+04  0.18950252418E+04  0.25500000920E-02 0.  1.
    10030    2    1    2    0    0  0.00000000000E+00  0.00000000000E+00 -0.18017532758E+04  0.19882972079E+04  0.84083941418E+03 0.  0.
        2    1    3    3  502    0 -0.26463861363E+03 -0.31417926278E+03 -0.11125171165E+04  0.11859327719E+04  0.25500000920E-02 0. -1.
       -2    1    3    3    0  502  0.26463861363E+03  0.31417926278E+03 -0.68923615926E+03  0.80236443604E+03  0.25500000920E-02 0.  1.
</event>
<event>
 5   0  0.2679861E-02  0.7290850E+03  0.7818609E-02  0.9668746E-01
        2   -1    0    0  501    0  0.00000000000E+00  0.00000000000E+00  0.84429712741E+03  0.84429712741E+03  0.25500000920E-02 0.  1.
       -2   -1    0    0    0  501  0.00000000000E+00  0.00000000000E+00 -0.15739867718E+03  0.15739867720E+03  0.25500000920E-02 0. -1.
    10030    2    1    2    0    0  0.00000000000E+00  0.00000000000E+00  0.68689845023E+03  0.10016958046E+04  0.72908504584E+03 0.  0.
        1    1    3    3  502    0  0.37726893557E+02  0.28779267338E+03  0.64646777979E+03  0.70863850564E+03  0.50400001928E-02 0.  1.
       -1    1    3    3    0  502 -0.37726893557E+02 -0.28779267338E+03  0.40430670435E+02  0.29305729898E+03  0.50400001928E-02 0. -1.
</event>
<event>
 5   0  0.2414128E-02  0.8998444E+03  0.7818609E-02  0.9425776E-01
       -2   -1    0    0    0  501  0.00000000000E+00  0.00000000000E+00  0.25051275822E+03  0.25051275823E+03  0.25500000920E-02 0. -1.
        2   -1    0    0  501    0  0.00000000000E+00  0.00000000000E+00 -0.80806252152E+03  0.80806252153E+03  0.25500000920E-02 0.  1.
    10030    2    1    2    0    0  0.00000000000E+00  0.00000000000E+00 -0.55754976330E+03  0.10585752798E+04  0.89984436674E+03 0.  0.
        3    1    3    3  502    0  0.39713378765E+02  0.21205647633E+02 -0.80540609338E+03  0.80666338543E+03  0.10100000352E+00 0.  1.
       -3    1    3    3    0  502 -0.39713378765E+02 -0.21205647633E+02  0.24785633008E+03  0.25191189433E+03  0.10100000352E+00 0. -1.
</event>
<event>
 5   0  0.1040163E-02  0.4892720E+03  0.7818609E-02  0.1016618E+00
        3   -1    0    0  501    0  0.00000000000E+00  0.00000000000E+00  0.57736804298E+02  0.57736892639E+02  0.10100000352E+00 0. -1.
       -3   -1    0    0    0  501  0.00000000000E+00  0.00000000000E+00 -0.10365438579E+04  0.10365438628E+04  0.10100000352E+00 0.  1.
    10030    2    1    2    0    0  0.00000000000E+00  0.00000000000E+00 -0.97880705360E+03  0.10942807555E+04  0.48927203434E+03 0.  0.
        3    1    3    3  502    0 -0.15777150365E+03 -0.12016596564E+03 -0.16906084516E+03  0.26060177711E+03  0.10100000352E+00 0. -1.
       -3    1    3    3    0  502  0.15777150365E+03  0.12016596564E+03 -0.80974620844E+03  0.83367897835E+03  0.10100000352E+00 0.  1.
</event>
<event>
 5   0  0.2628383E-02  0.9694339E+03  0.7818609E-02  0.9342719E-01
        2   -1    0    0  501    0  0.00000000000E+00  0.00000000000E+00  0.52573266517E+03  0.52573266517E+03  0.25500000920E-02 0. -1.
       -2   -1    0    0    0  501  0.00000000000E+00  0.00000000000E+00 -0.44690114695E+03  0.44690114696E+03  0.25500000920E-02 0.  1.
    10030    2    1    2    0    0  0.00000000000E+00  0.00000000000E+00  0.78831518214E+02  0.97263381213E+03  0.96943391948E+03 0.  0.
        2    1    3    3  502    0 -0.34339616843E+03  0.27951645634E+03  0.23729799449E+03  0.50235516923E+03  0.25500000920E-02 0.  1.
       -2    1    3    3    0  502  0.34339616843E+03 -0.27951645634E+03 -0.15846647628E+03  0.47027864290E+03  0.25500000920E-02 0. -1.
</event>
<event>
 5   0  0.1497410E-02  0.9174471E+03  0.7818609E-02  0.9404031E-01
       -1   -1    0    0    0  501  0.00000000000E+00  0.00000000000E+00  0.70886613060E+03  0.70886613062E+03  0.50400001928E-02 0. -1.
        1   -1    0    0  501    0  0.00000000000E+00  0.00000000000E+00 -0.29685055444E+03  0.29685055448E+03  0.50400001928E-02 0.  1.
    10030    2    1    2    0    0  0.00000000000E+00  0.00000000000E+00  0.41201557617E+03  0.10057166851E+04  0.91744711874E+03 0.  0.
        3    1    3    3  502    0 -0.18502544051E+03 -0.18172790542E+03 -0.20877178797E+03  0.33293409993E+03  0.10100000352E+00 0.  1.
       -3    1    3    3    0  502  0.18502544051E+03  0.18172790542E+03  0.62078736413E+03  0.67278258517E+03  0.10100000352E+00 0. -1.
</event>
<event>
 5   0  0.1559275E-02  0.9055351E+03  0.7818609E-02  0.9418689E-01
       -1   -1    0    0    0  501  0.00000000000E+00  0.00000000000E+00  0.11343255298E+03  0.11343255309E+03  0.50400001928E-02 0. -1.
        1   -1    0    0  501    0  0.00000000000E+00  0.00000000000E+00 -0.18072279044E+04  0.18072279044E+04  0.50400001928E-02 0.  1.
    10030    2    1    2    0    0  0.00000000000E+00  0.00000000000E+00 -0.16937953514E+04  0.19206604575E+04  0.90553514594E+03 0.  0.
        1    1    3    3  502    0  0.79634946501E+02 -0.58618198323E+02 -0.17840456474E+04  0.17867838956E+04  0.50400001928E-02 0.  1.
       -1    1    3    3    0  502 -0.79634946501E+02  0.58618198323E+02  0.90250295921E+02  0.13387656187E+03  0.50400001928E-02 0. -1.
</event>
<event>
 5   0  0.2628383E-02  0.9055530E+03  0.7818609E-02  0.9418666E-01
        2   -1    0    0  501    0  0.00000000000E+00  0.00000000000E+00  0.72990457314E+03  0.72990457315E+03  0.25500000920E-02 0.  1.
       -2   -1    0    0    0  501  0.00000000000E+00  0.00000000000E+00 -0.28086762926E+03  0.28086762927E+03  0.25500000920E-02 0. -1.
    10030    2    1    2    0    0  0.00000000000E+00  0.00000000000E+00  0.44903694388E+03  0.10107722024E+04  0.90555301790E+03 0.  0.
        2    1    3    3  502    0  0.40937073809E+02 -0.21075158971E+03 -0.22044171845E+03  0.30771192343E+03  0.25500000920E-02 0. -1.
       -2    1    3    3    0  502 -0.40937073809E+02  0.21075158971E+03  0.66947866233E+03  0.70306027900E+03  0.25500000920E-02 0.  1.
</event>
<event>
 5   0  0.2803717E-02  0.8987491E+03  0.7818609E-02  0.9427146E-01
       -2   -1    0    0    0  501  0.00000000000E+00  0.00000000000E+00  0.29847633504E+03  0.29847633505E+03  0.25500000920E-02 0. -1.
        2   -1    0    0  501    0  0.00000000000E+00  0.00000000000E+00 -0.67656119561E+03  0.67656119562E+03  0.25500000920E-02 0.  1.
    10030    2    1    2    0    0  0.00000000000E+00  0.00000000000E+00 -0.37808486058E+03  0.97503753067E+03  0.89874914432E+03 0.  0.
        5    1    3    3  502    0 -0.24235434836E+03 -0.31444287208E+03 -0.41739794167E+03  0.57606690730E+03  0.46999998093E+01 0.  1.
       -5    1    3    3    0  502  0.24235434836E+03  0.31444287208E+03  0.39313081097E+02  0.39897062337E+03  0.46999998093E+01 0. -1.
</event>
<event>
 5   0  0.2803717E-02  0.8940142E+03  0.7818609E-02  0.9433095E-01
        2   -1    0    0  501    0  0.00000000000E+00  0.00000000000E+00  0.59845877530E+03  0.59845877530E+03  0.25500000920E-02 0. -1.
       -2   -1    0    0    0  501  0.00000000000E+00  0.00000000000E+00 -0.33388321045E+03  0.33388321046E+03  0.25500000920E-02 0.  1.
    10030    2    1    2    0    0  0.00000000000E+00  0.00000000000E+00  0.26457556484E+03  0.93234198577E+03  0.89401417713E+03 0.  0.
        5    1    3    3  502    0  0.76418308443E+00 -0.23964696748E+03 -0.26119693349E+03  0.35450977569E+03  0.46999998093E+01 0.  1.
       -5    1    3    3    0  502 -0.76418308443E+00  0.23964696748E+03  0.52577249833E+03  0.57783221007E+03  0.46999998093E+01 0. -1.
</event>
<event>
 5   0  0.1560728E-02  0.8637386E+03  0.7818609E-02  0.9472081E-01
        1   -1    0    0  501    0  0.00000000000E+00  0.00000000000E+00  0.25718791598E+03  0.25718791603E+03  0.50400001928E-02 0.  1.
       -1   -1    0    0    0  501  0.00000000000E+00  0.00000000000E+00 -0.72519391989E+03  0.72519391990E+03  0.50400001928E-02 0. -1.
    10030    2    1    2    0    0  0.00000000000E+00  0.00000000000E+00 -0.46800600391E+03  0.98238183593E+03  0.86373864790E+03 0.  0.
        4    1    3    3  502    0  0.32191534807E+03 -0.74249038612E+02  0.82353015478E+02  0.34047913756E+03  0.12699999809E+01 0.  1.
       -4    1    3    3    0  502 -0.32191534807E+03  0.74249038612E+02 -0.55035901939E+03  0.64190269837E+03  0.12699999809E+01 0. -1.
</event>
<event>
 5   0  0.1537870E-02  0.5729193E+03  0.7818609E-02  0.9963239E-01
        1   -1    0    0  501    0  0.00000000000E+00  0.00000000000E+00  0.23882502130E+03  0.23882502136E+03  0.50400001928E-02 0.  1.
       -1   -1    0    0    0  501  0.00000000000E+00  0.00000000000E+00 -0.34359515260E+03  0.34359515263E+03  0.50400001928E-02 0. -1.
    10030    2    1    2    0    0  0.00000000000E+00  0.00000000000E+00 -0.10477013129E+03  0.58242017399E+03  0.57291926016E+03 0.  0.
        5    1    3    3  502    0 -0.53021116325E+02  0.27526072593E+02  0.23238187728E+03  0.23998406267E+03  0.46999998093E+01 0.  1.
       -5    1    3    3    0  502  0.53021116325E+02 -0.27526072593E+02 -0.33715200858E+03  0.34243611132E+03  0.46999998093E+01 0. -1.
</event>
<event>
 5   0  0.2679861E-02  0.8877234E+03  0.7818609E-02  0.9441059E-01
       -2   -1    0    0    0  501  0.00000000000E+00  0.00000000000E+00  0.11659699601E+03  0.11659699604E+03  0.25500000920E-02 0.  1.
        2   -1    0    0  501    0  0.00000000000E+00  0.00000000000E+00 -0.16896938331E+04  0.16896938331E+04  0.25500000920E-02 0. -1.
    10030    2    1    2    0    0  0.00000000000E+00  0.00000000000E+00 -0.15730968371E+04  0.18062908292E+04  0.88772343699E+03 0.  0.
        1    1    3    3  502    0 -0.85130035421E+02  0.28267334358E+03 -0.11212365204E+03  0.31578957467E+03  0.50400001928E-02 0.  1.
       -1    1    3    3    0  502  0.85130035421E+02 -0.28267334358E+03 -0.14609731851E+04  0.14905012545E+04  0.50400001928E-02 0. -1.
</event>
<event>
 5   0  0.2705111E-02  0.9017506E+03  0.7818609E-02  0.9423396E-01
       -2   -1    0    0    0  501  0.00000000000E+00  0.00000000000E+00  0.65798427837E+03  0.65798427838E+03  0.25500000920E-02 0. -1.
        2   -1    0    0  501    0  0.00000000000E+00  0.00000000000E+00 -0.30895655319E+03  0.30895655320E+03  0.25500000920E-02 0.  1.
    10030    2    1    2    0    0  0.00000000000E+00  0.00000000000E+00  0.34902772519E+03  0.96694083157E+03  0.90175064115E+03 0.  0.
        4    1    3    3  502    0 -0.42389977235E+03 -0.12236462456E+03  0.74941643173E+02  0.44752874893E+03  0.12699999809E+01 0. -1.
       -4    1    3    3    0  502  0.42389977235E+03  0.12236462456E+03  0.27408608201E+03  0.51941208264E+03  0.12699999809E+01 0.  1.
</event>
<event>
 5   0  0.2628383E-02  0.9762378E+03  0.7818609E-02  0.9334998E-01
        2   -1    0    0  501    0  0.00000000000E+00  0.00000000000E+00  0.11325388590E+04  0.11325388590E+04  0.25500000920E-02 0. -1.
       -2   -1    0    0    0  501  0.00000000000E+00  0.00000000000E+00 -0.21037692596E+03  0.21037692598E+03  0.25500000920E-02 0.  1.
    10030    2    1    2    0    0  0.00000000000E+00  0.00000000000E+00  0.92216193305E+03  0.13429157850E+04  0.97623776552E+03 0.  0.
        2    1    3    3  502    0  0.94915335361E+02 -0.26276032315E+03  0.10116800161E+04  0.10495467418E+04  0.25500000920E-02 0. -1.
       -2    1    3    3    0  502 -0.94915335361E+02  0.26276032315E+03 -0.89518083018E+02  0.29336904319E+03  0.25500000920E-02 0.  1.
</event>
<event>
 5   0  0.2628383E-02  0.9162759E+03  0.7818609E-02  0.9405461E-01
        2   -1    0    0  501    0  0.00000000000E+00  0.00000000000E+00  0.19823768661E+04  0.19823768661E+04  0.25500000920E-02 0.  1.
       -2   -1    0    0    0  501  0.00000000000E+00  0.00000000000E+00 -0.10587814705E+03  0.10587814708E+03  0.25500000920E-02 0. -1.
    10030    2    1    2    0    0  0.00000000000E+00  0.00000000000E+00  0.18764987191E+04  0.20882550132E+04  0.91627591780E+03 0.  0.
        2    1    3    3  502    0  0.20534590063E+03 -0.97578154894E+02  0.31759015665E+02  0.22955842459E+03  0.25500000920E-02 0. -1.
       -2    1    3    3    0  502 -0.20534590063E+03  0.97578154894E+02  0.18447397034E+04  0.18586965886E+04  0.25500000920E-02 0.  1.
</event>
<event>
 5   0  0.1040163E-02  0.9820951E+03  0.7818609E-02  0.9328403E-01
        4   -1    0    0  501    0  0.00000000000E+00  0.00000000000E+00  0.15415009206E+04  0.15415014437E+04  0.12699999809E+01 0. -1.
       -4   -1    0    0    0  501  0.00000000000E+00  0.00000000000E+00 -0.15642085205E+03  0.15642600761E+03  0.12699999809E+01 0.  1.
    10030    2    1    2    0    0  0.00000000000E+00  0.00000000000E+00  0.13850800685E+04  0.16979274513E+04  0.98209512463E+03 0.  0.
        4    1    3    3  502    0 -0.66124615065E+02  0.45859079725E+03  0.97370610287E+03  0.10783242424E+04  0.12699999809E+01 0. -1.
       -4    1    3    3    0  502  0.66124615065E+02 -0.45859079725E+03  0.41137396565E+03  0.61960320896E+03  0.12699999809E+01 0.  1.
</event>
<event>
 5   0  0.1559275E-02  0.8920915E+03  0.7818609E-02  0.9435522E-01
       -1   -1    0    0    0  501  0.00000000000E+00  0.00000000000E+00  0.36462310743E+03  0.36462310746E+03  0.50400001928E-02 0. -1.
        1   -1    0    0  501    0  0.00000000000E+00  0.00000000000E+00 -0.54565053289E+03  0.54565053291E+03  0.50400001928E-02 0.  1.
    10030    2    1    2    0    0  0.00000000000E+00  0.00000000000E+00 -0.18102742546E+03  0.91027364037E+03  0.89209145921E+03 0.  0.
        1    1    3    3  502    0 -0.37704850475E+03  0.27444520640E+02  0.15103457402E+03  0.40709976568E+03  0.50400001928E-02 0. -1.
       -1    1    3    3    0  502  0.37704850475E+03 -0.27444520640E+02 -0.33206199948E+03  0.50317387469E+03  0.50400001928E-02 0.  1.
</event>
<event>
 5   0  0.2803717E-02  0.8941678E+03  0.7818609E-02  0.9432901E-01
       -2   -1    0    0    0  501  0.00000000000E+00  0.00000000000E+00  0.25152969553E+03  0.25152969554E+03  0.25500000920E-02 0.  1.
        2   -1    0    0  501    0  0.00000000000E+00  0.00000000000E+00 -0.79467361654E+03  0.79467361654E+03  0.25500000920E-02 0. -1.
    10030    2    1    2    0    0  0.00000000000E+00  0.00000000000E+00 -0.54314392101E+03  0.10462033121E+04  0.89416779817E+03 0.  0.
        5    1    3    3  502    0  0.35843867426E+02 -0.11948282827E+03  0.23072540873E+03  0.26233038961E+03  0.46999998093E+01 0.  1.
       -5    1    3    3    0  502 -0.35843867426E+02  0.11948282827E+03 -0.77386932974E+03  0.78387292247E+03  0.46999998093E+01 0. -1.
</event>
<event>
 5   0  0.2679861E-02  0.9133823E+03  0.7818609E-02  0.9409006E-01
       -2   -1    0    0    0  501  0.00000000000E+00  0.00000000000E+00  0.52219801238E+03  0.52219801238E+03  0.25500000920E-02 0. -1.
        2   -1    0    0  501    0  0.00000000000E+00  0.00000000000E+00 -0.39940174251E+03  0.39940174251E+03  0.25500000920E-02 0.  1.
    10030    2    1    2    0    0  0.00000000000E+00  0.00000000000E+00  0.12279626987E+03  0.92159975490E+03  0.91338227722E+03 0.  0.
        1    1    3    3  502    0 -0.70536048283E+02 -0.20859343728E+02  0.51618191855E+03  0.52139641291E+03  0.50400001928E-02 0. -1.
       -1    1    3    3    0  502  0.70536048283E+02  0.20859343728E+02 -0.39338564868E+03  0.40020334199E+03  0.50400001928E-02 0.  1.
</event>
<event>
 5   0  0.1560728E-02  0.8898279E+03  0.7818609E-02  0.9438387E-01
        1   -1    0    0  501    0  0.00000000000E+00  0.00000000000E+00  0.80338842106E+03  0.80338842108E+03  0.50400001928E-02 0.  1.
       -1   -1    0    0    0  501  0.00000000000E+00  0.00000000000E+00 -0.24639192851E+03  0.24639192856E+03  0.50400001928E-02 0. -1.
    10030    2    1    2    0    0  0.00000000000E+00  0.00000000000E+00  0.55699649255E+03  0.10497803496E+04  0.88982789897E+03 0.  0.
        4    1    3    3  502    0  0.19169073185E+03  0.20017315759E+02 -0.19458383246E+03  0.27388046728E+03  0.12699999809E+01 0. -1.
       -4    1    3    3    0  502 -0.19169073185E+03 -0.20017315759E+02  0.75158032501E+03  0.77589988236E+03  0.12699999809E+01 0.  1.
</event>
<event>
 5   0  0.1497410E-02  0.8840488E+03  0.7818609E-02  0.9445744E-01
        1   -1    0    0  501    0  0.00000000000E+00  0.00000000000E+00  0.68384967035E+03  0.68384967036E+03  0.50400001928E-02 0. -1.
       -1   -1    0    0    0  501  0.00000000000E+00  0.00000000000E+00 -0.28571419866E+03  0.28571419871E+03  0.50400001928E-02 0.  1.
    10030    2    1    2    0    0  0.00000000000E+00  0.00000000000E+00  0.39813547168E+03  0.96956386907E+03  0.88404877829E+03 0.  0.
        3    1    3    3  502    0 -0.31702056772E+03 -0.28031201387E+03  0.33912629878E+03  0.54229468207E+03  0.10100000352E+00 0.  1.
       -3    1    3    3    0  502  0.31702056772E+03  0.28031201387E+03  0.59009172908E+02  0.42726918700E+03  0.10100000352E+00 0. -1.
</event>
<event>
 5   0  0.2803717E-02  0.9073525E+03  0.7818609E-02  0.9416437E-01
        2   -1    0    0  501    0  0.00000000000E+00  0.00000000000E+00  0.23048731655E+03  0.23048731656E+03  0.25500000920E-02 0.  1.
       -2   -1    0    0    0  501  0.00000000000E+00  0.00000000000E+00 -0.89298675846E+03  0.89298675846E+03  0.25500000920E-02 0. -1.
    10030    2    1    2    0    0  0.00000000000E+00  0.00000000000E+00 -0.66249944190E+03  0.11234740750E+04  0.90735246003E+03 0.  0.
        5    1    3    3  502    0  0.31335535454E+03 -0.30697568578E+03 -0.18805602701E+03  0.47729740118E+03  0.46999998093E+01 0. -1.
       -5    1    3    3    0  502 -0.31335535454E+03  0.30697568578E+03 -0.47444341490E+03  0.64617667384E+03  0.46999998093E+01 0.  1.
</event>
<event>
 5   0  0.2803717E-02  0.8966764E+03  0.7818609E-02  0.9429746E-01
        2   -1    0    0  501    0  0.00000000000E+00  0.00000000000E+00  0.54495193986E+03  0.54495193987E+03  0.25500000920E-02 0. -1.
       -2   -1    0    0    0  501  0.00000000000E+00  0.00000000000E+00 -0.36885294945E+03  0.36885294946E+03  0.25500000920E-02 0.  1.
    10030    2    1    2    0    0  0.00000000000E+00  0.00000000000E+00  0.17609899041E+03  0.91380488933E+03  0.89667637492E+03 0.  0.
        5    1    3    3  502    0  0.64435460694E+02  0.37342310327E+03  0.33218414414E+03  0.50394953940E+03  0.46999998093E+01 0. -1.
       -5    1    3    3    0  502 -0.64435460694E+02 -0.37342310327E+03 -0.15608515373E+03  0.40985534992E+03  0.46999998093E+01 0.  1.
</event>
<event>
 5   0  0.2628383E-02  0.9076363E+03  0.7818609E-02  0.9416086E-01
       -2   -1    0    0    0  501  0.00000000000E+00  0.00000000000E+00  0.17506209946E+03  0.17506209947E+03  0.25500000920E-02 0. -1.
        2   -1    0    0  501    0  0.00000000000E+00  0.00000000000E+00 -0.11764448296E+04  0.11764448296E+04  0.25500000920E-02 0.  1.
    10030    2    1    2    0    0  0.00000000000E+00  0.00000000000E+00 -0.10013827302E+04  0.13515069291E+04  0.90763627468E+03 0.  0.
        2    1    3    3  502    0 -0.64456919594E+01  0.23762427851E+03  0.74941732129E+02  0.24924507599E+03  0.25500000920E-02 0. -1.
       -2    1    3    3    0  502  0.64456919594E+01 -0.23762427851E+03 -0.10763244623E+04  0.11022618531E+04  0.25500000920E-02 0.  1.
</event>
<event>
 5   0  0.2705111E-02  0.9822433E+03  0.7818609E-02  0.9328237E-01
        2   -1    0    0  501    0  0.00000000000E+00  0.00000000000E+00  0.73590249394E+03  0.73590249395E+03  0.25500000920E-02 0. -1.
       -2   -1    0    0    0  501  0.00000000000E+00  0.00000000000E+00 -0.32776145114E+03  0.32776145115E+03  0.25500000920E-02 0.  1.
    10030    2    1    2    0    0  0.00000000000E+00  0.00000000000E+00  0.40814104281E+03  0.10636639451E+04  0.98224328823E+03 0.  0.
        4    1    3    3  502    0  0.28549877295E+03 -0.46129989104E+02 -0.22577280557E+03  0.36689575888E+03  0.12699999809E+01 0.  1.
       -4    1    3    3    0  502 -0.28549877295E+03  0.46129989104E+02  0.63391384838E+03  0.69676818621E+03  0.12699999809E+01 0. -1.
</event>
<event>
 5   0  0.1559275E-02  0.8865820E+03  0.7818609E-02  0.9442512E-01
       -1   -1    0    0    0  501  0.00000000000E+00  0.00000000000E+00  0.65711928634E+03  0.65711928636E+03  0.50400001928E-02 0. -1.
        1   -1    0    0  501    0  0.00000000000E+00  0.00000000000E+00 -0.29904301221E+03  0.29904301225E+03  0.50400001928E-02 0.  1.
    10030    2    1    2    0    0  0.00000000000E+00  0.00000000000E+00  0.35807627414E+03  0.95616229861E+03  0.88658204538E+03 0.  0.
        1    1    3    3  502    0 -0.41102044905E+03 -0.15240574052E+03  0.10797601664E+03  0.45146886878E+03  0.50400001928E-02 0.  1.
       -1    1    3    3    0  502  0.41102044905E+03  0.15240574052E+03  0.25010025750E+03  0.50469342983E+03  0.50400001928E-02 0. -1.
</event>
<event>
 5   0  0.1559275E-02  0.9470186E+03  0.7818609E-02  0.9368642E-01
        1   -1    0    0  501    0  0.00000000000E+00  0.00000000000E+00  0.68728943520E+03  0.68728943522E+03  0.50400001928E-02 0.  1.
       -1   -1    0    0    0  501  0.00000000000E+00  0.00000000000E+00 -0.32622510493E+03  0.32622510497E+03  0.50400001928E-02 0. -1.
    10030    2    1    2    0    0  0.00000000000E+00  0.00000000000E+00  0.36106433027E+03  0.10135145402E+04  0.94701862314E+03 0.  0.
        1    1    3    3  502    0 -0.93021025750E+02 -0.21245910681E+03  0.62233737546E+03  0.66415027833E+03  0.50400001928E-02 0.  1.
       -1    1    3    3    0  502  0.93021025750E+02  0.21245910681E+03 -0.26127304518E+03  0.34936426185E+03  0.50400001928E-02 0. -1.
</event>
<event>
 5   0  0.1497410E-02  0.9079441E+03  0.7818609E-02  0.9415705E-01
       -1   -1    0    0    0  501  0.00000000000E+00  0.00000000000E+00  0.28689661097E+03  0.28689661101E+03  0.50400001928E-02 0.  1.
        1   -1    0    0  501    0  0.00000000000E+00  0.00000000000E+00 -0.71834452863E+03  0.71834452865E+03  0.50400001928E-02 0. -1.
    10030    2    1    2    0    0  0.00000000000E+00  0.00000000000E+00 -0.43144791766E+03  0.10052411397E+04  0.90794407494E+03 0.  0.
        3    1    3    3  502    0  0.24458333105E+03  0.23080541016E+03  0.12191225958E+03  0.35770763540E+03  0.10100000352E+00 0.  1.
       -3    1    3    3    0  502 -0.24458333105E+03 -0.23080541016E+03 -0.55336017724E+03  0.64753350426E+03  0.10100000352E+00 0. -1.
</event>
<event>
 5   0  0.2679861E-02  0.1002362E+04  0.7818609E-02  0.9305958E-01
       -2   -1    0    0    0  501  0.00000000000E+00  0.00000000000E+00  0.19672976416E+03  0.19672976418E+03  0.25500000920E-02 0.  1.
        2   -1    0    0  501    0  0.00000000000E+00  0.00000000000E+00 -0.12767894134E+04  0.12767894134E+04  0.25500000920E-02 0. -1.
    10030    2    1    2    0    0  0.00000000000E+00  0.00000000000E+00 -0.10800596492E+04  0.14735191776E+04  0.10023621705E+04 0.  0.
        1    1    3    3  502    0  0.35950341300E+01  0.66805748406E+02 -0.12701955834E+04  0.12719562698E+04  0.50400001928E-02 0. -1.
       -1    1    3    3    0  502 -0.35950341300E+01 -0.66805748406E+02  0.19013593416E+03  0.20156290773E+03  0.50400001928E-02 0.  1.
</event>
<event>
 5   0  0.1537870E-02  0.1063152E+04  0.7818609E-02  0.9241870E-01
       -1   -1    0    0    0  501  0.00000000000E+00  0.00000000000E+00  0.21380991506E+04  0.21380991506E+04  0.50400001928E-02 0.  1.
        1   -1    0    0  501    0  0.00000000000E+00  0.00000000000E+00 -0.13216082598E+03  0.13216082607E+03  0.50400001928E-02 0. -1.
    10030    2    1    2    0    0  0.00000000000E+00  0.00000000000E+00  0.20059383246E+04  0.22702599766E+04  0.10631518234E+04 0.  0.
        5    1    3    3  502    0  0.41251863317E+03 -0.12085719598E+03  0.16706813079E+04  0.17251017961E+04  0.46999998093E+01 0.  1.
       -5    1    3    3    0  502 -0.41251863317E+03  0.12085719598E+03  0.33525701672E+03  0.54515818052E+03  0.46999998093E+01 0. -1.
</event>
<event>
 5   0  0.2705111E-02  0.8955377E+03  0.7818609E-02  0.9431177E-01
        2   -1    0    0  501    0  0.00000000000E+00  0.00000000000E+00  0.61874049179E+03  0.61874049180E+03  0.25500000920E-02 0. -1.
       -2   -1    0    0    0  501  0.00000000000E+00  0.00000000000E+00 -0.32404046939E+03  0.32404046940E+03  0.25500000920E-02 0.  1.
    10030    2    1    2    0    0  0.00000000000E+00  0.00000000000E+00  0.29470002240E+03  0.94278096119E+03  0.89553773655E+03 0.  0.
        4    1    3    3  502    0 -0.22691979362E+03  0.21551440769E+03  0.48448829492E+03  0.57677514984E+03  0.12699999809E+01 0. -1.
       -4    1    3    3    0  502  0.22691979362E+03 -0.21551440769E+03 -0.18978827252E+03  0.36600581135E+03  0.12699999809E+01 0.  1.
</event>
<event>
 5   0  0.1560728E-02  0.9147639E+03  0.7818609E-02  0.9407312E-01
        1   -1    0    0  501    0  0.00000000000E+00  0.00000000000E+00  0.90410317233E+03  0.90410317234E+03  0.50400001928E-02 0. -1.
       -1   -1    0    0    0  501  0.00000000000E+00  0.00000000000E+00 -0.23138756581E+03  0.23138756586E+03  0.50400001928E-02 0.  1.
    10030    2    1    2    0    0  0.00000000000E+00  0.00000000000E+00  0.67271560652E+03  0.11354907382E+04  0.91476386532E+03 0.  0.
        4    1    3    3  502    0 -0.18342772663E+03 -0.31316439795E+03  0.68187244337E+03  0.77244372802E+03  0.12699999809E+01 0. -1.
       -4    1    3    3    0  502  0.18342772663E+03  0.31316439795E+03 -0.91568368426E+01  0.36304701018E+03  0.12699999809E+01 0.  1.
</event>
<event>
 5   0  0.1537870E-02  0.8998994E+03  0.7818609E-02  0.9425707E-01
        1   -1    0    0  501    0  0.00000000000E+00  0.00000000000E+00  0.23960094273E+04  0.23960094273E+04  0.50400001928E-02 0.  1.
       -1   -1    0    0    0  501  0.00000000000E+00  0.00000000000E+00 -0.84496628253E+02  0.84496628403E+02  0.50400001928E-02 0. -1.
    10030    2    1    2    0    0  0.00000000000E+00  0.00000000000E+00  0.23115127990E+04  0.24805060557E+04  0.89989936784E+03 0.  0.
        5    1    3    3  502    0  0.41531707733E+03 -0.14533089250E+03  0.89683884326E+03  0.99897514675E+03  0.46999998093E+01 0. -1.
       -5    1    3    3    0  502 -0.41531707733E+03  0.14533089250E+03  0.14146739558E+04  0.14815309090E+04  0.46999998093E+01 0.  1.
</event>
<event>
 5   0  0.2679861E-02  0.9041701E+03  0.7818609E-02  0.9420384E-01
       -2   -1    0    0    0  501  0.00000000000E+00  0.00000000000E+00  0.20675988931E+03  0.20675988933E+03  0.25500000920E-02 0. -1.
        2   -1    0    0  501    0  0.00000000000E+00  0.00000000000E+00 -0.98849394755E+03  0.98849394755E+03  0.25500000920E-02 0.  1.
    10030    2    1    2    0    0  0.00000000000E+00  0.00000000000E+00 -0.78173405824E+03  0.11952538369E+04  0.90417011495E+03 0.  0.
        1    1    3    3  502    0 -0.42217316142E+03 -0.37088333315E+02 -0.59894129756E+03  0.73371411370E+03  0.50400001928E-02 0.  1.
       -1    1    3    3    0  502  0.42217316142E+03  0.37088333315E+02 -0.18279276068E+03  0.46153972318E+03  0.50400001928E-02 0. -1.
</event>
<event>
 5   0  0.1497410E-02  0.9252503E+03  0.7818609E-02  0.9394556E-01
        1   -1    0    0  501    0  0.00000000000E+00  0.00000000000E+00  0.28442844811E+03  0.28442844816E+03  0.50400001928E-02 0. -1.
       -1   -1    0    0    0  501  0.00000000000E+00  0.00000000000E+00 -0.75246356018E+03  0.75246356019E+03  0.50400001928E-02 0.  1.
    10030    2    1    2    0    0  0.00000000000E+00  0.00000000000E+00 -0.46803511206E+03  0.10368920083E+04  0.92525032875E+03 0.  0.
        3    1    3    3  502    0  0.22173063352E+03 -0.98336256950E+02 -0.67548908692E+03  0.71771861479E+03  0.10100000352E+00 0.  1.
       -3    1    3    3    0  502 -0.22173063352E+03  0.98336256950E+02  0.20745397485E+03  0.31917339356E+03  0.10100000352E+00 0. -1.
</event>
<event>
 5   0  0.2628383E-02  0.8893670E+03  0.7818609E-02  0.9438972E-01
        2   -1    0    0  501    0  0.00000000000E+00  0.00000000000E+00  0.45408106773E+03  0.45408106773E+03  0.25500000920E-02 0.  1.
       -2   -1    0    0    0  501  0.00000000000E+00  0.00000000000E+00 -0.43548044995E+03  0.43548044996E+03  0.25500000920E-02 0. -1.
    10030    2    1    2    0    0  0.00000000000E+00  0.00000000000E+00  0.18600617774E+02  0.88956151769E+03  0.88936702816E+03 0.  0.
        2    1    3    3  502    0 -0.28867031735E+03  0.15360093415E+03 -0.29212854569E+03  0.43847791998E+03  0.25500000920E-02 0. -1.
       -2    1    3    3    0  502  0.28867031735E+03 -0.15360093415E+03  0.31072916347E+03  0.45108359772E+03  0.25500000920E-02 0.  1.
</event>
<event>
 5   0  0.2628383E-02  0.8835387E+03  0.7818609E-02  0.9446396E-01
       -2   -1    0    0    0  501  0.00000000000E+00  0.00000000000E+00  0.23266494531E+03  0.23266494533E+03  0.25500000920E-02 0.  1.
        2   -1    0    0  501    0  0.00000000000E+00  0.00000000000E+00 -0.83880347212E+03  0.83880347213E+03  0.25500000920E-02 0. -1.
    10030    2    1    2    0    0  0.00000000000E+00  0.00000000000E+00 -0.60613852681E+03  0.10714684175E+04  0.88353871218E+03 0.  0.
        2    1    3    3  502    0  0.29714932998E+03  0.96195192172E+02 -0.68194653709E+03  0.75006820941E+03  0.25500000920E-02 0. -1.
       -2    1    3    3    0  502 -0.29714932998E+03 -0.96195192172E+02  0.75808010285E+02  0.32140020805E+03  0.25500000920E-02 0.  1.
</event>
<event>
 5   0  0.2705111E-02  0.9138227E+03  0.7818609E-02  0.9408465E-01
       -2   -1    0    0    0  501  0.00000000000E+00  0.00000000000E+00  0.16106519853E+03  0.16106519855E+03  0.25500000920E-02 0.  1.
        2   -1    0    0  501    0  0.00000000000E+00  0.00000000000E+00 -0.12961705246E+04  0.12961705246E+04  0.25500000920E-02 0. -1.
    10030    2    1    2    0    0  0.00000000000E+00  0.00000000000E+00 -0.11351053261E+04  0.14572357231E+04  0.91382265869E+03 0.  0.
        4    1    3    3  502    0 -0.22514870717E+03 -0.38082245927E+03 -0.38539354556E+03  0.58672607210E+03  0.12699999809E+01 0.  1.
       -4    1    3    3    0  502  0.22514870717E+03  0.38082245927E+03 -0.74971178051E+03  0.87050965105E+03  0.12699999809E+01 0. -1.
</event>
<event>
 5   0  0.2414128E-02  0.9204389E+03  0.7818609E-02  0.9400386E-01
       -2   -1    0    0    0  501  0.00000000000E+00  0.00000000000E+00  0.10272618150E+04  0.10272618150E+04  0.25500000920E-02 0.  1.
        2   -1    0    0  501    0  0.00000000000E+00  0.00000000000E+00 -0.20618108917E+03  0.20618108918E+03  0.25500000920E-02 0. -1.
    10030    2    1    2    0    0  0.00000000000E+00  0.00000000000E+00  0.82108072581E+03  0.12334429042E+04  0.92043893851E+03 0.  0.
        3    1    3    3  502    0 -0.39576493428E+03  0.88799006123E+02  0.70194338025E+03  0.81070319228E+03  0.10100000352E+00 0.  1.
       -3    1    3    3    0  502  0.39576493428E+03 -0.88799006123E+02  0.11913734556E+03  0.42273971188E+03  0.10100000352E+00 0. -1.
</event>
<event>
 5   0  0.2679861E-02  0.9271522E+03  0.7818609E-02  0.9392262E-01
        2   -1    0    0  501    0  0.00000000000E+00  0.00000000000E+00  0.83551835851E+03  0.83551835851E+03  0.25500000920E-02 0. -1.
       -2   -1    0    0    0  501  0.00000000000E+00  0.00000000000E+00 -0.25720895890E+03  0.25720895891E+03  0.25500000920E-02 0.  1.
    10030    2    1    2    0    0  0.00000000000E+00  0.00000000000E+00  0.57830939961E+03  0.10927273174E+04  0.92715221434E+03 0.  0.
        1    1    3    3  502    0 -0.27305558368E+03 -0.36578506479E+03  0.38450169617E+03  0.59682461392E+03  0.50400001928E-02 0.  1.
       -1    1    3    3    0  502  0.27305558368E+03  0.36578506479E+03  0.19380770344E+03  0.49590270350E+03  0.50400001928E-02 0. -1.
</event>
<event>
 5   0  0.2803717E-02  0.7764211E+03  0.7818609E-02  0.9594788E-01
        2   -1    0    0  501    0  0.00000000000E+00  0.00000000000E+00  0.13357959611E+04  0.13357959611E+04  0.25500000920E-02 0. -1.
       -2   -1    0    0    0  501  0.00000000000E+00  0.00000000000E+00 -0.11282220291E+03  0.11282220294E+03  0.25500000920E-02 0.  1.
    10030    2    1    2    0    0  0.00000000000E+00  0.00000000000E+00  0.12229737582E+04  0.14486181640E+04  0.77642113055E+03 0.  0.
        5    1    3    3  502    0  0.26174797073E+03  0.11944861262E+03  0.12529390605E+03  0.31384809084E+03  0.46999998093E+01 0.  1.
       -5    1    3    3    0  502 -0.26174797073E+03 -0.11944861262E+03  0.10976798521E+04  0.11347700732E+04  0.46999998093E+01 0. -1.
</event>
<event>
 5   0  0.1560728E-02  0.8895658E+03  0.7818609E-02  0.9438719E-01
        1   -1    0    0  501    0  0.00000000000E+00  0.00000000000E+00  0.37773557786E+03  0.37773557789E+03  0.50400001928E-02 0.  1.
       -1   -1    0    0    0  501  0.00000000000E+00  0.00000000000E+00 -0.52373098797E+03  0.52373098799E+03  0.50400001928E-02 0. -1.
    10030    2    1    2    0    0  0.00000000000E+00  0.00000000000E+00 -0.14599541011E+03  0.90146656589E+03  0.88956579837E+03 0.  0.
        4    1    3    3  502    0  0.31282192356E+02 -0.18943897988E+03 -0.47956890866E+03  0.51657879719E+03  0.12699999809E+01 0. -1.
       -4    1    3    3    0  502 -0.31282192356E+02  0.18943897988E+03  0.33357349855E+03  0.38488776869E+03  0.12699999809E+01 0.  1.
</event>
<event>
 5   0  0.1497410E-02  0.8946571E+03  0.7818609E-02  0.9432285E-01
        1   -1    0    0  501    0  0.00000000000E+00  0.00000000000E+00  0.86879395659E+03  0.86879395661E+03  0.50400001928E-02 0. -1.
       -1   -1    0    0    0  501  0.00000000000E+00  0.00000000000E+00 -0.23032253754E+03  0.23032253760E+03  0.50400001928E-02 0.  1.
    10030    2    1    2    0    0  0.00000000000E+00  0.00000000000E+00  0.63847141905E+03  0.10991164942E+04  0.89465709346E+03 0.  0.
        3    1    3    3  502    0  0.23164739442E+03 -0.21170051755E+03 -0.72404982726E+02  0.32205607617E+03  0.10100000352E+00 0.  1.
       -3    1    3    3    0  502 -0.23164739442E+03  0.21170051755E+03  0.71087640178E+03  0.77706041804E+03  0.10100000352E+00 0. -1.
</event>
<event>
 5   0  0.2705111E-02  0.8933909E+03  0.7818609E-02  0.9433881E-01
        2   -1    0    0  501    0  0.00000000000E+00  0.00000000000E+00  0.66518553479E+03  0.66518553480E+03  0.25500000920E-02 0. -1.
       -2   -1    0    0    0  501  0.00000000000E+00  0.00000000000E+00 -0.29997171110E+03  0.29997171111E+03  0.25500000920E-02 0.  1.
    10030    2    1    2    0    0  0.00000000000E+00  0.00000000000E+00  0.36521382370E+03  0.96515724591E+03  0.89339094036E+03 0.  0.
        4    1    3    3  502    0  0.31396429104E+03  0.21784641210E+03  0.43249874985E+03  0.57713725996E+03  0.12699999809E+01 0. -1.
       -4    1    3    3    0  502 -0.31396429104E+03 -0.21784641210E+03 -0.67284926150E+02  0.38801998595E+03  0.12699999809E+01 0.  1.
</event>
<event>
 5   0  0.2628383E-02  0.8940321E+03  0.7818609E-02  0.9433072E-01
       -2   -1    0    0    0  501  0.00000000000E+00  0.00000000000E+00  0.27292206975E+03  0.27292206976E+03  0.25500000920E-02 0.  1.
        2   -1    0    0  501    0  0.00000000000E+00  0.00000000000E+00 -0.73216264996E+03  0.73216264996E+03  0.25500000920E-02 0. -1.
    10030    2    1    2    0    0  0.00000000000E+00  0.00000000000E+00 -0.45924058021E+03  0.10050847197E+04  0.89403209299E+03 0.  0.
        2    1    3    3  502    0 -0.10291155558E+03  0.24215855027E+03 -0.63588350948E+03  0.68817104660E+03  0.25500000920E-02 0. -1.
       -2    1    3    3    0  502  0.10291155558E+03 -0.24215855027E+03  0.17664292927E+03  0.31691367312E+03  0.25500000920E-02 0.  1.
</event>
<event>
 5   0  0.1537870E-02  0.7078451E+03  0.7818609E-02  0.9703909E-01
       -1   -1    0    0    0  501  0.00000000000E+00  0.00000000000E+00  0.15777635319E+03  0.15777635327E+03  0.50400001928E-02 0.  1.
        1   -1    0    0  501    0  0.00000000000E+00  0.00000000000E+00 -0.79391602663E+03  0.79391602665E+03  0.50400001928E-02 0. -1.
    10030    2    1    2    0    0  0.00000000000E+00  0.00000000000E+00 -0.63613967344E+03  0.95169237991E+03  0.70784511149E+03 0.  0.
        5    1    3    3  502    0  0.10808539995E+02 -0.25689624893E+03 -0.64499603782E+03  0.69437344855E+03  0.46999998093E+01 0. -1.
       -5    1    3    3    0  502 -0.10808539995E+02  0.25689624893E+03  0.88563643792E+01  0.25731893136E+03  0.46999998093E+01 0.  1.
</event>
<event>
 5   0  0.1459111E-02  0.8897384E+03  0.7818609E-02  0.9438501E-01
       -1   -1    0    0    0  501  0.00000000000E+00  0.00000000000E+00  0.39426136775E+03  0.39426136778E+03  0.50400001928E-02 0. -1.
        1   -1    0    0  501    0  0.00000000000E+00  0.00000000000E+00 -0.50197315048E+03  0.50197315050E+03  0.50400001928E-02 0.  1.
    10030    2    1    2    0    0  0.00000000000E+00  0.00000000000E+00 -0.10771178273E+03  0.89623451828E+03  0.88973843551E+03 0.  0.
        2    1    3    3  502    0 -0.21370315539E+03 -0.27734497363E+03 -0.33030334268E+03  0.48134142894E+03  0.25500000920E-02 0.  1.
       -2    1    3    3    0  502  0.21370315539E+03  0.27734497363E+03  0.22259155996E+03  0.41489308935E+03  0.25500000920E-02 0. -1.
</event>
<event>
 5   0  0.2803717E-02  0.8442190E+03  0.7818609E-02  0.9498129E-01
       -2   -1    0    0    0  501  0.00000000000E+00  0.00000000000E+00  0.10432358114E+04  0.10432358114E+04  0.25500000920E-02 0. -1.
        2   -1    0    0  501    0  0.00000000000E+00  0.00000000000E+00 -0.17079210012E+03  0.17079210014E+03  0.25500000920E-02 0.  1.
    10030    2    1    2    0    0  0.00000000000E+00  0.00000000000E+00  0.87244371126E+03  0.12140279115E+04  0.84421901225E+03 0.  0.
        5    1    3    3  502    0  0.30293457373E+03 -0.27857685529E+03  0.30147490565E+03  0.51017999667E+03  0.46999998093E+01 0.  1.
       -5    1    3    3    0  502 -0.30293457373E+03  0.27857685529E+03  0.57096880561E+03  0.70384791486E+03  0.46999998093E+01 0. -1.
</event>
<event>
 5   0  0.1459111E-02  0.9129326E+03  0.7818609E-02  0.9409558E-01
        1   -1    0    0  501    0  0.00000000000E+00  0.00000000000E+00  0.84516103275E+03  0.84516103276E+03  0.50400001928E-02 0.  1.
       -1   -1    0    0    0  501  0.00000000000E+00  0.00000000000E+00 -0.24653467886E+03  0.24653467891E+03  0.50400001928E-02 0. -1.
    10030    2    1    2    0    0  0.00000000000E+00  0.00000000000E+00  0.59862635389E+03  0.10916957117E+04  0.91293264556E+03 0.  0.
        2    1    3    3  502    0  0.27347383104E+03 -0.32368503171E+03  0.50225470757E+03  0.65712991661E+03  0.25500000920E-02 0. -1.
       -2    1    3    3    0  502 -0.27347383104E+03  0.32368503171E+03  0.96371646314E+02  0.43456579506E+03  0.25500000920E-02 0.  1.
</event>
<event>
 5   0  0.1497410E-02  0.8693905E+03  0.7818609E-02  0.9464675E-01
       -1   -1    0    0    0  501  0.00000000000E+00  0.00000000000E+00  0.26080724546E+03  0.26080724551E+03  0.50400001928E-02 0. -1.
        1   -1    0    0  501    0  0.00000000000E+00  0.00000000000E+00 -0.72451958976E+03  0.72451958978E+03  0.50400001928E-02 0.  1.
    10030    2    1    2    0    0  0.00000000000E+00  0.00000000000E+00 -0.46371234430E+03  0.98532683529E+03  0.86939049574E+03 0.  0.
        3    1    3    3  502    0 -0.13746821095E+03  0.26077814218E+02 -0.69830021090E+03  0.71218028346E+03  0.10100000352E+00 0.  1.
       -3    1    3    3    0  502  0.13746821095E+03 -0.26077814218E+02  0.23458786660E+03  0.27314655182E+03  0.10100000352E+00 0. -1.
</event>
<event>
 5   0  0.1559275E-02  0.8724878E+03  0.7818609E-02  0.9460642E-01
       -1   -1    0    0    0  501  0.00000000000E+00  0.00000000000E+00  0.15214671103E+03  0.15214671111E+03  0.50400001928E-02 0.  1.
        1   -1    0    0  501    0  0.00000000000E+00  0.00000000000E+00 -0.12508239719E+04  0.12508239719E+04  0.50400001928E-02 0. -1.
    10030    2    1    2    0    0  0.00000000000E+00  0.00000000000E+00 -0.10986772609E+04  0.14029706831E+04  0.87248783023E+03 0.  0.
        1    1    3    3  502    0 -0.18478526882E+03 -0.14645625792E+03 -0.11395331010E+04  0.11636712247E+04  0.50400001928E-02 0. -1.
       -1    1    3    3    0  502  0.18478526882E+03  0.14645625792E+03  0.40855840071E+02  0.23929945832E+03  0.50400001928E-02 0.  1.
</event>
<event>
 5   0  0.2679861E-02  0.8903942E+03  0.7818609E-02  0.9437669E-01
       -2   -1    0    0    0  501  0.00000000000E+00  0.00000000000E+00  0.18119155331E+03  0.18119155332E+03  0.25500000920E-02 0.  1.
        2   -1    0    0  501    0  0.00000000000E+00  0.00000000000E+00 -0.10938725655E+04  0.10938725655E+04  0.25500000920E-02 0. -1.
    10030    2    1    2    0    0  0.00000000000E+00  0.00000000000E+00 -0.91268101216E+03  0.12750641188E+04  0.89039422565E+03 0.  0.
        1    1    3    3  502    0  0.10477457837E+03 -0.31566519531E+03 -0.88012767161E+03  0.94087562736E+03  0.50400001928E-02 0. -1.
       -1    1    3    3    0  502 -0.10477457837E+03  0.31566519531E+03 -0.32553340551E+02  0.33418849143E+03  0.50400001928E-02 0.  1.
</event>
<event>
 5   0  0.1537870E-02  0.9248127E+03  0.7818609E-02  0.9395085E-01
        1   -1    0    0  501    0  0.00000000000E+00  0.00000000000E+00  0.15465256084E+03  0.15465256093E+03  0.50400001928E-02 0. -1.
       -1   -1    0    0    0  501  0.00000000000E+00  0.00000000000E+00 -0.13825807111E+04  0.13825807111E+04  0.50400001928E-02 0.  1.
    10030    2    1    2    0    0  0.00000000000E+00  0.00000000000E+00 -0.12279281503E+04  0.15372332720E+04  0.92481273264E+03 0.  0.
        5    1    3    3  502    0  0.13837437390E+03 -0.57363559980E+02 -0.13410923002E+04  0.13494401406E+04  0.46999998093E+01 0.  1.
       -5    1    3    3    0  502 -0.13837437390E+03  0.57363559980E+02  0.11316414998E+03  0.18779313141E+03  0.46999998093E+01 0. -1.
</event>
<event>
 5   0  0.2414128E-02  0.9120308E+03  0.7818609E-02  0.9410666E-01
        2   -1    0    0  501    0  0.00000000000E+00  0.00000000000E+00  0.82936107777E+03  0.82936107777E+03  0.25500000920E-02 0. -1.
       -2   -1    0    0    0  501  0.00000000000E+00  0.00000000000E+00 -0.25073521944E+03  0.25073521946E+03  0.25500000920E-02 0.  1.
    10030    2    1    2    0    0  0.00000000000E+00  0.00000000000E+00  0.57862585832E+03  0.10800962972E+04  0.91203077106E+03 0.  0.
        3    1    3    3  502    0 -0.15706100610E+03 -0.39074346346E+03  0.82144444721E+02  0.42906448685E+03  0.10100000352E+00 0.  1.
       -3    1    3    3    0  502  0.15706100610E+03  0.39074346346E+03  0.49648141360E+03  0.65103181038E+03  0.10100000352E+00 0. -1.
</event>
<event>
 5   0  0.2803717E-02  0.8734080E+03  0.7818609E-02  0.9459447E-01
        2   -1    0    0  501    0  0.00000000000E+00  0.00000000000E+00  0.13062949671E+04  0.13062949671E+04  0.25500000920E-02 0. -1.
       -2   -1    0    0    0  501  0.00000000000E+00  0.00000000000E+00 -0.14599336464E+03  0.14599336466E+03  0.25500000920E-02 0.  1.
    10030    2    1    2    0    0  0.00000000000E+00  0.00000000000E+00  0.11603016024E+04  0.14522883317E+04  0.87340803172E+03 0.  0.
        5    1    3    3  502    0  0.23833506560E+03  0.33648453117E+03  0.34113262512E+03  0.53518127876E+03  0.46999998093E+01 0.  1.
       -5    1    3    3    0  502 -0.23833506560E+03 -0.33648453117E+03  0.81916897731E+03  0.91710705297E+03  0.46999998093E+01 0. -1.
</event>
<event>
 5   0  0.2705111E-02  0.8900478E+03  0.7818609E-02  0.9438108E-01
       -2   -1    0    0    0  501  0.00000000000E+00  0.00000000000E+00  0.42319038391E+03  0.42319038392E+03  0.25500000920E-02 0.  1.
        2   -1    0    0  501    0  0.00000000000E+00  0.00000000000E+00 -0.46798385830E+03  0.46798385831E+03  0.25500000920E-02 0. -1.
    10030    2    1    2    0    0  0.00000000000E+00  0.00000000000E+00 -0.44793474391E+02  0.89117424222E+03  0.89004779347E+03 0.  0.
        4    1    3    3  502    0  0.35304389216E+03 -0.99878575258E+02  0.22977302647E+03  0.43291220378E+03  0.12699999809E+01 0.  1.
       -4    1    3    3    0  502 -0.35304389216E+03  0.99878575258E+02 -0.27456650086E+03  0.45826203845E+03  0.12699999809E+01 0. -1.
</event>
<event>
 5   0  0.2679861E-02  0.8688442E+03  0.7818609E-02  0.9465388E-01
        2   -1    0    0  501    0  0.00000000000E+00  0.00000000000E+00  0.34893760653E+03  0.34893760654E+03  0.25500000920E-02 0. -1.
       -2   -1    0    0    0  501  0.00000000000E+00  0.00000000000E+00 -0.54084906318E+03  0.54084906318E+03  0.25500000920E-02 0.  1.
    10030    2    1    2    0    0  0.00000000000E+00  0.00000000000E+00 -0.19191145665E+03  0.88978666972E+03  0.86884423830E+03 0.  0.
        1    1    3    3  502    0 -0.28642405788E+03 -0.28191365781E+03  0.72970263913E+02  0.40845894633E+03  0.50400001928E-02 0. -1.
       -1    1    3    3    0  502  0.28642405788E+03  0.28191365781E+03 -0.26488172056E+03  0.48132772339E+03  0.50400001928E-02 0.  1.
</event>
<event>
 5   0  0.1459111E-02  0.8910931E+03  0.7818609E-02  0.9436785E-01
       -1   -1    0    0    0  501  0.00000000000E+00  0.00000000000E+00  0.57768212376E+03  0.57768212378E+03  0.50400001928E-02 0. -1.
        1   -1    0    0  501    0  0.00000000000E+00  0.00000000000E+00 -0.34363486351E+03  0.34363486355E+03  0.50400001928E-02 0.  1.
    10030    2    1    2    0    0  0.00000000000E+00  0.00000000000E+00  0.23404726024E+03  0.92131698732E+03  0.89109307657E+03 0.  0.
        2    1    3    3  502    0 -0.36202442583E+03  0.35507843274E+02  0.38302241978E+03  0.52823164037E+03  0.25500000920E-02 0. -1.
       -2    1    3    3    0  502  0.36202442583E+03 -0.35507843274E+02 -0.14897515953E+03  0.39308534696E+03  0.25500000920E-02 0.  1.
</event>
<event>
 5   0  0.1497410E-02  0.8936743E+03  0.7818609E-02  0.9433524E-01
       -1   -1    0    0    0  501  0.00000000000E+00  0.00000000000E+00  0.64200216756E+03  0.64200216758E+03  0.50400001928E-02 0.  1.
        1   -1    0    0  501    0  0.00000000000E+00  0.00000000000E+00 -0.31100118866E+03  0.31100118870E+03  0.50400001928E-02 0. -1.
    10030    2    1    2    0    0  0.00000000000E+00  0.00000000000E+00  0.33100097890E+03  0.95300335628E+03  0.89367429696E+03 0.  0.
        3    1    3    3  502    0  0.24384293603E+03 -0.32334357356E+03 -0.35854826183E+02  0.40656613579E+03  0.10100000352E+00 0. -1.
       -3    1    3    3    0  502 -0.24384293603E+03  0.32334357356E+03  0.36685580509E+03  0.54643722049E+03  0.10100000352E+00 0.  1.
</event>
<event>
 5   0  0.1040163E-02  0.8963740E+03  0.7818609E-02  0.9430125E-01
       -3   -1    0    0    0  501  0.00000000000E+00  0.00000000000E+00  0.65068931220E+03  0.65068932003E+03  0.10100000352E+00 0. -1.
        3   -1    0    0  501    0  0.00000000000E+00  0.00000000000E+00 -0.30870580655E+03  0.30870582307E+03  0.10100000352E+00 0.  1.
    10030    2    1    2    0    0  0.00000000000E+00  0.00000000000E+00  0.34198350565E+03  0.95939514310E+03  0.89637398583E+03 0.  0.
        4    1    3    3  502    0 -0.27949520843E+03 -0.81452340220E+02 -0.19372682119E+03  0.34969093413E+03  0.12699999809E+01 0.  1.
       -4    1    3    3    0  502  0.27949520843E+03  0.81452340220E+02  0.53571032684E+03  0.60970420898E+03  0.12699999809E+01 0. -1.
</event>
<event>
 5   0  0.2414128E-02  0.8757434E+03  0.7818609E-02  0.9456422E-01
        2   -1    0    0  501    0  0.00000000000E+00  0.00000000000E+00  0.56770577084E+03  0.56770577084E+03  0.25500000920E-02 0. -1.
       -2   -1    0    0    0  501  0.00000000000E+00  0.00000000000E+00 -0.33773065196E+03  0.33773065196E+03  0.25500000920E-02 0.  1.
    10030    2    1    2    0    0  0.00000000000E+00  0.00000000000E+00  0.22997511888E+03  0.90543642281E+03  0.87574343300E+03 0.  0.
        3    1    3    3  502    0 -0.40586603213E+03  0.10433683641E+03 -0.16274613720E+02  0.41937845047E+03  0.10100000352E+00 0. -1.
       -3    1    3    3    0  502  0.40586603213E+03 -0.10433683641E+03  0.24624973260E+03  0.48605797234E+03  0.10100000352E+00 0.  1.
</event>
<event>
 5   0  0.2414128E-02  0.9013000E+03  0.7818609E-02  0.9423958E-01
       -2   -1    0    0    0  501  0.00000000000E+00  0.00000000000E+00  0.16185816381E+03  0.16185816383E+03  0.25500000920E-02 0.  1.
        2   -1    0    0  501    0  0.00000000000E+00  0.00000000000E+00 -0.12547121639E+04  0.12547121639E+04  0.25500000920E-02 0. -1.
    10030    2    1    2    0    0  0.00000000000E+00  0.00000000000E+00 -0.10928540001E+04  0.14165703277E+04  0.90129996556E+03 0.  0.
        3    1    3    3  502    0  0.16834626763E+03 -0.27740633156E+03 -0.10379201515E+04  0.10874617187E+04  0.10100000352E+00 0. -1.
       -3    1    3    3    0  502 -0.16834626763E+03  0.27740633156E+03 -0.54933848610E+02  0.32910860903E+03  0.10100000352E+00 0.  1.
</event>
<event>
 5   0  0.1459111E-02  0.9185322E+03  0.7818609E-02  0.9402707E-01
        1   -1    0    0  501    0  0.00000000000E+00  0.00000000000E+00  0.29807610261E+03  0.29807610265E+03  0.50400001928E-02 0. -1.
       -1   -1    0    0    0  501  0.00000000000E+00  0.00000000000E+00 -0.70762241085E+03  0.70762241086E+03  0.50400001928E-02 0.  1.
    10030    2    1    2    0    0  0.00000000000E+00  0.00000000000E+00 -0.40954630824E+03  0.10056985135E+04  0.91853215594E+03 0.  0.
        2    1    3    3  502    0 -0.15430709408E+03 -0.20945631951E+03  0.20961725449E+03  0.33409882138E+03  0.25500000920E-02 0. -1.
       -2    1    3    3    0  502  0.15430709408E+03  0.20945631951E+03 -0.61916356272E+03  0.67159969213E+03  0.25500000920E-02 0.  1.
</event>
<event>
 5   0  0.1559275E-02  0.7157617E+03  0.7818609E-02  0.9690651E-01
        1   -1    0    0  501    0  0.00000000000E+00  0.00000000000E+00  0.84298481600E+03  0.84298481602E+03  0.50400001928E-02 0.  1.
       -1   -1    0    0    0  501  0.00000000000E+00  0.00000000000E+00 -0.15193476262E+03  0.15193476271E+03  0.50400001928E-02 0. -1.
    10030    2    1    2    0    0  0.00000000000E+00  0.00000000000E+00  0.69105005338E+03  0.99491957872E+03  0.71576168650E+03 0.  0.
        1    1    3    3  502    0 -0.10051553135E+03  0.62401718821E+02  0.81501558003E+03  0.82355797748E+03  0.50400001928E-02 0.  1.
       -1    1    3    3    0  502  0.10051553135E+03 -0.62401718821E+02 -0.12396552666E+03  0.17136160124E+03  0.50400001928E-02 0. -1.
</event>
<event>
 5   0  0.2803717E-02  0.1050885E+04  0.7818609E-02  0.9254431E-01
        2   -1    0    0  501    0  0.00000000000E+00  0.00000000000E+00  0.97017195840E+03  0.97017195840E+03  0.25500000920E-02 0.  1.
       -2   -1    0    0    0  501  0.00000000000E+00  0.00000000000E+00 -0.28457826897E+03  0.28457826898E+03  0.25500000920E-02 0. -1.
    10030    2    1    2    0    0  0.00000000000E+00  0.00000000000E+00  0.68559368943E+03  0.12547502274E+04  0.10508850680E+04 0.  0.
        5    1    3    3  502    0 -0.27651429186E+03  0.35376673180E+03  0.16994661658E+02  0.44935727729E+03  0.46999998093E+01 0. -1.
       -5    1    3    3    0  502  0.27651429186E+03 -0.35376673180E+03  0.66859902777E+03  0.80539295009E+03  0.46999998093E+01 0.  1.
</event>
<event>
 5   0  0.1560728E-02  0.6145766E+03  0.7818609E-02  0.9875617E-01
       -1   -1    0    0    0  501  0.00000000000E+00  0.00000000000E+00  0.99034313632E+02  0.99034313760E+02  0.50400001928E-02 0. -1.
        1   -1    0    0  501    0  0.00000000000E+00  0.00000000000E+00 -0.95346848728E+03  0.95346848730E+03  0.50400001928E-02 0.  1.
    10030    2    1    2    0    0  0.00000000000E+00  0.00000000000E+00 -0.85443417365E+03  0.10525028011E+04  0.61457659338E+03 0.  0.
        4    1    3    3  502    0  0.29129555517E+03  0.67506015539E+02 -0.30594709598E+03  0.42780299325E+03  0.12699999809E+01 0.  1.
       -4    1    3    3    0  502 -0.29129555517E+03 -0.67506015539E+02 -0.54848707767E+03  0.62469980780E+03  0.12699999809E+01 0. -1.
</event>
<event>
 5   0  0.1560728E-02  0.8953404E+03  0.7818609E-02  0.9431425E-01
       -1   -1    0    0    0  501  0.00000000000E+00  0.00000000000E+00  0.29196271496E+03  0.29196271501E+03  0.50400001928E-02 0. -1.
        1   -1    0    0  501    0  0.00000000000E+00  0.00000000000E+00 -0.68641848085E+03  0.68641848087E+03  0.50400001928E-02 0.  1.
    10030    2    1    2    0    0  0.00000000000E+00  0.00000000000E+00 -0.39445576589E+03  0.97838119588E+03  0.89534038957E+03 0.  0.
        4    1    3    3  502    0  0.12205682593E+03  0.42510745083E+03 -0.27287868332E+03  0.51969087179E+03  0.12699999809E+01 0.  1.
       -4    1    3    3    0  502 -0.12205682593E+03 -0.42510745083E+03 -0.12157708257E+03  0.45869032409E+03  0.12699999809E+01 0. -1.
</event>
<event>
 5   0  0.2705111E-02  0.8188705E+03  0.7818609E-02  0.9533098E-01
       -2   -1    0    0    0  501  0.00000000000E+00  0.00000000000E+00  0.13560587007E+03  0.13560587010E+03  0.25500000920E-02 0.  1.
        2   -1    0    0  501    0  0.00000000000E+00  0.00000000000E+00 -0.12362090957E+04  0.12362090957E+04  0.25500000920E-02 0. -1.
    10030    2    1    2    0    0  0.00000000000E+00  0.00000000000E+00 -0.11006032256E+04  0.13718149658E+04  0.81887046602E+03 0.  0.
        4    1    3    3  502    0 -0.14353756488E+03 -0.91705571401E+02 -0.11740327593E+04  0.11863251987E+04  0.12699999809E+01 0. -1.
       -4    1    3    3    0  502  0.14353756488E+03  0.91705571401E+02  0.73429533694E+02  0.18548976704E+03  0.12699999809E+01 0.  1.
</event>
<event>
 5   0  0.1559275E-02  0.8935426E+03  0.7818609E-02  0.9433690E-01
       -1   -1    0    0    0  501  0.00000000000E+00  0.00000000000E+00  0.28211287917E+03  0.28211287922E+03  0.50400001928E-02 0. -1.
        1   -1    0    0  501    0  0.00000000000E+00  0.00000000000E+00 -0.70753450183E+03  0.70753450185E+03  0.50400001928E-02 0.  1.
    10030    2    1    2    0    0  0.00000000000E+00  0.00000000000E+00 -0.42542162266E+03  0.98964738106E+03  0.89354260213E+03 0.  0.
        1    1    3    3  502    0  0.15286168910E+03  0.39025447451E+03 -0.38407550303E+03  0.56848856006E+03  0.50400001928E-02 0.  1.
       -1    1    3    3    0  502 -0.15286168910E+03 -0.39025447451E+03 -0.41346119629E+02  0.42115882100E+03  0.50400001928E-02 0. -1.
</event>
<event>
 5   0  0.1559275E-02  0.8958790E+03  0.7818609E-02  0.9430748E-01
       -1   -1    0    0    0  501  0.00000000000E+00  0.00000000000E+00  0.21611477487E+03  0.21611477493E+03  0.50400001928E-02 0.  1.
        1   -1    0    0  501    0  0.00000000000E+00  0.00000000000E+00 -0.92844085092E+03  0.92844085094E+03  0.50400001928E-02 0. -1.
    10030    2    1    2    0    0  0.00000000000E+00  0.00000000000E+00 -0.71232607606E+03  0.11445556259E+04  0.89587897735E+03 0.  0.
        1    1    3    3  502    0  0.13557223933E+03  0.42303699518E+03 -0.42966160365E+03  0.61802040828E+03  0.50400001928E-02 0.  1.
       -1    1    3    3    0  502 -0.13557223933E+03 -0.42303699518E+03 -0.28266447241E+03  0.52653521759E+03  0.50400001928E-02 0. -1.
</event>
<event>
 5   0  0.1559275E-02  0.9279316E+03  0.7818609E-02  0.9391324E-01
        1   -1    0    0  501    0  0.00000000000E+00  0.00000000000E+00  0.13539882763E+04  0.13539882763E+04  0.50400001928E-02 0.  1.
       -1   -1    0    0    0  501  0.00000000000E+00  0.00000000000E+00 -0.15898531887E+03  0.15898531895E+03  0.50400001928E-02 0. -1.
    10030    2    1    2    0    0  0.00000000000E+00  0.00000000000E+00  0.11950029574E+04  0.15129735953E+04  0.92793158783E+03 0.  0.
        1    1    3    3  502    0  0.28292803444E+03 -0.10051364519E+03  0.20779376569E+02  0.30097017802E+03  0.50400001928E-02 0. -1.
       -1    1    3    3    0  502 -0.28292803444E+03  0.10051364519E+03  0.11742235809E+04  0.12120034172E+04  0.50400001928E-02 0.  1.
</event>
<event>
 5   0  0.1537870E-02  0.8888926E+03  0.7818609E-02  0.9439574E-01
       -1   -1    0    0    0  501  0.00000000000E+00  0.00000000000E+00  0.51736269790E+03  0.51736269793E+03  0.50400001928E-02 0. -1.
        1   -1    0    0  501    0  0.00000000000E+00  0.00000000000E+00 -0.38180666256E+03  0.38180666259E+03  0.50400001928E-02 0.  1.
    10030    2    1    2    0    0  0.00000000000E+00  0.00000000000E+00  0.13555603535E+03  0.89916936052E+03  0.88889262578E+03 0.  0.
        5    1    3    3  502    0  0.16599470000E+03 -0.15676981919E+03 -0.31791667248E+03  0.39143852299E+03  0.46999998093E+01 0.  1.
       -5    1    3    3    0  502 -0.16599470000E+03  0.15676981919E+03  0.45347270783E+03  0.50773083753E+03  0.46999998093E+01 0. -1.
</event>
<event>
 5   0  0.1497410E-02  0.1105135E+04  0.7818609E-02  0.9200202E-01
       -1   -1    0    0    0  501  0.00000000000E+00  0.00000000000E+00  0.95571546523E+03  0.95571546524E+03  0.50400001928E-02 0.  1.
        1   -1    0    0  501    0  0.00000000000E+00  0.00000000000E+00 -0.31947865168E+03  0.31947865172E+03  0.50400001928E-02 0. -1.
    10030    2    1    2    0    0  0.00000000000E+00  0.00000000000E+00  0.63623681355E+03  0.12751941170E+04  0.11051347217E+04 0.  0.
        3    1    3    3  502    0  0.14215032960E+03 -0.49817418216E+03  0.96325623381E+02  0.52693725234E+03  0.10100000352E+00 0. -1.
       -3    1    3    3    0  502 -0.14215032960E+03  0.49817418216E+03  0.53991119017E+03  0.74825686462E+03  0.10100000352E+00 0.  1.
</event>
<event>
 5   0  0.1459111E-02  0.9332144E+03  0.7818609E-02  0.9384988E-01
       -1   -1    0    0    0  501  0.00000000000E+00  0.00000000000E+00  0.38449764238E+03  0.38449764241E+03  0.50400001928E-02 0. -1.
        1   -1    0    0  501    0  0.00000000000E+00  0.00000000000E+00 -0.56625129030E+03  0.56625129033E+03  0.50400001928E-02 0.  1.
    10030    2    1    2    0    0  0.00000000000E+00  0.00000000000E+00 -0.18175364792E+03  0.95074893274E+03  0.93321441511E+03 0.  0.
        2    1    3    3  502    0 -0.13921595741E+03  0.22260540365E+03 -0.48385498487E+03  0.55049967749E+03  0.25500000920E-02 0.  1.
       -2    1    3    3    0  502  0.13921595741E+03 -0.22260540365E+03  0.30210133695E+03  0.40024925524E+03  0.25500000920E-02 0. -1.
</event>
<event>
 5   0  0.1459111E-02  0.9149168E+03  0.7818609E-02  0.9407124E-01
        1   -1    0    0  501    0  0.00000000000E+00  0.00000000000E+00  0.15237220422E+04  0.15237220422E+04  0.50400001928E-02 0.  1.
       -1   -1    0    0    0  501  0.00000000000E+00  0.00000000000E+00 -0.13734012304E+03  0.13734012313E+03  0.50400001928E-02 0. -1.
    10030    2    1    2    0    0  0.00000000000E+00  0.00000000000E+00  0.13863819192E+04  0.16610621653E+04  0.91491676743E+03 0.  0.
        2    1    3    3  502    0 -0.30127593099E+03  0.64191499611E+00  0.13181686672E+04  0.13521598403E+04  0.25500000920E-02 0.  1.
       -2    1    3    3    0  502  0.30127593099E+03 -0.64191499611E+00  0.68213251998E+02  0.30890232502E+03  0.25500000920E-02 0. -1.
</event>
<event>
 5   0  0.1459111E-02  0.8985206E+03  0.7818609E-02  0.9427433E-01
        1   -1    0    0  501    0  0.00000000000E+00  0.00000000000E+00  0.14498048036E+04  0.14498048036E+04  0.50400001928E-02 0. -1.
       -1   -1    0    0    0  501  0.00000000000E+00  0.00000000000E+00 -0.13921515254E+03  0.13921515263E+03  0.50400001928E-02 0.  1.
    10030    2    1    2    0    0  0.00000000000E+00  0.00000000000E+00  0.13105896511E+04  0.15890199563E+04  0.89852055505E+03 0.  0.
        2    1    3    3  502    0 -0.30634025567E+02 -0.27068710466E+01 -0.13735148341E+03  0.14075226703E+03  0.25500000920E-02 0.  1.
       -2    1    3    3    0  502  0.30634025567E+02  0.27068710466E+01  0.14479411345E+04  0.14482676892E+04  0.25500000920E-02 0. -1.
</event>
<event>
 5   0  0.2414128E-02  0.8637143E+03  0.7818609E-02  0.9472113E-01
       -2   -1    0    0    0  501  0.00000000000E+00  0.00000000000E+00  0.20834561160E+03  0.20834561162E+03  0.25500000920E-02 0. -1.
        2   -1    0    0  501    0  0.00000000000E+00  0.00000000000E+00 -0.89515012182E+03  0.89515012182E+03  0.25500000920E-02 0.  1.
    10030    2    1    2    0    0  0.00000000000E+00  0.00000000000E+00 -0.68680451022E+03  0.11034957334E+04  0.86371430373E+03 0.  0.
        3    1    3    3  502    0 -0.18973629511E+03  0.44125005815E+02 -0.83582975685E+03  0.85822973058E+03  0.10100000352E+00 0.  1.
       -3    1    3    3    0  502  0.18973629511E+03 -0.44125005815E+02  0.14902524663E+03  0.24526600286E+03  0.10100000352E+00 0. -1.
</event>
<event>
 5   0  0.1559275E-02  0.9012326E+03  0.7818609E-02  0.9424042E-01
        1   -1    0    0  501    0  0.00000000000E+00  0.00000000000E+00  0.38812501469E+03  0.38812501472E+03  0.50400001928E-02 0.  1.
       -1   -1    0    0    0  501  0.00000000000E+00  0.00000000000E+00 -0.52316924457E+03  0.52316924460E+03  0.50400001928E-02 0. -1.
    10030    2    1    2    0    0  0.00000000000E+00  0.00000000000E+00 -0.13504422988E+03  0.91129425932E+03  0.90123264646E+03 0.  0.
        1    1    3    3  502    0  0.12564553224E+03  0.36911716232E+03  0.16087747229E+03  0.42180071172E+03  0.50400001928E-02 0. -1.
       -1    1    3    3    0  502 -0.12564553224E+03 -0.36911716232E+03 -0.29592170218E+03  0.48949354759E+03  0.50400001928E-02 0.  1.
</event>
<event>
 5   0  0.1537870E-02  0.8639768E+03  0.7818609E-02  0.9471767E-01
        1   -1    0    0  501    0  0.00000000000E+00  0.00000000000E+00  0.24658364354E+04  0.24658364354E+04  0.50400001928E-02 0. -1.
       -1   -1    0    0    0  501  0.00000000000E+00  0.00000000000E+00 -0.75679789793E+02  0.75679789961E+02  0.50400001928E-02 0.  1.
    10030    2    1    2    0    0  0.00000000000E+00  0.00000000000E+00  0.23901566456E+04  0.25415162253E+04  0.86397681291E+03 0.  0.
        5    1    3    3  502    0  0.83624119322E+02 -0.26266467405E+03  0.21733972922E+04  0.21908134572E+04  0.46999998093E+01 0. -1.
       -5    1    3    3    0  502 -0.83624119322E+02  0.26266467405E+03  0.21675935335E+03  0.35070276815E+03  0.46999998093E+01 0.  1.
</event>
<event>
 5   0  0.2414128E-02  0.9008646E+03  0.7818609E-02  0.9424501E-01
       -2   -1    0    0    0  501  0.00000000000E+00  0.00000000000E+00  0.97675937270E+02  0.97675937303E+02  0.25500000920E-02 0.  1.
        2   -1    0    0  501    0  0.00000000000E+00  0.00000000000E+00 -0.20771673532E+04  0.20771673532E+04  0.25500000920E-02 0. -1.
    10030    2    1    2    0    0  0.00000000000E+00  0.00000000000E+00 -0.19794914160E+04  0.21748432905E+04  0.90086462497E+03 0.  0.
        3    1    3    3  502    0 -0.35046949762E+02  0.15716838287E+03  0.25812563275E+02  0.16308429687E+03  0.10100000352E+00 0.  1.
       -3    1    3    3    0  502  0.35046949762E+02 -0.15716838287E+03 -0.20053039792E+04  0.20117589937E+04  0.10100000352E+00 0. -1.
</event>
<event>
 5   0  0.1560728E-02  0.8364930E+03  0.7818609E-02  0.9508647E-01
       -1   -1    0    0    0  501  0.00000000000E+00  0.00000000000E+00  0.29470140562E+03  0.29470140566E+03  0.50400001928E-02 0. -1.
        1   -1    0    0  501    0  0.00000000000E+00  0.00000000000E+00 -0.59358435930E+03  0.59358435932E+03  0.50400001928E-02 0.  1.
    10030    2    1    2    0    0  0.00000000000E+00  0.00000000000E+00 -0.29888295368E+03  0.88828576498E+03  0.83649302464E+03 0.  0.
        4    1    3    3  502    0  0.13711801719E+03 -0.10795601927E+03  0.25418834143E+03  0.30833290216E+03  0.12699999809E+01 0. -1.
       -4    1    3    3    0  502 -0.13711801719E+03  0.10795601927E+03 -0.55307129511E+03  0.57995286283E+03  0.12699999809E+01 0.  1.
</event>
<event>
 5   0  0.2705111E-02  0.9275971E+03  0.7818609E-02  0.9391726E-01
        2   -1    0    0  501    0  0.00000000000E+00  0.00000000000E+00  0.15633231912E+04  0.15633231912E+04  0.25500000920E-02 0.  1.
       -2   -1    0    0    0  501  0.00000000000E+00  0.00000000000E+00 -0.13759733722E+03  0.13759733725E+03  0.25500000920E-02 0. -1.
    10030    2    1    2    0    0  0.00000000000E+00  0.00000000000E+00  0.14257258539E+04  0.17009205284E+04  0.92759712881E+03 0.  0.
        4    1    3    3  502    0 -0.36747070439E+03 -0.17933259695E+03  0.11142371525E+04  0.11868955067E+04  0.12699999809E+01 0.  1.
       -4    1    3    3    0  502  0.36747070439E+03  0.17933259695E+03  0.31148870141E+03  0.51402502169E+03  0.12699999809E+01 0. -1.
</event>
<event>
 5   0  0.2679861E-02  0.9226915E+03  0.7818609E-02  0.9397652E-01
        2   -1    0    0  501    0  0.00000000000E+00  0.00000000000E+00  0.17599948687E+04  0.17599948687E+04  0.25500000920E-02 0. -1.
       -2   -1    0    0    0  501  0.00000000000E+00  0.00000000000E+00 -0.12093210678E+03  0.12093210680E+03  0.25500000920E-02 0.  1.
    10030    2    1    2    0    0  0.00000000000E+00  0.00000000000E+00  0.16390627619E+04  0.18809269755E+04  0.92269147047E+03 0.  0.
        1    1    3    3  502    0  0.25076689475E+03  0.30915082717E+03  0.34415074066E+03  0.52621098598E+03  0.50400001928E-02 0.  1.
       -1    1    3    3    0  502 -0.25076689475E+03 -0.30915082717E+03  0.12949120213E+04  0.13547159895E+04  0.50400001928E-02 0. -1.
</event>
<event>
 5   0  0.1497410E-02  0.8869061E+03  0.7818609E-02  0.9442099E-01
       -1   -1    0    0    0  501  0.00000000000E+00  0.00000000000E+00  0.81592427957E+03  0.81592427959E+03  0.50400001928E-02 0.  1.
        1   -1    0    0  501    0  0.00000000000E+00  0.00000000000E+00 -0.24101573007E+03  0.24101573012E+03  0.50400001928E-02 0. -1.
    10030    2    1    2    0    0  0.00000000000E+00  0.00000000000E+00  0.57490854950E+03  0.10569400097E+04  0.88690605130E+03 0.  0.
        3    1    3    3  502    0 -0.42530706143E+03 -0.12125539673E+03  0.32628315034E+03  0.54959045856E+03  0.10100000352E+00 0. -1.
       -3    1    3    3    0  502  0.42530706143E+03  0.12125539673E+03  0.24862539917E+03  0.50734955115E+03  0.10100000352E+00 0.  1.
</event>
<event>
 5   0  0.2414128E-02  0.9523518E+03  0.7818609E-02  0.9362406E-01
       -2   -1    0    0    0  501  0.00000000000E+00  0.00000000000E+00  0.10386947352E+03  0.10386947355E+03  0.25500000920E-02 0.  1.
        2   -1    0    0  501    0  0.00000000000E+00  0.00000000000E+00 -0.21829657786E+04  0.21829657786E+04  0.25500000920E-02 0. -1.
    10030    2    1    2    0    0  0.00000000000E+00  0.00000000000E+00 -0.20790963051E+04  0.22868352522E+04  0.95235183872E+03 0.  0.
        3    1    3    3  502    0 -0.33874584328E+03 -0.29808964752E+03 -0.14048012455E+04  0.14754906757E+04  0.10100000352E+00 0. -1.
       -3    1    3    3    0  502  0.33874584328E+03  0.29808964752E+03 -0.67429505960E+03  0.81134457655E+03  0.10100000352E+00 0.  1.
</event>
<event>
 5   0  0.1560728E-02  0.8996349E+03  0.7818609E-02  0.9426038E-01
       -1   -1    0    0    0  501  0.00000000000E+00  0.00000000000E+00  0.17870380070E+03  0.17870380077E+03  0.50400001928E-02 0. -1.
        1   -1    0    0  501    0  0.00000000000E+00  0.00000000000E+00 -0.11322408593E+04  0.11322408593E+04  0.50400001928E-02 0.  1.
    10030    2    1    2    0    0  0.00000000000E+00  0.00000000000E+00 -0.95353705859E+03  0.13109446601E+04  0.89963491465E+03 0.  0.
        4    1    3    3  502    0 -0.41938299203E+03 -0.63103387734E+02 -0.25833485174E+03  0.49659101892E+03  0.12699999809E+01 0.  1.
       -4    1    3    3    0  502  0.41938299203E+03  0.63103387734E+02 -0.69520220685E+03  0.81435364115E+03  0.12699999809E+01 0. -1.
</event>
<event>
 5   0  0.2628383E-02  0.8997104E+03  0.7818609E-02  0.9425943E-01
       -2   -1    0    0    0  501  0.00000000000E+00  0.00000000000E+00  0.14447841614E+03  0.14447841616E+03  0.25500000920E-02 0. -1.
        2   -1    0    0  501    0  0.00000000000E+00  0.00000000000E+00 -0.14006916549E+04  0.14006916550E+04  0.25500000920E-02 0.  1.
    10030    2    1    2    0    0  0.00000000000E+00  0.00000000000E+00 -0.12562132388E+04  0.15451700711E+04  0.89971042413E+03 0.  0.
        2    1    3    3  502    0 -0.14906779965E+03  0.20443410047E+03  0.10702755236E+02  0.25323716019E+03  0.25500000920E-02 0. -1.
       -2    1    3    3    0  502  0.14906779965E+03 -0.20443410047E+03 -0.12669159940E+04  0.12919329109E+04  0.25500000920E-02 0.  1.
</event>
<event>
 5   0  0.1560728E-02  0.8903301E+03  0.7818609E-02  0.9437751E-01
        1   -1    0    0  501    0  0.00000000000E+00  0.00000000000E+00  0.69902207210E+03  0.69902207212E+03  0.50400001928E-02 0. -1.
       -1   -1    0    0    0  501  0.00000000000E+00  0.00000000000E+00 -0.28349880669E+03  0.28349880674E+03  0.50400001928E-02 0.  1.
    10030    2    1    2    0    0  0.00000000000E+00  0.00000000000E+00  0.41552326541E+03  0.98252087886E+03  0.89033010355E+03 0.  0.
        4    1    3    3  502    0  0.11284180771E+03  0.12358081024E+03  0.66298612452E+03  0.68378191292E+03  0.12699999809E+01 0. -1.
       -4    1    3    3    0  502 -0.11284180771E+03 -0.12358081024E+03 -0.24746285911E+03  0.29873896594E+03  0.12699999809E+01 0.  1.
</event>
<event>
 5   0  0.1560728E-02  0.9117488E+03  0.7818609E-02  0.9411013E-01
        1   -1    0    0  501    0  0.00000000000E+00  0.00000000000E+00  0.20551231883E+04  0.20551231883E+04  0.50400001928E-02 0. -1.
       -1   -1    0    0    0  501  0.00000000000E+00  0.00000000000E+00 -0.10112361135E+03  0.10112361147E+03  0.50400001928E-02 0.  1.
    10030    2    1    2    0    0  0.00000000000E+00  0.00000000000E+00  0.19539995770E+04  0.21562467998E+04  0.91174882223E+03 0.  0.
        4    1    3    3  502    0  0.35114980765E+03 -0.43071365765E+02  0.29706523669E+03  0.46196395716E+03  0.12699999809E+01 0.  1.
       -4    1    3    3    0  502 -0.35114980765E+03  0.43071365765E+02  0.16569343403E+04  0.16942828427E+04  0.12699999809E+01 0. -1.
</event>
<event>
 5   0  0.1459111E-02  0.8941566E+03  0.7818609E-02  0.9432916E-01
       -1   -1    0    0    0  501  0.00000000000E+00  0.00000000000E+00  0.14977205871E+03  0.14977205879E+03  0.50400001928E-02 0. -1.
        1   -1    0    0  501    0  0.00000000000E+00  0.00000000000E+00 -0.13345546636E+04  0.13345546636E+04  0.50400001928E-02 0.  1.
    10030    2    1    2    0    0  0.00000000000E+00  0.00000000000E+00 -0.11847826049E+04  0.14843267224E+04  0.89415658471E+03 0.  0.
        2    1    3    3  502    0 -0.29882176502E+03 -0.23448834647E+03 -0.98381977690E+03  0.10545997275E+04  0.25500000920E-02 0.  1.
       -2    1    3    3    0  502  0.29882176502E+03  0.23448834647E+03 -0.20096282798E+03  0.42972699486E+03  0.25500000920E-02 0. -1.
</event>
<event>
 5   0  0.2628383E-02  0.8719661E+03  0.7818609E-02  0.9461320E-01
        2   -1    0    0  501    0  0.00000000000E+00  0.00000000000E+00  0.41765095937E+03  0.41765095938E+03  0.25500000920E-02 0.  1.
       -2   -1    0    0    0  501  0.00000000000E+00  0.00000000000E+00 -0.45511980819E+03  0.45511980819E+03  0.25500000920E-02 0. -1.
    10030    2    1    2    0    0  0.00000000000E+00  0.00000000000E+00 -0.37468848814E+02  0.87277076758E+03  0.87196611064E+03 0.  0.
        2    1    3    3  502    0  0.10960969236E+03  0.91497651605E+02  0.39358639244E+03  0.41868407329E+03  0.25500000920E-02 0.  1.
       -2    1    3    3    0  502 -0.10960969236E+03 -0.91497651605E+02 -0.43105524125E+03  0.45408669428E+03  0.25500000920E-02 0. -1.
</event>
<event>
 5   0  0.2679861E-02  0.9945765E+03  0.7818609E-02  0.9314513E-01
        2   -1    0    0  501    0  0.00000000000E+00  0.00000000000E+00  0.15152169213E+04  0.15152169213E+04  0.25500000920E-02 0.  1.
       -2   -1    0    0    0  501  0.00000000000E+00  0.00000000000E+00 -0.16320805696E+03  0.16320805698E+03  0.25500000920E-02 0. -1.
    10030    2    1    2    0    0  0.00000000000E+00  0.00000000000E+00  0.13520088644E+04  0.16784249783E+04  0.99457651214E+03 0.  0.
        1    1    3    3  502    0 -0.17493406795E+03  0.28293847734E+03  0.12998137631E+04  0.13417048591E+04  0.50400001928E-02 0.  1.
       -1    1    3    3    0  502  0.17493406795E+03 -0.28293847734E+03  0.52195101295E+02  0.33672011926E+03  0.50400001928E-02 0. -1.
</event>
<event>
 5   0  0.2803717E-02  0.8855411E+03  0.7818609E-02  0.9443838E-01
       -2   -1    0    0    0  501  0.00000000000E+00  0.00000000000E+00  0.28844741711E+03  0.28844741713E+03  0.25500000920E-02 0.  1.
        2   -1    0    0  501    0  0.00000000000E+00  0.00000000000E+00 -0.67965851678E+03  0.67965851678E+03  0.25500000920E-02 0. -1.
    10030    2    1    2    0    0  0.00000000000E+00  0.00000000000E+00 -0.39121109966E+03  0.96810593391E+03  0.88554106329E+03 0.  0.
        5    1    3    3  502    0  0.18911936132E+03  0.30646441969E+01 -0.63323915265E+03  0.66090047611E+03  0.46999998093E+01 0. -1.
       -5    1    3    3    0  502 -0.18911936132E+03 -0.30646441969E+01  0.24202805299E+03  0.30720545780E+03  0.46999998093E+01 0.  1.
</event>
<event>
 5   0  0.2679861E-02  0.9151013E+03  0.7818609E-02  0.9406898E-01
       -2   -1    0    0    0  501  0.00000000000E+00  0.00000000000E+00  0.25499236349E+03  0.25499236350E+03  0.25500000920E-02 0.  1.
        2   -1    0    0  501    0  0.00000000000E+00  0.00000000000E+00 -0.82101518789E+03  0.82101518790E+03  0.25500000920E-02 0. -1.
    10030    2    1    2    0    0  0.00000000000E+00  0.00000000000E+00 -0.56602282440E+03  0.10760075514E+04  0.91510131293E+03 0.  0.
        1    1    3    3  502    0 -0.26801208918E+03 -0.38376293125E+02 -0.71671641288E+03  0.76614987850E+03  0.50400001928E-02 0. -1.
       -1    1    3    3    0  502  0.26801208918E+03  0.38376293125E+02  0.15069358848E+03  0.30985767290E+03  0.50400001928E-02 0.  1.
</event>
<event>
 5   0  0.1559275E-02  0.9113307E+03  0.7818609E-02  0.9411527E-01
       -1   -1    0    0    0  501  0.00000000000E+00  0.00000000000E+00  0.43783256533E+03  0.43783256536E+03  0.50400001928E-02 0.  1.
        1   -1    0    0  501    0  0.00000000000E+00  0.00000000000E+00 -0.47422446028E+03  0.47422446030E+03  0.50400001928E-02 0. -1.
    10030    2    1    2    0    0  0.00000000000E+00  0.00000000000E+00 -0.36391894949E+02  0.91205702566E+03  0.91133070180E+03 0.  0.
        1    1    3    3  502    0 -0.36816447351E+03  0.14703470441E+01 -0.28689395009E+03  0.46674980460E+03  0.50400001928E-02 0. -1.
       -1    1    3    3    0  502  0.36816447351E+03 -0.14703470441E+01  0.25050205514E+03  0.44530722106E+03  0.50400001928E-02 0.  1.
</event>
<event>
 5   0  0.2803717E-02  0.8824217E+03  0.7818609E-02  0.9447826E-01
       -2   -1    0    0    0  501  0.00000000000E+00  0.00000000000E+00  0.18043948449E+03  0.18043948451E+03  0.25500000920E-02 0.  1.
        2   -1    0    0  501    0  0.00000000000E+00  0.00000000000E+00 -0.10788492843E+04  0.10788492843E+04  0.25500000920E-02 0. -1.
    10030    2    1    2    0    0  0.00000000000E+00  0.00000000000E+00 -0.89840979983E+03  0.12592887688E+04  0.88242168768E+03 0.  0.
        5    1    3    3  502    0 -0.16254945439E+03  0.39389276612E+03 -0.61236160748E+03  0.74604468005E+03  0.46999998093E+01 0. -1.
       -5    1    3    3    0  502  0.16254945439E+03 -0.39389276612E+03 -0.28604819235E+03  0.51324408878E+03  0.46999998093E+01 0.  1.
</event>
<event>
 5   0  0.1537870E-02  0.9125376E+03  0.7818609E-02  0.9410043E-01
       -1   -1    0    0    0  501  0.00000000000E+00  0.00000000000E+00  0.28522124195E+03  0.28522124200E+03  0.50400001928E-02 0.  1.
        1   -1    0    0  501    0  0.00000000000E+00  0.00000000000E+00 -0.72989376547E+03  0.72989376549E+03  0.50400001928E-02 0. -1.
    10030    2    1    2    0    0  0.00000000000E+00  0.00000000000E+00 -0.44467252352E+03  0.10151150075E+04  0.91253757471E+03 0.  0.
        5    1    3    3  502    0 -0.24019165859E+03  0.26645417433E+03  0.91255082774E+02  0.37018838448E+03  0.46999998093E+01 0.  1.
       -5    1    3    3    0  502  0.24019165859E+03 -0.26645417433E+03 -0.53592760629E+03  0.64492662300E+03  0.46999998093E+01 0. -1.
</event>
<event>
 5   0  0.2705111E-02  0.9697055E+03  0.7818609E-02  0.9342410E-01
       -2   -1    0    0    0  501  0.00000000000E+00  0.00000000000E+00  0.14784768262E+03  0.14784768265E+03  0.25500000920E-02 0.  1.
        2   -1    0    0  501    0  0.00000000000E+00  0.00000000000E+00 -0.15900295884E+04  0.15900295884E+04  0.25500000920E-02 0. -1.
    10030    2    1    2    0    0  0.00000000000E+00  0.00000000000E+00 -0.14421819058E+04  0.17378772711E+04  0.96970550163E+03 0.  0.
        4    1    3    3  502    0 -0.23498981490E+03  0.15991243145E+03 -0.14250474973E+04  0.14531187775E+04  0.12699999809E+01 0. -1.
       -4    1    3    3    0  502  0.23498981490E+03 -0.15991243145E+03 -0.17134408479E+02  0.28475849363E+03  0.12699999809E+01 0.  1.
</event>
<event>
 5   0  0.2705111E-02  0.9147743E+03  0.7818609E-02  0.9407299E-01
       -2   -1    0    0    0  501  0.00000000000E+00  0.00000000000E+00  0.16696116699E+03  0.16696116700E+03  0.25500000920E-02 0.  1.
        2   -1    0    0  501    0  0.00000000000E+00  0.00000000000E+00 -0.12530040590E+04  0.12530040590E+04  0.25500000920E-02 0. -1.
    10030    2    1    2    0    0  0.00000000000E+00  0.00000000000E+00 -0.10860428920E+04  0.14199652260E+04  0.91477433270E+03 0.  0.
        4    1    3    3  502    0 -0.15045067902E+03  0.42334053574E+03 -0.40995404109E+03  0.60820764935E+03  0.12699999809E+01 0. -1.
       -4    1    3    3    0  502  0.15045067902E+03 -0.42334053574E+03 -0.67608885091E+03  0.81175757665E+03  0.12699999809E+01 0.  1.
</event>
<event>
 5   0  0.1040163E-02  0.9176405E+03  0.7818609E-02  0.9403795E-01
        4   -1    0    0  501    0  0.00000000000E+00  0.00000000000E+00  0.24328473794E+03  0.24328805276E+03  0.12699999809E+01 0. -1.
       -4   -1    0    0    0  501  0.00000000000E+00  0.00000000000E+00 -0.86529753938E+03  0.86529847137E+03  0.12699999809E+01 0.  1.
    10030    2    1    2    0    0  0.00000000000E+00  0.00000000000E+00 -0.62201280144E+03  0.11085865241E+04  0.91764053763E+03 0.  0.
        5    1    3    3  502    0  0.34312628141E+03 -0.10791900762E+03  0.33057415634E+02  0.36124374033E+03  0.46999998093E+01 0. -1.
       -5    1    3    3    0  502 -0.34312628141E+03  0.10791900762E+03 -0.65507021707E+03  0.74734278380E+03  0.46999998093E+01 0.  1.
</event>
<event>
 5   0  0.1040163E-02  0.9030568E+03  0.7818609E-02  0.9421768E-01
       -3   -1    0    0    0  501  0.00000000000E+00  0.00000000000E+00  0.40069308285E+03  0.40069309558E+03  0.10100000352E+00 0. -1.
        3   -1    0    0  501    0  0.00000000000E+00  0.00000000000E+00 -0.50881308993E+03  0.50881309995E+03  0.10100000352E+00 0.  1.
    10030    2    1    2    0    0  0.00000000000E+00  0.00000000000E+00 -0.10812000707E+03  0.90950619554E+03  0.90305679987E+03 0.  0.
        3    1    3    3  502    0 -0.12030254968E+03 -0.20588850114E+03  0.33210381243E+03  0.40884683048E+03  0.10100000352E+00 0. -1.
       -3    1    3    3    0  502  0.12030254968E+03  0.20588850114E+03 -0.44022381951E+03  0.50065936506E+03  0.10100000352E+00 0.  1.
</event>
<event>
 5   0  0.1559275E-02  0.8956062E+03  0.7818609E-02  0.9431091E-01
       -1   -1    0    0    0  501  0.00000000000E+00  0.00000000000E+00  0.38196927365E+03  0.38196927368E+03  0.50400001928E-02 0.  1.
        1   -1    0    0  501    0  0.00000000000E+00  0.00000000000E+00 -0.52498366335E+03  0.52498366337E+03  0.50400001928E-02 0. -1.
    10030    2    1    2    0    0  0.00000000000E+00  0.00000000000E+00 -0.14301438970E+03  0.90695293705E+03  0.89560622729E+03 0.  0.
        1    1    3    3  502    0  0.36764247647E+03 -0.24242766917E+03  0.10734168354E+02  0.44050810172E+03  0.50400001928E-02 0.  1.
       -1    1    3    3    0  502 -0.36764247647E+03  0.24242766917E+03 -0.15374855805E+03  0.46644483533E+03  0.50400001928E-02 0. -1.
</event>
<event>
 5   0  0.1537870E-02  0.8022610E+03  0.7818609E-02  0.9556750E-01
       -1   -1    0    0    0  501  0.00000000000E+00  0.00000000000E+00  0.42887153373E+03  0.42887153376E+03  0.50400001928E-02 0.  1.
        1   -1    0    0  501    0  0.00000000000E+00  0.00000000000E+00 -0.37518383865E+03  0.37518383868E+03  0.50400001928E-02 0. -1.
    10030    2    1    2    0    0  0.00000000000E+00  0.00000000000E+00  0.53687695085E+02  0.80405537244E+03  0.80226097584E+03 0.  0.
        5    1    3    3  502    0  0.35400390525E+02 -0.26258833597E+03  0.32864484717E+03  0.42217928349E+03  0.46999998093E+01 0.  1.
       -5    1    3    3    0  502 -0.35400390525E+02  0.26258833597E+03 -0.27495715209E+03  0.38187608896E+03  0.46999998093E+01 0. -1.
</event>
<event>
 5   0  0.2705111E-02  0.7786471E+03  0.7818609E-02  0.9591449E-01
        2   -1    0    0  501    0  0.00000000000E+00  0.00000000000E+00  0.21652859912E+04  0.21652859912E+04  0.25500000920E-02 0.  1.
       -2   -1    0    0    0  501  0.00000000000E+00  0.00000000000E+00 -0.70001300329E+02  0.70001300376E+02  0.25500000920E-02 0. -1.
    10030    2    1    2    0    0  0.00000000000E+00  0.00000000000E+00  0.20952846908E+04  0.22352872915E+04  0.77864712167E+03 0.  0.
        4    1    3    3  502    0  0.12066477242E+03  0.29395643938E+03  0.16934029664E+04  0.17229583846E+04  0.12699999809E+01 0.  1.
       -4    1    3    3    0  502 -0.12066477242E+03 -0.29395643938E+03  0.40188172446E+03  0.51232890696E+03  0.12699999809E+01 0. -1.
</event>
<event>
 5   0  0.2803717E-02  0.8846612E+03  0.7818609E-02  0.9444961E-01
       -2   -1    0    0    0  501  0.00000000000E+00  0.00000000000E+00  0.20948369837E+03  0.20948369838E+03  0.25500000920E-02 0.  1.
        2   -1    0    0  501    0  0.00000000000E+00  0.00000000000E+00 -0.93399315312E+03  0.93399315312E+03  0.25500000920E-02 0. -1.
    10030    2    1    2    0    0  0.00000000000E+00  0.00000000000E+00 -0.72450945476E+03  0.11434768515E+04  0.88466115542E+03 0.  0.
        5    1    3    3  502    0  0.13841375661E+03  0.16907550174E+02  0.18029689604E+03  0.22797652070E+03  0.46999998093E+01 0.  1.
       -5    1    3    3    0  502 -0.13841375661E+03 -0.16907550174E+02 -0.90480635079E+03  0.91550033081E+03  0.46999998093E+01 0. -1.
</event>
<event>
 5   0  0.2679861E-02  0.9533046E+03  0.7818609E-02  0.9361296E-01
        2   -1    0    0  501    0  0.00000000000E+00  0.00000000000E+00  0.22405643258E+04  0.22405643258E+04  0.25500000920E-02 0. -1.
       -2   -1    0    0    0  501  0.00000000000E+00  0.00000000000E+00 -0.10140186396E+03  0.10140186399E+03  0.25500000920E-02 0.  1.
    10030    2    1    2    0    0  0.00000000000E+00  0.00000000000E+00  0.21391624618E+04  0.23419661898E+04  0.95330456620E+03 0.  0.
        1    1    3    3  502    0 -0.41476261287E+03 -0.21825137649E+03  0.12828420402E+04  0.13657764783E+04  0.50400001928E-02 0.  1.
       -1    1    3    3    0  502  0.41476261287E+03  0.21825137649E+03  0.85632042158E+03  0.97618971149E+03  0.50400001928E-02 0. -1.
</event>
<event>
 5   0  0.2679861E-02  0.9094843E+03  0.7818609E-02  0.9413803E-01
        2   -1    0    0  501    0  0.00000000000E+00  0.00000000000E+00  0.25660251144E+04  0.25660251144E+04  0.25500000920E-02 0.  1.
       -2   -1    0    0    0  501  0.00000000000E+00  0.00000000000E+00 -0.80587838075E+02  0.80587838115E+02  0.25500000920E-02 0. -1.
    10030    2    1    2    0    0  0.00000000000E+00  0.00000000000E+00  0.24854372763E+04  0.26466129525E+04  0.90948428566E+03 0.  0.
        1    1    3    3  502    0  0.26219731065E+03 -0.37128874867E+03  0.12028554849E+04  0.12858709431E+04  0.50400001928E-02 0. -1.
       -1    1    3    3    0  502 -0.26219731065E+03  0.37128874867E+03  0.12825817914E+04  0.13607420094E+04  0.50400001928E-02 0.  1.
</event>
<event>
 5   0  0.1537870E-02  0.7172922E+03  0.7818609E-02  0.9688109E-01
        1   -1    0    0  501    0  0.00000000000E+00  0.00000000000E+00  0.79372501480E+03  0.79372501481E+03  0.50400001928E-02 0. -1.
       -1   -1    0    0    0  501  0.00000000000E+00  0.00000000000E+00 -0.16205487376E+03  0.16205487384E+03  0.50400001928E-02 0.  1.
    10030    2    1    2    0    0  0.00000000000E+00  0.00000000000E+00  0.63167014104E+03  0.95577988865E+03  0.71729215001E+03 0.  0.
        5    1    3    3  502    0  0.69387437685E+02  0.30580681017E+02  0.78287976688E+03  0.78655744479E+03  0.46999998093E+01 0. -1.
       -5    1    3    3    0  502 -0.69387437685E+02 -0.30580681017E+02 -0.15120962584E+03  0.16922244386E+03  0.46999998093E+01 0.  1.
</event>
<event>
 5   0  0.1537870E-02  0.8530359E+03  0.7818609E-02  0.9486271E-01
        1   -1    0    0  501    0  0.00000000000E+00  0.00000000000E+00  0.60543270185E+03  0.60543270187E+03  0.50400001928E-02 0.  1.
       -1   -1    0    0    0  501  0.00000000000E+00  0.00000000000E+00 -0.30047524694E+03  0.30047524698E+03  0.50400001928E-02 0. -1.
    10030    2    1    2    0    0  0.00000000000E+00  0.00000000000E+00  0.30495745491E+03  0.90590794886E+03  0.85303585065E+03 0.  0.
        5    1    3    3  502    0  0.82955742966E+02  0.38866797887E+03 -0.11874633512E+02  0.39762740098E+03  0.46999998093E+01 0. -1.
       -5    1    3    3    0  502 -0.82955742966E+02 -0.38866797887E+03  0.31683208842E+03  0.50828054787E+03  0.46999998093E+01 0.  1.
</event>
<event>
 5   0  0.2705111E-02  0.8911104E+03  0.7818609E-02  0.9436763E-01
        2   -1    0    0  501    0  0.00000000000E+00  0.00000000000E+00  0.30450608290E+03  0.30450608291E+03  0.25500000920E-02 0. -1.
       -2   -1    0    0    0  501  0.00000000000E+00  0.00000000000E+00 -0.65193914642E+03  0.65193914643E+03  0.25500000920E-02 0.  1.
    10030    2    1    2    0    0  0.00000000000E+00  0.00000000000E+00 -0.34743306352E+03  0.95644522934E+03  0.89111039894E+03 0.  0.
        4    1    3    3  502    0 -0.21126458881E+03 -0.29788325651E+03 -0.44767706926E+03  0.57774002132E+03  0.12699999809E+01 0.  1.
       -4    1    3    3    0  502  0.21126458881E+03  0.29788325651E+03  0.10024400573E+03  0.37870520802E+03  0.12699999809E+01 0. -1.
</event>
<event>
 5   0  0.1560728E-02  0.9108448E+03  0.7818609E-02  0.9412126E-01
        1   -1    0    0  501    0  0.00000000000E+00  0.00000000000E+00  0.10770636203E+04  0.10770636203E+04  0.50400001928E-02 0.  1.
       -1   -1    0    0    0  501  0.00000000000E+00  0.00000000000E+00 -0.19256944259E+03  0.19256944265E+03  0.50400001928E-02 0. -1.
    10030    2    1    2    0    0  0.00000000000E+00  0.00000000000E+00  0.88449417772E+03  0.12696330630E+04  0.91084475306E+03 0.  0.
        4    1    3    3  502    0 -0.15851911516E+03 -0.65063853978E+02  0.10304136840E+04  0.10445647840E+04  0.12699999809E+01 0.  1.
       -4    1    3    3    0  502  0.15851911516E+03  0.65063853978E+02 -0.14591950629E+03  0.22506827893E+03  0.12699999809E+01 0. -1.
</event>
<event>
 5   0  0.2705111E-02  0.9044664E+03  0.7818609E-02  0.9420015E-01
       -2   -1    0    0    0  501  0.00000000000E+00  0.00000000000E+00  0.15796596062E+03  0.15796596064E+03  0.25500000920E-02 0.  1.
        2   -1    0    0  501    0  0.00000000000E+00  0.00000000000E+00 -0.12946768218E+04  0.12946768218E+04  0.25500000920E-02 0. -1.
    10030    2    1    2    0    0  0.00000000000E+00  0.00000000000E+00 -0.11367108612E+04  0.14526427824E+04  0.90446640150E+03 0.  0.
        4    1    3    3  502    0  0.10428255118E+03 -0.42829447494E+03 -0.73057913464E+03  0.85326343682E+03  0.12699999809E+01 0.  1.
       -4    1    3    3    0  502 -0.10428255118E+03  0.42829447494E+03 -0.40613172653E+03  0.59937934561E+03  0.12699999809E+01 0. -1.
</event>
<event>
 5   0  0.1497410E-02  0.9087733E+03  0.7818609E-02  0.9414680E-01
        1   -1    0    0  501    0  0.00000000000E+00  0.00000000000E+00  0.73463692519E+03  0.73463692521E+03  0.50400001928E-02 0.  1.
       -1   -1    0    0    0  501  0.00000000000E+00  0.00000000000E+00 -0.28104660494E+03  0.28104660498E+03  0.50400001928E-02 0. -1.
    10030    2    1    2    0    0  0.00000000000E+00  0.00000000000E+00  0.45359032025E+03  0.10156835302E+04  0.90877326924E+03 0.  0.
        3    1    3    3  502    0  0.10302729896E+03  0.14732790316E+03 -0.23960742581E+03  0.29955277346E+03  0.10100000352E+00 0. -1.
       -3    1    3    3    0  502 -0.10302729896E+03 -0.14732790316E+03  0.69319774607E+03  0.71613075673E+03  0.10100000352E+00 0.  1.
</event>
<event>
 5   0  0.1560728E-02  0.9181317E+03  0.7818609E-02  0.9403196E-01
        1   -1    0    0  501    0  0.00000000000E+00  0.00000000000E+00  0.53765998254E+03  0.53765998256E+03  0.50400001928E-02 0. -1.
       -1   -1    0    0    0  501  0.00000000000E+00  0.00000000000E+00 -0.39196045823E+03  0.39196045827E+03  0.50400001928E-02 0.  1.
    10030    2    1    2    0    0  0.00000000000E+00  0.00000000000E+00  0.14569952430E+03  0.92962044083E+03  0.91813169677E+03 0.  0.
        4    1    3    3  502    0 -0.17250451999E+03 -0.17620738028E+03  0.46490682736E+03  0.52625737174E+03  0.12699999809E+01 0. -1.
       -4    1    3    3    0  502  0.17250451999E+03  0.17620738028E+03 -0.31920730306E+03  0.40336306909E+03  0.12699999809E+01 0.  1.
</event>
<event>
 5   0  0.1459111E-02  0.8969818E+03  0.7818609E-02  0.9429362E-01
       -1   -1    0    0    0  501  0.00000000000E+00  0.00000000000E+00  0.86313803637E+02  0.86313803785E+02  0.50400001928E-02 0.  1.
        1   -1    0    0  501    0  0.00000000000E+00  0.00000000000E+00 -0.23303813824E+04  0.23303813824E+04  0.50400001928E-02 0. -1.
    10030    2    1    2    0    0  0.00000000000E+00  0.00000000000E+00 -0.22440675788E+04  0.24166951862E+04  0.89698178628E+03 0.  0.
        2    1    3    3  502    0  0.24998238181E+03  0.31819505677E+03 -0.60095679807E+03  0.72449179327E+03  0.25500000920E-02 0.  1.
       -2    1    3    3    0  502 -0.24998238181E+03 -0.31819505677E+03 -0.16431107807E+04  0.16922033929E+04  0.25500000920E-02 0. -1.
</event>
<event>
 5   0  0.2679861E-02  0.8983210E+03  0.7818609E-02  0.9427683E-01
        2   -1    0    0  501    0  0.00000000000E+00  0.00000000000E+00  0.70345552506E+03  0.70345552507E+03  0.25500000920E-02 0.  1.
       -2   -1    0    0    0  501  0.00000000000E+00  0.00000000000E+00 -0.28679160212E+03  0.28679160213E+03  0.25500000920E-02 0. -1.
    10030    2    1    2    0    0  0.00000000000E+00  0.00000000000E+00  0.41666392295E+03  0.99024712719E+03  0.89832096059E+03 0.  0.
        1    1    3    3  502    0 -0.38538703162E+03  0.21793491689E+03  0.12491568334E+03  0.46002469511E+03  0.50400001928E-02 0.  1.
       -1    1    3    3    0  502  0.38538703162E+03 -0.21793491689E+03  0.29174823961E+03  0.53022243208E+03  0.50400001928E-02 0. -1.
</event>
<event>
 5   0  0.1559275E-02  0.9058140E+03  0.7818609E-02  0.9418343E-01
       -1   -1    0    0    0  501  0.00000000000E+00  0.00000000000E+00  0.38853631693E+03  0.38853631696E+03  0.50400001928E-02 0. -1.
        1   -1    0    0  501    0  0.00000000000E+00  0.00000000000E+00 -0.52794231000E+03  0.52794231002E+03  0.50400001928E-02 0.  1.
    10030    2    1    2    0    0  0.00000000000E+00  0.00000000000E+00 -0.13940599307E+03  0.91647862698E+03  0.90581402220E+03 0.  0.
        1    1    3    3  502    0  0.14247333408E+03  0.42617276147E+03 -0.12442630574E+02  0.44952941241E+03  0.50400001928E-02 0. -1.
       -1    1    3    3    0  502 -0.14247333408E+03 -0.42617276147E+03 -0.12696336250E+03  0.46694921457E+03  0.50400001928E-02 0.  1.
</event>
<event>
 5   0  0.2679861E-02  0.9292966E+03  0.7818609E-02  0.9389682E-01
       -2   -1    0    0    0  501  0.00000000000E+00  0.00000000000E+00  0.14851508730E+03  0.14851508732E+03  0.25500000920E-02 0. -1.
        2   -1    0    0  501    0  0.00000000000E+00  0.00000000000E+00 -0.14537112850E+04  0.14537112850E+04  0.25500000920E-02 0.  1.
    10030    2    1    2    0    0  0.00000000000E+00  0.00000000000E+00 -0.13051961977E+04  0.16022263723E+04  0.92929663386E+03 0.  0.
        1    1    3    3  502    0  0.21442672933E+03  0.38071181482E+03 -0.92508533937E+03  0.10230851349E+04  0.50400001928E-02 0.  1.
       -1    1    3    3    0  502 -0.21442672933E+03 -0.38071181482E+03 -0.38011085834E+03  0.57914123739E+03  0.50400001928E-02 0. -1.
</event>
<event>
 5   0  0.2628383E-02  0.8953796E+03  0.7818609E-02  0.9431376E-01
       -2   -1    0    0    0  501  0.00000000000E+00  0.00000000000E+00  0.42922832234E+03  0.42922832235E+03  0.25500000920E-02 0.  1.
        2   -1    0    0  501    0  0.00000000000E+00  0.00000000000E+00 -0.46694531881E+03  0.46694531881E+03  0.25500000920E-02 0. -1.
    10030    2    1    2    0    0  0.00000000000E+00  0.00000000000E+00 -0.37716996468E+02  0.89617364116E+03  0.89537959732E+03 0.  0.
        2    1    3    3  502    0 -0.29201490238E+03  0.27922014665E+03 -0.21187547346E+03  0.45621026925E+03  0.25500000920E-02 0. -1.
       -2    1    3    3    0  502  0.29201490238E+03 -0.27922014665E+03  0.17415847700E+03  0.43996337191E+03  0.25500000920E-02 0.  1.
</event>
<event>
 5   0  0.2705111E-02  0.8713838E+03  0.7818609E-02  0.9462077E-01
        2   -1    0    0  501    0  0.00000000000E+00  0.00000000000E+00  0.62151112707E+03  0.62151112708E+03  0.25500000920E-02 0. -1.
       -2   -1    0    0    0  501  0.00000000000E+00  0.00000000000E+00 -0.30542885477E+03  0.30542885478E+03  0.25500000920E-02 0.  1.
    10030    2    1    2    0    0  0.00000000000E+00  0.00000000000E+00  0.31608227230E+03  0.92693998186E+03  0.87138380012E+03 0.  0.
        4    1    3    3  502    0  0.35343015525E+03  0.23602428076E+03  0.55978818409E+02  0.42866720980E+03  0.12699999809E+01 0.  1.
       -4    1    3    3    0  502 -0.35343015525E+03 -0.23602428076E+03  0.26010345389E+03  0.49827277206E+03  0.12699999809E+01 0. -1.
</event>
<event>
 5   0  0.1459111E-02  0.9179854E+03  0.7818609E-02  0.9403374E-01
        1   -1    0    0  501    0  0.00000000000E+00  0.00000000000E+00  0.28621710523E+03  0.28621710527E+03  0.50400001928E-02 0. -1.
       -1   -1    0    0    0  501  0.00000000000E+00  0.00000000000E+00 -0.73606460482E+03  0.73606460484E+03  0.50400001928E-02 0.  1.
    10030    2    1    2    0    0  0.00000000000E+00  0.00000000000E+00 -0.44984749959E+03  0.10222817101E+04  0.91798536041E+03 0.  0.
        2    1    3    3  502    0 -0.32488791667E+02 -0.23963815631E+03 -0.65936513932E+03  0.70231357277E+03  0.25500000920E-02 0.  1.
       -2    1    3    3    0  502  0.32488791667E+02  0.23963815631E+03  0.20951763972E+03  0.31996813733E+03  0.25500000920E-02 0. -1.
</event>
<event>
 5   0  0.1559275E-02  0.9002286E+03  0.7818609E-02  0.9425296E-01
        1   -1    0    0  501    0  0.00000000000E+00  0.00000000000E+00  0.12783827732E+03  0.12783827742E+03  0.50400001928E-02 0.  1.
       -1   -1    0    0    0  501  0.00000000000E+00  0.00000000000E+00 -0.15848373191E+04  0.15848373191E+04  0.50400001928E-02 0. -1.
    10030    2    1    2    0    0  0.00000000000E+00  0.00000000000E+00 -0.14569990418E+04  0.17126755965E+04  0.90022857718E+03 0.  0.
        1    1    3    3  502    0 -0.15347115048E+03  0.24791138306E+03 -0.13808882472E+04  0.14113347580E+04  0.50400001928E-02 0. -1.
       -1    1    3    3    0  502  0.15347115048E+03 -0.24791138306E+03 -0.76110794586E+02  0.30134083852E+03  0.50400001928E-02 0.  1.
</event>
<event>
 5   0  0.2705111E-02  0.8903122E+03  0.7818609E-02  0.9437773E-01
        2   -1    0    0  501    0  0.00000000000E+00  0.00000000000E+00  0.10252166130E+04  0.10252166130E+04  0.25500000920E-02 0. -1.
       -2   -1    0    0    0  501  0.00000000000E+00  0.00000000000E+00 -0.19328983442E+03  0.19328983444E+03  0.25500000920E-02 0.  1.
    10030    2    1    2    0    0  0.00000000000E+00  0.00000000000E+00  0.83192677854E+03  0.12185064474E+04  0.89031219103E+03 0.  0.
        4    1    3    3  502    0 -0.32601283616E+03  0.29640576289E+03  0.32917043847E+03  0.54999594188E+03  0.12699999809E+01 0.  1.
       -4    1    3    3    0  502  0.32601283616E+03 -0.29640576289E+03  0.50275634007E+03  0.66851050552E+03  0.12699999809E+01 0. -1.
</event>
<event>
 5   0  0.2414128E-02  0.8871784E+03  0.7818609E-02  0.9441753E-01
        2   -1    0    0  501    0  0.00000000000E+00  0.00000000000E+00  0.13911023732E+04  0.13911023732E+04  0.25500000920E-02 0.  1.
       -2   -1    0    0    0  501  0.00000000000E+00  0.00000000000E+00 -0.14144994982E+03  0.14144994984E+03  0.25500000920E-02 0. -1.
    10030    2    1    2    0    0  0.00000000000E+00  0.00000000000E+00  0.12496524234E+04  0.15325523230E+04  0.88717836065E+03 0.  0.
        3    1    3    3  502    0 -0.22832278047E+02 -0.42189287355E+03  0.39141998926E+03  0.57595531759E+03  0.10100000352E+00 0. -1.
       -3    1    3    3    0  502  0.22832278047E+02  0.42189287355E+03  0.85823243410E+03  0.95659700544E+03  0.10100000352E+00 0.  1.
</event>
<event>
 5   0  0.1040163E-02  0.8933869E+03  0.7818609E-02  0.9433886E-01
       -4   -1    0    0    0  501  0.00000000000E+00  0.00000000000E+00  0.68373015767E+03  0.68373133715E+03  0.12699999809E+01 0.  1.
        4   -1    0    0  501    0  0.00000000000E+00  0.00000000000E+00 -0.29183022145E+03  0.29183298486E+03  0.12699999809E+01 0. -1.
    10030    2    1    2    0    0  0.00000000000E+00  0.00000000000E+00  0.39189993622E+03  0.97556432201E+03  0.89338691862E+03 0.  0.
        5    1    3    3  502    0 -0.24806344994E+03 -0.35244736532E+03  0.32403526432E+03  0.53923609211E+03  0.46999998093E+01 0.  1.
       -5    1    3    3    0  502  0.24806344994E+03  0.35244736532E+03  0.67864671894E+02  0.43632822990E+03  0.46999998093E+01 0. -1.
</event>
<event>
 5   0  0.1040163E-02  0.9084658E+03  0.7818609E-02  0.9415060E-01
        3   -1    0    0  501    0  0.00000000000E+00  0.00000000000E+00  0.71355249210E+03  0.71355249924E+03  0.10100000352E+00 0. -1.
       -3   -1    0    0    0  501  0.00000000000E+00  0.00000000000E+00 -0.28915532849E+03  0.28915534613E+03  0.10100000352E+00 0.  1.
    10030    2    1    2    0    0  0.00000000000E+00  0.00000000000E+00  0.42439716361E+03  0.10027078454E+04  0.90846577849E+03 0.  0.
        2    1    3    3  502    0  0.23056233360E+02  0.35090025630E+03 -0.10514265688E+03  0.36703890539E+03  0.25500000920E-02 0.  1.
       -2    1    3    3    0  502 -0.23056233360E+02 -0.35090025630E+03  0.52953982048E+03  0.63566893998E+03  0.25500000920E-02 0. -1.
</event>
<event>
 5   0  0.1497410E-02  0.7637321E+03  0.7818609E-02  0.9614050E-01
       -1   -1    0    0    0  501  0.00000000000E+00  0.00000000000E+00  0.17844594329E+03  0.17844594337E+03  0.50400001928E-02 0. -1.
        1   -1    0    0  501    0  0.00000000000E+00  0.00000000000E+00 -0.81717566962E+03  0.81717566963E+03  0.50400001928E-02 0.  1.
    10030    2    1    2    0    0  0.00000000000E+00  0.00000000000E+00 -0.63872972632E+03  0.99562161300E+03  0.76373210813E+03 0.  0.
        3    1    3    3  502    0  0.35687532317E+02 -0.13315846876E+03 -0.78360407992E+03  0.79563819795E+03  0.10100000352E+00 0.  1.
       -3    1    3    3    0  502 -0.35687532317E+02  0.13315846876E+03  0.14487435359E+03  0.19998341505E+03  0.10100000352E+00 0. -1.
</event>
<event>
 5   0  0.2628383E-02  0.9090604E+03  0.7818609E-02  0.9414326E-01
        2   -1    0    0  501    0  0.00000000000E+00  0.00000000000E+00  0.46988047286E+03  0.46988047287E+03  0.25500000920E-02 0.  1.
       -2   -1    0    0    0  501  0.00000000000E+00  0.00000000000E+00 -0.43968141952E+03  0.43968141953E+03  0.25500000920E-02 0. -1.
    10030    2    1    2    0    0  0.00000000000E+00  0.00000000000E+00  0.30199053342E+02  0.90956189240E+03  0.90906042334E+03 0.  0.
        2    1    3    3  502    0  0.16939200595E+03  0.18469110310E+03  0.39450952187E+03  0.46737802483E+03  0.25500000920E-02 0.  1.
       -2    1    3    3    0  502 -0.16939200595E+03 -0.18469110310E+03 -0.36431046853E+03  0.44218386756E+03  0.25500000920E-02 0. -1.
</event>
<event>
 5   0  0.2705111E-02  0.8252035E+03  0.7818609E-02  0.9524236E-01
       -2   -1    0    0    0  501  0.00000000000E+00  0.00000000000E+00  0.73259351942E+02  0.73259351987E+02  0.25500000920E-02 0.  1.
        2   -1    0    0  501    0  0.00000000000E+00  0.00000000000E+00 -0.23238018122E+04  0.23238018122E+04  0.25500000920E-02 0. -1.
    10030    2    1    2    0    0  0.00000000000E+00  0.00000000000E+00 -0.22505424603E+04  0.23970611642E+04  0.82520352607E+03 0.  0.
        4    1    3    3  502    0  0.11115825653E+02  0.29963025082E+03 -0.30193888257E+03  0.42552385420E+03  0.12699999809E+01 0.  1.
       -4    1    3    3    0  502 -0.11115825653E+02 -0.29963025082E+03 -0.19486035777E+04  0.19715373100E+04  0.12699999809E+01 0. -1.
</event>
<event>
 5   0  0.1559275E-02  0.8969501E+03  0.7818609E-02  0.9429402E-01
       -1   -1    0    0    0  501  0.00000000000E+00  0.00000000000E+00  0.12315731571E+04  0.12315731571E+04  0.50400001928E-02 0. -1.
        1   -1    0    0  501    0  0.00000000000E+00  0.00000000000E+00 -0.16331134328E+03  0.16331134336E+03  0.50400001928E-02 0.  1.
    10030    2    1    2    0    0  0.00000000000E+00  0.00000000000E+00  0.10682618138E+04  0.13948845004E+04  0.89695009158E+03 0.  0.
        1    1    3    3  502    0  0.68284618268E+02 -0.37102808756E+03  0.15701229385E+03  0.40862879402E+03  0.50400001928E-02 0. -1.
       -1    1    3    3    0  502 -0.68284618268E+02  0.37102808756E+03  0.91124951993E+03  0.98625570642E+03  0.50400001928E-02 0.  1.
</event>
<event>
 5   0  0.1559275E-02  0.8834614E+03  0.7818609E-02  0.9446495E-01
        1   -1    0    0  501    0  0.00000000000E+00  0.00000000000E+00  0.49188913908E+03  0.49188913911E+03  0.50400001928E-02 0.  1.
       -1   -1    0    0    0  501  0.00000000000E+00  0.00000000000E+00 -0.39668700510E+03  0.39668700513E+03  0.50400001928E-02 0. -1.
    10030    2    1    2    0    0  0.00000000000E+00  0.00000000000E+00  0.95202133987E+02  0.88857614424E+03  0.88346144103E+03 0.  0.
        1    1    3    3  502    0  0.34615637035E+03 -0.27333721229E+03  0.72001879670E+02  0.44690237755E+03  0.50400001928E-02 0. -1.
       -1    1    3    3    0  502 -0.34615637035E+03  0.27333721229E+03  0.23200254316E+02  0.44167376669E+03  0.50400001928E-02 0.  1.
</event>
<event>
 5   0  0.2414128E-02  0.9008612E+03  0.7818609E-02  0.9424506E-01
        2   -1    0    0  501    0  0.00000000000E+00  0.00000000000E+00  0.48051645323E+03  0.48051645324E+03  0.25500000920E-02 0. -1.
       -2   -1    0    0    0  501  0.00000000000E+00  0.00000000000E+00 -0.42222843044E+03  0.42222843044E+03  0.25500000920E-02 0.  1.
    10030    2    1    2    0    0  0.00000000000E+00  0.00000000000E+00  0.58288022797E+02  0.90274488368E+03  0.90086116101E+03 0.  0.
        3    1    3    3  502    0 -0.24639436868E+03  0.17642340757E+03  0.36308593101E+03  0.47293425247E+03  0.10100000352E+00 0. -1.
       -3    1    3    3    0  502  0.24639436868E+03 -0.17642340757E+03 -0.30479790822E+03  0.42981063122E+03  0.10100000352E+00 0.  1.
</event>
<event>
 5   0  0.1560728E-02  0.8960429E+03  0.7818609E-02  0.9430541E-01
       -1   -1    0    0    0  501  0.00000000000E+00  0.00000000000E+00  0.90165174702E+02  0.90165174842E+02  0.50400001928E-02 0.  1.
        1   -1    0    0  501    0  0.00000000000E+00  0.00000000000E+00 -0.22261725940E+04  0.22261725940E+04  0.50400001928E-02 0. -1.
    10030    2    1    2    0    0  0.00000000000E+00  0.00000000000E+00 -0.21360074193E+04  0.23163377688E+04  0.89604294768E+03 0.  0.
        4    1    3    3  502    0 -0.32236065160E+03  0.74414998334E+02 -0.18489685610E+04  0.18783344575E+04  0.12699999809E+01 0. -1.
       -4    1    3    3    0  502  0.32236065160E+03 -0.74414998334E+02 -0.28703885823E+03  0.43800331130E+03  0.12699999809E+01 0.  1.
</event>
<event>
 5   0  0.1559275E-02  0.9020056E+03  0.7818609E-02  0.9423078E-01
        1   -1    0    0  501    0  0.00000000000E+00  0.00000000000E+00  0.11764766050E+04  0.11764766050E+04  0.50400001928E-02 0.  1.
       -1   -1    0    0    0  501  0.00000000000E+00  0.00000000000E+00 -0.17289212059E+03  0.17289212067E+03  0.50400001928E-02 0. -1.
    10030    2    1    2    0    0  0.00000000000E+00  0.00000000000E+00  0.10035844844E+04  0.13493687257E+04  0.90200562111E+03 0.  0.
        1    1    3    3  502    0  0.11489205182E+03 -0.33603287410E+03  0.85910619548E+02  0.36537502737E+03  0.50400001928E-02 0. -1.
       -1    1    3    3    0  502 -0.11489205182E+03  0.33603287410E+03  0.91767386488E+03  0.98399369833E+03  0.50400001928E-02 0.  1.
</event>
<event>
 5   0  0.1040163E-02  0.9076931E+03  0.7818609E-02  0.9416015E-01
        3   -1    0    0  501    0  0.00000000000E+00  0.00000000000E+00  0.94363024539E+03  0.94363025079E+03  0.10100000352E+00 0.  1.
       -3   -1    0    0    0  501  0.00000000000E+00  0.00000000000E+00 -0.21828111648E+03  0.21828113984E+03  0.10100000352E+00 0. -1.
    10030    2    1    2    0    0  0.00000000000E+00  0.00000000000E+00  0.72534912891E+03  0.11619113906E+04  0.90769307637E+03 0.  0.
        4    1    3    3  502    0 -0.17487165533E+03 -0.22784050030E+03 -0.87145439066E+02  0.30014551448E+03  0.12699999809E+01 0. -1.
       -4    1    3    3    0  502  0.17487165533E+03  0.22784050030E+03  0.81249456798E+03  0.86176587615E+03  0.12699999809E+01 0.  1.
</event>
<event>
 5   0  0.1559275E-02  0.9039578E+03  0.7818609E-02  0.9420647E-01
        1   -1    0    0  501    0  0.00000000000E+00  0.00000000000E+00  0.52270491896E+03  0.52270491898E+03  0.50400001928E-02 0. -1.
       -1   -1    0    0    0  501  0.00000000000E+00  0.00000000000E+00 -0.39082268371E+03  0.39082268374E+03  0.50400001928E-02 0.  1.
    10030    2    1    2    0    0  0.00000000000E+00  0.00000000000E+00  0.13188223525E+03  0.91352760272E+03  0.90395782920E+03 0.  0.
        1    1    3    3  502    0  0.30393805979E+03 -0.21597139249E+03 -0.19222952929E+03  0.41949276337E+03  0.50400001928E-02 0.  1.
       -1    1    3    3    0  502 -0.30393805979E+03  0.21597139249E+03  0.32411176454E+03  0.49403483936E+03  0.50400001928E-02 0. -1.
</event>
<event>
 5   0  0.1497410E-02  0.9096500E+03  0.7818609E-02  0.9413598E-01
       -1   -1    0    0    0  501  0.00000000000E+00  0.00000000000E+00  0.20152740537E+03  0.20152740543E+03  0.50400001928E-02 0.  1.
        1   -1    0    0  501    0  0.00000000000E+00  0.00000000000E+00 -0.10264896444E+04  0.10264896444E+04  0.50400001928E-02 0. -1.
    10030    2    1    2    0    0  0.00000000000E+00  0.00000000000E+00 -0.82496223898E+03  0.12280170498E+04  0.90965003097E+03 0.  0.
        3    1    3    3  502    0  0.36855747565E+03 -0.26616432533E+03 -0.43097761549E+03  0.62643417546E+03  0.10100000352E+00 0.  1.
       -3    1    3    3    0  502 -0.36855747565E+03  0.26616432533E+03 -0.39398462349E+03  0.60158287433E+03  0.10100000352E+00 0. -1.
</event>
<event>
 5   0  0.2803717E-02  0.9739747E+03  0.7818609E-02  0.9337559E-01
       -2   -1    0    0    0  501  0.00000000000E+00  0.00000000000E+00  0.12562688758E+03  0.12562688760E+03  0.25500000920E-02 0.  1.
        2   -1    0    0  501    0  0.00000000000E+00  0.00000000000E+00 -0.18877859923E+04  0.18877859923E+04  0.25500000920E-02 0. -1.
    10030    2    1    2    0    0  0.00000000000E+00  0.00000000000E+00 -0.17621591047E+04  0.20134128799E+04  0.97397469917E+03 0.  0.
        5    1    3    3  502    0  0.47879817722E+03 -0.42573245133E+02 -0.71996405236E+03  0.86569654175E+03  0.46999998093E+01 0.  1.
       -5    1    3    3    0  502 -0.47879817722E+03  0.42573245133E+02 -0.10421950524E+04  0.11477163382E+04  0.46999998093E+01 0. -1.
</event>
<event>
 5   0  0.1560728E-02  0.8812062E+03  0.7818609E-02  0.9449384E-01
        1   -1    0    0  501    0  0.00000000000E+00  0.00000000000E+00  0.29897264486E+03  0.29897264490E+03  0.50400001928E-02 0. -1.
       -1   -1    0    0    0  501  0.00000000000E+00  0.00000000000E+00 -0.64932719907E+03  0.64932719909E+03  0.50400001928E-02 0.  1.
    10030    2    1    2    0    0  0.00000000000E+00  0.00000000000E+00 -0.35035455421E+03  0.94829984399E+03  0.88120615094E+03 0.  0.
        4    1    3    3  502    0 -0.38692425356E+03 -0.75266663794E+02  0.36671750298E+02  0.39588114232E+03  0.12699999809E+01 0.  1.
       -4    1    3    3    0  502  0.38692425356E+03  0.75266663794E+02 -0.38702630451E+03  0.55241870167E+03  0.12699999809E+01 0. -1.
</event>
<event>
 5   0  0.1559275E-02  0.9112306E+03  0.7818609E-02  0.9411651E-01
       -1   -1    0    0    0  501  0.00000000000E+00  0.00000000000E+00  0.39788812254E+03  0.39788812257E+03  0.50400001928E-02 0. -1.
        1   -1    0    0  501    0  0.00000000000E+00  0.00000000000E+00 -0.52171773608E+03  0.52171773611E+03  0.50400001928E-02 0.  1.
    10030    2    1    2    0    0  0.00000000000E+00  0.00000000000E+00 -0.12382961354E+03  0.91960585868E+03  0.91123057572E+03 0.  0.
        1    1    3    3  502    0 -0.15382177064E+03 -0.10501163485E+03 -0.48154507848E+03  0.51630828311E+03  0.50400001928E-02 0.  1.
       -1    1    3    3    0  502  0.15382177064E+03  0.10501163485E+03  0.35771546494E+03  0.40329757557E+03  0.50400001928E-02 0. -1.
</event>
<event>
 5   0  0.1559275E-02  0.8955753E+03  0.7818609E-02  0.9431129E-01
       -1   -1    0    0    0  501  0.00000000000E+00  0.00000000000E+00  0.34308447604E+03  0.34308447608E+03  0.50400001928E-02 0.  1.
        1   -1    0    0  501    0  0.00000000000E+00  0.00000000000E+00 -0.58444433780E+03  0.58444433782E+03  0.50400001928E-02 0. -1.
    10030    2    1    2    0    0  0.00000000000E+00  0.00000000000E+00 -0.24135986176E+03  0.92752881390E+03  0.89557529988E+03 0.  0.
        1    1    3    3  502    0 -0.35426459964E+03 -0.91894427828E+02 -0.38788878108E+03  0.53329700818E+03  0.50400001928E-02 0. -1.
       -1    1    3    3    0  502  0.35426459964E+03  0.91894427828E+02  0.14652891932E+03  0.39423180572E+03  0.50400001928E-02 0.  1.
</event>
<event>
 5   0  0.2803717E-02  0.9017952E+03  0.7818609E-02  0.9423340E-01
        2   -1    0    0  501    0  0.00000000000E+00  0.00000000000E+00  0.16087831833E+04  0.16087831834E+04  0.25500000920E-02 0.  1.
       -2   -1    0    0    0  501  0.00000000000E+00  0.00000000000E+00 -0.12637416060E+03  0.12637416063E+03  0.25500000920E-02 0. -1.
    10030    2    1    2    0    0  0.00000000000E+00  0.00000000000E+00  0.14824090227E+04  0.17351573440E+04  0.90179515281E+03 0.  0.
        5    1    3    3  502    0 -0.14583935639E+03 -0.38330636405E+03  0.11016546715E+04  0.11755245603E+04  0.46999998093E+01 0.  1.
       -5    1    3    3    0  502  0.14583935639E+03  0.38330636405E+03  0.38075435126E+03  0.55963278370E+03  0.46999998093E+01 0. -1.
</event>
<event>
 5   0  0.2705111E-02  0.7917642E+03  0.7818609E-02  0.9572015E-01
       -2   -1    0    0    0  501  0.00000000000E+00  0.00000000000E+00  0.11007882563E+03  0.11007882566E+03  0.25500000920E-02 0. -1.
        2   -1    0    0  501    0  0.00000000000E+00  0.00000000000E+00 -0.14237310504E+04  0.14237310504E+04  0.25500000920E-02 0.  1.
    10030    2    1    2    0    0  0.00000000000E+00  0.00000000000E+00 -0.13136522247E+04  0.15338098760E+04  0.79176421252E+03 0.  0.
        4    1    3    3  502    0 -0.35519774077E+03  0.15102654212E+03 -0.82732855388E+03  0.91293406138E+03  0.12699999809E+01 0. -1.
       -4    1    3    3    0  502  0.35519774077E+03 -0.15102654212E+03 -0.48632367084E+03  0.62087581463E+03  0.12699999809E+01 0.  1.
</event>
<event>
 5   0  0.1537870E-02  0.9441483E+03  0.7818609E-02  0.9372017E-01
        1   -1    0    0  501    0  0.00000000000E+00  0.00000000000E+00  0.57633667543E+03  0.57633667545E+03  0.50400001928E-02 0.  1.
       -1   -1    0    0    0  501  0.00000000000E+00  0.00000000000E+00 -0.38667327138E+03  0.38667327141E+03  0.50400001928E-02 0. -1.
    10030    2    1    2    0    0  0.00000000000E+00  0.00000000000E+00  0.18966340405E+03  0.96300994686E+03  0.94414826745E+03 0.  0.
        5    1    3    3  502    0  0.44845586471E+03 -0.14718847615E+03  0.87281965182E+02  0.48001806377E+03  0.46999998093E+01 0. -1.
       -5    1    3    3    0  502 -0.44845586471E+03  0.14718847615E+03  0.10238143886E+03  0.48299188309E+03  0.46999998093E+01 0.  1.
</event>
<event>
 5   0  0.2705111E-02  0.9262132E+03  0.7818609E-02  0.9393394E-01
       -2   -1    0    0    0  501  0.00000000000E+00  0.00000000000E+00  0.16400660583E+03  0.16400660585E+03  0.25500000920E-02 0.  1.
        2   -1    0    0  501    0  0.00000000000E+00  0.00000000000E+00 -0.13076772787E+04  0.13076772787E+04  0.25500000920E-02 0. -1.
    10030    2    1    2    0    0  0.00000000000E+00  0.00000000000E+00 -0.11436706729E+04  0.14716838845E+04  0.92621317635E+03 0.  0.
        4    1    3    3  502    0 -0.46263686243E+03 -0.16557611382E+02 -0.55179482384E+03  0.72026811779E+03  0.12699999809E+01 0. -1.
       -4    1    3    3    0  502  0.46263686243E+03  0.16557611382E+02 -0.59187584901E+03  0.75141576675E+03  0.12699999809E+01 0.  1.
</event>
<event>
 5   0  0.1497410E-02  0.8847625E+03  0.7818609E-02  0.9444832E-01
        1   -1    0    0  501    0  0.00000000000E+00  0.00000000000E+00  0.68059970655E+03  0.68059970656E+03  0.50400001928E-02 0.  1.
       -1   -1    0    0    0  501  0.00000000000E+00  0.00000000000E+00 -0.28754227253E+03  0.28754227257E+03  0.50400001928E-02 0. -1.
    10030    2    1    2    0    0  0.00000000000E+00  0.00000000000E+00  0.39305743402E+03  0.96814197914E+03  0.88476253612E+03 0.  0.
        3    1    3    3  502    0 -0.17915824318E+03  0.30689319853E+03 -0.91778048671E+02  0.36702088744E+03  0.10100000352E+00 0. -1.
       -3    1    3    3    0  502  0.17915824318E+03 -0.30689319853E+03  0.48483548269E+03  0.60112109169E+03  0.10100000352E+00 0.  1.
</event>
<event>
 5   0  0.2628383E-02  0.8717320E+03  0.7818609E-02  0.9461624E-01
        2   -1    0    0  501    0  0.00000000000E+00  0.00000000000E+00  0.12047409268E+04  0.12047409268E+04  0.25500000920E-02 0.  1.
       -2   -1    0    0    0  501  0.00000000000E+00  0.00000000000E+00 -0.15769297894E+03  0.15769297896E+03  0.25500000920E-02 0. -1.
    10030    2    1    2    0    0  0.00000000000E+00  0.00000000000E+00  0.10470479479E+04  0.13624339058E+04  0.87173203593E+03 0.  0.
        2    1    3    3  502    0 -0.94045135847E+02  0.38564505101E+03  0.80490144514E+03  0.89745915191E+03  0.25500000920E-02 0.  1.
       -2    1    3    3    0  502  0.94045135847E+02 -0.38564505101E+03  0.24214650273E+03  0.46497475387E+03  0.25500000920E-02 0. -1.
</event>
<event>
 5   0  0.2679861E-02  0.8936713E+03  0.7818609E-02  0.9433527E-01
        2   -1    0    0  501    0  0.00000000000E+00  0.00000000000E+00  0.67216646537E+03  0.67216646538E+03  0.25500000920E-02 0.  1.
       -2   -1    0    0    0  501  0.00000000000E+00  0.00000000000E+00 -0.29704264068E+03  0.29704264069E+03  0.25500000920E-02 0. -1.
    10030    2    1    2    0    0  0.00000000000E+00  0.00000000000E+00  0.37512382469E+03  0.96920910607E+03  0.89367130839E+03 0.  0.
        1    1    3    3  502    0  0.35060425604E+03  0.12726198019E+03  0.45441495723E+03  0.58788766728E+03  0.50400001928E-02 0.  1.
       -1    1    3    3    0  502 -0.35060425604E+03 -0.12726198019E+03 -0.79291132545E+02  0.38132143879E+03  0.50400001928E-02 0. -1.
</event>
<event>
 5   0  0.1040163E-02  0.8967546E+03  0.7818609E-02  0.9429647E-01
        3   -1    0    0  501    0  0.00000000000E+00  0.00000000000E+00  0.68370560654E+03  0.68370561400E+03  0.10100000352E+00 0. -1.
       -3   -1    0    0    0  501  0.00000000000E+00  0.00000000000E+00 -0.29404788382E+03  0.29404790116E+03  0.10100000352E+00 0.  1.
    10030    2    1    2    0    0  0.00000000000E+00  0.00000000000E+00  0.38965772272E+03  0.97775351516E+03  0.89675459047E+03 0.  0.
        3    1    3    3  502    0 -0.32895142394E+03  0.11603751873E+03 -0.11234178353E+03  0.36646204659E+03  0.10100000352E+00 0.  1.
       -3    1    3    3    0  502  0.32895142394E+03 -0.11603751873E+03  0.50199950625E+03  0.61129146857E+03  0.10100000352E+00 0. -1.
</event>
<event>
 5   0  0.1560728E-02  0.9425912E+03  0.7818609E-02  0.9373852E-01
        1   -1    0    0  501    0  0.00000000000E+00  0.00000000000E+00  0.10619939957E+04  0.10619939957E+04  0.50400001928E-02 0.  1.
       -1   -1    0    0    0  501  0.00000000000E+00  0.00000000000E+00 -0.20915331464E+03  0.20915331470E+03  0.50400001928E-02 0. -1.
    10030    2    1    2    0    0  0.00000000000E+00  0.00000000000E+00  0.85284068103E+03  0.12711473104E+04  0.94259124622E+03 0.  0.
        4    1    3    3  502    0 -0.84328491941E+01  0.13325513043E+03 -0.18311085554E+03  0.22662577313E+03  0.12699999809E+01 0. -1.
       -4    1    3    3    0  502  0.84328491941E+01 -0.13325513043E+03  0.10359515366E+04  0.10445215372E+04  0.12699999809E+01 0.  1.
</event>
<event>
 5   0  0.2679861E-02  0.8755469E+03  0.7818609E-02  0.9456676E-01
       -2   -1    0    0    0  501  0.00000000000E+00  0.00000000000E+00  0.14824127439E+03  0.14824127441E+03  0.25500000920E-02 0. -1.
        2   -1    0    0  501    0  0.00000000000E+00  0.00000000000E+00 -0.12927951359E+04  0.12927951359E+04  0.25500000920E-02 0.  1.
    10030    2    1    2    0    0  0.00000000000E+00  0.00000000000E+00 -0.11445538615E+04  0.14410364103E+04  0.87554691134E+03 0.  0.
        1    1    3    3  502    0 -0.38277286313E+01  0.29118026788E+03 -0.11102649852E+04  0.11478192093E+04  0.50400001928E-02 0.  1.
       -1    1    3    3    0  502  0.38277286313E+01 -0.29118026788E+03 -0.34288876339E+02  0.29321720102E+03  0.50400001928E-02 0. -1.
</event>
<event>
 5   0  0.1040163E-02  0.4748603E+03  0.7818609E-02  0.1020557E+00
        4   -1    0    0  501    0  0.00000000000E+00  0.00000000000E+00  0.16454039148E+03  0.16454529264E+03  0.12699999809E+01 0. -1.
       -4   -1    0    0    0  501  0.00000000000E+00  0.00000000000E+00 -0.34259821992E+03  0.34260057383E+03  0.12699999809E+01 0.  1.
    10030    2    1    2    0    0  0.00000000000E+00  0.00000000000E+00 -0.17805782844E+03  0.50714586647E+03  0.47486033695E+03 0.  0.
        1    1    3    3  502    0 -0.70017580484E+02  0.11483942374E+03 -0.29799091110E+03  0.32693904317E+03  0.50400001928E-02 0.  1.
       -1    1    3    3    0  502  0.70017580484E+02 -0.11483942374E+03  0.11993308267E+03  0.18020682330E+03  0.50400001928E-02 0. -1.
</event>
<event>
 5   0  0.2705111E-02  0.8954527E+03  0.7818609E-02  0.9431284E-01
        2   -1    0    0  501    0  0.00000000000E+00  0.00000000000E+00  0.19301165860E+04  0.19301165860E+04  0.25500000920E-02 0. -1.
       -2   -1    0    0    0  501  0.00000000000E+00  0.00000000000E+00 -0.10385843335E+03  0.10385843338E+03  0.25500000920E-02 0.  1.
    10030    2    1    2    0    0  0.00000000000E+00  0.00000000000E+00  0.18262581526E+04  0.20339750193E+04  0.89545270078E+03 0.  0.
        4    1    3    3  502    0  0.29463460449E+03  0.33699337702E+03  0.93384608685E+03  0.10355888244E+04  0.12699999809E+01 0.  1.
       -4    1    3    3    0  502 -0.29463460449E+03 -0.33699337702E+03  0.89241206575E+03  0.99838619498E+03  0.12699999809E+01 0. -1.
</event>
<event>
 5   0  0.2414128E-02  0.8753288E+03  0.7818609E-02  0.9456958E-01
        2   -1    0    0  501    0  0.00000000000E+00  0.00000000000E+00  0.11031002467E+04  0.11031002467E+04  0.25500000920E-02 0. -1.
       -2   -1    0    0    0  501  0.00000000000E+00  0.00000000000E+00 -0.17364707794E+03  0.17364707796E+03  0.25500000920E-02 0.  1.
    10030    2    1    2    0    0  0.00000000000E+00  0.00000000000E+00  0.92945316878E+03  0.12767473247E+04  0.87532881713E+03 0.  0.
        3    1    3    3  502    0  0.77570314134E+02  0.25592680840E+03  0.97007006175E+03  0.10062562396E+04  0.10100000352E+00 0. -1.
       -3    1    3    3    0  502 -0.77570314134E+02 -0.25592680840E+03 -0.40616892968E+02  0.27049108504E+03  0.10100000352E+00 0.  1.
</event>
<event>
 5   0  0.1459111E-02  0.8586160E+03  0.7818609E-02  0.9478845E-01
       -1   -1    0    0    0  501  0.00000000000E+00  0.00000000000E+00  0.27074517512E+03  0.27074517517E+03  0.50400001928E-02 0.  1.
        1   -1    0    0  501    0  0.00000000000E+00  0.00000000000E+00 -0.68073365817E+03  0.68073365819E+03  0.50400001928E-02 0. -1.
    10030    2    1    2    0    0  0.00000000000E+00  0.00000000000E+00 -0.40998848305E+03  0.95147883336E+03  0.85861598756E+03 0.  0.
        2    1    3    3  502    0  0.35734443851E+03  0.18502976878E+03 -0.37075235539E+03  0.54716393531E+03  0.25500000920E-02 0. -1.
       -2    1    3    3    0  502 -0.35734443851E+03 -0.18502976878E+03 -0.39236127661E+02  0.40431489805E+03  0.25500000920E-02 0.  1.
</event>
<event>
 5   0  0.1560728E-02  0.9082788E+03  0.7818609E-02  0.9415291E-01
       -1   -1    0    0    0  501  0.00000000000E+00  0.00000000000E+00  0.64936321051E+03  0.64936321053E+03  0.50400001928E-02 0. -1.
        1   -1    0    0  501    0  0.00000000000E+00  0.00000000000E+00 -0.31760745770E+03  0.31760745774E+03  0.50400001928E-02 0.  1.
    10030    2    1    2    0    0  0.00000000000E+00  0.00000000000E+00  0.33175575280E+03  0.96697066827E+03  0.90827880839E+03 0.  0.
        4    1    3    3  502    0 -0.37130606250E+03  0.17092467837E+00 -0.11250062228E+03  0.38797709234E+03  0.12699999809E+01 0.  1.
       -4    1    3    3    0  502  0.37130606250E+03 -0.17092467837E+00  0.44425637509E+03  0.57899357593E+03  0.12699999809E+01 0. -1.
</event>
<event>
 5   0  0.1497410E-02  0.9227590E+03  0.7818609E-02  0.9397570E-01
        1   -1    0    0  501    0  0.00000000000E+00  0.00000000000E+00  0.15048229640E+04  0.15048229640E+04  0.50400001928E-02 0.  1.
       -1   -1    0    0    0  501  0.00000000000E+00  0.00000000000E+00 -0.14145920331E+03  0.14145920340E+03  0.50400001928E-02 0. -1.
    10030    2    1    2    0    0  0.00000000000E+00  0.00000000000E+00  0.13633637607E+04  0.16462821674E+04  0.92275903181E+03 0.  0.
        3    1    3    3  502    0 -0.86593116541E+02 -0.35838216656E+03  0.11765365499E+04  0.12329535306E+04  0.10100000352E+00 0.  1.
       -3    1    3    3    0  502  0.86593116541E+02  0.35838216656E+03  0.18682721084E+03  0.41332863686E+03  0.10100000352E+00 0. -1.
</event>
<event>
 5   0  0.1497410E-02  0.8987184E+03  0.7818609E-02  0.9427185E-01
        1   -1    0    0  501    0  0.00000000000E+00  0.00000000000E+00  0.10650573195E+04  0.10650573195E+04  0.50400001928E-02 0.  1.
       -1   -1    0    0    0  501  0.00000000000E+00  0.00000000000E+00 -0.18958951767E+03  0.18958951773E+03  0.50400001928E-02 0. -1.
    10030    2    1    2    0    0  0.00000000000E+00  0.00000000000E+00  0.87546780184E+03  0.12546468373E+04  0.89871842875E+03 0.  0.
        3    1    3    3  502    0 -0.43907795439E+03  0.25292894583E+02  0.30906692722E+03  0.53754214370E+03  0.10100000352E+00 0.  1.
       -3    1    3    3    0  502  0.43907795439E+03 -0.25292894583E+02  0.56640087462E+03  0.71710469356E+03  0.10100000352E+00 0. -1.
</event>
<event>
 5   0  0.2679861E-02  0.8941683E+03  0.7818609E-02  0.9432901E-01
       -2   -1    0    0    0  501  0.00000000000E+00  0.00000000000E+00  0.23910176620E+03  0.23910176621E+03  0.25500000920E-02 0.  1.
        2   -1    0    0  501    0  0.00000000000E+00  0.00000000000E+00 -0.83597969482E+03  0.83597969482E+03  0.25500000920E-02 0. -1.
    10030    2    1    2    0    0  0.00000000000E+00  0.00000000000E+00 -0.59687792862E+03  0.10750814610E+04  0.89416826503E+03 0.  0.
        1    1    3    3  502    0  0.31428919823E+03  0.27515020761E+03 -0.49005393782E+03  0.64392406297E+03  0.50400001928E-02 0. -1.
       -1    1    3    3    0  502 -0.31428919823E+03 -0.27515020761E+03 -0.10682399080E+03  0.43115739807E+03  0.50400001928E-02 0.  1.
</event>
<event>
 5   0  0.2414128E-02  0.9498764E+03  0.7818609E-02  0.9365295E-01
        2   -1    0    0  501    0  0.00000000000E+00  0.00000000000E+00  0.16990882543E+04  0.16990882543E+04  0.25500000920E-02 0. -1.
       -2   -1    0    0    0  501  0.00000000000E+00  0.00000000000E+00 -0.13275726955E+03  0.13275726958E+03  0.25500000920E-02 0.  1.
    10030    2    1    2    0    0  0.00000000000E+00  0.00000000000E+00  0.15663309848E+04  0.18318455239E+04  0.94987644966E+03 0.  0.
        3    1    3    3  502    0 -0.46402057309E+03  0.35928092309E+02  0.96571686984E+03  0.10720144602E+04  0.10100000352E+00 0.  1.
       -3    1    3    3    0  502  0.46402057309E+03 -0.35928092309E+02  0.60061411495E+03  0.75983106369E+03  0.10100000352E+00 0. -1.
</event>
<event>
 5   0  0.2628383E-02  0.9124940E+03  0.7818609E-02  0.9410097E-01
       -2   -1    0    0    0  501  0.00000000000E+00  0.00000000000E+00  0.42060363908E+03  0.42060363909E+03  0.25500000920E-02 0. -1.
        2   -1    0    0  501    0  0.00000000000E+00  0.00000000000E+00 -0.49491094930E+03  0.49491094931E+03  0.25500000920E-02 0.  1.
    10030    2    1    2    0    0  0.00000000000E+00  0.00000000000E+00 -0.74307310216E+02  0.91551458840E+03  0.91249404667E+03 0.  0.
        2    1    3    3  502    0 -0.14010619716E+02 -0.18792512364E+03 -0.45403984672E+03  0.49159366552E+03  0.25500000920E-02 0.  1.
       -2    1    3    3    0  502  0.14010619716E+02  0.18792512364E+03  0.37973253651E+03  0.42392092287E+03  0.25500000920E-02 0. -1.
</event>
<event>
 5   0  0.1559275E-02  0.6294214E+03  0.7818609E-02  0.9846179E-01
        1   -1    0    0  501    0  0.00000000000E+00  0.00000000000E+00  0.47354698543E+03  0.47354698545E+03  0.50400001928E-02 0. -1.
       -1   -1    0    0    0  501  0.00000000000E+00  0.00000000000E+00 -0.20915101167E+03  0.20915101173E+03  0.50400001928E-02 0.  1.
    10030    2    1    2    0    0  0.00000000000E+00  0.00000000000E+00  0.26439597375E+03  0.68269799718E+03  0.62942142037E+03 0.  0.
        1    1    3    3  502    0  0.20133308477E+03  0.21619312852E+03  0.24986234258E+03  0.38691816978E+03  0.50400001928E-02 0. -1.
       -1    1    3    3    0  502 -0.20133308477E+03 -0.21619312852E+03  0.14533631176E+02  0.29577982741E+03  0.50400001928E-02 0.  1.
</event>
<event>
 5   0  0.2628383E-02  0.8855967E+03  0.7818609E-02  0.9443768E-01
       -2   -1    0    0    0  501  0.00000000000E+00  0.00000000000E+00  0.17763613735E+03  0.17763613737E+03  0.25500000920E-02 0.  1.
        2   -1    0    0  501    0  0.00000000000E+00  0.00000000000E+00 -0.11037752858E+04  0.11037752858E+04  0.25500000920E-02 0. -1.
    10030    2    1    2    0    0  0.00000000000E+00  0.00000000000E+00 -0.92613914849E+03  0.12814114232E+04  0.88559669895E+03 0.  0.
        2    1    3    3  502    0  0.34982359994E+03 -0.16652890072E+03 -0.77327674778E+03  0.86490771445E+03  0.25500000920E-02 0. -1.
       -2    1    3    3    0  502 -0.34982359994E+03  0.16652890072E+03 -0.15286240070E+03  0.41650370876E+03  0.25500000920E-02 0.  1.
</event>
<event>
 5   0  0.1559275E-02  0.9317610E+03  0.7818609E-02  0.9386727E-01
        1   -1    0    0  501    0  0.00000000000E+00  0.00000000000E+00  0.78271677761E+03  0.78271677763E+03  0.50400001928E-02 0. -1.
       -1   -1    0    0    0  501  0.00000000000E+00  0.00000000000E+00 -0.27729651135E+03  0.27729651139E+03  0.50400001928E-02 0.  1.
    10030    2    1    2    0    0  0.00000000000E+00  0.00000000000E+00  0.50542026626E+03  0.10600132890E+04  0.93176098188E+03 0.  0.
        1    1    3    3  502    0  0.16578682633E+03  0.21206374914E+03 -0.17987680820E+03  0.32374677085E+03  0.50400001928E-02 0.  1.
       -1    1    3    3    0  502 -0.16578682633E+03 -0.21206374914E+03  0.68529707446E+03  0.73626651817E+03  0.50400001928E-02 0. -1.
</event>
<event>
 5   0  0.1537870E-02  0.1004680E+04  0.7818609E-02  0.9303427E-01
        1   -1    0    0  501    0  0.00000000000E+00  0.00000000000E+00  0.72328911242E+03  0.72328911244E+03  0.50400001928E-02 0.  1.
       -1   -1    0    0    0  501  0.00000000000E+00  0.00000000000E+00 -0.34888589160E+03  0.34888589164E+03  0.50400001928E-02 0. -1.
    10030    2    1    2    0    0  0.00000000000E+00  0.00000000000E+00  0.37440322082E+03  0.10721750041E+04  0.10046797836E+04 0.  0.
        5    1    3    3  502    0 -0.36682009892E+03  0.44716870381E+02 -0.17590138305E+03  0.40929203514E+03  0.46999998093E+01 0. -1.
       -5    1    3    3    0  502  0.36682009892E+03 -0.44716870381E+02  0.55030460387E+03  0.66288296894E+03  0.46999998093E+01 0.  1.
</event>
<event>
 5   0  0.2705111E-02  0.8844630E+03  0.7818609E-02  0.9445215E-01
        2   -1    0    0  501    0  0.00000000000E+00  0.00000000000E+00  0.84518848490E+03  0.84518848490E+03  0.25500000920E-02 0.  1.
       -2   -1    0    0    0  501  0.00000000000E+00  0.00000000000E+00 -0.23139063586E+03  0.23139063587E+03  0.25500000920E-02 0. -1.
    10030    2    1    2    0    0  0.00000000000E+00  0.00000000000E+00  0.61379784905E+03  0.10765791208E+04  0.88446300307E+03 0.  0.
        4    1    3    3  502    0 -0.10851148368E+03 -0.15326232791E+03 -0.18044674709E+03  0.26043564403E+03  0.12699999809E+01 0. -1.
       -4    1    3    3    0  502  0.10851148368E+03  0.15326232791E+03  0.79424459613E+03  0.81614347674E+03  0.12699999809E+01 0.  1.
</event>
<event>
 5   0  0.1559275E-02  0.8808257E+03  0.7818609E-02  0.9449873E-01
       -1   -1    0    0    0  501  0.00000000000E+00  0.00000000000E+00  0.34879905844E+03  0.34879905848E+03  0.50400001928E-02 0. -1.
        1   -1    0    0  501    0  0.00000000000E+00  0.00000000000E+00 -0.55608946568E+03  0.55608946570E+03  0.50400001928E-02 0.  1.
    10030    2    1    2    0    0  0.00000000000E+00  0.00000000000E+00 -0.20729040723E+03  0.90488852418E+03  0.88082570822E+03 0.  0.
        1    1    3    3  502    0 -0.83395808199E+02 -0.30717074510E+03  0.20906276896E+03  0.38080962285E+03  0.50400001928E-02 0. -1.
       -1    1    3    3    0  502  0.83395808199E+02  0.30717074510E+03 -0.41635317619E+03  0.52407890133E+03  0.50400001928E-02 0.  1.
</event>
<event>
 5   0  0.1537870E-02  0.8755722E+03  0.7818609E-02  0.9456643E-01
        1   -1    0    0  501    0  0.00000000000E+00  0.00000000000E+00  0.58871235364E+03  0.58871235366E+03  0.50400001928E-02 0. -1.
       -1   -1    0    0    0  501  0.00000000000E+00  0.00000000000E+00 -0.32555227758E+03  0.32555227762E+03  0.50400001928E-02 0.  1.
    10030    2    1    2    0    0  0.00000000000E+00  0.00000000000E+00  0.26316007605E+03  0.91426463128E+03  0.87557215030E+03 0.  0.
        5    1    3    3  502    0 -0.24339048604E+03  0.17563447788E+03 -0.20116838602E+03  0.36135468455E+03  0.46999998093E+01 0.  1.
       -5    1    3    3    0  502  0.24339048604E+03 -0.17563447788E+03  0.46432846207E+03  0.55290994674E+03  0.46999998093E+01 0. -1.
</event>
<event>
 5   0  0.1559275E-02  0.9260906E+03  0.7818609E-02  0.9393542E-01
        1   -1    0    0  501    0  0.00000000000E+00  0.00000000000E+00  0.44926119517E+03  0.44926119520E+03  0.50400001928E-02 0.  1.
       -1   -1    0    0    0  501  0.00000000000E+00  0.00000000000E+00 -0.47725235904E+03  0.47725235906E+03  0.50400001928E-02 0. -1.
    10030    2    1    2    0    0  0.00000000000E+00  0.00000000000E+00 -0.27991163871E+02  0.92651355426E+03  0.92609063324E+03 0.  0.
        1    1    3    3  502    0 -0.28803455279E+03 -0.36193157287E+03 -0.35279652319E+02  0.46389979622E+03  0.50400001928E-02 0. -1.
       -1    1    3    3    0  502  0.28803455279E+03  0.36193157287E+03  0.72884884479E+01  0.46261375804E+03  0.50400001928E-02 0.  1.
</event>
<event>
 5   0  0.1459111E-02  0.8932011E+03  0.7818609E-02  0.9434121E-01
        1   -1    0    0  501    0  0.00000000000E+00  0.00000000000E+00  0.75022805946E+03  0.75022805948E+03  0.50400001928E-02 0.  1.
       -1   -1    0    0    0  501  0.00000000000E+00  0.00000000000E+00 -0.26585519974E+03  0.26585519978E+03  0.50400001928E-02 0. -1.
    10030    2    1    2    0    0  0.00000000000E+00  0.00000000000E+00  0.48437285973E+03  0.10160832593E+04  0.89320105380E+03 0.  0.
        2    1    3    3  502    0  0.38380797539E+02  0.14636844276E+03 -0.23580527005E+03  0.28018017782E+03  0.25500000920E-02 0. -1.
       -2    1    3    3    0  502 -0.38380797539E+02 -0.14636844276E+03  0.72017812978E+03  0.73590308144E+03  0.25500000920E-02 0.  1.
</event>
<event>
 5   0  0.1459111E-02  0.8896770E+03  0.7818609E-02  0.9438578E-01
       -1   -1    0    0    0  501  0.00000000000E+00  0.00000000000E+00  0.53656719875E+03  0.53656719877E+03  0.50400001928E-02 0.  1.
        1   -1    0    0  501    0  0.00000000000E+00  0.00000000000E+00 -0.36879124966E+03  0.36879124969E+03  0.50400001928E-02 0. -1.
    10030    2    1    2    0    0  0.00000000000E+00  0.00000000000E+00  0.16777594909E+03  0.90535844847E+03  0.88967699257E+03 0.  0.
        2    1    3    3  502    0  0.23215676439E+03  0.16692002402E+03 -0.26288551028E+03  0.38841710724E+03  0.25500000920E-02 0. -1.
       -2    1    3    3    0  502 -0.23215676439E+03 -0.16692002402E+03  0.43066145938E+03  0.51694134123E+03  0.25500000920E-02 0.  1.
</event>
<event>
 5   0  0.1040163E-02  0.9005234E+03  0.7818609E-02  0.9424927E-01
       -3   -1    0    0    0  501  0.00000000000E+00  0.00000000000E+00  0.17779268595E+03  0.17779271464E+03  0.10100000352E+00 0. -1.
        3   -1    0    0  501    0  0.00000000000E+00  0.00000000000E+00 -0.11402921141E+04  0.11402921186E+04  0.10100000352E+00 0.  1.
    10030    2    1    2    0    0  0.00000000000E+00  0.00000000000E+00 -0.96249942815E+03  0.13180848332E+04  0.90052344687E+03 0.  0.
        3    1    3    3  502    0  0.50796421006E+02 -0.21717648117E+03  0.91255500976E+02  0.24098439165E+03  0.10100000352E+00 0. -1.
       -3    1    3    3    0  502 -0.50796421006E+02  0.21717648117E+03 -0.10537549291E+04  0.10771004416E+04  0.10100000352E+00 0.  1.
</event>
<event>
 5   0  0.1537870E-02  0.9196694E+03  0.7818609E-02  0.9401322E-01
        1   -1    0    0  501    0  0.00000000000E+00  0.00000000000E+00  0.50019367562E+03  0.50019367565E+03  0.50400001928E-02 0. -1.
       -1   -1    0    0    0  501  0.00000000000E+00  0.00000000000E+00 -0.42273211305E+03  0.42273211308E+03  0.50400001928E-02 0.  1.
    10030    2    1    2    0    0  0.00000000000E+00  0.00000000000E+00  0.77461562571E+02  0.92292578873E+03  0.91966935245E+03 0.  0.
        5    1    3    3  502    0 -0.41483061112E+03 -0.15642126927E+03 -0.83659206343E+02  0.45119064951E+03  0.46999998093E+01 0. -1.
       -5    1    3    3    0  502  0.41483061112E+03  0.15642126927E+03  0.16112076891E+03  0.47173513922E+03  0.46999998093E+01 0.  1.
</event>
<event>
 5   0  0.2679861E-02  0.9466888E+03  0.7818609E-02  0.9369029E-01
        2   -1    0    0  501    0  0.00000000000E+00  0.00000000000E+00  0.16580955247E+04  0.16580955247E+04  0.25500000920E-02 0. -1.
       -2   -1    0    0    0  501  0.00000000000E+00  0.00000000000E+00 -0.13512786841E+03  0.13512786843E+03  0.25500000920E-02 0.  1.
    10030    2    1    2    0    0  0.00000000000E+00  0.00000000000E+00  0.15229676563E+04  0.17932233931E+04  0.94668878495E+03 0.  0.
        1    1    3    3  502    0  0.11105479302E+03 -0.55953481382E+02  0.16266009342E+04  0.16313474670E+04  0.50400001928E-02 0. -1.
       -1    1    3    3    0  502 -0.11105479302E+03  0.55953481382E+02 -0.10363327790E+03  0.16187592608E+03  0.50400001928E-02 0.  1.
</event>
<event>
 5   0  0.1459111E-02  0.9201333E+03  0.7818609E-02  0.9400758E-01
        1   -1    0    0  501    0  0.00000000000E+00  0.00000000000E+00  0.11656884403E+04  0.11656884403E+04  0.50400001928E-02 0. -1.
       -1   -1    0    0    0  501  0.00000000000E+00  0.00000000000E+00 -0.18157625339E+03  0.18157625346E+03  0.50400001928E-02 0.  1.
    10030    2    1    2    0    0  0.00000000000E+00  0.00000000000E+00  0.98411218691E+03  0.13472646938E+04  0.92013333743E+03 0.  0.
        2    1    3    3  502    0 -0.31087645143E+03 -0.31883335510E+03  0.66131262049E+03  0.79726611517E+03  0.25500000920E-02 0. -1.
       -2    1    3    3    0  502  0.31087645143E+03  0.31883335510E+03  0.32279956642E+03  0.54999857860E+03  0.25500000920E-02 0.  1.
</event>
<event>
 5   0  0.2414128E-02  0.8907912E+03  0.7818609E-02  0.9437167E-01
       -2   -1    0    0    0  501  0.00000000000E+00  0.00000000000E+00  0.24666161017E+03  0.24666161018E+03  0.25500000920E-02 0. -1.
        2   -1    0    0  501    0  0.00000000000E+00  0.00000000000E+00 -0.80424852983E+03  0.80424852983E+03  0.25500000920E-02 0.  1.
    10030    2    1    2    0    0  0.00000000000E+00  0.00000000000E+00 -0.55758691966E+03  0.10509101400E+04  0.89079119294E+03 0.  0.
        3    1    3    3  502    0  0.36674295078E+03  0.18360375182E+03 -0.73888669046E+02  0.41673765758E+03  0.10100000352E+00 0. -1.
       -3    1    3    3    0  502 -0.36674295078E+03 -0.18360375182E+03 -0.48369825061E+03  0.63417248244E+03  0.10100000352E+00 0.  1.
</event>
<event>
 5   0  0.1560728E-02  0.8766579E+03  0.7818609E-02  0.9455240E-01
        1   -1    0    0  501    0  0.00000000000E+00  0.00000000000E+00  0.14501558949E+04  0.14501558949E+04  0.50400001928E-02 0. -1.
       -1   -1    0    0    0  501  0.00000000000E+00  0.00000000000E+00 -0.13249076368E+03  0.13249076378E+03  0.50400001928E-02 0.  1.
    10030    2    1    2    0    0  0.00000000000E+00  0.00000000000E+00  0.13176651312E+04  0.15826466587E+04  0.87665788551E+03 0.  0.
        4    1    3    3  502    0 -0.41264501800E+03  0.14754805901E+03  0.67540894433E+03  0.80512433548E+03  0.12699999809E+01 0.  1.
       -4    1    3    3    0  502  0.41264501800E+03 -0.14754805901E+03  0.64225618689E+03  0.77752232321E+03  0.12699999809E+01 0. -1.
</event>
<event>
 5   0  0.2679861E-02  0.8899028E+03  0.7818609E-02  0.9438292E-01
        2   -1    0    0  501    0  0.00000000000E+00  0.00000000000E+00  0.93517321925E+03  0.93517321926E+03  0.25500000920E-02 0. -1.
       -2   -1    0    0    0  501  0.00000000000E+00  0.00000000000E+00 -0.21170597299E+03  0.21170597300E+03  0.25500000920E-02 0.  1.
    10030    2    1    2    0    0  0.00000000000E+00  0.00000000000E+00  0.72346724627E+03  0.11468791923E+04  0.88990281785E+03 0.  0.
        1    1    3    3  502    0  0.51156934219E+01  0.83016860169E+02  0.92506544169E+03  0.92879709347E+03  0.50400001928E-02 0. -1.
       -1    1    3    3    0  502 -0.51156934219E+01 -0.83016860169E+02 -0.20159819542E+03  0.21808209880E+03  0.50400001928E-02 0.  1.
</event>
<event>
 5   0  0.1559275E-02  0.4916361E+03  0.7818609E-02  0.1015985E+00
       -1   -1    0    0    0  501  0.00000000000E+00  0.00000000000E+00  0.77220080246E+02  0.77220080411E+02  0.50400001928E-02 0. -1.
        1   -1    0    0  501    0  0.00000000000E+00  0.00000000000E+00 -0.78252327844E+03  0.78252327846E+03  0.50400001928E-02 0.  1.
    10030    2    1    2    0    0  0.00000000000E+00  0.00000000000E+00 -0.70530319820E+03  0.85974335887E+03  0.49163608669E+03 0.  0.
        1    1    3    3  502    0  0.23559218172E+03 -0.66346943294E+02 -0.39256415350E+03  0.46261453459E+03  0.50400001928E-02 0.  1.
       -1    1    3    3    0  502 -0.23559218172E+03  0.66346943294E+02 -0.31273904470E+03  0.39712882428E+03  0.50400001928E-02 0. -1.
</event>
<event>
 5   0  0.2705111E-02  0.8179141E+03  0.7818609E-02  0.9534443E-01
       -2   -1    0    0    0  501  0.00000000000E+00  0.00000000000E+00  0.20281280299E+03  0.20281280301E+03  0.25500000920E-02 0.  1.
        2   -1    0    0  501    0  0.00000000000E+00  0.00000000000E+00 -0.82463172599E+03  0.82463172600E+03  0.25500000920E-02 0. -1.
    10030    2    1    2    0    0  0.00000000000E+00  0.00000000000E+00 -0.62181892300E+03  0.10274445290E+04  0.81791410745E+03 0.  0.
        4    1    3    3  502    0  0.33013776256E+03 -0.11281383627E+03 -0.57893867073E+03  0.67593601864E+03  0.12699999809E+01 0. -1.
       -4    1    3    3    0  502 -0.33013776256E+03  0.11281383627E+03 -0.42880252270E+02  0.35150851036E+03  0.12699999809E+01 0.  1.
</event>
<event>
 5   0  0.1537870E-02  0.7832644E+03  0.7818609E-02  0.9584562E-01
       -1   -1    0    0    0  501  0.00000000000E+00  0.00000000000E+00  0.57767349494E+03  0.57767349497E+03  0.50400001928E-02 0.  1.
        1   -1    0    0  501    0  0.00000000000E+00  0.00000000000E+00 -0.26550596973E+03  0.26550596977E+03  0.50400001928E-02 0. -1.
    10030    2    1    2    0    0  0.00000000000E+00  0.00000000000E+00  0.31216752522E+03  0.84317946474E+03  0.78326435254E+03 0.  0.
        5    1    3    3  502    0  0.76027880928E+02  0.16424590460E+03  0.52991828059E+03  0.55999324099E+03  0.46999998093E+01 0.  1.
       -5    1    3    3    0  502 -0.76027880928E+02 -0.16424590460E+03 -0.21775075537E+03  0.28318622375E+03  0.46999998093E+01 0. -1.
</event>
<event>
 5   0  0.2628383E-02  0.9223650E+03  0.7818609E-02  0.9398048E-01
        2   -1    0    0  501    0  0.00000000000E+00  0.00000000000E+00  0.19514937793E+04  0.19514937793E+04  0.25500000920E-02 0.  1.
       -2   -1    0    0    0  501  0.00000000000E+00  0.00000000000E+00 -0.10898795242E+03  0.10898795245E+03  0.25500000920E-02 0. -1.
    10030    2    1    2    0    0  0.00000000000E+00  0.00000000000E+00  0.18425058268E+04  0.20604817317E+04  0.92236502794E+03 0.  0.
        2    1    3    3  502    0  0.19277981240E+03 -0.38976943071E+03  0.57803624929E+03  0.72333268327E+03  0.25500000920E-02 0.  1.
       -2    1    3    3    0  502 -0.19277981240E+03  0.38976943071E+03  0.12644695776E+04  0.13371490484E+04  0.25500000920E-02 0. -1.
</event>
<event>
 5   0  0.2803717E-02  0.9072755E+03  0.7818609E-02  0.9416532E-01
       -2   -1    0    0    0  501  0.00000000000E+00  0.00000000000E+00  0.24313130044E+03  0.24313130046E+03  0.25500000920E-02 0.  1.
        2   -1    0    0  501    0  0.00000000000E+00  0.00000000000E+00 -0.84640365955E+03  0.84640365955E+03  0.25500000920E-02 0. -1.
    10030    2    1    2    0    0  0.00000000000E+00  0.00000000000E+00 -0.60327235910E+03  0.10895349600E+04  0.90727553137E+03 0.  0.
        5    1    3    3  502    0 -0.21166977333E+03 -0.17860377360E+03  0.12978425848E+03  0.30589123007E+03  0.46999998093E+01 0.  1.
       -5    1    3    3    0  502  0.21166977333E+03  0.17860377360E+03 -0.73305661759E+03  0.78364372994E+03  0.46999998093E+01 0. -1.
</event>
<event>
 5   0  0.2628383E-02  0.9133484E+03  0.7818609E-02  0.9409047E-01
       -2   -1    0    0    0  501  0.00000000000E+00  0.00000000000E+00  0.21955751812E+03  0.21955751813E+03  0.25500000920E-02 0.  1.
        2   -1    0    0  501    0  0.00000000000E+00  0.00000000000E+00 -0.94987094102E+03  0.94987094102E+03  0.25500000920E-02 0. -1.
    10030    2    1    2    0    0  0.00000000000E+00  0.00000000000E+00 -0.73031342290E+03  0.11694284592E+04  0.91334835928E+03 0.  0.
        2    1    3    3  502    0  0.27740072705E+03 -0.11878028557E+02 -0.82938591706E+03  0.87462749233E+03  0.25500000920E-02 0. -1.
       -2    1    3    3    0  502 -0.27740072705E+03  0.11878028557E+02  0.99072494157E+02  0.29480096682E+03  0.25500000920E-02 0.  1.
</event>
<event>
 5   0  0.2414128E-02  0.8724284E+03  0.7818609E-02  0.9460719E-01
        2   -1    0    0  501    0  0.00000000000E+00  0.00000000000E+00  0.59892576183E+03  0.59892576183E+03  0.25500000920E-02 0.  1.
       -2   -1    0    0    0  501  0.00000000000E+00  0.00000000000E+00 -0.31770687309E+03  0.31770687310E+03  0.25500000920E-02 0. -1.
    10030    2    1    2    0    0  0.00000000000E+00  0.00000000000E+00  0.28121888874E+03  0.91663263493E+03  0.87242840625E+03 0.  0.
        3    1    3    3  502    0  0.99514448254E+02  0.38494021149E+03 -0.47928327108E+02  0.40047375267E+03  0.10100000352E+00 0.  1.
       -3    1    3    3    0  502 -0.99514448254E+02 -0.38494021149E+03  0.32914721585E+03  0.51615888226E+03  0.10100000352E+00 0. -1.
</event>
<event>
 5   0  0.2414128E-02  0.9017631E+03  0.7818609E-02  0.9423380E-01
        2   -1    0    0  501    0  0.00000000000E+00  0.00000000000E+00  0.92062776939E+03  0.92062776939E+03  0.25500000920E-02 0. -1.
       -2   -1    0    0    0  501  0.00000000000E+00  0.00000000000E+00 -0.22082124439E+03  0.22082124440E+03  0.25500000920E-02 0.  1.
    10030    2    1    2    0    0  0.00000000000E+00  0.00000000000E+00  0.69980652500E+03  0.11414490138E+04  0.90176309453E+03 0.  0.
        3    1    3    3  502    0  0.42100453292E+03 -0.11366316553E+02  0.14611328969E+03  0.44578370710E+03  0.10100000352E+00 0.  1.
       -3    1    3    3    0  502 -0.42100453292E+03  0.11366316553E+02  0.55369323532E+03  0.69566530669E+03  0.10100000352E+00 0. -1.
</event>
<event>
 5   0  0.2628383E-02  0.9165383E+03  0.7818609E-02  0.9405141E-01
        2   -1    0    0  501    0  0.00000000000E+00  0.00000000000E+00  0.16020976267E+04  0.16020976267E+04  0.25500000920E-02 0. -1.
       -2   -1    0    0    0  501  0.00000000000E+00  0.00000000000E+00 -0.13108477359E+03  0.13108477362E+03  0.25500000920E-02 0.  1.
    10030    2    1    2    0    0  0.00000000000E+00  0.00000000000E+00  0.14710128531E+04  0.17331824003E+04  0.91653828003E+03 0.  0.
        2    1    3    3  502    0  0.28304661611E+02  0.42403913020E+03  0.41126440509E+03  0.59139559409E+03  0.25500000920E-02 0. -1.
       -2    1    3    3    0  502 -0.28304661611E+02 -0.42403913020E+03  0.10597484480E+04  0.11417868062E+04  0.25500000920E-02 0.  1.
</event>
<event>
 5   0  0.1537870E-02  0.9050727E+03  0.7818609E-02  0.9419262E-01
        1   -1    0    0  501    0  0.00000000000E+00  0.00000000000E+00  0.34952991086E+03  0.34952991090E+03  0.50400001928E-02 0.  1.
       -1   -1    0    0    0  501  0.00000000000E+00  0.00000000000E+00 -0.58589876848E+03  0.58589876850E+03  0.50400001928E-02 0. -1.
    10030    2    1    2    0    0  0.00000000000E+00  0.00000000000E+00 -0.23636885762E+03  0.93542867940E+03  0.90507269177E+03 0.  0.
        5    1    3    3  502    0 -0.19340832205E+03 -0.25949267435E+02 -0.54015092381E+03  0.57433897135E+03  0.46999998093E+01 0. -1.
       -5    1    3    3    0  502  0.19340832205E+03  0.25949267435E+02  0.30378206619E+03  0.36108970805E+03  0.46999998093E+01 0.  1.
</event>
<event>
 5   0  0.2803717E-02  0.8858227E+03  0.7818609E-02  0.9443479E-01
        2   -1    0    0  501    0  0.00000000000E+00  0.00000000000E+00  0.34263905553E+03  0.34263905554E+03  0.25500000920E-02 0.  1.
       -2   -1    0    0    0  501  0.00000000000E+00  0.00000000000E+00 -0.57252807279E+03  0.57252807280E+03  0.25500000920E-02 0. -1.
    10030    2    1    2    0    0  0.00000000000E+00  0.00000000000E+00 -0.22988901726E+03  0.91516712833E+03  0.88582273200E+03 0.  0.
        5    1    3    3  502    0  0.30550065234E+03 -0.30011389756E+03 -0.23159813962E+03  0.48688683322E+03  0.46999998093E+01 0. -1.
       -5    1    3    3    0  502 -0.30550065234E+03  0.30011389756E+03  0.17091223616E+01  0.42828029512E+03  0.46999998093E+01 0.  1.
</event>
<event>
 5   0  0.2414128E-02  0.8941151E+03  0.7818609E-02  0.9432968E-01
        2   -1    0    0  501    0  0.00000000000E+00  0.00000000000E+00  0.11925765932E+04  0.11925765932E+04  0.25500000920E-02 0.  1.
       -2   -1    0    0    0  501  0.00000000000E+00  0.00000000000E+00 -0.16758711033E+03  0.16758711035E+03  0.25500000920E-02 0. -1.
    10030    2    1    2    0    0  0.00000000000E+00  0.00000000000E+00  0.10249894829E+04  0.13601637036E+04  0.89411512709E+03 0.  0.
        3    1    3    3  502    0 -0.30541657725E+02  0.36216170050E+03  0.90850412268E+03  0.97850582078E+03  0.10100000352E+00 0.  1.
       -3    1    3    3    0  502  0.30541657725E+02 -0.36216170050E+03  0.11648536024E+03  0.38165788282E+03  0.10100000352E+00 0. -1.
</event>
<event>
 5   0  0.1560728E-02  0.9115264E+03  0.7818609E-02  0.9411286E-01
       -1   -1    0    0    0  501  0.00000000000E+00  0.00000000000E+00  0.20482189494E+03  0.20482189500E+03  0.50400001928E-02 0. -1.
        1   -1    0    0  501    0  0.00000000000E+00  0.00000000000E+00 -0.10141499575E+04  0.10141499575E+04  0.50400001928E-02 0.  1.
    10030    2    1    2    0    0  0.00000000000E+00  0.00000000000E+00 -0.80932806260E+03  0.12189718525E+04  0.91152644744E+03 0.  0.
        4    1    3    3  502    0 -0.44646902739E+03  0.17377632021E+02 -0.28444259556E+03  0.52966572249E+03  0.12699999809E+01 0.  1.
       -4    1    3    3    0  502  0.44646902739E+03 -0.17377632021E+02 -0.52488546704E+03  0.68930613005E+03  0.12699999809E+01 0. -1.
</event>
<event>
 5   0  0.2679861E-02  0.8903128E+03  0.7818609E-02  0.9437773E-01
        2   -1    0    0  501    0  0.00000000000E+00  0.00000000000E+00  0.99954285194E+03  0.99954285195E+03  0.25500000920E-02 0. -1.
       -2   -1    0    0    0  501  0.00000000000E+00  0.00000000000E+00 -0.19825483668E+03  0.19825483670E+03  0.25500000920E-02 0.  1.
    10030    2    1    2    0    0  0.00000000000E+00  0.00000000000E+00  0.80128801526E+03  0.11977976886E+04  0.89031276501E+03 0.  0.
        1    1    3    3  502    0 -0.35643847740E+03 -0.26632903783E+03  0.38236184227E+03  0.58666866544E+03  0.50400001928E-02 0.  1.
       -1    1    3    3    0  502  0.35643847740E+03  0.26632903783E+03  0.41892617299E+03  0.61112902320E+03  0.50400001928E-02 0. -1.
</event>
<event>
 5   0  0.2628383E-02  0.8491682E+03  0.7818609E-02  0.9491454E-01
        2   -1    0    0  501    0  0.00000000000E+00  0.00000000000E+00  0.56524241345E+03  0.56524241345E+03  0.25500000920E-02 0. -1.
       -2   -1    0    0    0  501  0.00000000000E+00  0.00000000000E+00 -0.31892807072E+03  0.31892807073E+03  0.25500000920E-02 0.  1.
    10030    2    1    2    0    0  0.00000000000E+00  0.00000000000E+00  0.24631434272E+03  0.88417048419E+03  0.84916823402E+03 0.  0.
        2    1    3    3  502    0 -0.12977450469E+03 -0.29756923941E+03 -0.16176963183E+03  0.36270964711E+03  0.25500000920E-02 0.  1.
       -2    1    3    3    0  502  0.12977450469E+03  0.29756923941E+03  0.40808397455E+03  0.52146083708E+03  0.25500000920E-02 0. -1.
</event>
<event>
 5   0  0.1459111E-02  0.8993237E+03  0.7818609E-02  0.9426427E-01
       -1   -1    0    0    0  501  0.00000000000E+00  0.00000000000E+00  0.47337686189E+03  0.47337686192E+03  0.50400001928E-02 0. -1.
        1   -1    0    0  501    0  0.00000000000E+00  0.00000000000E+00 -0.42713493746E+03  0.42713493749E+03  0.50400001928E-02 0.  1.
    10030    2    1    2    0    0  0.00000000000E+00  0.00000000000E+00  0.46241924430E+02  0.90051179941E+03  0.89932373776E+03 0.  0.
        2    1    3    3  502    0 -0.32431694169E+03  0.24673099609E+03  0.21347242046E+03  0.46003058312E+03  0.25500000920E-02 0. -1.
       -2    1    3    3    0  502  0.32431694169E+03 -0.24673099609E+03 -0.16723049603E+03  0.44048121629E+03  0.25500000920E-02 0.  1.
</event>
<event>
 5   0  0.2803717E-02  0.8071043E+03  0.7818609E-02  0.9549790E-01
       -2   -1    0    0    0  501  0.00000000000E+00  0.00000000000E+00  0.14280270982E+03  0.14280270984E+03  0.25500000920E-02 0.  1.
        2   -1    0    0  501    0  0.00000000000E+00  0.00000000000E+00 -0.11404149606E+04  0.11404149606E+04  0.25500000920E-02 0. -1.
    10030    2    1    2    0    0  0.00000000000E+00  0.00000000000E+00 -0.99761225075E+03  0.12832176704E+04  0.80710432213E+03 0.  0.
        5    1    3    3  502    0  0.35228660683E+03  0.72940376906E+02 -0.20821417639E+03  0.41569385994E+03  0.46999998093E+01 0.  1.
       -5    1    3    3    0  502 -0.35228660683E+03 -0.72940376906E+02 -0.78939807436E+03  0.86752381048E+03  0.46999998093E+01 0. -1.
</event>
<event>
 5   0  0.1497410E-02  0.8308294E+03  0.7818609E-02  0.9516434E-01
        1   -1    0    0  501    0  0.00000000000E+00  0.00000000000E+00  0.78635926793E+03  0.78635926794E+03  0.50400001928E-02 0. -1.
       -1   -1    0    0    0  501  0.00000000000E+00  0.00000000000E+00 -0.21945362643E+03  0.21945362649E+03  0.50400001928E-02 0.  1.
    10030    2    1    2    0    0  0.00000000000E+00  0.00000000000E+00  0.56690564149E+03  0.10058128944E+04  0.83082944836E+03 0.  0.
        3    1    3    3  502    0  0.24933904746E+03  0.21608541637E+03  0.58901334174E+03  0.67512931703E+03  0.10100000352E+00 0. -1.
       -3    1    3    3    0  502 -0.24933904746E+03 -0.21608541637E+03 -0.22107700249E+02  0.33068357741E+03  0.10100000352E+00 0.  1.
</event>
<event>
 5   0  0.1497410E-02  0.8963654E+03  0.7818609E-02  0.9430136E-01
       -1   -1    0    0    0  501  0.00000000000E+00  0.00000000000E+00  0.45524866471E+03  0.45524866474E+03  0.50400001928E-02 0.  1.
        1   -1    0    0  501    0  0.00000000000E+00  0.00000000000E+00 -0.44122640265E+03  0.44122640268E+03  0.50400001928E-02 0. -1.
    10030    2    1    2    0    0  0.00000000000E+00  0.00000000000E+00  0.14022262059E+02  0.89647506741E+03  0.89636539573E+03 0.  0.
        3    1    3    3  502    0 -0.38622855767E+03  0.16957074782E+03  0.15849247398E+03  0.45060693712E+03  0.10100000352E+00 0.  1.
       -3    1    3    3    0  502  0.38622855767E+03 -0.16957074782E+03 -0.14447021192E+03  0.44586813029E+03  0.10100000352E+00 0. -1.
</event>
<event>
 5   0  0.1560728E-02  0.8367962E+03  0.7818609E-02  0.9508232E-01
       -1   -1    0    0    0  501  0.00000000000E+00  0.00000000000E+00  0.56108083442E+03  0.56108083444E+03  0.50400001928E-02 0.  1.
        1   -1    0    0  501    0  0.00000000000E+00  0.00000000000E+00 -0.31199958040E+03  0.31199958044E+03  0.50400001928E-02 0. -1.
    10030    2    1    2    0    0  0.00000000000E+00  0.00000000000E+00  0.24908125402E+03  0.87308041488E+03  0.83679623550E+03 0.  0.
        4    1    3    3  502    0  0.30289103758E+03  0.27749630890E+03  0.20740863686E+03  0.46018163549E+03  0.12699999809E+01 0.  1.
       -4    1    3    3    0  502 -0.30289103758E+03 -0.27749630890E+03  0.41672617160E+02  0.41289877939E+03  0.12699999809E+01 0. -1.
</event>
<event>
 5   0  0.2705111E-02  0.9274664E+03  0.7818609E-02  0.9391884E-01
        2   -1    0    0  501    0  0.00000000000E+00  0.00000000000E+00  0.73905899619E+03  0.73905899619E+03  0.25500000920E-02 0.  1.
       -2   -1    0    0    0  501  0.00000000000E+00  0.00000000000E+00 -0.29097607687E+03  0.29097607688E+03  0.25500000920E-02 0. -1.
    10030    2    1    2    0    0  0.00000000000E+00  0.00000000000E+00  0.44808291932E+03  0.10300350731E+04  0.92746641404E+03 0.  0.
        4    1    3    3  502    0  0.30512699454E+03 -0.33730193859E+03  0.12364635855E+03  0.47134394603E+03  0.12699999809E+01 0. -1.
       -4    1    3    3    0  502 -0.30512699454E+03  0.33730193859E+03  0.32443656077E+03  0.55869112704E+03  0.12699999809E+01 0.  1.
</event>
<event>
 5   0  0.2628383E-02  0.8934444E+03  0.7818609E-02  0.9433814E-01
        2   -1    0    0  501    0  0.00000000000E+00  0.00000000000E+00  0.16930263816E+04  0.16930263816E+04  0.25500000920E-02 0. -1.
       -2   -1    0    0    0  501  0.00000000000E+00  0.00000000000E+00 -0.11787218395E+03  0.11787218398E+03  0.25500000920E-02 0.  1.
    10030    2    1    2    0    0  0.00000000000E+00  0.00000000000E+00  0.15751541976E+04  0.18108985655E+04  0.89344438464E+03 0.  0.
        2    1    3    3  502    0 -0.61616041767E+02 -0.44050244018E+03  0.87168087940E+03  0.97860435925E+03  0.25500000920E-02 0. -1.
       -2    1    3    3    0  502  0.61616041767E+02  0.44050244018E+03  0.70347331821E+03  0.83229420630E+03  0.25500000920E-02 0.  1.
</event>
<event>
 5   0  0.2705111E-02  0.8959217E+03  0.7818609E-02  0.9430694E-01
        2   -1    0    0  501    0  0.00000000000E+00  0.00000000000E+00  0.75952212709E+03  0.75952212709E+03  0.25500000920E-02 0.  1.
       -2   -1    0    0    0  501  0.00000000000E+00  0.00000000000E+00 -0.26420415406E+03  0.26420415407E+03  0.25500000920E-02 0. -1.
    10030    2    1    2    0    0  0.00000000000E+00  0.00000000000E+00  0.49531797303E+03  0.10237262812E+04  0.89592165078E+03 0.  0.
        4    1    3    3  502    0  0.41742343532E+03 -0.16037878876E+03  0.27796851548E+03  0.52652805124E+03  0.12699999809E+01 0. -1.
       -4    1    3    3    0  502 -0.41742343532E+03  0.16037878876E+03  0.21734945755E+03  0.49719822992E+03  0.12699999809E+01 0.  1.
</event>
<event>
 5   0  0.2679861E-02  0.9126872E+03  0.7818609E-02  0.9409859E-01
       -2   -1    0    0    0  501  0.00000000000E+00  0.00000000000E+00  0.55215787654E+03  0.55215787655E+03  0.25500000920E-02 0.  1.
        2   -1    0    0  501    0  0.00000000000E+00  0.00000000000E+00 -0.37715570723E+03  0.37715570724E+03  0.25500000920E-02 0. -1.
    10030    2    1    2    0    0  0.00000000000E+00  0.00000000000E+00  0.17500216932E+03  0.92931358378E+03  0.91268722887E+03 0.  0.
        1    1    3    3  502    0  0.87965650972E+01 -0.17995051864E+02  0.55171007027E+03  0.55207354864E+03  0.50400001928E-02 0.  1.
       -1    1    3    3    0  502 -0.87965650972E+01  0.17995051864E+02 -0.37670790095E+03  0.37724003514E+03  0.50400001928E-02 0. -1.
</event>
<event>
 5   0  0.2414128E-02  0.9134595E+03  0.7818609E-02  0.9408911E-01
       -2   -1    0    0    0  501  0.00000000000E+00  0.00000000000E+00  0.13094001125E+03  0.13094001128E+03  0.25500000920E-02 0.  1.
        2   -1    0    0  501    0  0.00000000000E+00  0.00000000000E+00 -0.15931116306E+04  0.15931116306E+04  0.25500000920E-02 0. -1.
    10030    2    1    2    0    0  0.00000000000E+00  0.00000000000E+00 -0.14621716194E+04  0.17240516419E+04  0.91345947882E+03 0.  0.
        3    1    3    3  502    0  0.23013993942E+03  0.33880026734E+03 -0.11125623316E+04  0.11855568163E+04  0.10100000352E+00 0. -1.
       -3    1    3    3    0  502 -0.23013993942E+03 -0.33880026734E+03 -0.34960928777E+03  0.53849482557E+03  0.10100000352E+00 0.  1.
</event>
<event>
 5   0  0.1559275E-02  0.9067971E+03  0.7818609E-02  0.9417124E-01
       -1   -1    0    0    0  501  0.00000000000E+00  0.00000000000E+00  0.11524473347E+03  0.11524473358E+03  0.50400001928E-02 0.  1.
        1   -1    0    0  501    0  0.00000000000E+00  0.00000000000E+00 -0.17837714138E+04  0.17837714139E+04  0.50400001928E-02 0. -1.
    10030    2    1    2    0    0  0.00000000000E+00  0.00000000000E+00 -0.16685266804E+04  0.18990161474E+04  0.90679713559E+03 0.  0.
        1    1    3    3  502    0  0.11617554162E+03 -0.12969907696E+03  0.42433782057E+02  0.17921839448E+03  0.50400001928E-02 0.  1.
       -1    1    3    3    0  502 -0.11617554162E+03  0.12969907696E+03 -0.17109604624E+04  0.17197977530E+04  0.50400001928E-02 0. -1.
</event>
<event>
 5   0  0.2628383E-02  0.9031974E+03  0.7818609E-02  0.9421593E-01
        2   -1    0    0  501    0  0.00000000000E+00  0.00000000000E+00  0.68818846434E+03  0.68818846435E+03  0.25500000920E-02 0. -1.
       -2   -1    0    0    0  501  0.00000000000E+00  0.00000000000E+00 -0.29634525217E+03  0.29634525218E+03  0.25500000920E-02 0.  1.
    10030    2    1    2    0    0  0.00000000000E+00  0.00000000000E+00  0.39184321218E+03  0.98453371652E+03  0.90319739594E+03 0.  0.
        2    1    3    3  502    0  0.29621565994E+03  0.30870571571E+02  0.56596985199E+03  0.63954560647E+03  0.25500000920E-02 0. -1.
       -2    1    3    3    0  502 -0.29621565994E+03 -0.30870571571E+02 -0.17412663982E+03  0.34498811006E+03  0.25500000920E-02 0.  1.
</event>
<event>
 5   0  0.1459111E-02  0.8579877E+03  0.7818609E-02  0.9479678E-01
        1   -1    0    0  501    0  0.00000000000E+00  0.00000000000E+00  0.50348012079E+03  0.50348012081E+03  0.50400001928E-02 0. -1.
       -1   -1    0    0    0  501  0.00000000000E+00  0.00000000000E+00 -0.36552730560E+03  0.36552730563E+03  0.50400001928E-02 0.  1.
    10030    2    1    2    0    0  0.00000000000E+00  0.00000000000E+00  0.13795281519E+03  0.86900742645E+03  0.85798772019E+03 0.  0.
        2    1    3    3  502    0  0.10470894266E+03  0.38630467510E+03 -0.87410286050E+02  0.40967770600E+03  0.25500000920E-02 0.  1.
       -2    1    3    3    0  502 -0.10470894266E+03 -0.38630467510E+03  0.22536310124E+03  0.45932972045E+03  0.25500000920E-02 0. -1.
</event>
<event>
 5   0  0.2628383E-02  0.8784263E+03  0.7818609E-02  0.9452959E-01
       -2   -1    0    0    0  501  0.00000000000E+00  0.00000000000E+00  0.18919919810E+03  0.18919919812E+03  0.25500000920E-02 0.  1.
        2   -1    0    0  501    0  0.00000000000E+00  0.00000000000E+00 -0.10196036572E+04  0.10196036572E+04  0.25500000920E-02 0. -1.
    10030    2    1    2    0    0  0.00000000000E+00  0.00000000000E+00 -0.83040445913E+03  0.12088028553E+04  0.87842630730E+03 0.  0.
        2    1    3    3  502    0  0.10456971168E+03 -0.51583044680E+01 -0.10021808844E+04  0.10076348335E+04  0.25500000920E-02 0. -1.
       -2    1    3    3    0  502 -0.10456971168E+03  0.51583044680E+01  0.17177642528E+03  0.20116802180E+03  0.25500000920E-02 0.  1.
</event>
<event>
 5   0  0.2705111E-02  0.8824005E+03  0.7818609E-02  0.9447853E-01
       -2   -1    0    0    0  501  0.00000000000E+00  0.00000000000E+00  0.42082350556E+03  0.42082350557E+03  0.25500000920E-02 0.  1.
        2   -1    0    0  501    0  0.00000000000E+00  0.00000000000E+00 -0.46256371065E+03  0.46256371065E+03  0.25500000920E-02 0. -1.
    10030    2    1    2    0    0  0.00000000000E+00  0.00000000000E+00 -0.41740205089E+02  0.88338721622E+03  0.88240054911E+03 0.  0.
        4    1    3    3  502    0  0.18622049928E+03 -0.32989132137E+03  0.20554580329E+03  0.43099541578E+03  0.12699999809E+01 0. -1.
       -4    1    3    3    0  502 -0.18622049928E+03  0.32989132137E+03 -0.24728600838E+03  0.45239180045E+03  0.12699999809E+01 0.  1.
</event>
<event>
 5   0  0.1560728E-02  0.8509378E+03  0.7818609E-02  0.9489079E-01
        1   -1    0    0  501    0  0.00000000000E+00  0.00000000000E+00  0.11351451569E+04  0.11351451569E+04  0.50400001928E-02 0. -1.
       -1   -1    0    0    0  501  0.00000000000E+00  0.00000000000E+00 -0.15947191647E+03  0.15947191655E+03  0.50400001928E-02 0.  1.
    10030    2    1    2    0    0  0.00000000000E+00  0.00000000000E+00  0.97567324040E+03  0.12946170734E+04  0.85093777375E+03 0.  0.
        4    1    3    3  502    0 -0.32359533086E+03 -0.24049993252E+03  0.28108281066E+03  0.49149091044E+03  0.12699999809E+01 0.  1.
       -4    1    3    3    0  502  0.32359533086E+03  0.24049993252E+03  0.69459042974E+03  0.80312616299E+03  0.12699999809E+01 0. -1.
</event>
<event>
 5   0  0.1497410E-02  0.9037888E+03  0.7818609E-02  0.9420858E-01
        1   -1    0    0  501    0  0.00000000000E+00  0.00000000000E+00  0.69872697636E+03  0.69872697638E+03  0.50400001928E-02 0.  1.
       -1   -1    0    0    0  501  0.00000000000E+00  0.00000000000E+00 -0.29225798046E+03  0.29225798050E+03  0.50400001928E-02 0. -1.
    10030    2    1    2    0    0  0.00000000000E+00  0.00000000000E+00  0.40646899590E+03  0.99098495688E+03  0.90378876964E+03 0.  0.
        3    1    3    3  502    0 -0.76319200268E+02 -0.58787178563E+02  0.68733686239E+03  0.69405513130E+03  0.10100000352E+00 0.  1.
       -3    1    3    3    0  502  0.76319200268E+02  0.58787178563E+02 -0.28086786648E+03  0.29692982558E+03  0.10100000352E+00 0. -1.
</event>
<event>
 5   0  0.2414128E-02  0.1075737E+04  0.7818609E-02  0.9229169E-01
       -2   -1    0    0    0  501  0.00000000000E+00  0.00000000000E+00  0.60292449448E+03  0.60292449449E+03  0.25500000920E-02 0.  1.
        2   -1    0    0  501    0  0.00000000000E+00  0.00000000000E+00 -0.47983188178E+03  0.47983188178E+03  0.25500000920E-02 0. -1.
    10030    2    1    2    0    0  0.00000000000E+00  0.00000000000E+00  0.12309261271E+03  0.10827563763E+04  0.10757367610E+04 0.  0.
        3    1    3    3  502    0  0.24267534549E+03 -0.47762478451E+03  0.13426112428E+02  0.53590766815E+03  0.10100000352E+00 0. -1.
       -3    1    3    3    0  502 -0.24267534549E+03  0.47762478451E+03  0.10966650028E+03  0.54684870812E+03  0.10100000352E+00 0.  1.
</event>
<event>
 5   0  0.1537870E-02  0.8172165E+03  0.7818609E-02  0.9535426E-01
        1   -1    0    0  501    0  0.00000000000E+00  0.00000000000E+00  0.80487980072E+03  0.80487980073E+03  0.50400001928E-02 0.  1.
       -1   -1    0    0    0  501  0.00000000000E+00  0.00000000000E+00 -0.20743558494E+03  0.20743558500E+03  0.50400001928E-02 0. -1.
    10030    2    1    2    0    0  0.00000000000E+00  0.00000000000E+00  0.59744421578E+03  0.10123153857E+04  0.81721652530E+03 0.  0.
        5    1    3    3  502    0  0.38435302877E+03  0.32663172516E+02  0.46558165682E+03  0.60463418919E+03  0.46999998093E+01 0.  1.
       -5    1    3    3    0  502 -0.38435302877E+03 -0.32663172516E+02  0.13186255896E+03  0.40768119655E+03  0.46999998093E+01 0. -1.
</event>
<event>
 5   0  0.1560728E-02  0.7764956E+03  0.7818609E-02  0.9594676E-01
       -1   -1    0    0    0  501  0.00000000000E+00  0.00000000000E+00  0.67179509615E+02  0.67179509804E+02  0.50400001928E-02 0.  1.
        1   -1    0    0  501    0  0.00000000000E+00  0.00000000000E+00 -0.22437844790E+04  0.22437844790E+04  0.50400001928E-02 0. -1.
    10030    2    1    2    0    0  0.00000000000E+00  0.00000000000E+00 -0.21766049694E+04  0.23109639888E+04  0.77649556652E+03 0.  0.
        4    1    3    3  502    0 -0.44891384606E+02  0.38286163570E+03 -0.12258654600E+04  0.12850470838E+04  0.12699999809E+01 0.  1.
       -4    1    3    3    0  502  0.44891384606E+02 -0.38286163570E+03 -0.95073950935E+03  0.10259169050E+04  0.12699999809E+01 0. -1.
</event>
<event>
 5   0  0.2705111E-02  0.9093015E+03  0.7818609E-02  0.9414028E-01
       -2   -1    0    0    0  501  0.00000000000E+00  0.00000000000E+00  0.48598379450E+03  0.48598379451E+03  0.25500000920E-02 0.  1.
        2   -1    0    0  501    0  0.00000000000E+00  0.00000000000E+00 -0.42533789992E+03  0.42533789992E+03  0.25500000920E-02 0. -1.
    10030    2    1    2    0    0  0.00000000000E+00  0.00000000000E+00  0.60645894586E+02  0.91132169443E+03  0.90930154856E+03 0.  0.
        4    1    3    3  502    0 -0.21068428144E+03 -0.33785741577E+03 -0.18964179049E+03  0.44102281283E+03  0.12699999809E+01 0. -1.
       -4    1    3    3    0  502  0.21068428144E+03  0.33785741577E+03  0.25028768507E+03  0.47029888160E+03  0.12699999809E+01 0.  1.
</event>
<event>
 5   0  0.2679861E-02  0.9137710E+03  0.7818609E-02  0.9408529E-01
       -2   -1    0    0    0  501  0.00000000000E+00  0.00000000000E+00  0.13000113486E+03  0.13000113489E+03  0.25500000920E-02 0.  1.
        2   -1    0    0  501    0  0.00000000000E+00  0.00000000000E+00 -0.16057119385E+04  0.16057119385E+04  0.25500000920E-02 0. -1.
    10030    2    1    2    0    0  0.00000000000E+00  0.00000000000E+00 -0.14757108036E+04  0.17357130734E+04  0.91377103104E+03 0.  0.
        1    1    3    3  502    0  0.38953884827E+03 -0.22476632500E+03 -0.89080934663E+03  0.99789864577E+03  0.50400001928E-02 0.  1.
       -1    1    3    3    0  502 -0.38953884827E+03  0.22476632500E+03 -0.58490145701E+03  0.73781442762E+03  0.50400001928E-02 0. -1.
</event>
<event>
 5   0  0.1459111E-02  0.9870334E+03  0.7818609E-02  0.9322882E-01
       -1   -1    0    0    0  501  0.00000000000E+00  0.00000000000E+00  0.48071136381E+03  0.48071136384E+03  0.50400001928E-02 0. -1.
        1   -1    0    0  501    0  0.00000000000E+00  0.00000000000E+00 -0.50666310165E+03  0.50666310167E+03  0.50400001928E-02 0.  1.
    10030    2    1    2    0    0  0.00000000000E+00  0.00000000000E+00 -0.25951737834E+02  0.98737446551E+03  0.98703335427E+03 0.  0.
        2    1    3    3  502    0  0.48104218417E+03 -0.61212404397E+02  0.78762798989E+02  0.49127601195E+03  0.25500000920E-02 0. -1.
       -2    1    3    3    0  502 -0.48104218417E+03  0.61212404397E+02 -0.10471453682E+03  0.49609845357E+03  0.25500000920E-02 0.  1.
</event>
<event>
 5   0  0.2628383E-02  0.9272462E+03  0.7818609E-02  0.9392149E-01
        2   -1    0    0  501    0  0.00000000000E+00  0.00000000000E+00  0.36398960824E+03  0.36398960825E+03  0.25500000920E-02 0.  1.
       -2   -1    0    0    0  501  0.00000000000E+00  0.00000000000E+00 -0.59052883069E+03  0.59052883070E+03  0.25500000920E-02 0. -1.
    10030    2    1    2    0    0  0.00000000000E+00  0.00000000000E+00 -0.22653922245E+03  0.95451843895E+03  0.92724615447E+03 0.  0.
        2    1    3    3  502    0  0.97928482471E+02 -0.43312695613E+03  0.23906691018E+02  0.44470268460E+03  0.25500000920E-02 0.  1.
       -2    1    3    3    0  502 -0.97928482471E+02  0.43312695613E+03 -0.25044591347E+03  0.50981575435E+03  0.25500000920E-02 0. -1.
</event>
<event>
 5   0  0.1040163E-02  0.7490156E+03  0.7818609E-02  0.9636896E-01
        3   -1    0    0  501    0  0.00000000000E+00  0.00000000000E+00  0.25736185404E+03  0.25736187385E+03  0.10100000352E+00 0. -1.
       -3   -1    0    0    0  501  0.00000000000E+00  0.00000000000E+00 -0.54497620596E+03  0.54497621532E+03  0.10100000352E+00 0.  1.
    10030    2    1    2    0    0  0.00000000000E+00  0.00000000000E+00 -0.28761435193E+03  0.80233808918E+03  0.74901561660E+03 0.  0.
        4    1    3    3  502    0 -0.39879336649E+02 -0.16315784448E+03  0.21475142576E+03  0.27263644561E+03  0.12699999809E+01 0. -1.
       -4    1    3    3    0  502  0.39879336649E+02  0.16315784448E+03 -0.50236577769E+03  0.52970164357E+03  0.12699999809E+01 0.  1.
</event>
<event>
 5   0  0.2679861E-02  0.9078482E+03  0.7818609E-02  0.9415824E-01
        2   -1    0    0  501    0  0.00000000000E+00  0.00000000000E+00  0.47314687932E+03  0.47314687933E+03  0.25500000920E-02 0. -1.
       -2   -1    0    0    0  501  0.00000000000E+00  0.00000000000E+00 -0.43548226189E+03  0.43548226190E+03  0.25500000920E-02 0.  1.
    10030    2    1    2    0    0  0.00000000000E+00  0.00000000000E+00  0.37664617430E+02  0.90862914122E+03  0.90784816620E+03 0.  0.
        1    1    3    3  502    0 -0.96656627621E+02  0.15656052000E+01 -0.42506034653E+03  0.43591427253E+03  0.50400001928E-02 0.  1.
       -1    1    3    3    0  502  0.96656627621E+02 -0.15656052000E+01  0.46272496396E+03  0.47271486869E+03  0.50400001928E-02 0. -1.
</event>
<event>
 5   0  0.2414128E-02  0.8969010E+03  0.7818609E-02  0.9429464E-01
       -2   -1    0    0    0  501  0.00000000000E+00  0.00000000000E+00  0.13871576852E+03  0.13871576854E+03  0.25500000920E-02 0.  1.
        2   -1    0    0  501    0  0.00000000000E+00  0.00000000000E+00 -0.14497837733E+04  0.14497837733E+04  0.25500000920E-02 0. -1.
    10030    2    1    2    0    0  0.00000000000E+00  0.00000000000E+00 -0.13110680047E+04  0.15884995418E+04  0.89690104317E+03 0.  0.
        3    1    3    3  502    0  0.93121287994E+01 -0.34973557404E+03 -0.11524087914E+04  0.12043453492E+04  0.10100000352E+00 0. -1.
       -3    1    3    3    0  502 -0.93121287994E+01  0.34973557404E+03 -0.15865921334E+03  0.38415419258E+03  0.10100000352E+00 0.  1.
</event>
<event>
 5   0  0.2628383E-02  0.8754552E+03  0.7818609E-02  0.9456795E-01
       -2   -1    0    0    0  501  0.00000000000E+00  0.00000000000E+00  0.45141653832E+03  0.45141653833E+03  0.25500000920E-02 0. -1.
        2   -1    0    0  501    0  0.00000000000E+00  0.00000000000E+00 -0.42445381367E+03  0.42445381367E+03  0.25500000920E-02 0.  1.
    10030    2    1    2    0    0  0.00000000000E+00  0.00000000000E+00  0.26962724651E+02  0.87587035200E+03  0.87545524443E+03 0.  0.
        2    1    3    3  502    0  0.15201716475E+03  0.15078843977E+03  0.39544649019E+03  0.44969356073E+03  0.25500000920E-02 0. -1.
       -2    1    3    3    0  502 -0.15201716475E+03 -0.15078843977E+03 -0.36848376554E+03  0.42617679127E+03  0.25500000920E-02 0.  1.
</event>
<event>
 5   0  0.1537870E-02  0.9132969E+03  0.7818609E-02  0.9409111E-01
       -1   -1    0    0    0  501  0.00000000000E+00  0.00000000000E+00  0.19956882177E+03  0.19956882183E+03  0.50400001928E-02 0. -1.
        1   -1    0    0  501    0  0.00000000000E+00  0.00000000000E+00 -0.10448916596E+04  0.10448916596E+04  0.50400001928E-02 0.  1.
    10030    2    1    2    0    0  0.00000000000E+00  0.00000000000E+00 -0.84532283784E+03  0.12444604814E+04  0.91329687929E+03 0.  0.
        5    1    3    3  502    0  0.28762220573E+03 -0.29438246051E+03 -0.69216109088E+03  0.80529288586E+03  0.46999998093E+01 0. -1.
       -5    1    3    3    0  502 -0.28762220573E+03  0.29438246051E+03 -0.15316174695E+03  0.43916759559E+03  0.46999998093E+01 0.  1.
</event>
<event>
 5   0  0.2705111E-02  0.9110450E+03  0.7818609E-02  0.9411879E-01
       -2   -1    0    0    0  501  0.00000000000E+00  0.00000000000E+00  0.18849864681E+03  0.18849864683E+03  0.25500000920E-02 0.  1.
        2   -1    0    0  501    0  0.00000000000E+00  0.00000000000E+00 -0.11008075977E+04  0.11008075977E+04  0.25500000920E-02 0. -1.
    10030    2    1    2    0    0  0.00000000000E+00  0.00000000000E+00 -0.91230895088E+03  0.12893062445E+04  0.91104498808E+03 0.  0.
        4    1    3    3  502    0  0.11329113418E+03 -0.27759034081E+03 -0.94148143922E+03  0.98806892052E+03  0.12699999809E+01 0. -1.
       -4    1    3    3    0  502 -0.11329113418E+03  0.27759034081E+03  0.29172488335E+02  0.30123732400E+03  0.12699999809E+01 0.  1.
</event>
<event>
 5   0  0.1497410E-02  0.8929794E+03  0.7818609E-02  0.9434400E-01
        1   -1    0    0  501    0  0.00000000000E+00  0.00000000000E+00  0.19409315200E+03  0.19409315206E+03  0.50400001928E-02 0.  1.
       -1   -1    0    0    0  501  0.00000000000E+00  0.00000000000E+00 -0.10270997849E+04  0.10270997849E+04  0.50400001928E-02 0. -1.
    10030    2    1    2    0    0  0.00000000000E+00  0.00000000000E+00 -0.83300663288E+03  0.12211929369E+04  0.89297936081E+03 0.  0.
        3    1    3    3  502    0  0.23821400933E+03  0.36201248684E+03 -0.26950567963E+03  0.51032565722E+03  0.10100000352E+00 0.  1.
       -3    1    3    3    0  502 -0.23821400933E+03 -0.36201248684E+03 -0.56350095325E+03  0.71086727973E+03  0.10100000352E+00 0. -1.
</event>
<event>
 5   0  0.1559275E-02  0.9516209E+03  0.7818609E-02  0.9363258E-01
        1   -1    0    0  501    0  0.00000000000E+00  0.00000000000E+00  0.82160472133E+03  0.82160472135E+03  0.50400001928E-02 0. -1.
       -1   -1    0    0    0  501  0.00000000000E+00  0.00000000000E+00 -0.27555294724E+03  0.27555294728E+03  0.50400001928E-02 0.  1.
    10030    2    1    2    0    0  0.00000000000E+00  0.00000000000E+00  0.54605177410E+03  0.10971576686E+04  0.95162093811E+03 0.  0.
        1    1    3    3  502    0  0.77929307087E+02 -0.35954303273E+03 -0.74869321111E+02  0.37543252996E+03  0.50400001928E-02 0.  1.
       -1    1    3    3    0  502 -0.77929307087E+02  0.35954303273E+03  0.62092109521E+03  0.72172513867E+03  0.50400001928E-02 0. -1.
</event>
<event>
 5   0  0.2414128E-02  0.8895627E+03  0.7818609E-02  0.9438723E-01
        2   -1    0    0  501    0  0.00000000000E+00  0.00000000000E+00  0.60846417995E+03  0.60846417995E+03  0.25500000920E-02 0.  1.
       -2   -1    0    0    0  501  0.00000000000E+00  0.00000000000E+00 -0.32513082146E+03  0.32513082147E+03  0.25500000920E-02 0. -1.
    10030    2    1    2    0    0  0.00000000000E+00  0.00000000000E+00  0.28333335849E+03  0.93359500142E+03  0.88956272103E+03 0.  0.
        3    1    3    3  502    0  0.25752370487E+03 -0.32685875484E+03  0.30652601799E+03  0.51683006307E+03  0.10100000352E+00 0.  1.
       -3    1    3    3    0  502 -0.25752370487E+03  0.32685875484E+03 -0.23192659500E+02  0.41676493836E+03  0.10100000352E+00 0. -1.
</event>
<event>
 5   0  0.1537870E-02  0.8905422E+03  0.7818609E-02  0.9437482E-01
        1   -1    0    0  501    0  0.00000000000E+00  0.00000000000E+00  0.89202908669E+03  0.89202908670E+03  0.50400001928E-02 0.  1.
       -1   -1    0    0    0  501  0.00000000000E+00  0.00000000000E+00 -0.22226444058E+03  0.22226444064E+03  0.50400001928E-02 0. -1.
    10030    2    1    2    0    0  0.00000000000E+00  0.00000000000E+00  0.66976464611E+03  0.11142935273E+04  0.89054218536E+03 0.  0.
        5    1    3    3  502    0  0.42523358448E+03  0.82751741971E+02  0.46354133077E+03  0.63447939880E+03  0.46999998093E+01 0.  1.
       -5    1    3    3    0  502 -0.42523358448E+03 -0.82751741971E+02  0.20622331533E+03  0.47981412855E+03  0.46999998093E+01 0. -1.
</event>
<event>
 5   0  0.1497410E-02  0.8862078E+03  0.7818609E-02  0.9442989E-01
        1   -1    0    0  501    0  0.00000000000E+00  0.00000000000E+00  0.12938535546E+04  0.12938535546E+04  0.50400001928E-02 0.  1.
       -1   -1    0    0    0  501  0.00000000000E+00  0.00000000000E+00 -0.15174904804E+03  0.15174904812E+03  0.50400001928E-02 0. -1.
    10030    2    1    2    0    0  0.00000000000E+00  0.00000000000E+00  0.11421045066E+04  0.14456026028E+04  0.88620775280E+03 0.  0.
        3    1    3    3  502    0 -0.18447107294E+03 -0.37351630163E+03  0.81734550857E+03  0.91738633896E+03  0.10100000352E+00 0.  1.
       -3    1    3    3    0  502  0.18447107294E+03  0.37351630163E+03  0.32475899802E+03  0.52821626379E+03  0.10100000352E+00 0. -1.
</event>
<event>
 5   0  0.1560728E-02  0.9444064E+03  0.7818609E-02  0.9371713E-01
        1   -1    0    0  501    0  0.00000000000E+00  0.00000000000E+00  0.11755988102E+04  0.11755988102E+04  0.50400001928E-02 0. -1.
       -1   -1    0    0    0  501  0.00000000000E+00  0.00000000000E+00 -0.18967003650E+03  0.18967003657E+03  0.50400001928E-02 0.  1.
    10030    2    1    2    0    0  0.00000000000E+00  0.00000000000E+00  0.98592877367E+03  0.13652688468E+04  0.94440641525E+03 0.  0.
        4    1    3    3  502    0 -0.37830536311E+03 -0.14359169703E+03  0.14110473850E+03  0.42853901029E+03  0.12699999809E+01 0.  1.
       -4    1    3    3    0  502  0.37830536311E+03  0.14359169703E+03  0.84482403518E+03  0.93672983647E+03  0.12699999809E+01 0. -1.
</event>
<event>
 5   0  0.1537870E-02  0.8908476E+03  0.7818609E-02  0.9437095E-01
        1   -1    0    0  501    0  0.00000000000E+00  0.00000000000E+00  0.28170036419E+03  0.28170036423E+03  0.50400001928E-02 0. -1.
       -1   -1    0    0    0  501  0.00000000000E+00  0.00000000000E+00 -0.70430285910E+03  0.70430285912E+03  0.50400001928E-02 0.  1.
    10030    2    1    2    0    0  0.00000000000E+00  0.00000000000E+00 -0.42260249492E+03  0.98600322335E+03  0.89084762320E+03 0.  0.
        5    1    3    3  502    0 -0.28767958208E+03  0.22857215195E+03  0.67333739096E+02  0.37357822877E+03  0.46999998093E+01 0. -1.
       -5    1    3    3    0  502  0.28767958208E+03 -0.22857215195E+03 -0.48993623401E+03  0.61242499458E+03  0.46999998093E+01 0.  1.
</event>
<event>
 5   0  0.1560728E-02  0.8826700E+03  0.7818609E-02  0.9447508E-01
        1   -1    0    0  501    0  0.00000000000E+00  0.00000000000E+00  0.86063198809E+03  0.86063198811E+03  0.50400001928E-02 0. -1.
       -1   -1    0    0    0  501  0.00000000000E+00  0.00000000000E+00 -0.22631807284E+03  0.22631807289E+03  0.50400001928E-02 0.  1.
    10030    2    1    2    0    0  0.00000000000E+00  0.00000000000E+00  0.63431391525E+03  0.10869500610E+04  0.88266997911E+03 0.  0.
        4    1    3    3  502    0 -0.77722069875E+02  0.34924937094E+03 -0.10183896679E+01  0.35779672059E+03  0.12699999809E+01 0.  1.
       -4    1    3    3    0  502  0.77722069875E+02 -0.34924937094E+03  0.63533230492E+03  0.72915334041E+03  0.12699999809E+01 0. -1.
</event>
<event>
 5   0  0.2414128E-02  0.8381558E+03  0.7818609E-02  0.9506373E-01
       -2   -1    0    0    0  501  0.00000000000E+00  0.00000000000E+00  0.15980188695E+03  0.15980188697E+03  0.25500000920E-02 0. -1.
        2   -1    0    0  501    0  0.00000000000E+00  0.00000000000E+00 -0.10990251606E+04  0.10990251606E+04  0.25500000920E-02 0.  1.
    10030    2    1    2    0    0  0.00000000000E+00  0.00000000000E+00 -0.93922327363E+03  0.12588270475E+04  0.83815581958E+03 0.  0.
        3    1    3    3  502    0  0.15371858647E+02  0.16039061778E+03 -0.10506451649E+04  0.10629283687E+04  0.10100000352E+00 0.  1.
       -3    1    3    3    0  502 -0.15371858647E+02 -0.16039061778E+03  0.11142189127E+03  0.19589867882E+03  0.10100000352E+00 0. -1.
</event>
<event>
 5   0  0.1560728E-02  0.9068402E+03  0.7818609E-02  0.9417071E-01
        1   -1    0    0  501    0  0.00000000000E+00  0.00000000000E+00  0.11518383451E+04  0.11518383451E+04  0.50400001928E-02 0. -1.
       -1   -1    0    0    0  501  0.00000000000E+00  0.00000000000E+00 -0.17848839397E+03  0.17848839404E+03  0.50400001928E-02 0.  1.
    10030    2    1    2    0    0  0.00000000000E+00  0.00000000000E+00  0.97334995114E+03  0.13303267392E+04  0.90684017642E+03 0.  0.
        4    1    3    3  502    0  0.25474661222E+03 -0.35915578862E+03  0.32799934735E+03  0.54906639098E+03  0.12699999809E+01 0. -1.
       -4    1    3    3    0  502 -0.25474661222E+03  0.35915578862E+03  0.64535060379E+03  0.78126034819E+03  0.12699999809E+01 0.  1.
</event>
<event>
 5   0  0.2414128E-02  0.9274837E+03  0.7818609E-02  0.9391863E-01
        2   -1    0    0  501    0  0.00000000000E+00  0.00000000000E+00  0.51030998427E+03  0.51030998428E+03  0.25500000920E-02 0. -1.
       -2   -1    0    0    0  501  0.00000000000E+00  0.00000000000E+00 -0.42142329475E+03  0.42142329476E+03  0.25500000920E-02 0.  1.
    10030    2    1    2    0    0  0.00000000000E+00  0.00000000000E+00  0.88886689521E+02  0.93173327904E+03  0.92748372476E+03 0.  0.
        3    1    3    3  502    0  0.26012563987E+03 -0.36511574947E+02 -0.33948314285E+03  0.42924032674E+03  0.10100000352E+00 0.  1.
       -3    1    3    3    0  502 -0.26012563987E+03  0.36511574947E+02  0.42836983237E+03  0.50249295230E+03  0.10100000352E+00 0. -1.
</event>
<event>
 5   0  0.2705111E-02  0.8490206E+03  0.7818609E-02  0.9491652E-01
       -2   -1    0    0    0  501  0.00000000000E+00  0.00000000000E+00  0.29534186166E+03  0.29534186167E+03  0.25500000920E-02 0. -1.
        2   -1    0    0  501    0  0.00000000000E+00  0.00000000000E+00 -0.61017086869E+03  0.61017086869E+03  0.25500000920E-02 0.  1.
    10030    2    1    2    0    0  0.00000000000E+00  0.00000000000E+00 -0.31482900703E+03  0.90551273036E+03  0.84902061293E+03 0.  0.
        4    1    3    3  502    0  0.32182362780E+03  0.10111526851E+03 -0.43226827851E+03  0.54831762916E+03  0.12699999809E+01 0.  1.
       -4    1    3    3    0  502 -0.32182362780E+03 -0.10111526851E+03  0.11743927148E+03  0.35719510120E+03  0.12699999809E+01 0. -1.
</event>
<event>
 5   0  0.1560728E-02  0.9561211E+03  0.7818609E-02  0.9358024E-01
        1   -1    0    0  501    0  0.00000000000E+00  0.00000000000E+00  0.75373592268E+03  0.75373592270E+03  0.50400001928E-02 0. -1.
       -1   -1    0    0    0  501  0.00000000000E+00  0.00000000000E+00 -0.30321213756E+03  0.30321213760E+03  0.50400001928E-02 0.  1.
    10030    2    1    2    0    0  0.00000000000E+00  0.00000000000E+00  0.45052378512E+03  0.10569480603E+04  0.95612108083E+03 0.  0.
        4    1    3    3  502    0 -0.16994812815E+03  0.69697880802E+02  0.71316698090E+03  0.73644342376E+03  0.12699999809E+01 0. -1.
       -4    1    3    3    0  502  0.16994812815E+03 -0.69697880802E+02 -0.26264319578E+03  0.32050463654E+03  0.12699999809E+01 0.  1.
</event>
<event>
 5   0  0.1559275E-02  0.9208273E+03  0.7818609E-02  0.9399914E-01
       -1   -1    0    0    0  501  0.00000000000E+00  0.00000000000E+00  0.66059129564E+03  0.66059129566E+03  0.50400001928E-02 0.  1.
        1   -1    0    0  501    0  0.00000000000E+00  0.00000000000E+00 -0.32089541328E+03  0.32089541332E+03  0.50400001928E-02 0. -1.
    10030    2    1    2    0    0  0.00000000000E+00  0.00000000000E+00  0.33969588236E+03  0.98148670898E+03  0.92082727339E+03 0.  0.
        1    1    3    3  502    0  0.21700546514E+03 -0.16877329648E+03 -0.22381203830E+03  0.35449629902E+03  0.50400001928E-02 0. -1.
       -1    1    3    3    0  502 -0.21700546514E+03  0.16877329648E+03  0.56350792066E+03  0.62699040996E+03  0.50400001928E-02 0.  1.
</event>
<event>
 5   0  0.2628383E-02  0.8811368E+03  0.7818609E-02  0.9449473E-01
        2   -1    0    0  501    0  0.00000000000E+00  0.00000000000E+00  0.40141312471E+03  0.40141312472E+03  0.25500000920E-02 0. -1.
       -2   -1    0    0    0  501  0.00000000000E+00  0.00000000000E+00 -0.48354300618E+03  0.48354300619E+03  0.25500000920E-02 0.  1.
    10030    2    1    2    0    0  0.00000000000E+00  0.00000000000E+00 -0.82129881464E+02  0.88495613091E+03  0.88113678632E+03 0.  0.
        2    1    3    3  502    0  0.32827859614E+03  0.90907440394E+02  0.23955539203E+03  0.41643461103E+03  0.25500000920E-02 0. -1.
       -2    1    3    3    0  502 -0.32827859614E+03 -0.90907440394E+02 -0.32168527350E+03  0.46852151988E+03  0.25500000920E-02 0.  1.
</event>
<event>
 5   0  0.2414128E-02  0.9209917E+03  0.7818609E-02  0.9399715E-01
        2   -1    0    0  501    0  0.00000000000E+00  0.00000000000E+00  0.11446906809E+04  0.11446906809E+04  0.25500000920E-02 0.  1.
       -2   -1    0    0    0  501  0.00000000000E+00  0.00000000000E+00 -0.18525214931E+03  0.18525214933E+03  0.25500000920E-02 0. -1.
    10030    2    1    2    0    0  0.00000000000E+00  0.00000000000E+00  0.95943853158E+03  0.13299428302E+04  0.92099165891E+03 0.  0.
        3    1    3    3  502    0 -0.43685826707E+03  0.16559481716E+02  0.27077287021E+03  0.51423469290E+03  0.10100000352E+00 0. -1.
       -3    1    3    3    0  502  0.43685826707E+03 -0.16559481716E+02  0.68866566137E+03  0.81570813732E+03  0.10100000352E+00 0.  1.
</event>
<event>
 5   0  0.1560728E-02  0.9007847E+03  0.7818609E-02  0.9424601E-01
        1   -1    0    0  501    0  0.00000000000E+00  0.00000000000E+00  0.67914032889E+03  0.67914032891E+03  0.50400001928E-02 0. -1.
       -1   -1    0    0    0  501  0.00000000000E+00  0.00000000000E+00 -0.29869126305E+03  0.29869126309E+03  0.50400001928E-02 0.  1.
    10030    2    1    2    0    0  0.00000000000E+00  0.00000000000E+00  0.38044906584E+03  0.97783159200E+03  0.90078473045E+03 0.  0.
        4    1    3    3  502    0  0.39001972151E+03 -0.14256339612E+03  0.91813693780E+00  0.41526155728E+03  0.12699999809E+01 0.  1.
       -4    1    3    3    0  502 -0.39001972151E+03  0.14256339612E+03  0.37953092891E+03  0.56257003473E+03  0.12699999809E+01 0. -1.
</event>
<event>
 5   0  0.1459111E-02  0.9223670E+03  0.7818609E-02  0.9398046E-01
       -1   -1    0    0    0  501  0.00000000000E+00  0.00000000000E+00  0.16677108165E+03  0.16677108172E+03  0.50400001928E-02 0. -1.
        1   -1    0    0  501    0  0.00000000000E+00  0.00000000000E+00 -0.12753422620E+04  0.12753422621E+04  0.50400001928E-02 0.  1.
    10030    2    1    2    0    0  0.00000000000E+00  0.00000000000E+00 -0.11085711804E+04  0.14421133438E+04  0.92236697377E+03 0.  0.
        2    1    3    3  502    0 -0.20121602327E+03  0.19070558461E+03  0.21949123128E+02  0.27809759444E+03  0.25500000920E-02 0. -1.
       -2    1    3    3    0  502  0.20121602327E+03 -0.19070558461E+03 -0.11305203035E+04  0.11640157493E+04  0.25500000920E-02 0.  1.
</event>
<event>
 5   0  0.1559275E-02  0.8789774E+03  0.7818609E-02  0.9452249E-01
       -1   -1    0    0    0  501  0.00000000000E+00  0.00000000000E+00  0.12285011865E+04  0.12285011865E+04  0.50400001928E-02 0. -1.
        1   -1    0    0  501    0  0.00000000000E+00  0.00000000000E+00 -0.15722436536E+03  0.15722436544E+03  0.50400001928E-02 0.  1.
    10030    2    1    2    0    0  0.00000000000E+00  0.00000000000E+00  0.10712768212E+04  0.13857255520E+04  0.87897740461E+03 0.  0.
        1    1    3    3  502    0 -0.25995443318E+03 -0.28327202212E+03  0.19998038361E+03  0.43337224150E+03  0.50400001928E-02 0.  1.
       -1    1    3    3    0  502  0.25995443318E+03  0.28327202212E+03  0.87129643755E+03  0.95235331047E+03  0.50400001928E-02 0. -1.
</event>
<event>
 5   0  0.2628383E-02  0.9123109E+03  0.7818609E-02  0.9410322E-01
        2   -1    0    0  501    0  0.00000000000E+00  0.00000000000E+00  0.21074070846E+03  0.21074070848E+03  0.25500000920E-02 0. -1.
       -2   -1    0    0    0  501  0.00000000000E+00  0.00000000000E+00 -0.98736397721E+03  0.98736397722E+03  0.25500000920E-02 0.  1.
    10030    2    1    2    0    0  0.00000000000E+00  0.00000000000E+00 -0.77662326875E+03  0.11981046857E+04  0.91231087701E+03 0.  0.
        2    1    3    3  502    0  0.24734574751E+02 -0.16254005715E+03  0.17047658061E+03  0.23684031310E+03  0.25500000920E-02 0. -1.
       -2    1    3    3    0  502 -0.24734574751E+02  0.16254005715E+03 -0.94709984936E+03  0.96126437260E+03  0.25500000920E-02 0.  1.
</event>
<event>
 5   0  0.1040163E-02  0.8967737E+03  0.7818609E-02  0.9429623E-01
        3   -1    0    0  501    0  0.00000000000E+00  0.00000000000E+00  0.60886472077E+03  0.60886472915E+03  0.10100000352E+00 0.  1.
       -3   -1    0    0    0  501  0.00000000000E+00  0.00000000000E+00 -0.33020595541E+03  0.33020597086E+03  0.10100000352E+00 0. -1.
    10030    2    1    2    0    0  0.00000000000E+00  0.00000000000E+00  0.27865876536E+03  0.93907070000E+03  0.89677370172E+03 0.  0.
        1    1    3    3  502    0  0.35167918350E+03  0.23585169131E+03 -0.15092949436E+02  0.42371224381E+03  0.50400001928E-02 0. -1.
       -1    1    3    3    0  502 -0.35167918350E+03 -0.23585169131E+03  0.29375171479E+03  0.51535845620E+03  0.50400001928E-02 0.  1.
</event>
<event>
 5   0  0.1497410E-02  0.9140379E+03  0.7818609E-02  0.9408202E-01
       -1   -1    0    0    0  501  0.00000000000E+00  0.00000000000E+00  0.36741708098E+03  0.36741708102E+03  0.50400001928E-02 0. -1.
        1   -1    0    0  501    0  0.00000000000E+00  0.00000000000E+00 -0.56847195367E+03  0.56847195370E+03  0.50400001928E-02 0.  1.
    10030    2    1    2    0    0  0.00000000000E+00  0.00000000000E+00 -0.20105487269E+03  0.93588903471E+03  0.91403786763E+03 0.  0.
        3    1    3    3  502    0  0.43855672402E+02 -0.24295169837E+02  0.36459283712E+03  0.36802380678E+03  0.10100000352E+00 0. -1.
       -3    1    3    3    0  502 -0.43855672402E+02  0.24295169837E+02 -0.56564770981E+03  0.56786522793E+03  0.10100000352E+00 0.  1.
</event>
<event>
 5   0  0.1559275E-02  0.9169577E+03  0.7818609E-02  0.9404628E-01
       -1   -1    0    0    0  501  0.00000000000E+00  0.00000000000E+00  0.63290836077E+03  0.63290836079E+03  0.50400001928E-02 0.  1.
        1   -1    0    0  501    0  0.00000000000E+00  0.00000000000E+00 -0.33212207832E+03  0.33212207836E+03  0.50400001928E-02 0. -1.
    10030    2    1    2    0    0  0.00000000000E+00  0.00000000000E+00  0.30078628245E+03  0.96503043915E+03  0.91695766575E+03 0.  0.
        1    1    3    3  502    0 -0.82942013870E+02 -0.44984147302E+03  0.18310501234E+03  0.49271104522E+03  0.50400001928E-02 0.  1.
       -1    1    3    3    0  502  0.82942013870E+02  0.44984147302E+03  0.11768127011E+03  0.47231939392E+03  0.50400001928E-02 0. -1.
</event>
<event>
 5   0  0.2414128E-02  0.9406232E+03  0.7818609E-02  0.9376178E-01
        2   -1    0    0  501    0  0.00000000000E+00  0.00000000000E+00  0.92786646755E+03  0.92786646755E+03  0.25500000920E-02 0.  1.
       -2   -1    0    0    0  501  0.00000000000E+00  0.00000000000E+00 -0.23838885073E+03  0.23838885074E+03  0.25500000920E-02 0. -1.
    10030    2    1    2    0    0  0.00000000000E+00  0.00000000000E+00  0.68947761682E+03  0.11662553183E+04  0.94062324198E+03 0.  0.
        3    1    3    3  502    0  0.36148355336E+03  0.29991481505E+03  0.37443776382E+03  0.60068536257E+03  0.10100000352E+00 0.  1.
       -3    1    3    3    0  502 -0.36148355336E+03 -0.29991481505E+03  0.31503985300E+03  0.56556995572E+03  0.10100000352E+00 0. -1.
</event>
<event>
 5   0  0.2414128E-02  0.9015379E+03  0.7818609E-02  0.9423661E-01
       -2   -1    0    0    0  501  0.00000000000E+00  0.00000000000E+00  0.61757887708E+03  0.61757887709E+03  0.25500000920E-02 0. -1.
        2   -1    0    0  501    0  0.00000000000E+00  0.00000000000E+00 -0.32901488954E+03  0.32901488954E+03  0.25500000920E-02 0.  1.
    10030    2    1    2    0    0  0.00000000000E+00  0.00000000000E+00  0.28856398754E+03  0.94659376663E+03  0.90153789943E+03 0.  0.
        3    1    3    3  502    0  0.12301106898E+03  0.24224642325E+03 -0.23338511950E+03  0.35816710747E+03  0.10100000352E+00 0.  1.
       -3    1    3    3    0  502 -0.12301106898E+03 -0.24224642325E+03  0.52194910704E+03  0.58842665916E+03  0.10100000352E+00 0. -1.
</event>
<event>
 5   0  0.1559275E-02  0.8912560E+03  0.7818609E-02  0.9436578E-01
       -1   -1    0    0    0  501  0.00000000000E+00  0.00000000000E+00  0.25291652216E+03  0.25291652221E+03  0.50400001928E-02 0.  1.
        1   -1    0    0  501    0  0.00000000000E+00  0.00000000000E+00 -0.78517734680E+03  0.78517734681E+03  0.50400001928E-02 0. -1.
    10030    2    1    2    0    0  0.00000000000E+00  0.00000000000E+00 -0.53226082464E+03  0.10380938690E+04  0.89125602127E+03 0.  0.
        1    1    3    3  502    0 -0.37618708440E+03 -0.16674468214E+03 -0.66879829336E+02  0.41688538364E+03  0.50400001928E-02 0.  1.
       -1    1    3    3    0  502  0.37618708440E+03  0.16674468214E+03 -0.46538099530E+03  0.62120848538E+03  0.50400001928E-02 0. -1.
</event>
<event>
 5   0  0.2679861E-02  0.9277945E+03  0.7818609E-02  0.9391489E-01
        2   -1    0    0  501    0  0.00000000000E+00  0.00000000000E+00  0.17404404794E+04  0.17404404794E+04  0.25500000920E-02 0.  1.
       -2   -1    0    0    0  501  0.00000000000E+00  0.00000000000E+00 -0.12364723132E+03  0.12364723134E+03  0.25500000920E-02 0. -1.
    10030    2    1    2    0    0  0.00000000000E+00  0.00000000000E+00  0.16167932480E+04  0.18640877107E+04  0.92779447416E+03 0.  0.
        1    1    3    3  502    0  0.20897865596E+03 -0.23321059492E+03  0.14960502565E+04  0.15284716648E+04  0.50400001928E-02 0.  1.
       -1    1    3    3    0  502 -0.20897865596E+03  0.23321059492E+03  0.12074299159E+03  0.33561604591E+03  0.50400001928E-02 0. -1.
</event>
<event>
 5   0  0.1459111E-02  0.9240910E+03  0.7818609E-02  0.9395958E-01
       -1   -1    0    0    0  501  0.00000000000E+00  0.00000000000E+00  0.27868960992E+03  0.27868960996E+03  0.50400001928E-02 0.  1.
        1   -1    0    0  501    0  0.00000000000E+00  0.00000000000E+00 -0.76603523403E+03  0.76603523405E+03  0.50400001928E-02 0. -1.
    10030    2    1    2    0    0  0.00000000000E+00  0.00000000000E+00 -0.48734562411E+03  0.10447248440E+04  0.92409103575E+03 0.  0.
        2    1    3    3  502    0 -0.11630782396E+03  0.98926262195E+01  0.26174536004E+03  0.28659380223E+03  0.25500000920E-02 0.  1.
       -2    1    3    3    0  502  0.11630782396E+03 -0.98926262195E+01 -0.74909098415E+03  0.75813104178E+03  0.25500000920E-02 0. -1.
</event>
<event>
 5   0  0.1559275E-02  0.9251816E+03  0.7818609E-02  0.9394639E-01
        1   -1    0    0  501    0  0.00000000000E+00  0.00000000000E+00  0.99415914003E+03  0.99415914004E+03  0.50400001928E-02 0.  1.
       -1   -1    0    0    0  501  0.00000000000E+00  0.00000000000E+00 -0.21524748838E+03  0.21524748844E+03  0.50400001928E-02 0. -1.
    10030    2    1    2    0    0  0.00000000000E+00  0.00000000000E+00  0.77891165165E+03  0.12094066285E+04  0.92518162106E+03 0.  0.
        1    1    3    3  502    0 -0.40054216128E+03 -0.23042627893E+03  0.36142036293E+03  0.58664722939E+03  0.50400001928E-02 0. -1.
       -1    1    3    3    0  502  0.40054216128E+03  0.23042627893E+03  0.41749128871E+03  0.62275939909E+03  0.50400001928E-02 0.  1.
</event>
<event>
 5   0  0.1040163E-02  0.8357645E+03  0.7818609E-02  0.9509645E-01
       -4   -1    0    0    0  501  0.00000000000E+00  0.00000000000E+00  0.67740724381E+03  0.67740843430E+03  0.12699999809E+01 0.  1.
        4   -1    0    0  501    0  0.00000000000E+00  0.00000000000E+00 -0.25778226121E+03  0.25778538960E+03  0.12699999809E+01 0. -1.
    10030    2    1    2    0    0  0.00000000000E+00  0.00000000000E+00  0.41962498260E+03  0.93519382391E+03  0.83576453756E+03 0.  0.
        2    1    3    3  502    0 -0.35007754203E+03  0.22730248784E+03  0.18729691463E+03  0.45749408810E+03  0.25500000920E-02 0. -1.
       -2    1    3    3    0  502  0.35007754203E+03 -0.22730248784E+03  0.23232806798E+03  0.47769973581E+03  0.25500000920E-02 0.  1.
</event>
<event>
 5   0  0.2679861E-02  0.9056508E+03  0.7818609E-02  0.9418545E-01
        2   -1    0    0  501    0  0.00000000000E+00  0.00000000000E+00  0.13862166507E+04  0.13862166507E+04  0.25500000920E-02 0. -1.
       -2   -1    0    0    0  501  0.00000000000E+00  0.00000000000E+00 -0.14792122336E+03  0.14792122338E+03  0.25500000920E-02 0.  1.
    10030    2    1    2    0    0  0.00000000000E+00  0.00000000000E+00  0.12382954273E+04  0.15341378740E+04  0.90565084403E+03 0.  0.
        1    1    3    3  502    0  0.21312818614E+03 -0.31382026422E+03  0.20027621954E+03  0.42897243047E+03  0.50400001928E-02 0.  1.
       -1    1    3    3    0  502 -0.21312818614E+03  0.31382026422E+03  0.10380192078E+04  0.11051654436E+04  0.50400001928E-02 0. -1.
</event>
<event>
 5   0  0.1459111E-02  0.8908593E+03  0.7818609E-02  0.9437080E-01
       -1   -1    0    0    0  501  0.00000000000E+00  0.00000000000E+00  0.19935822108E+03  0.19935822114E+03  0.50400001928E-02 0. -1.
        1   -1    0    0  501    0  0.00000000000E+00  0.00000000000E+00 -0.99523145690E+03  0.99523145691E+03  0.50400001928E-02 0.  1.
    10030    2    1    2    0    0  0.00000000000E+00  0.00000000000E+00 -0.79587323582E+03  0.11945896781E+04  0.89085929945E+03 0.  0.
        2    1    3    3  502    0 -0.41758039783E+03  0.60005087263E+02 -0.58961882631E+03  0.72499955827E+03  0.25500000920E-02 0. -1.
       -2    1    3    3    0  502  0.41758039783E+03 -0.60005087263E+02 -0.20625440952E+03  0.46959011978E+03  0.25500000920E-02 0.  1.
</event>
<event>
 5   0  0.1459111E-02  0.8784191E+03  0.7818609E-02  0.9452968E-01
        1   -1    0    0  501    0  0.00000000000E+00  0.00000000000E+00  0.74198222765E+03  0.74198222767E+03  0.50400001928E-02 0. -1.
       -1   -1    0    0    0  501  0.00000000000E+00  0.00000000000E+00 -0.25998604886E+03  0.25998604891E+03  0.50400001928E-02 0.  1.
    10030    2    1    2    0    0  0.00000000000E+00  0.00000000000E+00  0.48199617879E+03  0.10019682766E+04  0.87841909753E+03 0.  0.
        2    1    3    3  502    0  0.19147977198E+03  0.37411589014E+03  0.38652737423E+03  0.57099090481E+03  0.25500000920E-02 0.  1.
       -2    1    3    3    0  502 -0.19147977198E+03 -0.37411589014E+03  0.95468804558E+02  0.43097737178E+03  0.25500000920E-02 0. -1.
</event>
<event>
 5   0  0.2628383E-02  0.9051275E+03  0.7818609E-02  0.9419194E-01
       -2   -1    0    0    0  501  0.00000000000E+00  0.00000000000E+00  0.17561480158E+03  0.17561480159E+03  0.25500000920E-02 0. -1.
        2   -1    0    0  501    0  0.00000000000E+00  0.00000000000E+00 -0.11662680405E+04  0.11662680405E+04  0.25500000920E-02 0.  1.
    10030    2    1    2    0    0  0.00000000000E+00  0.00000000000E+00 -0.99065323890E+03  0.13418828421E+04  0.90512746180E+03 0.  0.
        2    1    3    3  502    0  0.40926437365E+03  0.12583975022E+03 -0.71261259879E+03  0.83135412806E+03  0.25500000920E-02 0.  1.
       -2    1    3    3    0  502 -0.40926437365E+03 -0.12583975022E+03 -0.27804064011E+03  0.51052871401E+03  0.25500000920E-02 0. -1.
</event>
<event>
 5   0  0.1040163E-02  0.9155519E+03  0.7818609E-02  0.9406347E-01
        3   -1    0    0  501    0  0.00000000000E+00  0.00000000000E+00  0.71369544860E+03  0.71369545575E+03  0.10100000352E+00 0. -1.
       -3   -1    0    0    0  501  0.00000000000E+00  0.00000000000E+00 -0.29362495456E+03  0.29362497194E+03  0.10100000352E+00 0.  1.
    10030    2    1    2    0    0  0.00000000000E+00  0.00000000000E+00  0.42007049404E+03  0.10073204277E+04  0.91555186858E+03 0.  0.
        2    1    3    3  502    0  0.31565840361E+03 -0.13379719363E+03 -0.12371259128E+03  0.36448144265E+03  0.25500000920E-02 0.  1.
       -2    1    3    3    0  502 -0.31565840361E+03  0.13379719363E+03  0.54378308532E+03  0.64283898503E+03  0.25500000920E-02 0. -1.
</event>
<event>
 5   0  0.1497410E-02  0.9803488E+03  0.7818609E-02  0.9330364E-01
        1   -1    0    0  501    0  0.00000000000E+00  0.00000000000E+00  0.10444461607E+04  0.10444461608E+04  0.50400001928E-02 0.  1.
       -1   -1    0    0    0  501  0.00000000000E+00  0.00000000000E+00 -0.23004628484E+03  0.23004628490E+03  0.50400001928E-02 0. -1.
    10030    2    1    2    0    0  0.00000000000E+00  0.00000000000E+00  0.81439987591E+03  0.12744924457E+04  0.98034883392E+03 0.  0.
        3    1    3    3  502    0 -0.25872694596E+03 -0.75854786486E+01 -0.13395677460E+03  0.29144742187E+03  0.10100000352E+00 0. -1.
       -3    1    3    3    0  502  0.25872694596E+03  0.75854786486E+01  0.94835665050E+03  0.98304502379E+03  0.10100000352E+00 0.  1.
</event>
<event>
 5   0  0.2803717E-02  0.8763676E+03  0.7818609E-02  0.9455615E-01
       -2   -1    0    0    0  501  0.00000000000E+00  0.00000000000E+00  0.22104814016E+03  0.22104814018E+03  0.25500000920E-02 0.  1.
        2   -1    0    0  501    0  0.00000000000E+00  0.00000000000E+00 -0.86861180240E+03  0.86861180240E+03  0.25500000920E-02 0. -1.
    10030    2    1    2    0    0  0.00000000000E+00  0.00000000000E+00 -0.64756366223E+03  0.10896599426E+04  0.87636755635E+03 0.  0.
        5    1    3    3  502    0 -0.32599360724E+03  0.29118967854E+03 -0.28607488855E+03  0.52242147038E+03  0.46999998093E+01 0.  1.
       -5    1    3    3    0  502  0.32599360724E+03 -0.29118967854E+03 -0.36148877368E+03  0.56723847221E+03  0.46999998093E+01 0. -1.
</event>
<event>
 5   0  0.1497410E-02  0.9174074E+03  0.7818609E-02  0.9404079E-01
       -1   -1    0    0    0  501  0.00000000000E+00  0.00000000000E+00  0.20426924193E+03  0.20426924199E+03  0.50400001928E-02 0.  1.
        1   -1    0    0  501    0  0.00000000000E+00  0.00000000000E+00 -0.10300575512E+04  0.10300575512E+04  0.50400001928E-02 0. -1.
    10030    2    1    2    0    0  0.00000000000E+00  0.00000000000E+00 -0.82578830928E+03  0.12343267932E+04  0.91740737991E+03 0.  0.
        3    1    3    3  502    0  0.32516612799E+02  0.10522782382E+03 -0.10120035240E+04  0.10179790606E+04  0.10100000352E+00 0. -1.
       -3    1    3    3    0  502 -0.32516612799E+02 -0.10522782382E+03  0.18621521473E+03  0.21634773262E+03  0.10100000352E+00 0.  1.
</event>
<event>
 5   0  0.2628383E-02  0.8665135E+03  0.7818609E-02  0.9468437E-01
        2   -1    0    0  501    0  0.00000000000E+00  0.00000000000E+00  0.68813221167E+03  0.68813221168E+03  0.25500000920E-02 0.  1.
       -2   -1    0    0    0  501  0.00000000000E+00  0.00000000000E+00 -0.27278395845E+03  0.27278395846E+03  0.25500000920E-02 0. -1.
    10030    2    1    2    0    0  0.00000000000E+00  0.00000000000E+00  0.41534825322E+03  0.96091617014E+03  0.86651353975E+03 0.  0.
        2    1    3    3  502    0  0.30373706684E+03 -0.12900607401E+03  0.51899492069E+03  0.61502398377E+03  0.25500000920E-02 0.  1.
       -2    1    3    3    0  502 -0.30373706684E+03  0.12900607401E+03 -0.10364666747E+03  0.34589218637E+03  0.25500000920E-02 0. -1.
</event>
<event>
 5   0  0.2628383E-02  0.9272550E+03  0.7818609E-02  0.9392138E-01
       -2   -1    0    0    0  501  0.00000000000E+00  0.00000000000E+00  0.22486163009E+03  0.22486163010E+03  0.25500000920E-02 0. -1.
        2   -1    0    0  501    0  0.00000000000E+00  0.00000000000E+00 -0.95592321561E+03  0.95592321561E+03  0.25500000920E-02 0.  1.
    10030    2    1    2    0    0  0.00000000000E+00  0.00000000000E+00 -0.73106158552E+03  0.11807848457E+04  0.92725498653E+03 0.  0.
        2    1    3    3  502    0 -0.25334564132E+03 -0.68550188543E+02  0.12115437306E+03  0.28907010299E+03  0.25500000920E-02 0. -1.
       -2    1    3    3    0  502  0.25334564132E+03  0.68550188543E+02 -0.85221595858E+03  0.89171474272E+03  0.25500000920E-02 0.  1.
</event>
<event>
 5   0  0.1559275E-02  0.8405554E+03  0.7818609E-02  0.9503102E-01
       -1   -1    0    0    0  501  0.00000000000E+00  0.00000000000E+00  0.29442520927E+03  0.29442520931E+03  0.50400001928E-02 0.  1.
        1   -1    0    0  501    0  0.00000000000E+00  0.00000000000E+00 -0.59992609070E+03  0.59992609072E+03  0.50400001928E-02 0. -1.
    10030    2    1    2    0    0  0.00000000000E+00  0.00000000000E+00 -0.30550088143E+03  0.89435130003E+03  0.84055544690E+03 0.  0.
        1    1    3    3  502    0 -0.27271607043E+03  0.86526984196E+02  0.17480339841E+03  0.33528674622E+03  0.50400001928E-02 0.  1.
       -1    1    3    3    0  502  0.27271607043E+03 -0.86526984196E+02 -0.48030427985E+03  0.55906455381E+03  0.50400001928E-02 0. -1.
</event>
<event>
 5   0  0.2414128E-02  0.8828167E+03  0.7818609E-02  0.9447320E-01
       -2   -1    0    0    0  501  0.00000000000E+00  0.00000000000E+00  0.39677031401E+03  0.39677031402E+03  0.25500000920E-02 0.  1.
        2   -1    0    0  501    0  0.00000000000E+00  0.00000000000E+00 -0.49106833966E+03  0.49106833966E+03  0.25500000920E-02 0. -1.
    10030    2    1    2    0    0  0.00000000000E+00  0.00000000000E+00 -0.94298025640E+02  0.88783865368E+03  0.88281671786E+03 0.  0.
        3    1    3    3  502    0 -0.15316683389E+03 -0.27120531734E+03  0.26740638557E+03  0.41051015627E+03  0.10100000352E+00 0.  1.
       -3    1    3    3    0  502  0.15316683389E+03  0.27120531734E+03 -0.36170441121E+03  0.47732849742E+03  0.10100000352E+00 0. -1.
</event>
<event>
 5   0  0.2628383E-02  0.8922258E+03  0.7818609E-02  0.9435352E-01
        2   -1    0    0  501    0  0.00000000000E+00  0.00000000000E+00  0.11729266890E+04  0.11729266890E+04  0.25500000920E-02 0. -1.
       -2   -1    0    0    0  501  0.00000000000E+00  0.00000000000E+00 -0.16967534234E+03  0.16967534236E+03  0.25500000920E-02 0.  1.
    10030    2    1    2    0    0  0.00000000000E+00  0.00000000000E+00  0.10032513466E+04  0.13426020313E+04  0.89222584026E+03 0.  0.
        2    1    3    3  502    0  0.80391211998E+02  0.37560185679E+03  0.84303871893E+03  0.92641987426E+03  0.25500000920E-02 0.  1.
       -2    1    3    3    0  502 -0.80391211998E+02 -0.37560185679E+03  0.16021262771E+03  0.41618215708E+03  0.25500000920E-02 0. -1.
</event>
<event>
 5   0  0.1497410E-02  0.8917380E+03  0.7818609E-02  0.9435969E-01
        1   -1    0    0  501    0  0.00000000000E+00  0.00000000000E+00  0.58159546770E+03  0.58159546772E+03  0.50400001928E-02 0. -1.
       -1   -1    0    0    0  501  0.00000000000E+00  0.00000000000E+00 -0.34181694353E+03  0.34181694357E+03  0.50400001928E-02 0.  1.
    10030    2    1    2    0    0  0.00000000000E+00  0.00000000000E+00  0.23977852417E+03  0.92341241129E+03  0.89173804487E+03 0.  0.
        3    1    3    3  502    0  0.18597670547E+03  0.17261244823E+03  0.49954079690E+03  0.56028868473E+03  0.10100000352E+00 0. -1.
       -3    1    3    3    0  502 -0.18597670547E+03 -0.17261244823E+03 -0.25976227273E+03  0.36312372657E+03  0.10100000352E+00 0.  1.
</event>
<event>
 5   0  0.1497410E-02  0.9145955E+03  0.7818609E-02  0.9407518E-01
        1   -1    0    0  501    0  0.00000000000E+00  0.00000000000E+00  0.10443914645E+04  0.10443914645E+04  0.50400001928E-02 0.  1.
       -1   -1    0    0    0  501  0.00000000000E+00  0.00000000000E+00 -0.20023262662E+03  0.20023262668E+03  0.50400001928E-02 0. -1.
    10030    2    1    2    0    0  0.00000000000E+00  0.00000000000E+00  0.84415883784E+03  0.12446240912E+04  0.91459553070E+03 0.  0.
        3    1    3    3  502    0  0.39152131892E+03  0.21108421923E+03  0.56658404657E+03  0.72032144408E+03  0.10100000352E+00 0. -1.
       -3    1    3    3    0  502 -0.39152131892E+03 -0.21108421923E+03  0.27757479127E+03  0.52430264707E+03  0.10100000352E+00 0.  1.
</event>
<event>
 5   0  0.1560728E-02  0.9024881E+03  0.7818609E-02  0.9422477E-01
       -1   -1    0    0    0  501  0.00000000000E+00  0.00000000000E+00  0.41643647764E+03  0.41643647767E+03  0.50400001928E-02 0. -1.
        1   -1    0    0  501    0  0.00000000000E+00  0.00000000000E+00 -0.48896099738E+03  0.48896099740E+03  0.50400001928E-02 0.  1.
    10030    2    1    2    0    0  0.00000000000E+00  0.00000000000E+00 -0.72524519738E+02  0.90539747507E+03  0.90248810624E+03 0.  0.
        4    1    3    3  502    0 -0.39087955615E+03 -0.76752217836E+02  0.17641608683E+03  0.43566268942E+03  0.12699999809E+01 0. -1.
       -4    1    3    3    0  502  0.39087955615E+03  0.76752217836E+02 -0.24894060657E+03  0.46973478566E+03  0.12699999809E+01 0.  1.
</event>
<event>
 5   0  0.2414128E-02  0.9107179E+03  0.7818609E-02  0.9412282E-01
        2   -1    0    0  501    0  0.00000000000E+00  0.00000000000E+00  0.36732302154E+03  0.36732302155E+03  0.25500000920E-02 0. -1.
       -2   -1    0    0    0  501  0.00000000000E+00  0.00000000000E+00 -0.56449430565E+03  0.56449430566E+03  0.25500000920E-02 0.  1.
    10030    2    1    2    0    0  0.00000000000E+00  0.00000000000E+00 -0.19717128411E+03  0.93181732721E+03  0.91071785752E+03 0.  0.
        3    1    3    3  502    0 -0.38748778486E+03  0.11504873477E+02 -0.34301915636E+03  0.51763046410E+03  0.10100000352E+00 0.  1.
       -3    1    3    3    0  502  0.38748778486E+03 -0.11504873477E+02  0.14584787225E+03  0.41418686311E+03  0.10100000352E+00 0. -1.
</event>
<event>
 5   0  0.2628383E-02  0.9067772E+03  0.7818609E-02  0.9417149E-01
        2   -1    0    0  501    0  0.00000000000E+00  0.00000000000E+00  0.21012879903E+04  0.21012879903E+04  0.25500000920E-02 0.  1.
       -2   -1    0    0    0  501  0.00000000000E+00  0.00000000000E+00 -0.97826305118E+02  0.97826305151E+02  0.25500000920E-02 0. -1.
    10030    2    1    2    0    0  0.00000000000E+00  0.00000000000E+00  0.20034616852E+04  0.21991142955E+04  0.90677723862E+03 0.  0.
        2    1    3    3  502    0 -0.39048640855E+03 -0.19086360794E+03  0.13146912255E+04  0.13846738137E+04  0.25500000920E-02 0.  1.
       -2    1    3    3    0  502  0.39048640855E+03  0.19086360794E+03  0.68877045974E+03  0.81444048175E+03  0.25500000920E-02 0. -1.
</event>
<event>
 5   0  0.2705111E-02  0.8692984E+03  0.7818609E-02  0.9464795E-01
       -2   -1    0    0    0  501  0.00000000000E+00  0.00000000000E+00  0.92784376972E+03  0.92784376972E+03  0.25500000920E-02 0. -1.
        2   -1    0    0  501    0  0.00000000000E+00  0.00000000000E+00 -0.20361176342E+03  0.20361176343E+03  0.25500000920E-02 0.  1.
    10030    2    1    2    0    0  0.00000000000E+00  0.00000000000E+00  0.72423200630E+03  0.11314555332E+04  0.86929835187E+03 0.  0.
        4    1    3    3  502    0  0.82313928695E+01 -0.18002575077E+03  0.87692282821E+03  0.89524984575E+03  0.12699999809E+01 0. -1.
       -4    1    3    3    0  502 -0.82313928695E+01  0.18002575077E+03 -0.15269082192E+03  0.23620568741E+03  0.12699999809E+01 0.  1.
</event>
<event>
 5   0  0.1459111E-02  0.9001390E+03  0.7818609E-02  0.9425408E-01
       -1   -1    0    0    0  501  0.00000000000E+00  0.00000000000E+00  0.43077895270E+03  0.43077895273E+03  0.50400001928E-02 0.  1.
        1   -1    0    0  501    0  0.00000000000E+00  0.00000000000E+00 -0.47022387462E+03  0.47022387465E+03  0.50400001928E-02 0. -1.
    10030    2    1    2    0    0  0.00000000000E+00  0.00000000000E+00 -0.39444921917E+02  0.90100282738E+03  0.90013898542E+03 0.  0.
        2    1    3    3  502    0 -0.26900893469E+03 -0.24787455865E+03 -0.28218573988E+03  0.46199177002E+03  0.25500000920E-02 0. -1.
       -2    1    3    3    0  502  0.26900893469E+03  0.24787455865E+03  0.24274081796E+03  0.43901105736E+03  0.25500000920E-02 0.  1.
</event>
<event>
 5   0  0.1537870E-02  0.9068432E+03  0.7818609E-02  0.9417067E-01
        1   -1    0    0  501    0  0.00000000000E+00  0.00000000000E+00  0.84633833772E+03  0.84633833774E+03  0.50400001928E-02 0. -1.
       -1   -1    0    0    0  501  0.00000000000E+00  0.00000000000E+00 -0.24291840463E+03  0.24291840468E+03  0.50400001928E-02 0.  1.
    10030    2    1    2    0    0  0.00000000000E+00  0.00000000000E+00  0.60341993309E+03  0.10892567424E+04  0.90684322529E+03 0.  0.
        5    1    3    3  502    0  0.11672690820E+03  0.43672925955E+03  0.25990276750E+03  0.52146826921E+03  0.46999998093E+01 0. -1.
       -5    1    3    3    0  502 -0.11672690820E+03 -0.43672925955E+03  0.34351716560E+03  0.56778847321E+03  0.46999998093E+01 0.  1.
</event>
<event>
 5   0  0.2679861E-02  0.8979188E+03  0.7818609E-02  0.9428187E-01
        2   -1    0    0  501    0  0.00000000000E+00  0.00000000000E+00  0.19816124944E+04  0.19816124944E+04  0.25500000920E-02 0. -1.
       -2   -1    0    0    0  501  0.00000000000E+00  0.00000000000E+00 -0.10171743083E+03  0.10171743086E+03  0.25500000920E-02 0.  1.
    10030    2    1    2    0    0  0.00000000000E+00  0.00000000000E+00  0.18798950636E+04  0.20833299252E+04  0.89791877553E+03 0.  0.
        1    1    3    3  502    0 -0.49992337334E+02 -0.37298876147E+03  0.15080103044E+04  0.15542570342E+04  0.50400001928E-02 0. -1.
       -1    1    3    3    0  502  0.49992337334E+02  0.37298876147E+03  0.37188475911E+03  0.52907289107E+03  0.50400001928E-02 0.  1.
</event>
<event>
 5   0  0.2628383E-02  0.8639163E+03  0.7818609E-02  0.9471847E-01
        2   -1    0    0  501    0  0.00000000000E+00  0.00000000000E+00  0.41919173601E+03  0.41919173602E+03  0.25500000920E-02 0. -1.
       -2   -1    0    0    0  501  0.00000000000E+00  0.00000000000E+00 -0.44511336844E+03  0.44511336845E+03  0.25500000920E-02 0.  1.
    10030    2    1    2    0    0  0.00000000000E+00  0.00000000000E+00 -0.25921632429E+02  0.86430510447E+03  0.86391630531E+03 0.  0.
        2    1    3    3  502    0 -0.11688478619E+03 -0.32299075428E+02 -0.42773461709E+03  0.44459215713E+03  0.25500000920E-02 0.  1.
       -2    1    3    3    0  502  0.11688478619E+03  0.32299075428E+02  0.40181298466E+03  0.41971294734E+03  0.25500000920E-02 0. -1.
</event>
<event>
 5   0  0.1559275E-02  0.8871233E+03  0.7818609E-02  0.9441823E-01
       -1   -1    0    0    0  501  0.00000000000E+00  0.00000000000E+00  0.38704952016E+03  0.38704952019E+03  0.50400001928E-02 0. -1.
        1   -1    0    0  501    0  0.00000000000E+00  0.00000000000E+00 -0.50832492303E+03  0.50832492306E+03  0.50400001928E-02 0.  1.
    10030    2    1    2    0    0  0.00000000000E+00  0.00000000000E+00 -0.12127540287E+03  0.89537444325E+03  0.88712325541E+03 0.  0.
        1    1    3    3  502    0  0.10497720250E+03 -0.25875183751E+03 -0.40847950211E+03  0.49480120263E+03  0.50400001928E-02 0.  1.
       -1    1    3    3    0  502 -0.10497720250E+03  0.25875183751E+03  0.28720409924E+03  0.40057324062E+03  0.50400001928E-02 0. -1.
</event>
<event>
 5   0  0.1497410E-02  0.8992750E+03  0.7818609E-02  0.9426488E-01
        1   -1    0    0  501    0  0.00000000000E+00  0.00000000000E+00  0.54522531784E+03  0.54522531787E+03  0.50400001928E-02 0.  1.
       -1   -1    0    0    0  501  0.00000000000E+00  0.00000000000E+00 -0.37080797559E+03  0.37080797562E+03  0.50400001928E-02 0. -1.
    10030    2    1    2    0    0  0.00000000000E+00  0.00000000000E+00  0.17441734225E+03  0.91603329349E+03  0.89927503329E+03 0.  0.
        3    1    3    3  502    0 -0.51714954110E+02  0.87864955169E+02  0.53329557438E+03  0.54295383476E+03  0.10100000352E+00 0.  1.
       -3    1    3    3    0  502  0.51714954110E+02 -0.87864955169E+02 -0.35887823213E+03  0.37307945873E+03  0.10100000352E+00 0. -1.
</event>
<event>
 5   0  0.1560728E-02  0.9745153E+03  0.7818609E-02  0.9336946E-01
        1   -1    0    0  501    0  0.00000000000E+00  0.00000000000E+00  0.62355908025E+03  0.62355908027E+03  0.50400001928E-02 0.  1.
       -1   -1    0    0    0  501  0.00000000000E+00  0.00000000000E+00 -0.38074980811E+03  0.38074980814E+03  0.50400001928E-02 0. -1.
    10030    2    1    2    0    0  0.00000000000E+00  0.00000000000E+00  0.24280927214E+03  0.10043088884E+04  0.97451526449E+03 0.  0.
        4    1    3    3  502    0 -0.18028935017E+02 -0.34712835658E+03 -0.23049521822E+03  0.41707648814E+03  0.12699999809E+01 0. -1.
       -4    1    3    3    0  502  0.18028935017E+02  0.34712835658E+03  0.47330449036E+03  0.58723240028E+03  0.12699999809E+01 0.  1.
</event>
<event>
 5   0  0.1040163E-02  0.9022567E+03  0.7818609E-02  0.9422765E-01
       -3   -1    0    0    0  501  0.00000000000E+00  0.00000000000E+00  0.23608885355E+03  0.23608887515E+03  0.10100000352E+00 0.  1.
        3   -1    0    0  501    0  0.00000000000E+00  0.00000000000E+00 -0.86203466313E+03  0.86203466905E+03  0.10100000352E+00 0. -1.
    10030    2    1    2    0    0  0.00000000000E+00  0.00000000000E+00 -0.62594580958E+03  0.10981235442E+04  0.90225670504E+03 0.  0.
        2    1    3    3  502    0  0.39274235048E+02 -0.26368737499E+03  0.12995808853E+03  0.29658489855E+03  0.25500000920E-02 0.  1.
       -2    1    3    3    0  502 -0.39274235048E+02  0.26368737499E+03 -0.75590389812E+03  0.80153864564E+03  0.25500000920E-02 0. -1.
</event>
<event>
 5   0  0.1559275E-02  0.9079956E+03  0.7818609E-02  0.9415641E-01
       -1   -1    0    0    0  501  0.00000000000E+00  0.00000000000E+00  0.26608323819E+03  0.26608323824E+03  0.50400001928E-02 0.  1.
        1   -1    0    0  501    0  0.00000000000E+00  0.00000000000E+00 -0.77462218673E+03  0.77462218674E+03  0.50400001928E-02 0. -1.
    10030    2    1    2    0    0  0.00000000000E+00  0.00000000000E+00 -0.50853894854E+03  0.10407054250E+04  0.90799555032E+03 0.  0.
        1    1    3    3  502    0  0.31615057477E+02  0.15232840193E+03  0.23457759173E+03  0.28147841917E+03  0.50400001928E-02 0.  1.
       -1    1    3    3    0  502 -0.31615057477E+02 -0.15232840193E+03 -0.74311654027E+03  0.75922700580E+03  0.50400001928E-02 0. -1.
</event>
<event>
 5   0  0.2414128E-02  0.9192834E+03  0.7818609E-02  0.9401792E-01
        2   -1    0    0  501    0  0.00000000000E+00  0.00000000000E+00  0.13430408221E+04  0.13430408221E+04  0.25500000920E-02 0.  1.
       -2   -1    0    0    0  501  0.00000000000E+00  0.00000000000E+00 -0.15730758770E+03  0.15730758772E+03  0.25500000920E-02 0. -1.
    10030    2    1    2    0    0  0.00000000000E+00  0.00000000000E+00  0.11857332344E+04  0.15003484098E+04  0.91928344254E+03 0.  0.
        3    1    3    3  502    0 -0.12617952756E+02  0.10694250361E+03 -0.13642980822E+03  0.17380740658E+03  0.10100000352E+00 0. -1.
       -3    1    3    3    0  502  0.12617952756E+02 -0.10694250361E+03  0.13221630426E+04  0.13265410033E+04  0.10100000352E+00 0.  1.
</event>
<event>
 5   0  0.1459111E-02  0.8697458E+03  0.7818609E-02  0.9464211E-01
        1   -1    0    0  501    0  0.00000000000E+00  0.00000000000E+00  0.30976936141E+04  0.30976936141E+04  0.50400001928E-02 0.  1.
       -1   -1    0    0    0  501  0.00000000000E+00  0.00000000000E+00 -0.61050082539E+02  0.61050082747E+02  0.50400001928E-02 0. -1.
    10030    2    1    2    0    0  0.00000000000E+00  0.00000000000E+00  0.30366435316E+04  0.31587436969E+04  0.86974582760E+03 0.  0.
        2    1    3    3  502    0 -0.35152006064E+02 -0.59942850408E+02 -0.40756023635E+02  0.80559681693E+02  0.25500000920E-02 0. -1.
       -2    1    3    3    0  502  0.35152006064E+02  0.59942850408E+02  0.30773995552E+04  0.30781840152E+04  0.25500000920E-02 0.  1.
</event>
<event>
 5   0  0.2679861E-02  0.9092079E+03  0.7818609E-02  0.9414144E-01
       -2   -1    0    0    0  501  0.00000000000E+00  0.00000000000E+00  0.11864483327E+03  0.11864483329E+03  0.25500000920E-02 0.  1.
        2   -1    0    0  501    0  0.00000000000E+00  0.00000000000E+00 -0.17418773090E+04  0.17418773090E+04  0.25500000920E-02 0. -1.
    10030    2    1    2    0    0  0.00000000000E+00  0.00000000000E+00 -0.16232324757E+04  0.18605221423E+04  0.90920788144E+03 0.  0.
        1    1    3    3  502    0  0.87008688594E+02 -0.42102029040E+03 -0.11140008220E+04  0.11940797412E+04  0.50400001928E-02 0. -1.
       -1    1    3    3    0  502 -0.87008688594E+02  0.42102029040E+03 -0.50923165367E+03  0.66644240107E+03  0.50400001928E-02 0.  1.
</event>
<event>
 5   0  0.1459111E-02  0.8530560E+03  0.7818609E-02  0.9486244E-01
       -1   -1    0    0    0  501  0.00000000000E+00  0.00000000000E+00  0.98404584837E+03  0.98404584838E+03  0.50400001928E-02 0. -1.
        1   -1    0    0  501    0  0.00000000000E+00  0.00000000000E+00 -0.18487566602E+03  0.18487566609E+03  0.50400001928E-02 0.  1.
    10030    2    1    2    0    0  0.00000000000E+00  0.00000000000E+00  0.79917018235E+03  0.11689215145E+04  0.85305599268E+03 0.  0.
        2    1    3    3  502    0  0.15198008529E+03 -0.13326352361E+02 -0.14620879263E+03  0.21131149765E+03  0.25500000920E-02 0.  1.
       -2    1    3    3    0  502 -0.15198008529E+03  0.13326352361E+02  0.94537897498E+03  0.95761001683E+03  0.25500000920E-02 0. -1.
</event>
<event>
 5   0  0.1497410E-02  0.9130533E+03  0.7818609E-02  0.9409410E-01
        1   -1    0    0  501    0  0.00000000000E+00  0.00000000000E+00  0.48488049034E+03  0.48488049037E+03  0.50400001928E-02 0.  1.
       -1   -1    0    0    0  501  0.00000000000E+00  0.00000000000E+00 -0.42983086050E+03  0.42983086053E+03  0.50400001928E-02 0. -1.
    10030    2    1    2    0    0  0.00000000000E+00  0.00000000000E+00  0.55049629839E+02  0.91471135090E+03  0.91305333564E+03 0.  0.
        3    1    3    3  502    0  0.16607476753E+03  0.41363442931E+03  0.12640723509E+03  0.46330666821E+03  0.10100000352E+00 0.  1.
       -3    1    3    3    0  502 -0.16607476753E+03 -0.41363442931E+03 -0.71357605248E+02  0.45140468269E+03  0.10100000352E+00 0. -1.
</event>
<event>
 5   0  0.2705111E-02  0.8984821E+03  0.7818609E-02  0.9427481E-01
       -2   -1    0    0    0  501  0.00000000000E+00  0.00000000000E+00  0.20562456894E+03  0.20562456895E+03  0.25500000920E-02 0. -1.
        2   -1    0    0  501    0  0.00000000000E+00  0.00000000000E+00 -0.98148534809E+03  0.98148534809E+03  0.25500000920E-02 0.  1.
    10030    2    1    2    0    0  0.00000000000E+00  0.00000000000E+00 -0.77586077915E+03  0.11871099170E+04  0.89848205687E+03 0.  0.
        4    1    3    3  502    0 -0.97681741345E+02  0.20575002158E+03  0.12368295444E+03  0.25917924317E+03  0.12699999809E+01 0. -1.
       -4    1    3    3    0  502  0.97681741345E+02 -0.20575002158E+03 -0.89954373359E+03  0.92793067387E+03  0.12699999809E+01 0.  1.
</event>
<event>
 5   0  0.1560728E-02  0.8870460E+03  0.7818609E-02  0.9441921E-01
        1   -1    0    0  501    0  0.00000000000E+00  0.00000000000E+00  0.12203817570E+04  0.12203817571E+04  0.50400001928E-02 0. -1.
       -1   -1    0    0    0  501  0.00000000000E+00  0.00000000000E+00 -0.16118942333E+03  0.16118942341E+03  0.50400001928E-02 0.  1.
    10030    2    1    2    0    0  0.00000000000E+00  0.00000000000E+00  0.10591923337E+04  0.13815711805E+04  0.88704595534E+03 0.  0.
        4    1    3    3  502    0  0.37202363044E+03 -0.77386908542E+02  0.17333873480E+03  0.41765804805E+03  0.12699999809E+01 0.  1.
       -4    1    3    3    0  502 -0.37202363044E+03  0.77386908542E+02  0.88585359891E+03  0.96391313241E+03  0.12699999809E+01 0. -1.
</event>
<event>
 5   0  0.2628383E-02  0.8672252E+03  0.7818609E-02  0.9467505E-01
       -2   -1    0    0    0  501  0.00000000000E+00  0.00000000000E+00  0.30357176129E+03  0.30357176130E+03  0.25500000920E-02 0. -1.
        2   -1    0    0  501    0  0.00000000000E+00  0.00000000000E+00 -0.61935894159E+03  0.61935894160E+03  0.25500000920E-02 0.  1.
    10030    2    1    2    0    0  0.00000000000E+00  0.00000000000E+00 -0.31578718030E+03  0.92293070290E+03  0.86722519515E+03 0.  0.
        2    1    3    3  502    0  0.21196515909E+03 -0.44942138507E+02 -0.55761357697E+03  0.59823233423E+03  0.25500000920E-02 0.  1.
       -2    1    3    3    0  502 -0.21196515909E+03  0.44942138507E+02  0.24182639667E+03  0.32469836867E+03  0.25500000920E-02 0. -1.
</event>
<event>
 5   0  0.1497410E-02  0.8856434E+03  0.7818609E-02  0.9443708E-01
        1   -1    0    0  501    0  0.00000000000E+00  0.00000000000E+00  0.17674568999E+04  0.17674568999E+04  0.50400001928E-02 0. -1.
       -1   -1    0    0    0  501  0.00000000000E+00  0.00000000000E+00 -0.11094530857E+03  0.11094530869E+03  0.50400001928E-02 0.  1.
    10030    2    1    2    0    0  0.00000000000E+00  0.00000000000E+00  0.16565115913E+04  0.18784022086E+04  0.88564338479E+03 0.  0.
        3    1    3    3  502    0 -0.15969487326E+03 -0.22302197158E+03  0.15655700920E+04  0.15894184394E+04  0.10100000352E+00 0. -1.
       -3    1    3    3    0  502  0.15969487326E+03  0.22302197158E+03  0.90941499336E+02  0.28898376919E+03  0.10100000352E+00 0.  1.
</event>
<event>
 5   0  0.2414128E-02  0.9000403E+03  0.7818609E-02  0.9425531E-01
        2   -1    0    0  501    0  0.00000000000E+00  0.00000000000E+00  0.89269105109E+03  0.89269105110E+03  0.25500000920E-02 0. -1.
       -2   -1    0    0    0  501  0.00000000000E+00  0.00000000000E+00 -0.22686253620E+03  0.22686253622E+03  0.25500000920E-02 0.  1.
    10030    2    1    2    0    0  0.00000000000E+00  0.00000000000E+00  0.66582851489E+03  0.11195535873E+04  0.90004034555E+03 0.  0.
        3    1    3    3  502    0  0.35573223763E+03  0.24686486589E+03  0.18041454423E+03  0.46908112824E+03  0.10100000352E+00 0.  1.
       -3    1    3    3    0  502 -0.35573223763E+03 -0.24686486589E+03  0.48541397066E+03  0.65047245907E+03  0.10100000352E+00 0. -1.
</event>
<event>
 5   0  0.1459111E-02  0.8884627E+03  0.7818609E-02  0.9440120E-01
        1   -1    0    0  501    0  0.00000000000E+00  0.00000000000E+00  0.31992859463E+03  0.31992859467E+03  0.50400001928E-02 0.  1.
       -1   -1    0    0    0  501  0.00000000000E+00  0.00000000000E+00 -0.61682980846E+03  0.61682980848E+03  0.50400001928E-02 0. -1.
    10030    2    1    2    0    0  0.00000000000E+00  0.00000000000E+00 -0.29690121382E+03  0.93675840315E+03  0.88846270327E+03 0.  0.
        2    1    3    3  502    0 -0.15759082588E+03  0.65152749410E+02 -0.58094560597E+03  0.60545647760E+03  0.25500000920E-02 0. -1.
       -2    1    3    3    0  502  0.15759082588E+03 -0.65152749410E+02  0.28404439215E+03  0.33130192555E+03  0.25500000920E-02 0.  1.
</event>
<event>
 5   0  0.2628383E-02  0.8912678E+03  0.7818609E-02  0.9436563E-01
        2   -1    0    0  501    0  0.00000000000E+00  0.00000000000E+00  0.11639035841E+04  0.11639035841E+04  0.25500000920E-02 0. -1.
       -2   -1    0    0    0  501  0.00000000000E+00  0.00000000000E+00 -0.17062371822E+03  0.17062371823E+03  0.25500000920E-02 0.  1.
    10030    2    1    2    0    0  0.00000000000E+00  0.00000000000E+00  0.99327986584E+03  0.13345273023E+04  0.89126776486E+03 0.  0.
        2    1    3    3  502    0  0.11265548600E+03 -0.15657344303E+03 -0.10487751722E+03  0.21955818184E+03  0.25500000920E-02 0.  1.
       -2    1    3    3    0  502 -0.11265548600E+03  0.15657344303E+03  0.10981573831E+04  0.11149691204E+04  0.25500000920E-02 0. -1.
</event>
<event>
 5   0  0.2679861E-02  0.8942458E+03  0.7818609E-02  0.9432803E-01
        2   -1    0    0  501    0  0.00000000000E+00  0.00000000000E+00  0.51908219627E+03  0.51908219628E+03  0.25500000920E-02 0.  1.
       -2   -1    0    0    0  501  0.00000000000E+00  0.00000000000E+00 -0.38513916862E+03  0.38513916863E+03  0.25500000920E-02 0. -1.
    10030    2    1    2    0    0  0.00000000000E+00  0.00000000000E+00  0.13394302765E+03  0.90422136491E+03  0.89424579513E+03 0.  0.
        1    1    3    3  502    0  0.19530482645E+03  0.36391328906E+03  0.24017751032E+03  0.47776782403E+03  0.50400001928E-02 0.  1.
       -1    1    3    3    0  502 -0.19530482645E+03 -0.36391328906E+03 -0.10623448267E+03  0.42645354088E+03  0.50400001928E-02 0. -1.
</event>
<event>
 5   0  0.1559275E-02  0.8888632E+03  0.7818609E-02  0.9439611E-01
       -1   -1    0    0    0  501  0.00000000000E+00  0.00000000000E+00  0.91367857256E+03  0.91367857258E+03  0.50400001928E-02 0.  1.
        1   -1    0    0  501    0  0.00000000000E+00  0.00000000000E+00 -0.21618043675E+03  0.21618043680E+03  0.50400001928E-02 0. -1.
    10030    2    1    2    0    0  0.00000000000E+00  0.00000000000E+00  0.69749813582E+03  0.11298590094E+04  0.88886316811E+03 0.  0.
        1    1    3    3  502    0 -0.24523305187E+03  0.11329790059E+02 -0.12217229987E+03  0.27421466911E+03  0.50400001928E-02 0. -1.
       -1    1    3    3    0  502  0.24523305187E+03 -0.11329790059E+02  0.81967043569E+03  0.85564434027E+03  0.50400001928E-02 0.  1.
</event>
<event>
 5   0  0.1459111E-02  0.9119456E+03  0.7818609E-02  0.9410771E-01
       -1   -1    0    0    0  501  0.00000000000E+00  0.00000000000E+00  0.36212676011E+03  0.36212676014E+03  0.50400001928E-02 0. -1.
        1   -1    0    0  501    0  0.00000000000E+00  0.00000000000E+00 -0.57413924523E+03  0.57413924526E+03  0.50400001928E-02 0.  1.
    10030    2    1    2    0    0  0.00000000000E+00  0.00000000000E+00 -0.21201248513E+03  0.93626600540E+03  0.91194557897E+03 0.  0.
        2    1    3    3  502    0 -0.40775160320E+03 -0.11726392411E+03 -0.27749061543E+03  0.50696473197E+03  0.25500000920E-02 0.  1.
       -2    1    3    3    0  502  0.40775160320E+03  0.11726392411E+03  0.65478130296E+02  0.42930127342E+03  0.25500000920E-02 0. -1.
</event>
<event>
 5   0  0.2628383E-02  0.8317847E+03  0.7818609E-02  0.9515116E-01
       -2   -1    0    0    0  501  0.00000000000E+00  0.00000000000E+00  0.15877731173E+03  0.15877731175E+03  0.25500000920E-02 0. -1.
        2   -1    0    0  501    0  0.00000000000E+00  0.00000000000E+00 -0.10893650351E+04  0.10893650351E+04  0.25500000920E-02 0.  1.
    10030    2    1    2    0    0  0.00000000000E+00  0.00000000000E+00 -0.93058772341E+03  0.12481423469E+04  0.83178471202E+03 0.  0.
        2    1    3    3  502    0  0.59010539040E+02 -0.14191259252E+03 -0.10451877919E+04  0.10564274457E+04  0.25500000920E-02 0.  1.
       -2    1    3    3    0  502 -0.59010539040E+02  0.14191259252E+03  0.11460006851E+03  0.19171490120E+03  0.25500000920E-02 0. -1.
</event>
<event>
 5   0  0.2705111E-02  0.1032545E+04  0.7818609E-02  0.9273553E-01
        2   -1    0    0  501    0  0.00000000000E+00  0.00000000000E+00  0.15235766724E+04  0.15235766724E+04  0.25500000920E-02 0. -1.
       -2   -1    0    0    0  501  0.00000000000E+00  0.00000000000E+00 -0.17494193576E+03  0.17494193578E+03  0.25500000920E-02 0.  1.
    10030    2    1    2    0    0  0.00000000000E+00  0.00000000000E+00  0.13486347366E+04  0.16985186081E+04  0.10325453062E+04 0.  0.
        4    1    3    3  502    0  0.48995068039E+03  0.45953546961E+02  0.41750808841E+03  0.64535107846E+03  0.12699999809E+01 0.  1.
       -4    1    3    3    0  502 -0.48995068039E+03 -0.45953546961E+02  0.93112664819E+03  0.10531675297E+04  0.12699999809E+01 0. -1.
</event>
<event>
 5   0  0.2414128E-02  0.9201980E+03  0.7818609E-02  0.9400679E-01
        2   -1    0    0  501    0  0.00000000000E+00  0.00000000000E+00  0.91952912327E+03  0.91952912328E+03  0.25500000920E-02 0.  1.
       -2   -1    0    0    0  501  0.00000000000E+00  0.00000000000E+00 -0.23021682824E+03  0.23021682825E+03  0.25500000920E-02 0. -1.
    10030    2    1    2    0    0  0.00000000000E+00  0.00000000000E+00  0.68931229503E+03  0.11497459515E+04  0.92019797488E+03 0.  0.
        3    1    3    3  502    0 -0.22287906394E+03 -0.22043422543E+03 -0.76142677141E+02  0.32258958813E+03  0.10100000352E+00 0. -1.
       -3    1    3    3    0  502  0.22287906394E+03  0.22043422543E+03  0.76545497218E+03  0.82715636340E+03  0.10100000352E+00 0.  1.
</event>
<event>
 5   0  0.2803717E-02  0.9110709E+03  0.7818609E-02  0.9411847E-01
        2   -1    0    0  501    0  0.00000000000E+00  0.00000000000E+00  0.79798695540E+03  0.79798695540E+03  0.25500000920E-02 0. -1.
       -2   -1    0    0    0  501  0.00000000000E+00  0.00000000000E+00 -0.26004503746E+03  0.26004503747E+03  0.25500000920E-02 0.  1.
    10030    2    1    2    0    0  0.00000000000E+00  0.00000000000E+00  0.53794191794E+03  0.10580319929E+04  0.91107090332E+03 0.  0.
        5    1    3    3  502    0  0.31699666772E+03 -0.30893295027E+02  0.64715245000E+03  0.72129721098E+03  0.46999998093E+01 0. -1.
       -5    1    3    3    0  502 -0.31699666772E+03  0.30893295027E+02 -0.10921053206E+03  0.33673478190E+03  0.46999998093E+01 0.  1.
</event>
<event>
 5   0  0.1560728E-02  0.8764952E+03  0.7818609E-02  0.9455450E-01
        1   -1    0    0  501    0  0.00000000000E+00  0.00000000000E+00  0.46492584180E+03  0.46492584183E+03  0.50400001928E-02 0.  1.
       -1   -1    0    0    0  501  0.00000000000E+00  0.00000000000E+00 -0.41310016740E+03  0.41310016743E+03  0.50400001928E-02 0. -1.
    10030    2    1    2    0    0  0.00000000000E+00  0.00000000000E+00  0.51825674409E+02  0.87802600926E+03  0.87649516394E+03 0.  0.
        4    1    3    3  502    0  0.37110729737E+03  0.17147571671E+03 -0.13227046951E+03  0.42967620086E+03  0.12699999809E+01 0. -1.
       -4    1    3    3    0  502 -0.37110729737E+03 -0.17147571671E+03  0.18409614392E+03  0.44834980840E+03  0.12699999809E+01 0.  1.
</event>
<event>
 5   0  0.1497410E-02  0.6304975E+03  0.7818609E-02  0.9844078E-01
       -1   -1    0    0    0  501  0.00000000000E+00  0.00000000000E+00  0.36607855316E+03  0.36607855319E+03  0.50400001928E-02 0.  1.
        1   -1    0    0  501    0  0.00000000000E+00  0.00000000000E+00 -0.27147663939E+03  0.27147663944E+03  0.50400001928E-02 0. -1.
    10030    2    1    2    0    0  0.00000000000E+00  0.00000000000E+00  0.94601913767E+02  0.63755519263E+03  0.63049750321E+03 0.  0.
        3    1    3    3  502    0 -0.26585359956E+03  0.16899966682E+03  0.35219775764E+02  0.31698496272E+03  0.10100000352E+00 0. -1.
       -3    1    3    3    0  502  0.26585359956E+03 -0.16899966682E+03  0.59382138003E+02  0.32057022991E+03  0.10100000352E+00 0.  1.
</event>
<event>
 5   0  0.1560728E-02  0.9212119E+03  0.7818609E-02  0.9399447E-01
       -1   -1    0    0    0  501  0.00000000000E+00  0.00000000000E+00  0.11080969483E+04  0.11080969483E+04  0.50400001928E-02 0. -1.
        1   -1    0    0  501    0  0.00000000000E+00  0.00000000000E+00 -0.19146144181E+03  0.19146144188E+03  0.50400001928E-02 0.  1.
    10030    2    1    2    0    0  0.00000000000E+00  0.00000000000E+00  0.91663550646E+03  0.12995583902E+04  0.92121189621E+03 0.  0.
        4    1    3    3  502    0 -0.39640431669E+03  0.97829510386E+02  0.75906352493E+03  0.86190837284E+03  0.12699999809E+01 0. -1.
       -4    1    3    3    0  502  0.39640431669E+03 -0.97829510386E+02  0.15757198153E+03  0.43765001732E+03  0.12699999809E+01 0.  1.
</event>
<event>
 5   0  0.2705111E-02  0.9342081E+03  0.7818609E-02  0.9383802E-01
        2   -1    0    0  501    0  0.00000000000E+00  0.00000000000E+00  0.17878541105E+03  0.17878541107E+03  0.25500000920E-02 0. -1.
       -2   -1    0    0    0  501  0.00000000000E+00  0.00000000000E+00 -0.12203802957E+04  0.12203802957E+04  0.25500000920E-02 0.  1.
    10030    2    1    2    0    0  0.00000000000E+00  0.00000000000E+00 -0.10415948846E+04  0.13991657068E+04  0.93420809848E+03 0.  0.
        4    1    3    3  502    0  0.16182177698E+03 -0.14724984150E+03 -0.11388892166E+04  0.11597150787E+04  0.12699999809E+01 0.  1.
       -4    1    3    3    0  502 -0.16182177698E+03  0.14724984150E+03  0.97294331947E+02  0.23945062801E+03  0.12699999809E+01 0. -1.
</event>
<event>
 5   0  0.2705111E-02  0.9007325E+03  0.7818609E-02  0.9424666E-01
        2   -1    0    0  501    0  0.00000000000E+00  0.00000000000E+00  0.63470050612E+03  0.63470050612E+03  0.25500000920E-02 0. -1.
       -2   -1    0    0    0  501  0.00000000000E+00  0.00000000000E+00 -0.31956763120E+03  0.31956763121E+03  0.25500000920E-02 0.  1.
    10030    2    1    2    0    0  0.00000000000E+00  0.00000000000E+00  0.31513287491E+03  0.95426813734E+03  0.90073245144E+03 0.  0.
        4    1    3    3  502    0  0.42306124711E+03 -0.11935510144E+03  0.53754356781E+02  0.44285167135E+03  0.12699999809E+01 0.  1.
       -4    1    3    3    0  502 -0.42306124711E+03  0.11935510144E+03  0.26137851813E+03  0.51141646599E+03  0.12699999809E+01 0. -1.
</event>
<event>
 5   0  0.1537870E-02  0.8833766E+03  0.7818609E-02  0.9446603E-01
        1   -1    0    0  501    0  0.00000000000E+00  0.00000000000E+00  0.19817615889E+03  0.19817615895E+03  0.50400001928E-02 0. -1.
       -1   -1    0    0    0  501  0.00000000000E+00  0.00000000000E+00 -0.98441994256E+03  0.98441994258E+03  0.50400001928E-02 0.  1.
    10030    2    1    2    0    0  0.00000000000E+00  0.00000000000E+00 -0.78624378368E+03  0.11825961015E+04  0.88337661956E+03 0.  0.
        5    1    3    3  502    0 -0.66448858991E+02 -0.10739793411E+03  0.17345464991E+03  0.21461214478E+03  0.46999998093E+01 0. -1.
       -5    1    3    3    0  502  0.66448858991E+02  0.10739793411E+03 -0.95969843358E+03  0.96798395675E+03  0.46999998093E+01 0.  1.
</event>
<event>
 5   0  0.2628383E-02  0.8969861E+03  0.7818609E-02  0.9429357E-01
       -2   -1    0    0    0  501  0.00000000000E+00  0.00000000000E+00  0.27739115613E+03  0.27739115614E+03  0.25500000920E-02 0. -1.
        2   -1    0    0  501    0  0.00000000000E+00  0.00000000000E+00 -0.72513487285E+03  0.72513487286E+03  0.25500000920E-02 0.  1.
    10030    2    1    2    0    0  0.00000000000E+00  0.00000000000E+00 -0.44774371673E+03  0.10025260290E+04  0.89698606620E+03 0.  0.
        2    1    3    3  502    0  0.39061152110E+02 -0.16830771553E+03 -0.68644396250E+03  0.70785491054E+03  0.25500000920E-02 0.  1.
       -2    1    3    3    0  502 -0.39061152110E+02  0.16830771553E+03  0.23870024578E+03  0.29467111846E+03  0.25500000920E-02 0. -1.
</event>
<event>
 5   0  0.1459111E-02  0.9244167E+03  0.7818609E-02  0.9395564E-01
        1   -1    0    0  501    0  0.00000000000E+00  0.00000000000E+00  0.56924459322E+03  0.56924459324E+03  0.50400001928E-02 0. -1.
       -1   -1    0    0    0  501  0.00000000000E+00  0.00000000000E+00 -0.37529835737E+03  0.37529835740E+03  0.50400001928E-02 0.  1.
    10030    2    1    2    0    0  0.00000000000E+00  0.00000000000E+00  0.19394623585E+03  0.94454295064E+03  0.92441670431E+03 0.  0.
        2    1    3    3  502    0 -0.14818821466E+03 -0.22082380203E+03 -0.28929672303E+03  0.39295736724E+03  0.25500000920E-02 0.  1.
       -2    1    3    3    0  502  0.14818821466E+03  0.22082380203E+03  0.48324295888E+03  0.55158558340E+03  0.25500000920E-02 0. -1.
</event>
<event>
 5   0  0.1497410E-02  0.9073873E+03  0.7818609E-02  0.9416394E-01
        1   -1    0    0  501    0  0.00000000000E+00  0.00000000000E+00  0.52580335479E+03  0.52580335482E+03  0.50400001928E-02 0. -1.
       -1   -1    0    0    0  501  0.00000000000E+00  0.00000000000E+00 -0.39147322023E+03  0.39147322026E+03  0.50400001928E-02 0.  1.
    10030    2    1    2    0    0  0.00000000000E+00  0.00000000000E+00  0.13433013456E+03  0.91727657508E+03  0.90738730988E+03 0.  0.
        3    1    3    3  502    0  0.31987344875E+03  0.93476577595E+02  0.37838564913E+03  0.50421483857E+03  0.10100000352E+00 0. -1.
       -3    1    3    3    0  502 -0.31987344875E+03 -0.93476577595E+02 -0.24405551457E+03  0.41306173650E+03  0.10100000352E+00 0.  1.
</event>
<event>
 5   0  0.2414128E-02  0.8955551E+03  0.7818609E-02  0.9431155E-01
       -2   -1    0    0    0  501  0.00000000000E+00  0.00000000000E+00  0.21879886353E+03  0.21879886354E+03  0.25500000920E-02 0. -1.
        2   -1    0    0  501    0  0.00000000000E+00  0.00000000000E+00 -0.91638828143E+03  0.91638828143E+03  0.25500000920E-02 0.  1.
    10030    2    1    2    0    0  0.00000000000E+00  0.00000000000E+00 -0.69758941790E+03  0.11351871450E+04  0.89555505590E+03 0.  0.
        3    1    3    3  502    0  0.12558163913E+03  0.13161668939E+02 -0.89335355863E+03  0.90223310099E+03  0.10100000352E+00 0.  1.
       -3    1    3    3    0  502 -0.12558163913E+03 -0.13161668939E+02  0.19576414072E+03  0.23295404398E+03  0.10100000352E+00 0. -1.
</event>
<event>
 5   0  0.2679861E-02  0.9105430E+03  0.7818609E-02  0.9412497E-01
       -2   -1    0    0    0  501  0.00000000000E+00  0.00000000000E+00  0.48506005538E+03  0.48506005538E+03  0.25500000920E-02 0.  1.
        2   -1    0    0  501    0  0.00000000000E+00  0.00000000000E+00 -0.42731234693E+03  0.42731234694E+03  0.25500000920E-02 0. -1.
    10030    2    1    2    0    0  0.00000000000E+00  0.00000000000E+00  0.57747708449E+02  0.91237240232E+03  0.91054302627E+03 0.  0.
        1    1    3    3  502    0 -0.19450636504E+03  0.88423032271E+02  0.43170244117E+03  0.48168283799E+03  0.50400001928E-02 0.  1.
       -1    1    3    3    0  502  0.19450636504E+03 -0.88423032271E+02 -0.37395473272E+03  0.43068956433E+03  0.50400001928E-02 0. -1.
</event>
<event>
 5   0  0.1560728E-02  0.9643771E+03  0.7818609E-02  0.9348502E-01
        1   -1    0    0  501    0  0.00000000000E+00  0.00000000000E+00  0.66781020776E+03  0.66781020778E+03  0.50400001928E-02 0. -1.
       -1   -1    0    0    0  501  0.00000000000E+00  0.00000000000E+00 -0.34816148066E+03  0.34816148069E+03  0.50400001928E-02 0.  1.
    10030    2    1    2    0    0  0.00000000000E+00  0.00000000000E+00  0.31964872710E+03  0.10159716885E+04  0.96437708550E+03 0.  0.
        4    1    3    3  502    0 -0.20367028342E+03 -0.26921867192E+03  0.52254672416E+03  0.62210687947E+03  0.12699999809E+01 0. -1.
       -4    1    3    3    0  502  0.20367028342E+03  0.26921867192E+03 -0.20289799705E+03  0.39386480900E+03  0.12699999809E+01 0.  1.
</event>
<event>
 5   0  0.1560728E-02  0.9045309E+03  0.7818609E-02  0.9419935E-01
        1   -1    0    0  501    0  0.00000000000E+00  0.00000000000E+00  0.51718230559E+03  0.51718230561E+03  0.50400001928E-02 0.  1.
       -1   -1    0    0    0  501  0.00000000000E+00  0.00000000000E+00 -0.39549696131E+03  0.39549696134E+03  0.50400001928E-02 0. -1.
    10030    2    1    2    0    0  0.00000000000E+00  0.00000000000E+00  0.12168534428E+03  0.91267926695E+03  0.90453088466E+03 0.  0.
        4    1    3    3  502    0 -0.48747380934E+02  0.38196314412E+03 -0.17850779087E+03  0.42442760857E+03  0.12699999809E+01 0. -1.
       -4    1    3    3    0  502  0.48747380934E+02 -0.38196314412E+03  0.30019313516E+03  0.48825165838E+03  0.12699999809E+01 0.  1.
</event>
<event>
 5   0  0.1497410E-02  0.5043076E+03  0.7818609E-02  0.1012661E+00
        1   -1    0    0  501    0  0.00000000000E+00  0.00000000000E+00  0.15916689467E+03  0.15916689475E+03  0.50400001928E-02 0. -1.
       -1   -1    0    0    0  501  0.00000000000E+00  0.00000000000E+00 -0.39946466762E+03  0.39946466765E+03  0.50400001928E-02 0.  1.
    10030    2    1    2    0    0  0.00000000000E+00  0.00000000000E+00 -0.24029777294E+03  0.55863156240E+03  0.50430764700E+03 0.  0.
        3    1    3    3  502    0  0.21090222463E+03  0.15123634846E+02  0.32028866175E+02  0.21385586537E+03  0.10100000352E+00 0. -1.
       -3    1    3    3    0  502 -0.21090222463E+03 -0.15123634846E+02 -0.27232663912E+03  0.34477569703E+03  0.10100000352E+00 0.  1.
</event>
<event>
 5   0  0.2705111E-02  0.8867405E+03  0.7818609E-02  0.9442310E-01
        2   -1    0    0  501    0  0.00000000000E+00  0.00000000000E+00  0.17468201324E+04  0.17468201324E+04  0.25500000920E-02 0.  1.
       -2   -1    0    0    0  501  0.00000000000E+00  0.00000000000E+00 -0.11253428860E+03  0.11253428863E+03  0.25500000920E-02 0. -1.
    10030    2    1    2    0    0  0.00000000000E+00  0.00000000000E+00  0.16342858438E+04  0.18593544210E+04  0.88674046021E+03 0.  0.
        4    1    3    3  502    0  0.43145332409E+03 -0.10016231681E+03  0.77567592334E+03  0.89322965217E+03  0.12699999809E+01 0.  1.
       -4    1    3    3    0  502 -0.43145332409E+03  0.10016231681E+03  0.85860992045E+03  0.96612476884E+03  0.12699999809E+01 0. -1.
</event>
<event>
 5   0  0.1537870E-02  0.8626550E+03  0.7818609E-02  0.9473507E-01
        1   -1    0    0  501    0  0.00000000000E+00  0.00000000000E+00  0.62583013573E+03  0.62583013575E+03  0.50400001928E-02 0.  1.
       -1   -1    0    0    0  501  0.00000000000E+00  0.00000000000E+00 -0.29727463146E+03  0.29727463150E+03  0.50400001928E-02 0. -1.
    10030    2    1    2    0    0  0.00000000000E+00  0.00000000000E+00  0.32855550427E+03  0.92310476725E+03  0.86265502488E+03 0.  0.
        5    1    3    3  502    0  0.10974625556E+03  0.40304701746E+03  0.49374546141E+02  0.42065552974E+03  0.46999998093E+01 0. -1.
       -5    1    3    3    0  502 -0.10974625556E+03 -0.40304701746E+03  0.27918095813E+03  0.50244923751E+03  0.46999998093E+01 0.  1.
</event>
<event>
 5   0  0.2414128E-02  0.8648610E+03  0.7818609E-02  0.9470605E-01
        2   -1    0    0  501    0  0.00000000000E+00  0.00000000000E+00  0.25810306896E+04  0.25810306896E+04  0.25500000920E-02 0. -1.
       -2   -1    0    0    0  501  0.00000000000E+00  0.00000000000E+00 -0.72450178652E+02  0.72450178696E+02  0.25500000920E-02 0.  1.
    10030    2    1    2    0    0  0.00000000000E+00  0.00000000000E+00  0.25085805110E+04  0.26534808683E+04  0.86486099376E+03 0.  0.
        3    1    3    3  502    0 -0.85557943251E+02  0.34345723036E+03  0.49210891997E+03  0.60618003105E+03  0.10100000352E+00 0.  1.
       -3    1    3    3    0  502  0.85557943251E+02 -0.34345723036E+03  0.20164715910E+04  0.20473008373E+04  0.10100000352E+00 0. -1.
</event>
<event>
 5   0  0.2414128E-02  0.9206136E+03  0.7818609E-02  0.9400174E-01
       -2   -1    0    0    0  501  0.00000000000E+00  0.00000000000E+00  0.26745733489E+03  0.26745733490E+03  0.25500000920E-02 0. -1.
        2   -1    0    0  501    0  0.00000000000E+00  0.00000000000E+00 -0.79220999085E+03  0.79220999086E+03  0.25500000920E-02 0.  1.
    10030    2    1    2    0    0  0.00000000000E+00  0.00000000000E+00 -0.52475265596E+03  0.10596673258E+04  0.92061364933E+03 0.  0.
        3    1    3    3  502    0 -0.42050345383E+03  0.11350406837E+03 -0.90967148036E+02  0.44495096409E+03  0.10100000352E+00 0.  1.
       -3    1    3    3    0  502  0.42050345383E+03 -0.11350406837E+03 -0.43378550793E+03  0.61471636167E+03  0.10100000352E+00 0. -1.
</event>
<event>
 5   0  0.1537870E-02  0.9061176E+03  0.7818609E-02  0.9417966E-01
       -1   -1    0    0    0  501  0.00000000000E+00  0.00000000000E+00  0.18829336453E+03  0.18829336459E+03  0.50400001928E-02 0. -1.
        1   -1    0    0  501    0  0.00000000000E+00  0.00000000000E+00 -0.10901195426E+04  0.10901195426E+04  0.50400001928E-02 0.  1.
    10030    2    1    2    0    0  0.00000000000E+00  0.00000000000E+00 -0.90182617803E+03  0.12784129072E+04  0.90611760044E+03 0.  0.
        5    1    3    3  502    0 -0.78005117008E+02 -0.68110894597E+02 -0.10731626144E+04  0.10781576783E+04  0.46999998093E+01 0.  1.
       -5    1    3    3    0  502  0.78005117008E+02  0.68110894597E+02  0.17133643642E+03  0.20025522886E+03  0.46999998093E+01 0. -1.
</event>
<event>
 5   0  0.1040163E-02  0.8902520E+03  0.7818609E-02  0.9437850E-01
       -3   -1    0    0    0  501  0.00000000000E+00  0.00000000000E+00  0.14898664977E+04  0.14898665011E+04  0.10100000352E+00 0.  1.
        3   -1    0    0  501    0  0.00000000000E+00  0.00000000000E+00 -0.13298984802E+03  0.13298988637E+03  0.10100000352E+00 0. -1.
    10030    2    1    2    0    0  0.00000000000E+00  0.00000000000E+00  0.13568766497E+04  0.16228563875E+04  0.89025199353E+03 0.  0.
        3    1    3    3  502    0 -0.29397065178E+03 -0.25055884436E+03  0.27517085553E+03  0.47425466632E+03  0.10100000352E+00 0. -1.
       -3    1    3    3    0  502  0.29397065178E+03  0.25055884436E+03  0.10817057941E+04  0.11486017212E+04  0.10100000352E+00 0.  1.
</event>
<event>
 5   0  0.1040163E-02  0.8739121E+03  0.7818609E-02  0.9458793E-01
        3   -1    0    0  501    0  0.00000000000E+00  0.00000000000E+00  0.56017816744E+03  0.56017817655E+03  0.10100000352E+00 0.  1.
       -3   -1    0    0    0  501  0.00000000000E+00  0.00000000000E+00 -0.34083899205E+03  0.34083900702E+03  0.10100000352E+00 0. -1.
    10030    2    1    2    0    0  0.00000000000E+00  0.00000000000E+00  0.21933917539E+03  0.90101718357E+03  0.87391206149E+03 0.  0.
        1    1    3    3  502    0 -0.22904950925E+03  0.16559963749E+03  0.45323719834E+03  0.53414499493E+03  0.50400001928E-02 0.  1.
       -1    1    3    3    0  502  0.22904950925E+03 -0.16559963749E+03 -0.23389802295E+03  0.36687218863E+03  0.50400001928E-02 0. -1.
</event>
<event>
 5   0  0.1537870E-02  0.8736137E+03  0.7818609E-02  0.9459180E-01
        1   -1    0    0  501    0  0.00000000000E+00  0.00000000000E+00  0.56357422586E+03  0.56357422589E+03  0.50400001928E-02 0. -1.
       -1   -1    0    0    0  501  0.00000000000E+00  0.00000000000E+00 -0.33855386939E+03  0.33855386943E+03  0.50400001928E-02 0.  1.
    10030    2    1    2    0    0  0.00000000000E+00  0.00000000000E+00  0.22502035647E+03  0.90212809531E+03  0.87361372444E+03 0.  0.
        5    1    3    3  502    0  0.41168886716E+03  0.13960105139E+03  0.68675048471E+02  0.44013012754E+03  0.46999998093E+01 0.  1.
       -5    1    3    3    0  502 -0.41168886716E+03 -0.13960105139E+03  0.15634530800E+03  0.46199796777E+03  0.46999998093E+01 0. -1.
</event>
<event>
 5   0  0.2414128E-02  0.8979046E+03  0.7818609E-02  0.9428205E-01
        2   -1    0    0  501    0  0.00000000000E+00  0.00000000000E+00  0.58016380157E+03  0.58016380158E+03  0.25500000920E-02 0. -1.
       -2   -1    0    0    0  501  0.00000000000E+00  0.00000000000E+00 -0.34741600048E+03  0.34741600049E+03  0.25500000920E-02 0.  1.
    10030    2    1    2    0    0  0.00000000000E+00  0.00000000000E+00  0.23274780109E+03  0.92757980207E+03  0.89790464432E+03 0.  0.
        3    1    3    3  502    0  0.12483355456E+02 -0.26501297005E+03 -0.25777037168E+03  0.36990983114E+03  0.10100000352E+00 0.  1.
       -3    1    3    3    0  502 -0.12483355456E+02  0.26501297005E+03  0.49051817277E+03  0.55766997093E+03  0.10100000352E+00 0. -1.
</event>
<event>
 5   0  0.1537870E-02  0.9070429E+03  0.7818609E-02  0.9416820E-01
        1   -1    0    0  501    0  0.00000000000E+00  0.00000000000E+00  0.15648569456E+04  0.15648569456E+04  0.50400001928E-02 0.  1.
       -1   -1    0    0    0  501  0.00000000000E+00  0.00000000000E+00 -0.13143803496E+03  0.13143803505E+03  0.50400001928E-02 0. -1.
    10030    2    1    2    0    0  0.00000000000E+00  0.00000000000E+00  0.14334189106E+04  0.16962949806E+04  0.90704293614E+03 0.  0.
        5    1    3    3  502    0  0.19212024293E+03 -0.29171102574E+03  0.17580917876E+03  0.39107092402E+03  0.46999998093E+01 0. -1.
       -5    1    3    3    0  502 -0.19212024293E+03  0.29171102574E+03  0.12576097319E+04  0.13052240566E+04  0.46999998093E+01 0.  1.
</event>
<event>
 5   0  0.2628383E-02  0.8763108E+03  0.7818609E-02  0.9455688E-01
       -2   -1    0    0    0  501  0.00000000000E+00  0.00000000000E+00  0.18192389509E+03  0.18192389510E+03  0.25500000920E-02 0. -1.
        2   -1    0    0  501    0  0.00000000000E+00  0.00000000000E+00 -0.10552771778E+04  0.10552771778E+04  0.25500000920E-02 0.  1.
    10030    2    1    2    0    0  0.00000000000E+00  0.00000000000E+00 -0.87335328269E+03  0.12372010729E+04  0.87631075445E+03 0.  0.
        2    1    3    3  502    0  0.35253319298E+03 -0.82743445977E+02 -0.78495519144E+03  0.86445403729E+03  0.25500000920E-02 0.  1.
       -2    1    3    3    0  502 -0.35253319298E+03  0.82743445977E+02 -0.88398091250E+02  0.37274703560E+03  0.25500000920E-02 0. -1.
</event>
<event>
 5   0  0.2679861E-02  0.8931819E+03  0.7818609E-02  0.9434145E-01
       -2   -1    0    0    0  501  0.00000000000E+00  0.00000000000E+00  0.20240452180E+03  0.20240452182E+03  0.25500000920E-02 0.  1.
        2   -1    0    0  501    0  0.00000000000E+00  0.00000000000E+00 -0.98537062155E+03  0.98537062155E+03  0.25500000920E-02 0. -1.
    10030    2    1    2    0    0  0.00000000000E+00  0.00000000000E+00 -0.78296609974E+03  0.11877751434E+04  0.89318188397E+03 0.  0.
        1    1    3    3  502    0 -0.19901374927E+03 -0.39979052474E+03 -0.39431447239E+03  0.59575400899E+03  0.50400001928E-02 0.  1.
       -1    1    3    3    0  502  0.19901374927E+03  0.39979052474E+03 -0.38865162736E+03  0.59202113437E+03  0.50400001928E-02 0. -1.
</event>
<event>
 5   0  0.1559275E-02  0.8929156E+03  0.7818609E-02  0.9434481E-01
       -1   -1    0    0    0  501  0.00000000000E+00  0.00000000000E+00  0.57842988551E+03  0.57842988553E+03  0.50400001928E-02 0. -1.
        1   -1    0    0  501    0  0.00000000000E+00  0.00000000000E+00 -0.34459587392E+03  0.34459587396E+03  0.50400001928E-02 0.  1.
    10030    2    1    2    0    0  0.00000000000E+00  0.00000000000E+00  0.23383401158E+03  0.92302575949E+03  0.89291556584E+03 0.  0.
        1    1    3    3  502    0 -0.24270751852E+03 -0.11734086927E+03  0.48479503543E+03  0.55470897374E+03  0.50400001928E-02 0. -1.
       -1    1    3    3    0  502  0.24270751852E+03  0.11734086927E+03 -0.25096102384E+03  0.36831678575E+03  0.50400001928E-02 0.  1.
</event>
<event>
 5   0  0.2705111E-02  0.9001288E+03  0.7818609E-02  0.9425420E-01
        2   -1    0    0  501    0  0.00000000000E+00  0.00000000000E+00  0.63625254954E+03  0.63625254955E+03  0.25500000920E-02 0.  1.
       -2   -1    0    0    0  501  0.00000000000E+00  0.00000000000E+00 -0.31836094048E+03  0.31836094049E+03  0.25500000920E-02 0. -1.
    10030    2    1    2    0    0  0.00000000000E+00  0.00000000000E+00  0.31789160906E+03  0.95461349004E+03  0.90012879093E+03 0.  0.
        4    1    3    3  502    0 -0.50105638598E+02 -0.23372383779E+03  0.56336652757E+03  0.61198109828E+03  0.12699999809E+01 0.  1.
       -4    1    3    3    0  502  0.50105638598E+02  0.23372383779E+03 -0.24547491851E+03  0.34263239176E+03  0.12699999809E+01 0. -1.
</event>
<event>
 5   0  0.2705111E-02  0.8267217E+03  0.7818609E-02  0.9522124E-01
        2   -1    0    0  501    0  0.00000000000E+00  0.00000000000E+00  0.13811682804E+04  0.13811682804E+04  0.25500000920E-02 0.  1.
       -2   -1    0    0    0  501  0.00000000000E+00  0.00000000000E+00 -0.12371206948E+03  0.12371206951E+03  0.25500000920E-02 0. -1.
    10030    2    1    2    0    0  0.00000000000E+00  0.00000000000E+00  0.12574562109E+04  0.15048803499E+04  0.82672168542E+03 0.  0.
        4    1    3    3  502    0  0.32628748524E+03 -0.24465284082E+03  0.75147398609E+03  0.85500485391E+03  0.12699999809E+01 0. -1.
       -4    1    3    3    0  502 -0.32628748524E+03  0.24465284082E+03  0.50598222481E+03  0.64987549597E+03  0.12699999809E+01 0.  1.
</event>
<event>
 5   0  0.2414128E-02  0.8101968E+03  0.7818609E-02  0.9545374E-01
        2   -1    0    0  501    0  0.00000000000E+00  0.00000000000E+00  0.61504831827E+03  0.61504831827E+03  0.25500000920E-02 0. -1.
       -2   -1    0    0    0  501  0.00000000000E+00  0.00000000000E+00 -0.26681594142E+03  0.26681594143E+03  0.25500000920E-02 0.  1.
    10030    2    1    2    0    0  0.00000000000E+00  0.00000000000E+00  0.34823237685E+03  0.88186425970E+03  0.81019675651E+03 0.  0.
        3    1    3    3  502    0 -0.54516635942E+02  0.32834285162E+03  0.42546159247E+03  0.54018392115E+03  0.10100000352E+00 0.  1.
       -3    1    3    3    0  502  0.54516635942E+02 -0.32834285162E+03 -0.77229215613E+02  0.34168033855E+03  0.10100000352E+00 0. -1.
</event>
<event>
 5   0  0.1040163E-02  0.9402989E+03  0.7818609E-02  0.9376562E-01
       -3   -1    0    0    0  501  0.00000000000E+00  0.00000000000E+00  0.14141318035E+03  0.14141321642E+03  0.10100000352E+00 0. -1.
        3   -1    0    0  501    0  0.00000000000E+00  0.00000000000E+00 -0.15630825904E+04  0.15630825936E+04  0.10100000352E+00 0.  1.
    10030    2    1    2    0    0  0.00000000000E+00  0.00000000000E+00 -0.14216694100E+04  0.17044958101E+04  0.94029891795E+03 0.  0.
        5    1    3    3  502    0  0.20040945842E+03 -0.39944981286E+03 -0.44631265043E+03  0.63161790344E+03  0.46999998093E+01 0. -1.
       -5    1    3    3    0  502 -0.20040945842E+03  0.39944981286E+03 -0.97535675960E+03  0.10728779066E+04  0.46999998093E+01 0.  1.
</event>
<event>
 5   0  0.1560728E-02  0.9096014E+03  0.7818609E-02  0.9413658E-01
       -1   -1    0    0    0  501  0.00000000000E+00  0.00000000000E+00  0.40001623345E+03  0.40001623348E+03  0.50400001928E-02 0. -1.
        1   -1    0    0  501    0  0.00000000000E+00  0.00000000000E+00 -0.51708825621E+03  0.51708825623E+03  0.50400001928E-02 0.  1.
    10030    2    1    2    0    0  0.00000000000E+00  0.00000000000E+00 -0.11707202276E+03  0.91710448971E+03  0.90960144379E+03 0.  0.
        4    1    3    3  502    0 -0.17288318191E+03  0.40082663242E+03 -0.18722702258E+03  0.47498016246E+03  0.12699999809E+01 0.  1.
       -4    1    3    3    0  502  0.17288318191E+03 -0.40082663242E+03  0.70154999824E+02  0.44212432725E+03  0.12699999809E+01 0. -1.
</event>
<event>
 5   0  0.1459111E-02  0.9313511E+03  0.7818609E-02  0.9387218E-01
       -1   -1    0    0    0  501  0.00000000000E+00  0.00000000000E+00  0.28091784118E+03  0.28091784123E+03  0.50400001928E-02 0. -1.
        1   -1    0    0  501    0  0.00000000000E+00  0.00000000000E+00 -0.77194716013E+03  0.77194716015E+03  0.50400001928E-02 0.  1.
    10030    2    1    2    0    0  0.00000000000E+00  0.00000000000E+00 -0.49102931895E+03  0.10528650014E+04  0.93135112555E+03 0.  0.
        2    1    3    3  502    0 -0.38126974620E+03 -0.13784513588E+02  0.56338114249E+02  0.38565608424E+03  0.25500000920E-02 0. -1.
       -2    1    3    3    0  502  0.38126974620E+03  0.13784513588E+02 -0.54736743320E+03  0.66720891714E+03  0.25500000920E-02 0.  1.
</event>
<event>
 5   0  0.2414128E-02  0.6586726E+03  0.7818609E-02  0.9790640E-01
       -2   -1    0    0    0  501  0.00000000000E+00  0.00000000000E+00  0.88722568129E+02  0.88722568166E+02  0.25500000920E-02 0. -1.
        2   -1    0    0  501    0  0.00000000000E+00  0.00000000000E+00 -0.12224893115E+04  0.12224893115E+04  0.25500000920E-02 0.  1.
    10030    2    1    2    0    0  0.00000000000E+00  0.00000000000E+00 -0.11337667434E+04  0.13112118797E+04  0.65867257800E+03 0.  0.
        3    1    3    3  502    0  0.32766912848E+01  0.13874904886E+03  0.27664133527E+02  0.14151801917E+03  0.10100000352E+00 0. -1.
       -3    1    3    3    0  502 -0.32766912848E+01 -0.13874904886E+03 -0.11614308769E+04  0.11696938605E+04  0.10100000352E+00 0.  1.
</event>
<event>
 5   0  0.2705111E-02  0.8939254E+03  0.7818609E-02  0.9433207E-01
       -2   -1    0    0    0  501  0.00000000000E+00  0.00000000000E+00  0.26366565607E+03  0.26366565609E+03  0.25500000920E-02 0. -1.
        2   -1    0    0  501    0  0.00000000000E+00  0.00000000000E+00 -0.75768547052E+03  0.75768547053E+03  0.25500000920E-02 0.  1.
    10030    2    1    2    0    0  0.00000000000E+00  0.00000000000E+00 -0.49401981445E+03  0.10213511266E+04  0.89392535861E+03 0.  0.
        4    1    3    3  502    0  0.20618522757E+03  0.28246591166E+03  0.71009572688E+02  0.35685194637E+03  0.12699999809E+01 0. -1.
       -4    1    3    3    0  502 -0.20618522757E+03 -0.28246591166E+03 -0.56502938714E+03  0.66449918024E+03  0.12699999809E+01 0.  1.
</event>
<event>
 5   0  0.2705111E-02  0.9122391E+03  0.7818609E-02  0.9410410E-01
        2   -1    0    0  501    0  0.00000000000E+00  0.00000000000E+00  0.37403184682E+03  0.37403184683E+03  0.25500000920E-02 0. -1.
       -2   -1    0    0    0  501  0.00000000000E+00  0.00000000000E+00 -0.55622282206E+03  0.55622282207E+03  0.25500000920E-02 0.  1.
    10030    2    1    2    0    0  0.00000000000E+00  0.00000000000E+00 -0.18219097525E+03  0.93025466890E+03  0.91223911204E+03 0.  0.
        4    1    3    3  502    0  0.14900473701E+03 -0.88769521126E+02  0.33908983114E+03  0.38087526307E+03  0.12699999809E+01 0. -1.
       -4    1    3    3    0  502 -0.14900473701E+03  0.88769521126E+02 -0.52128080639E+03  0.54937940583E+03  0.12699999809E+01 0.  1.
</event>
<event>
 5   0  0.1497410E-02  0.8816101E+03  0.7818609E-02  0.9448866E-01
       -1   -1    0    0    0  501  0.00000000000E+00  0.00000000000E+00  0.45713109644E+03  0.45713109647E+03  0.50400001928E-02 0.  1.
        1   -1    0    0  501    0  0.00000000000E+00  0.00000000000E+00 -0.42506208547E+03  0.42506208550E+03  0.50400001928E-02 0. -1.
    10030    2    1    2    0    0  0.00000000000E+00  0.00000000000E+00  0.32069010972E+02  0.88219318197E+03  0.88161011159E+03 0.  0.
        3    1    3    3  502    0 -0.24743747112E+03 -0.13535297284E+03 -0.32295695444E+03  0.42877375618E+03  0.10100000352E+00 0. -1.
       -3    1    3    3    0  502  0.24743747112E+03  0.13535297284E+03  0.35502596541E+03  0.45341942579E+03  0.10100000352E+00 0.  1.
</event>
<event>
 5   0  0.1559275E-02  0.9237229E+03  0.7818609E-02  0.9396403E-01
       -1   -1    0    0    0  501  0.00000000000E+00  0.00000000000E+00  0.14350362081E+03  0.14350362090E+03  0.50400001928E-02 0. -1.
        1   -1    0    0  501    0  0.00000000000E+00  0.00000000000E+00 -0.14864851467E+04  0.14864851467E+04  0.50400001928E-02 0.  1.
    10030    2    1    2    0    0  0.00000000000E+00  0.00000000000E+00 -0.13429815259E+04  0.16299887676E+04  0.92372290416E+03 0.  0.
        1    1    3    3  502    0 -0.34504514144E+03 -0.17673576737E+03 -0.22849764138E+03  0.45000317026E+03  0.50400001928E-02 0. -1.
       -1    1    3    3    0  502  0.34504514144E+03  0.17673576737E+03 -0.11144838845E+04  0.11799855973E+04  0.50400001928E-02 0.  1.
</event>
<event>
 5   0  0.1459111E-02  0.8778129E+03  0.7818609E-02  0.9453749E-01
        1   -1    0    0  501    0  0.00000000000E+00  0.00000000000E+00  0.56329079112E+03  0.56329079114E+03  0.50400001928E-02 0. -1.
       -1   -1    0    0    0  501  0.00000000000E+00  0.00000000000E+00 -0.34198831617E+03  0.34198831621E+03  0.50400001928E-02 0.  1.
    10030    2    1    2    0    0  0.00000000000E+00  0.00000000000E+00  0.22130247495E+03  0.90527910735E+03  0.87781289395E+03 0.  0.
        2    1    3    3  502    0 -0.39827193096E+02  0.52051418578E+02  0.55821575142E+03  0.56205015846E+03  0.25500000920E-02 0. -1.
       -2    1    3    3    0  502  0.39827193096E+02 -0.52051418578E+02 -0.33691327647E+03  0.34322894889E+03  0.25500000920E-02 0.  1.
</event>
<event>
 5   0  0.2679861E-02  0.9167438E+03  0.7818609E-02  0.9404890E-01
        2   -1    0    0  501    0  0.00000000000E+00  0.00000000000E+00  0.63792330276E+03  0.63792330277E+03  0.25500000920E-02 0.  1.
       -2   -1    0    0    0  501  0.00000000000E+00  0.00000000000E+00 -0.32935747599E+03  0.32935747600E+03  0.25500000920E-02 0. -1.
    10030    2    1    2    0    0  0.00000000000E+00  0.00000000000E+00  0.30856582677E+03  0.96728077877E+03  0.91674382219E+03 0.  0.
        1    1    3    3  502    0 -0.10733574579E+03 -0.16125394959E+03 -0.28404695928E+03  0.34381168346E+03  0.50400001928E-02 0. -1.
       -1    1    3    3    0  502  0.10733574579E+03  0.16125394959E+03  0.59261278606E+03  0.62346909531E+03  0.50400001928E-02 0.  1.
</event>
<event>
 5   0  0.2705111E-02  0.9078867E+03  0.7818609E-02  0.9415776E-01
       -2   -1    0    0    0  501  0.00000000000E+00  0.00000000000E+00  0.25334439076E+03  0.25334439077E+03  0.25500000920E-02 0. -1.
        2   -1    0    0  501    0  0.00000000000E+00  0.00000000000E+00 -0.81337730624E+03  0.81337730624E+03  0.25500000920E-02 0.  1.
    10030    2    1    2    0    0  0.00000000000E+00  0.00000000000E+00 -0.56003291548E+03  0.10667216970E+04  0.90788672887E+03 0.  0.
        4    1    3    3  502    0 -0.76977741852E+02  0.24117259033E+02  0.24485334131E+03  0.25780222376E+03  0.12699999809E+01 0. -1.
       -4    1    3    3    0  502  0.76977741852E+02 -0.24117259033E+02 -0.80488625679E+03  0.80891947325E+03  0.12699999809E+01 0.  1.
</event>
<event>
 5   0  0.1537870E-02  0.9041731E+03  0.7818609E-02  0.9420380E-01
        1   -1    0    0  501    0  0.00000000000E+00  0.00000000000E+00  0.55815370723E+03  0.55815370725E+03  0.50400001928E-02 0.  1.
       -1   -1    0    0    0  501  0.00000000000E+00  0.00000000000E+00 -0.36617559711E+03  0.36617559715E+03  0.50400001928E-02 0. -1.
    10030    2    1    2    0    0  0.00000000000E+00  0.00000000000E+00  0.19197811012E+03  0.92432930440E+03  0.90417314061E+03 0.  0.
        5    1    3    3  502    0  0.69810962944E+02  0.44585974565E+03  0.12295304518E+03  0.46776492457E+03  0.46999998093E+01 0.  1.
       -5    1    3    3    0  502 -0.69810962944E+02 -0.44585974565E+03  0.69025064936E+02  0.45656437983E+03  0.46999998093E+01 0. -1.
</event>
<event>
 5   0  0.2679861E-02  0.8988052E+03  0.7818609E-02  0.9427076E-01
        2   -1    0    0  501    0  0.00000000000E+00  0.00000000000E+00  0.11000720600E+04  0.11000720600E+04  0.25500000920E-02 0. -1.
       -2   -1    0    0    0  501  0.00000000000E+00  0.00000000000E+00 -0.18359044109E+03  0.18359044111E+03  0.25500000920E-02 0.  1.
    10030    2    1    2    0    0  0.00000000000E+00  0.00000000000E+00  0.91648161893E+03  0.12836625011E+04  0.89880523975E+03 0.  0.
        1    1    3    3  502    0 -0.38378357746E+03 -0.19344982054E+03  0.64581816315E+03  0.77575367693E+03  0.50400001928E-02 0. -1.
       -1    1    3    3    0  502  0.38378357746E+03  0.19344982054E+03  0.27066345578E+03  0.50790882421E+03  0.50400001928E-02 0.  1.
</event>
<event>
 5   0  0.1559275E-02  0.9622336E+03  0.7818609E-02  0.9350965E-01
       -1   -1    0    0    0  501  0.00000000000E+00  0.00000000000E+00  0.87242921338E+03  0.87242921340E+03  0.50400001928E-02 0. -1.
        1   -1    0    0  501    0  0.00000000000E+00  0.00000000000E+00 -0.26532050998E+03  0.26532051003E+03  0.50400001928E-02 0.  1.
    10030    2    1    2    0    0  0.00000000000E+00  0.00000000000E+00  0.60710870340E+03  0.11377497234E+04  0.96223357633E+03 0.  0.
        1    1    3    3  502    0 -0.46474510235E+03 -0.68656177128E+02  0.18083642376E+03  0.50339198742E+03  0.50400001928E-02 0.  1.
       -1    1    3    3    0  502  0.46474510235E+03  0.68656177128E+02  0.42627227964E+03  0.63435773601E+03  0.50400001928E-02 0. -1.
</event>
<event>
 5   0  0.1537870E-02  0.8814706E+03  0.7818609E-02  0.9449045E-01
        1   -1    0    0  501    0  0.00000000000E+00  0.00000000000E+00  0.34043711339E+03  0.34043711342E+03  0.50400001928E-02 0.  1.
       -1   -1    0    0    0  501  0.00000000000E+00  0.00000000000E+00 -0.57058297497E+03  0.57058297499E+03  0.50400001928E-02 0. -1.
    10030    2    1    2    0    0  0.00000000000E+00  0.00000000000E+00 -0.23014586158E+03  0.91102008842E+03  0.88147063700E+03 0.  0.
        5    1    3    3  502    0 -0.16437329251E+03  0.19188186752E+03 -0.48827102395E+03  0.54978897152E+03  0.46999998093E+01 0. -1.
       -5    1    3    3    0  502  0.16437329251E+03 -0.19188186752E+03  0.25812516236E+03  0.36123111690E+03  0.46999998093E+01 0.  1.
</event>
<event>
 5   0  0.1537870E-02  0.8328201E+03  0.7818609E-02  0.9513690E-01
       -1   -1    0    0    0  501  0.00000000000E+00  0.00000000000E+00  0.90166165911E+03  0.90166165913E+03  0.50400001928E-02 0. -1.
        1   -1    0    0  501    0  0.00000000000E+00  0.00000000000E+00 -0.19230862738E+03  0.19230862745E+03  0.50400001928E-02 0.  1.
    10030    2    1    2    0    0  0.00000000000E+00  0.00000000000E+00  0.70935303173E+03  0.10939702866E+04  0.83282006717E+03 0.  0.
        5    1    3    3  502    0 -0.10443629764E+03 -0.11697312503E+03  0.86135767713E+03  0.87552772098E+03  0.46999998093E+01 0. -1.
       -5    1    3    3    0  502  0.10443629764E+03  0.11697312503E+03 -0.15200464540E+03  0.21844256560E+03  0.46999998093E+01 0.  1.
</event>
<event>
 5   0  0.2803717E-02  0.9020389E+03  0.7818609E-02  0.9423036E-01
        2   -1    0    0  501    0  0.00000000000E+00  0.00000000000E+00  0.72633921779E+03  0.72633921779E+03  0.25500000920E-02 0. -1.
       -2   -1    0    0    0  501  0.00000000000E+00  0.00000000000E+00 -0.28005998701E+03  0.28005998702E+03  0.25500000920E-02 0.  1.
    10030    2    1    2    0    0  0.00000000000E+00  0.00000000000E+00  0.44627923078E+03  0.10063992048E+04  0.90203891691E+03 0.  0.
        5    1    3    3  502    0  0.17852247281E+03 -0.35585635971E+03 -0.13251753142E+02  0.39837384578E+03  0.46999998093E+01 0.  1.
       -5    1    3    3    0  502 -0.17852247281E+03  0.35585635971E+03  0.45953098392E+03  0.60802535903E+03  0.46999998093E+01 0. -1.
</event>
<event>
 5   0  0.2803717E-02  0.8949173E+03  0.7818609E-02  0.9431957E-01
       -2   -1    0    0    0  501  0.00000000000E+00  0.00000000000E+00  0.11649184229E+03  0.11649184231E+03  0.25500000920E-02 0.  1.
        2   -1    0    0  501    0  0.00000000000E+00  0.00000000000E+00 -0.17187404382E+04  0.17187404382E+04  0.25500000920E-02 0. -1.
    10030    2    1    2    0    0  0.00000000000E+00  0.00000000000E+00 -0.16022485959E+04  0.18352322805E+04  0.89491729245E+03 0.  0.
        5    1    3    3  502    0  0.74311430779E+02 -0.38291734831E+03 -0.35160171235E+03  0.52516067875E+03  0.46999998093E+01 0. -1.
       -5    1    3    3    0  502 -0.74311430779E+02  0.38291734831E+03 -0.12506468835E+04  0.13100716017E+04  0.46999998093E+01 0.  1.
</event>
<event>
 5   0  0.2628383E-02  0.6673369E+03  0.7818609E-02  0.9774781E-01
       -2   -1    0    0    0  501  0.00000000000E+00  0.00000000000E+00  0.57962337684E+03  0.57962337684E+03  0.25500000920E-02 0.  1.
        2   -1    0    0  501    0  0.00000000000E+00  0.00000000000E+00 -0.19208100628E+03  0.19208100629E+03  0.25500000920E-02 0. -1.
    10030    2    1    2    0    0  0.00000000000E+00  0.00000000000E+00  0.38754237056E+03  0.77170438314E+03  0.66733692088E+03 0.  0.
        2    1    3    3  502    0  0.11448778885E+03  0.24840081865E+03 -0.27230860899E+02  0.27486713207E+03  0.25500000920E-02 0. -1.
       -2    1    3    3    0  502 -0.11448778885E+03 -0.24840081865E+03  0.41477323146E+03  0.49683725106E+03  0.25500000920E-02 0.  1.
</event>
<event>
 5   0  0.1559275E-02  0.9012380E+03  0.7818609E-02  0.9424035E-01
       -1   -1    0    0    0  501  0.00000000000E+00  0.00000000000E+00  0.18520597495E+03  0.18520597502E+03  0.50400001928E-02 0. -1.
        1   -1    0    0  501    0  0.00000000000E+00  0.00000000000E+00 -0.10963872646E+04  0.10963872646E+04  0.50400001928E-02 0.  1.
    10030    2    1    2    0    0  0.00000000000E+00  0.00000000000E+00 -0.91118128962E+03  0.12815932396E+04  0.90123797591E+03 0.  0.
        1    1    3    3  502    0 -0.27707124071E+03  0.78643817230E+02 -0.94841224106E+03  0.99118066035E+03  0.50400001928E-02 0.  1.
       -1    1    3    3    0  502  0.27707124071E+03 -0.78643817230E+02  0.37230951444E+02  0.29041257925E+03  0.50400001928E-02 0. -1.
</event>
<event>
 5   0  0.2803717E-02  0.9155314E+03  0.7818609E-02  0.9406372E-01
       -2   -1    0    0    0  501  0.00000000000E+00  0.00000000000E+00  0.14949905646E+03  0.14949905648E+03  0.25500000920E-02 0.  1.
        2   -1    0    0  501    0  0.00000000000E+00  0.00000000000E+00 -0.14016772090E+04  0.14016772090E+04  0.25500000920E-02 0. -1.
    10030    2    1    2    0    0  0.00000000000E+00  0.00000000000E+00 -0.12521781526E+04  0.15511762655E+04  0.91553136534E+03 0.  0.
        5    1    3    3  502    0  0.11150469750E+03 -0.64026674549E+02  0.11823235212E+03  0.17473892441E+03  0.46999998093E+01 0.  1.
       -5    1    3    3    0  502 -0.11150469750E+03  0.64026674549E+02 -0.13704105047E+04  0.13764373411E+04  0.46999998093E+01 0. -1.
</event>
<event>
 5   0  0.1497410E-02  0.8803851E+03  0.7818609E-02  0.9450439E-01
        1   -1    0    0  501    0  0.00000000000E+00  0.00000000000E+00  0.11494314575E+04  0.11494314575E+04  0.50400001928E-02 0.  1.
       -1   -1    0    0    0  501  0.00000000000E+00  0.00000000000E+00 -0.16857852574E+03  0.16857852581E+03  0.50400001928E-02 0. -1.
    10030    2    1    2    0    0  0.00000000000E+00  0.00000000000E+00  0.98085293172E+03  0.13180099833E+04  0.88038505347E+03 0.  0.
        3    1    3    3  502    0 -0.10732236374E+03 -0.30896954989E+03  0.93146732580E+03  0.98722422061E+03  0.10100000352E+00 0.  1.
       -3    1    3    3    0  502  0.10732236374E+03  0.30896954989E+03  0.49385605920E+02  0.33078576268E+03  0.10100000352E+00 0. -1.
</event>
<event>
 5   0  0.2414128E-02  0.8932766E+03  0.7818609E-02  0.9434025E-01
        2   -1    0    0  501    0  0.00000000000E+00  0.00000000000E+00  0.66146900997E+03  0.66146900998E+03  0.25500000920E-02 0.  1.
       -2   -1    0    0    0  501  0.00000000000E+00  0.00000000000E+00 -0.30157989194E+03  0.30157989196E+03  0.25500000920E-02 0. -1.
    10030    2    1    2    0    0  0.00000000000E+00  0.00000000000E+00  0.35988911803E+03  0.96304890193E+03  0.89327655865E+03 0.  0.
        3    1    3    3  502    0  0.11310601098E+03  0.35209187215E+03  0.44995438845E+03  0.58242649154E+03  0.10100000352E+00 0.  1.
       -3    1    3    3    0  502 -0.11310601098E+03 -0.35209187215E+03 -0.90065270424E+02  0.38062241039E+03  0.10100000352E+00 0. -1.
</event>
<event>
 5   0  0.2803717E-02  0.9380091E+03  0.7818609E-02  0.9379277E-01
        2   -1    0    0  501    0  0.00000000000E+00  0.00000000000E+00  0.23277701193E+03  0.23277701195E+03  0.25500000920E-02 0.  1.
       -2   -1    0    0    0  501  0.00000000000E+00  0.00000000000E+00 -0.94496124631E+03  0.94496124631E+03  0.25500000920E-02 0. -1.
    10030    2    1    2    0    0  0.00000000000E+00  0.00000000000E+00 -0.71218423438E+03  0.11777382583E+04  0.93800907313E+03 0.  0.
        5    1    3    3  502    0 -0.17900496834E+03 -0.43006301916E+03 -0.42424305521E+03  0.63008034332E+03  0.46999998093E+01 0. -1.
       -5    1    3    3    0  502  0.17900496834E+03  0.43006301916E+03 -0.28794117916E+03  0.54765791494E+03  0.46999998093E+01 0.  1.
</event>
<event>
 5   0  0.1560728E-02  0.8728365E+03  0.7818609E-02  0.9460189E-01
        1   -1    0    0  501    0  0.00000000000E+00  0.00000000000E+00  0.78575874972E+03  0.78575874973E+03  0.50400001928E-02 0.  1.
       -1   -1    0    0    0  501  0.00000000000E+00  0.00000000000E+00 -0.24239105693E+03  0.24239105699E+03  0.50400001928E-02 0. -1.
    10030    2    1    2    0    0  0.00000000000E+00  0.00000000000E+00  0.54336769278E+03  0.10281498067E+04  0.87283651132E+03 0.  0.
        4    1    3    3  502    0 -0.73375990363E+02  0.41833302731E+02  0.77603683729E+03  0.78062080865E+03  0.12699999809E+01 0.  1.
       -4    1    3    3    0  502  0.73375990363E+02 -0.41833302731E+02 -0.23266914450E+03  0.24752899806E+03  0.12699999809E+01 0. -1.
</event>
<event>
 5   0  0.2414128E-02  0.9170769E+03  0.7818609E-02  0.9404483E-01
       -2   -1    0    0    0  501  0.00000000000E+00  0.00000000000E+00  0.23268347986E+03  0.23268347988E+03  0.25500000920E-02 0.  1.
        2   -1    0    0  501    0  0.00000000000E+00  0.00000000000E+00 -0.90362031055E+03  0.90362031055E+03  0.25500000920E-02 0. -1.
    10030    2    1    2    0    0  0.00000000000E+00  0.00000000000E+00 -0.67093683068E+03  0.11363037904E+04  0.91707691792E+03 0.  0.
        3    1    3    3  502    0 -0.36246129587E+03  0.22504860390E+03 -0.12727694959E+03  0.44522409775E+03  0.10100000352E+00 0.  1.
       -3    1    3    3    0  502  0.36246129587E+03 -0.22504860390E+03 -0.54365988109E+03  0.69107969268E+03  0.10100000352E+00 0. -1.
</event>
<event>
 5   0  0.2628383E-02  0.9033972E+03  0.7818609E-02  0.9421345E-01
        2   -1    0    0  501    0  0.00000000000E+00  0.00000000000E+00  0.57164535957E+03  0.57164535958E+03  0.25500000920E-02 0.  1.
       -2   -1    0    0    0  501  0.00000000000E+00  0.00000000000E+00 -0.35691993136E+03  0.35691993137E+03  0.25500000920E-02 0. -1.
    10030    2    1    2    0    0  0.00000000000E+00  0.00000000000E+00  0.21472542821E+03  0.92856529095E+03  0.90339719395E+03 0.  0.
        2    1    3    3  502    0 -0.25559321371E+03 -0.20085335155E+03  0.42972679105E+03  0.53882749993E+03  0.25500000920E-02 0.  1.
       -2    1    3    3    0  502  0.25559321371E+03  0.20085335155E+03 -0.21500136283E+03  0.38973779102E+03  0.25500000920E-02 0. -1.
</event>
<event>
 5   0  0.2705111E-02  0.9006374E+03  0.7818609E-02  0.9424785E-01
       -2   -1    0    0    0  501  0.00000000000E+00  0.00000000000E+00  0.21127433331E+03  0.21127433332E+03  0.25500000920E-02 0.  1.
        2   -1    0    0  501    0  0.00000000000E+00  0.00000000000E+00 -0.95982750111E+03  0.95982750111E+03  0.25500000920E-02 0. -1.
    10030    2    1    2    0    0  0.00000000000E+00  0.00000000000E+00 -0.74855316780E+03  0.11711018344E+04  0.90063736408E+03 0.  0.
        4    1    3    3  502    0 -0.26609075127E+03  0.19252988007E+03  0.26320834228E+02  0.32949422126E+03  0.12699999809E+01 0.  1.
       -4    1    3    3    0  502  0.26609075127E+03 -0.19252988007E+03 -0.77487400203E+03  0.84160761317E+03  0.12699999809E+01 0. -1.
</event>
<event>
 5   0  0.2414128E-02  0.8672829E+03  0.7818609E-02  0.9467430E-01
       -2   -1    0    0    0  501  0.00000000000E+00  0.00000000000E+00  0.79279911915E+02  0.79279911956E+02  0.25500000920E-02 0. -1.
        2   -1    0    0  501    0  0.00000000000E+00  0.00000000000E+00 -0.23719114184E+04  0.23719114184E+04  0.25500000920E-02 0.  1.
    10030    2    1    2    0    0  0.00000000000E+00  0.00000000000E+00 -0.22926315064E+04  0.24511913303E+04  0.86728294892E+03 0.  0.
        3    1    3    3  502    0  0.60812346613E+02  0.73744147950E+02 -0.23417673182E+04  0.23437172448E+04  0.10100000352E+00 0.  1.
       -3    1    3    3    0  502 -0.60812346613E+02 -0.73744147950E+02  0.49135811753E+02  0.10747408550E+03  0.10100000352E+00 0. -1.
</event>
<event>
 5   0  0.2679861E-02  0.8879815E+03  0.7818609E-02  0.9440731E-01
        2   -1    0    0  501    0  0.00000000000E+00  0.00000000000E+00  0.52755157498E+03  0.52755157498E+03  0.25500000920E-02 0.  1.
       -2   -1    0    0    0  501  0.00000000000E+00  0.00000000000E+00 -0.37366546617E+03  0.37366546618E+03  0.25500000920E-02 0. -1.
    10030    2    1    2    0    0  0.00000000000E+00  0.00000000000E+00  0.15388610881E+03  0.90121704116E+03  0.88798154305E+03 0.  0.
        1    1    3    3  502    0 -0.44382973487E+03 -0.11683022186E+02  0.79526303374E+02  0.45104961980E+03  0.50400001928E-02 0. -1.
       -1    1    3    3    0  502  0.44382973487E+03  0.11683022186E+02  0.74359805437E+02  0.45016742136E+03  0.50400001928E-02 0.  1.
</event>
<event>
 5   0  0.2679861E-02  0.8493978E+03  0.7818609E-02  0.9491146E-01
        2   -1    0    0  501    0  0.00000000000E+00  0.00000000000E+00  0.14357636860E+04  0.14357636860E+04  0.25500000920E-02 0. -1.
       -2   -1    0    0    0  501  0.00000000000E+00  0.00000000000E+00 -0.12562592893E+03  0.12562592896E+03  0.25500000920E-02 0.  1.
    10030    2    1    2    0    0  0.00000000000E+00  0.00000000000E+00  0.13101377571E+04  0.15613896150E+04  0.84939777916E+03 0.  0.
        1    1    3    3  502    0  0.38889153670E+03 -0.33349096608E+02  0.34736214560E+03  0.52250287060E+03  0.50400001928E-02 0.  1.
       -1    1    3    3    0  502 -0.38889153670E+03  0.33349096608E+02  0.96277561152E+03  0.10388867444E+04  0.50400001928E-02 0. -1.
</event>
<event>
 5   0  0.1559275E-02  0.9520216E+03  0.7818609E-02  0.9362791E-01
       -1   -1    0    0    0  501  0.00000000000E+00  0.00000000000E+00  0.43320133993E+03  0.43320133996E+03  0.50400001928E-02 0.  1.
        1   -1    0    0  501    0  0.00000000000E+00  0.00000000000E+00 -0.52305070657E+03  0.52305070659E+03  0.50400001928E-02 0. -1.
    10030    2    1    2    0    0  0.00000000000E+00  0.00000000000E+00 -0.89849366631E+02  0.95625204655E+03  0.95202156901E+03 0.  0.
        1    1    3    3  502    0  0.15091471114E+03 -0.29296844452E+03 -0.38993391786E+03  0.51054306366E+03  0.50400001928E-02 0. -1.
       -1    1    3    3    0  502 -0.15091471114E+03  0.29296844452E+03  0.30008455123E+03  0.44570898290E+03  0.50400001928E-02 0.  1.
</event>
<event>
 5   0  0.1459111E-02  0.8815138E+03  0.7818609E-02  0.9448990E-01
       -1   -1    0    0    0  501  0.00000000000E+00  0.00000000000E+00  0.12464260334E+03  0.12464260344E+03  0.50400001928E-02 0.  1.
        1   -1    0    0  501    0  0.00000000000E+00  0.00000000000E+00 -0.15585892838E+04  0.15585892838E+04  0.50400001928E-02 0. -1.
    10030    2    1    2    0    0  0.00000000000E+00  0.00000000000E+00 -0.14339466805E+04  0.16832318873E+04  0.88151375705E+03 0.  0.
        2    1    3    3  502    0 -0.30646259216E+03  0.31042473336E+03 -0.59645223649E+03  0.73894391255E+03  0.25500000920E-02 0.  1.
       -2    1    3    3    0  502  0.30646259216E+03 -0.31042473336E+03 -0.83749444401E+03  0.94428797473E+03  0.25500000920E-02 0. -1.
</event>
<event>
 5   0  0.2679861E-02  0.7912436E+03  0.7818609E-02  0.9572779E-01
        2   -1    0    0  501    0  0.00000000000E+00  0.00000000000E+00  0.10995623691E+04  0.10995623691E+04  0.25500000920E-02 0. -1.
       -2   -1    0    0    0  501  0.00000000000E+00  0.00000000000E+00 -0.14234445449E+03  0.14234445452E+03  0.25500000920E-02 0.  1.
    10030    2    1    2    0    0  0.00000000000E+00  0.00000000000E+00  0.95721791456E+03  0.12419068236E+04  0.79124359238E+03 0.  0.
        1    1    3    3  502    0  0.37938084989E+03 -0.59387424805E+02  0.62800557028E+03  0.73610304429E+03  0.50400001928E-02 0. -1.
       -1    1    3    3    0  502 -0.37938084989E+03  0.59387424805E+02  0.32921234428E+03  0.50580377928E+03  0.50400001928E-02 0.  1.
</event>
<event>
 5   0  0.1497410E-02  0.8914460E+03  0.7818609E-02  0.9436338E-01
       -1   -1    0    0    0  501  0.00000000000E+00  0.00000000000E+00  0.73062963861E+03  0.73062963862E+03  0.50400001928E-02 0.  1.
        1   -1    0    0  501    0  0.00000000000E+00  0.00000000000E+00 -0.27191478534E+03  0.27191478538E+03  0.50400001928E-02 0. -1.
    10030    2    1    2    0    0  0.00000000000E+00  0.00000000000E+00  0.45871485327E+03  0.10025444240E+04  0.89144601940E+03 0.  0.
        3    1    3    3  502    0 -0.33927533644E+03 -0.12331536448E+03 -0.64673028350E+02  0.36673838609E+03  0.10100000352E+00 0. -1.
       -3    1    3    3    0  502  0.33927533644E+03  0.12331536448E+03  0.52338788162E+03  0.63580603792E+03  0.10100000352E+00 0.  1.
</event>
<event>
 5   0  0.2803717E-02  0.8995289E+03  0.7818609E-02  0.9426171E-01
        2   -1    0    0  501    0  0.00000000000E+00  0.00000000000E+00  0.66955410335E+03  0.66955410335E+03  0.25500000920E-02 0.  1.
       -2   -1    0    0    0  501  0.00000000000E+00  0.00000000000E+00 -0.30212354306E+03  0.30212354307E+03  0.25500000920E-02 0. -1.
    10030    2    1    2    0    0  0.00000000000E+00  0.00000000000E+00  0.36743056028E+03  0.97167764642E+03  0.89952889444E+03 0.  0.
        5    1    3    3  502    0  0.15391636061E+03  0.13086471416E+03 -0.25032128513E+03  0.32171206888E+03  0.46999998093E+01 0. -1.
       -5    1    3    3    0  502 -0.15391636061E+03 -0.13086471416E+03  0.61775184542E+03  0.64996557754E+03  0.46999998093E+01 0.  1.
</event>
<event>
 5   0  0.1497410E-02  0.9151035E+03  0.7818609E-02  0.9406896E-01
       -1   -1    0    0    0  501  0.00000000000E+00  0.00000000000E+00  0.15687206167E+03  0.15687206175E+03  0.50400001928E-02 0.  1.
        1   -1    0    0  501    0  0.00000000000E+00  0.00000000000E+00 -0.13345498470E+04  0.13345498470E+04  0.50400001928E-02 0. -1.
    10030    2    1    2    0    0  0.00000000000E+00  0.00000000000E+00 -0.11776777853E+04  0.14914219087E+04  0.91510346075E+03 0.  0.
        3    1    3    3  502    0 -0.28548397825E+03 -0.26109617980E+03 -0.98699126538E+03  0.10601056952E+04  0.10100000352E+00 0. -1.
       -3    1    3    3    0  502  0.28548397825E+03  0.26109617980E+03 -0.19068651992E+03  0.43131621350E+03  0.10100000352E+00 0.  1.
</event>
<event>
 5   0  0.2628383E-02  0.9146434E+03  0.7818609E-02  0.9407459E-01
        2   -1    0    0  501    0  0.00000000000E+00  0.00000000000E+00  0.28642465676E+04  0.28642465676E+04  0.25500000920E-02 0.  1.
       -2   -1    0    0    0  501  0.00000000000E+00  0.00000000000E+00 -0.73018549958E+02  0.73018550002E+02  0.25500000920E-02 0. -1.
    10030    2    1    2    0    0  0.00000000000E+00  0.00000000000E+00  0.27912280176E+04  0.29372651176E+04  0.91464338657E+03 0.  0.
        2    1    3    3  502    0 -0.41963281586E+03  0.89780011872E+02  0.19032857582E+04  0.19510635121E+04  0.25500000920E-02 0. -1.
       -2    1    3    3    0  502  0.41963281586E+03 -0.89780011872E+02  0.88794225939E+03  0.98620160550E+03  0.25500000920E-02 0.  1.
</event>
<event>
 5   0  0.1560728E-02  0.9093073E+03  0.7818609E-02  0.9414021E-01
       -1   -1    0    0    0  501  0.00000000000E+00  0.00000000000E+00  0.25251995754E+03  0.25251995759E+03  0.50400001928E-02 0. -1.
        1   -1    0    0  501    0  0.00000000000E+00  0.00000000000E+00 -0.81858853533E+03  0.81858853535E+03  0.50400001928E-02 0.  1.
    10030    2    1    2    0    0  0.00000000000E+00  0.00000000000E+00 -0.56606857779E+03  0.10711084929E+04  0.90930730168E+03 0.  0.
        4    1    3    3  502    0 -0.29239383491E+03 -0.24275371134E+03  0.10943052037E+02  0.38019058688E+03  0.12699999809E+01 0. -1.
       -4    1    3    3    0  502  0.29239383491E+03  0.24275371134E+03 -0.57701162983E+03  0.69091790606E+03  0.12699999809E+01 0.  1.
</event>
<event>
 5   0  0.1537870E-02  0.9050308E+03  0.7818609E-02  0.9419314E-01
       -1   -1    0    0    0  501  0.00000000000E+00  0.00000000000E+00  0.25670395223E+03  0.25670395228E+03  0.50400001928E-02 0. -1.
        1   -1    0    0  501    0  0.00000000000E+00  0.00000000000E+00 -0.79769009228E+03  0.79769009230E+03  0.50400001928E-02 0.  1.
    10030    2    1    2    0    0  0.00000000000E+00  0.00000000000E+00 -0.54098614005E+03  0.10543940446E+04  0.90503082684E+03 0.  0.
        5    1    3    3  502    0 -0.26532270412E+02  0.86300732516E+02 -0.78706080553E+03  0.79223644161E+03  0.46999998093E+01 0.  1.
       -5    1    3    3    0  502  0.26532270412E+02 -0.86300732516E+02  0.24607466548E+03  0.26215760298E+03  0.46999998093E+01 0. -1.
</event>
<event>
 5   0  0.1559275E-02  0.9051400E+03  0.7818609E-02  0.9419179E-01
        1   -1    0    0  501    0  0.00000000000E+00  0.00000000000E+00  0.13662074883E+04  0.13662074883E+04  0.50400001928E-02 0.  1.
       -1   -1    0    0    0  501  0.00000000000E+00  0.00000000000E+00 -0.14991836601E+03  0.14991836610E+03  0.50400001928E-02 0. -1.
    10030    2    1    2    0    0  0.00000000000E+00  0.00000000000E+00  0.12162891223E+04  0.15161258544E+04  0.90513997670E+03 0.  0.
        1    1    3    3  502    0 -0.39032922389E+03  0.84241725633E+02  0.25137740917E+03  0.47185185517E+03  0.50400001928E-02 0. -1.
       -1    1    3    3    0  502  0.39032922389E+03 -0.84241725633E+02  0.96491171314E+03  0.10442739993E+04  0.50400001928E-02 0.  1.
</event>
<event>
 5   0  0.1459111E-02  0.8870081E+03  0.7818609E-02  0.9441969E-01
        1   -1    0    0  501    0  0.00000000000E+00  0.00000000000E+00  0.13861269350E+04  0.13861269350E+04  0.50400001928E-02 0. -1.
       -1   -1    0    0    0  501  0.00000000000E+00  0.00000000000E+00 -0.14190318091E+03  0.14190318100E+03  0.50400001928E-02 0.  1.
    10030    2    1    2    0    0  0.00000000000E+00  0.00000000000E+00  0.12442237541E+04  0.15280301160E+04  0.88700805249E+03 0.  0.
        2    1    3    3  502    0  0.16780412253E+03 -0.39810128200E+03  0.79483539710E+03  0.90465803636E+03  0.25500000920E-02 0. -1.
       -2    1    3    3    0  502 -0.16780412253E+03  0.39810128200E+03  0.44938835698E+03  0.62337207963E+03  0.25500000920E-02 0.  1.
</event>
<event>
 5   0  0.2414128E-02  0.9578832E+03  0.7818609E-02  0.9355984E-01
       -2   -1    0    0    0  501  0.00000000000E+00  0.00000000000E+00  0.26741620900E+03  0.26741620901E+03  0.25500000920E-02 0. -1.
        2   -1    0    0  501    0  0.00000000000E+00  0.00000000000E+00 -0.85778286563E+03  0.85778286564E+03  0.25500000920E-02 0.  1.
    10030    2    1    2    0    0  0.00000000000E+00  0.00000000000E+00 -0.59036665663E+03  0.11251990747E+04  0.95788317050E+03 0.  0.
        3    1    3    3  502    0 -0.28947928912E+03  0.14538703753E+03  0.11921042120E+03  0.34517645376E+03  0.10100000352E+00 0. -1.
       -3    1    3    3    0  502  0.28947928912E+03 -0.14538703753E+03 -0.70957707783E+03  0.78002262089E+03  0.10100000352E+00 0.  1.
</event>
<event>
 5   0  0.2679861E-02  0.9177578E+03  0.7818609E-02  0.9403652E-01
        2   -1    0    0  501    0  0.00000000000E+00  0.00000000000E+00  0.84900591610E+03  0.84900591610E+03  0.25500000920E-02 0.  1.
       -2   -1    0    0    0  501  0.00000000000E+00  0.00000000000E+00 -0.24801931203E+03  0.24801931204E+03  0.25500000920E-02 0. -1.
    10030    2    1    2    0    0  0.00000000000E+00  0.00000000000E+00  0.60098660407E+03  0.10970252281E+04  0.91775784002E+03 0.  0.
        1    1    3    3  502    0  0.21189172422E+03 -0.26870565475E+03  0.66593860414E+03  0.74871560435E+03  0.50400001928E-02 0.  1.
       -1    1    3    3    0  502 -0.21189172422E+03  0.26870565475E+03 -0.64952000071E+02  0.34830962379E+03  0.50400001928E-02 0. -1.
</event>
<event>
 5   0  0.1459111E-02  0.8842664E+03  0.7818609E-02  0.9445466E-01
        1   -1    0    0  501    0  0.00000000000E+00  0.00000000000E+00  0.60744158213E+03  0.60744158215E+03  0.50400001928E-02 0. -1.
       -1   -1    0    0    0  501  0.00000000000E+00  0.00000000000E+00 -0.32181165721E+03  0.32181165725E+03  0.50400001928E-02 0.  1.
    10030    2    1    2    0    0  0.00000000000E+00  0.00000000000E+00  0.28562992492E+03  0.92925323940E+03  0.88426643548E+03 0.  0.
        2    1    3    3  502    0 -0.24354878749E+03  0.35949017897E+03  0.55316899867E+02  0.43773183581E+03  0.25500000920E-02 0.  1.
       -2    1    3    3    0  502  0.24354878749E+03 -0.35949017897E+03  0.23031302506E+03  0.49152140359E+03  0.25500000920E-02 0. -1.
</event>
<event>
 5   0  0.1459111E-02  0.9132123E+03  0.7818609E-02  0.9409214E-01
       -1   -1    0    0    0  501  0.00000000000E+00  0.00000000000E+00  0.38254887495E+03  0.38254887498E+03  0.50400001928E-02 0.  1.
        1   -1    0    0  501    0  0.00000000000E+00  0.00000000000E+00 -0.54500007669E+03  0.54500007671E+03  0.50400001928E-02 0. -1.
    10030    2    1    2    0    0  0.00000000000E+00  0.00000000000E+00 -0.16245120174E+03  0.92754895169E+03  0.91321227808E+03 0.  0.
        2    1    3    3  502    0  0.52441014321E+02  0.31864485397E+03 -0.40910072337E+03  0.52119862319E+03  0.25500000920E-02 0. -1.
       -2    1    3    3    0  502 -0.52441014321E+02 -0.31864485397E+03  0.24664952164E+03  0.40635032850E+03  0.25500000920E-02 0.  1.
</event>
<event>
 5   0  0.1497410E-02  0.8548647E+03  0.7818609E-02  0.9483831E-01
       -1   -1    0    0    0  501  0.00000000000E+00  0.00000000000E+00  0.73579866816E+03  0.73579866818E+03  0.50400001928E-02 0.  1.
        1   -1    0    0  501    0  0.00000000000E+00  0.00000000000E+00 -0.24829949046E+03  0.24829949052E+03  0.50400001928E-02 0. -1.
    10030    2    1    2    0    0  0.00000000000E+00  0.00000000000E+00  0.48749917770E+03  0.98409815870E+03  0.85486474819E+03 0.  0.
        3    1    3    3  502    0  0.18330852828E+03  0.23808412084E+03  0.59369962211E+03  0.66540612909E+03  0.10100000352E+00 0.  1.
       -3    1    3    3    0  502 -0.18330852828E+03 -0.23808412084E+03 -0.10620044442E+03  0.31869202960E+03  0.10100000352E+00 0. -1.
</event>
<event>
 5   0  0.1560728E-02  0.8988821E+03  0.7818609E-02  0.9426980E-01
       -1   -1    0    0    0  501  0.00000000000E+00  0.00000000000E+00  0.34394873724E+03  0.34394873728E+03  0.50400001928E-02 0.  1.
        1   -1    0    0  501    0  0.00000000000E+00  0.00000000000E+00 -0.58728883576E+03  0.58728883579E+03  0.50400001928E-02 0. -1.
    10030    2    1    2    0    0  0.00000000000E+00  0.00000000000E+00 -0.24334009853E+03  0.93123757306E+03  0.89888209123E+03 0.  0.
        4    1    3    3  502    0  0.38152389681E+03 -0.62406992856E+02  0.11579787842E+03  0.40356644823E+03  0.12699999809E+01 0.  1.
       -4    1    3    3    0  502 -0.38152389681E+03  0.62406992856E+02 -0.35913797694E+03  0.52767112483E+03  0.12699999809E+01 0. -1.
</event>
<event>
 5   0  0.2628383E-02  0.8762784E+03  0.7818609E-02  0.9455730E-01
       -2   -1    0    0    0  501  0.00000000000E+00  0.00000000000E+00  0.29067105936E+03  0.29067105937E+03  0.25500000920E-02 0.  1.
        2   -1    0    0  501    0  0.00000000000E+00  0.00000000000E+00 -0.66042332781E+03  0.66042332781E+03  0.25500000920E-02 0. -1.
    10030    2    1    2    0    0  0.00000000000E+00  0.00000000000E+00 -0.36975226845E+03  0.95109438718E+03  0.87627837660E+03 0.  0.
        2    1    3    3  502    0 -0.10271843840E+03  0.41679259416E+03 -0.89641885415E+02  0.43852344494E+03  0.25500000920E-02 0. -1.
       -2    1    3    3    0  502  0.10271843840E+03 -0.41679259416E+03 -0.28011038304E+03  0.51257094224E+03  0.25500000920E-02 0.  1.
</event>
<event>
 5   0  0.2679861E-02  0.8714366E+03  0.7818609E-02  0.9462009E-01
       -2   -1    0    0    0  501  0.00000000000E+00  0.00000000000E+00  0.17081572220E+03  0.17081572221E+03  0.25500000920E-02 0.  1.
        2   -1    0    0  501    0  0.00000000000E+00  0.00000000000E+00 -0.11114341171E+04  0.11114341172E+04  0.25500000920E-02 0. -1.
    10030    2    1    2    0    0  0.00000000000E+00  0.00000000000E+00 -0.94061839495E+03  0.12822498394E+04  0.87143656432E+03 0.  0.
        1    1    3    3  502    0  0.13028988357E+03  0.16349915267E+03 -0.10328135356E+04  0.10537605165E+04  0.50400001928E-02 0. -1.
       -1    1    3    3    0  502 -0.13028988357E+03 -0.16349915267E+03  0.92195140673E+02  0.22848932289E+03  0.50400001928E-02 0.  1.
</event>
<event>
 5   0  0.1040163E-02  0.8956749E+03  0.7818609E-02  0.9431004E-01
       -3   -1    0    0    0  501  0.00000000000E+00  0.00000000000E+00  0.55114001187E+03  0.55114002113E+03  0.10100000352E+00 0. -1.
        3   -1    0    0  501    0  0.00000000000E+00  0.00000000000E+00 -0.36389731788E+03  0.36389733190E+03  0.10100000352E+00 0.  1.
    10030    2    1    2    0    0  0.00000000000E+00  0.00000000000E+00  0.18724269399E+03  0.91503735302E+03  0.89567490250E+03 0.  0.
        2    1    3    3  502    0 -0.53583347436E+02 -0.41385206084E+03 -0.72414884814E+02  0.42354293635E+03  0.25500000920E-02 0. -1.
       -2    1    3    3    0  502  0.53583347436E+02  0.41385206084E+03  0.25965757881E+03  0.49149441667E+03  0.25500000920E-02 0.  1.
</event>
<event>
 5   0  0.1559275E-02  0.8977384E+03  0.7818609E-02  0.9428413E-01
       -1   -1    0    0    0  501  0.00000000000E+00  0.00000000000E+00  0.50372764723E+03  0.50372764725E+03  0.50400001928E-02 0.  1.
        1   -1    0    0  501    0  0.00000000000E+00  0.00000000000E+00 -0.39998514883E+03  0.39998514887E+03  0.50400001928E-02 0. -1.
    10030    2    1    2    0    0  0.00000000000E+00  0.00000000000E+00  0.10374249839E+03  0.90371279612E+03  0.89773844292E+03 0.  0.
        1    1    3    3  502    0  0.31128726337E+03 -0.21059226363E+03 -0.19518966421E+03  0.42349482509E+03  0.50400001928E-02 0. -1.
       -1    1    3    3    0  502 -0.31128726337E+03  0.21059226363E+03  0.29893216260E+03  0.48021797103E+03  0.50400001928E-02 0.  1.
</event>
<event>
 5   0  0.2628383E-02  0.9213049E+03  0.7818609E-02  0.9399334E-01
       -2   -1    0    0    0  501  0.00000000000E+00  0.00000000000E+00  0.67204935152E+03  0.67204935152E+03  0.25500000920E-02 0. -1.
        2   -1    0    0  501    0  0.00000000000E+00  0.00000000000E+00 -0.31575164807E+03  0.31575164808E+03  0.25500000920E-02 0.  1.
    10030    2    1    2    0    0  0.00000000000E+00  0.00000000000E+00  0.35629770345E+03  0.98780099960E+03  0.92130492310E+03 0.  0.
        2    1    3    3  502    0 -0.30728566386E+02  0.13757197617E+03 -0.29205916942E+03  0.32429747435E+03  0.25500000920E-02 0.  1.
       -2    1    3    3    0  502  0.30728566386E+02 -0.13757197617E+03  0.64835687287E+03  0.66350352525E+03  0.25500000920E-02 0. -1.
</event>
<event>
 5   0  0.1559275E-02  0.8876537E+03  0.7818609E-02  0.9441148E-01
       -1   -1    0    0    0  501  0.00000000000E+00  0.00000000000E+00  0.41876100069E+03  0.41876100072E+03  0.50400001928E-02 0. -1.
        1   -1    0    0  501    0  0.00000000000E+00  0.00000000000E+00 -0.47039308652E+03  0.47039308654E+03  0.50400001928E-02 0.  1.
    10030    2    1    2    0    0  0.00000000000E+00  0.00000000000E+00 -0.51632085830E+02  0.88915408726E+03  0.88765371548E+03 0.  0.
        1    1    3    3  502    0 -0.13480958447E+03 -0.26503446519E+03  0.30423350939E+03  0.42541147148E+03  0.50400001928E-02 0. -1.
       -1    1    3    3    0  502  0.13480958447E+03  0.26503446519E+03 -0.35586559522E+03  0.46374261578E+03  0.50400001928E-02 0.  1.
</event>
<event>
 5   0  0.2679861E-02  0.8976710E+03  0.7818609E-02  0.9428498E-01
       -2   -1    0    0    0  501  0.00000000000E+00  0.00000000000E+00  0.23097403278E+03  0.23097403280E+03  0.25500000920E-02 0. -1.
        2   -1    0    0  501    0  0.00000000000E+00  0.00000000000E+00 -0.87219022785E+03  0.87219022786E+03  0.25500000920E-02 0.  1.
    10030    2    1    2    0    0  0.00000000000E+00  0.00000000000E+00 -0.64121619507E+03  0.11031642607E+04  0.89767097378E+03 0.  0.
        1    1    3    3  502    0  0.27327938788E+03 -0.70738674159E+02 -0.74944195937E+03  0.80084257776E+03  0.50400001928E-02 0.  1.
       -1    1    3    3    0  502 -0.27327938788E+03  0.70738674159E+02  0.10822576430E+03  0.30232168289E+03  0.50400001928E-02 0. -1.
</event>
<event>
 5   0  0.1497410E-02  0.8989791E+03  0.7818609E-02  0.9426858E-01
       -1   -1    0    0    0  501  0.00000000000E+00  0.00000000000E+00  0.46662046994E+03  0.46662046997E+03  0.50400001928E-02 0.  1.
        1   -1    0    0  501    0  0.00000000000E+00  0.00000000000E+00 -0.43298759694E+03  0.43298759697E+03  0.50400001928E-02 0. -1.
    10030    2    1    2    0    0  0.00000000000E+00  0.00000000000E+00  0.33632873004E+02  0.89960806694E+03  0.89897914545E+03 0.  0.
        3    1    3    3  502    0 -0.24721618019E+02  0.18628023817E+03  0.42542719016E+03  0.46508041225E+03  0.10100000352E+00 0.  1.
       -3    1    3    3    0  502  0.24721618019E+02 -0.18628023817E+03 -0.39179431716E+03  0.43452765469E+03  0.10100000352E+00 0. -1.
</event>
<event>
 5   0  0.2803717E-02  0.8082017E+03  0.7818609E-02  0.9548221E-01
        2   -1    0    0  501    0  0.00000000000E+00  0.00000000000E+00  0.76972123582E+03  0.76972123583E+03  0.25500000920E-02 0. -1.
       -2   -1    0    0    0  501  0.00000000000E+00  0.00000000000E+00 -0.21215146872E+03  0.21215146873E+03  0.25500000920E-02 0.  1.
    10030    2    1    2    0    0  0.00000000000E+00  0.00000000000E+00  0.55756976710E+03  0.98187270456E+03  0.80820168447E+03 0.  0.
        5    1    3    3  502    0 -0.55512573018E+02 -0.36527827339E+03  0.80027430057E+02  0.37806922955E+03  0.46999998093E+01 0. -1.
       -5    1    3    3    0  502  0.55512573018E+02  0.36527827339E+03  0.47754233705E+03  0.60380347502E+03  0.46999998093E+01 0.  1.
</event>
<event>
 5   0  0.2679861E-02  0.8697725E+03  0.7818609E-02  0.9464177E-01
       -2   -1    0    0    0  501  0.00000000000E+00  0.00000000000E+00  0.99202741449E+02  0.99202741482E+02  0.25500000920E-02 0.  1.
        2   -1    0    0  501    0  0.00000000000E+00  0.00000000000E+00 -0.19064601108E+04  0.19064601108E+04  0.25500000920E-02 0. -1.
    10030    2    1    2    0    0  0.00000000000E+00  0.00000000000E+00 -0.18072573694E+04  0.20056628523E+04  0.86977254382E+03 0.  0.
        1    1    3    3  502    0 -0.14450292700E+03  0.61011117831E+02 -0.18389590661E+04  0.18456364482E+04  0.50400001928E-02 0. -1.
       -1    1    3    3    0  502  0.14450292700E+03 -0.61011117831E+02  0.31701696658E+02  0.16002640409E+03  0.50400001928E-02 0.  1.
</event>
<event>
 5   0  0.1459111E-02  0.9699562E+03  0.7818609E-02  0.9342124E-01
       -1   -1    0    0    0  501  0.00000000000E+00  0.00000000000E+00  0.21413392201E+03  0.21413392206E+03  0.50400001928E-02 0.  1.
        1   -1    0    0  501    0  0.00000000000E+00  0.00000000000E+00 -0.10983955897E+04  0.10983955897E+04  0.50400001928E-02 0. -1.
    10030    2    1    2    0    0  0.00000000000E+00  0.00000000000E+00 -0.88426166771E+03  0.13125295118E+04  0.96995619609E+03 0.  0.
        2    1    3    3  502    0  0.40299127006E+03  0.18131509624E+03 -0.71251936756E+03  0.83842768145E+03  0.25500000920E-02 0.  1.
       -2    1    3    3    0  502 -0.40299127006E+03 -0.18131509624E+03 -0.17174230015E+03  0.47410183034E+03  0.25500000920E-02 0. -1.
</event>
<event>
 5   0  0.2628383E-02  0.9208462E+03  0.7818609E-02  0.9399891E-01
        2   -1    0    0  501    0  0.00000000000E+00  0.00000000000E+00  0.88985449121E+03  0.88985449121E+03  0.25500000920E-02 0.  1.
       -2   -1    0    0    0  501  0.00000000000E+00  0.00000000000E+00 -0.23822933742E+03  0.23822933743E+03  0.25500000920E-02 0. -1.
    10030    2    1    2    0    0  0.00000000000E+00  0.00000000000E+00  0.65162515379E+03  0.11280838286E+04  0.92084623222E+03 0.  0.
        2    1    3    3  502    0 -0.42405831217E+03 -0.11336060489E+03  0.49606106133E+03  0.66238406943E+03  0.25500000920E-02 0.  1.
       -2    1    3    3    0  502  0.42405831217E+03  0.11336060489E+03  0.15556409246E+03  0.46569975921E+03  0.25500000920E-02 0. -1.
</event>
<event>
 5   0  0.2679861E-02  0.9031158E+03  0.7818609E-02  0.9421695E-01
        2   -1    0    0  501    0  0.00000000000E+00  0.00000000000E+00  0.89867664327E+03  0.89867664327E+03  0.25500000920E-02 0.  1.
       -2   -1    0    0    0  501  0.00000000000E+00  0.00000000000E+00 -0.22689424185E+03  0.22689424186E+03  0.25500000920E-02 0. -1.
    10030    2    1    2    0    0  0.00000000000E+00  0.00000000000E+00  0.67178240142E+03  0.11255708851E+04  0.90311584119E+03 0.  0.
        1    1    3    3  502    0  0.17006987196E+03  0.40428935432E+03  0.20205881356E+03  0.48290931605E+03  0.50400001928E-02 0.  1.
       -1    1    3    3    0  502 -0.17006987196E+03 -0.40428935432E+03  0.46972358786E+03  0.64266156909E+03  0.50400001928E-02 0. -1.
</event>
<event>
 5   0  0.1459111E-02  0.8916143E+03  0.7818609E-02  0.9436125E-01
       -1   -1    0    0    0  501  0.00000000000E+00  0.00000000000E+00  0.26546648778E+03  0.26546648783E+03  0.50400001928E-02 0. -1.
        1   -1    0    0  501    0  0.00000000000E+00  0.00000000000E+00 -0.74865945230E+03  0.74865945232E+03  0.50400001928E-02 0.  1.
    10030    2    1    2    0    0  0.00000000000E+00  0.00000000000E+00 -0.48319296453E+03  0.10141259401E+04  0.89161425600E+03 0.  0.
        2    1    3    3  502    0 -0.23237141839E+03  0.28044613925E+02 -0.67315266575E+03  0.71268330124E+03  0.25500000920E-02 0.  1.
       -2    1    3    3    0  502  0.23237141839E+03 -0.28044613925E+02  0.18995970122E+03  0.30144263891E+03  0.25500000920E-02 0. -1.
</event>
<event>
 5   0  0.1560728E-02  0.8924036E+03  0.7818609E-02  0.9435127E-01
       -1   -1    0    0    0  501  0.00000000000E+00  0.00000000000E+00  0.11998399529E+04  0.11998399529E+04  0.50400001928E-02 0. -1.
        1   -1    0    0  501    0  0.00000000000E+00  0.00000000000E+00 -0.16593548869E+03  0.16593548877E+03  0.50400001928E-02 0.  1.
    10030    2    1    2    0    0  0.00000000000E+00  0.00000000000E+00  0.10339044642E+04  0.13657754417E+04  0.89240356119E+03 0.  0.
        4    1    3    3  502    0 -0.32821999028E+03 -0.54993282041E+02  0.62067762766E+02  0.33853602935E+03  0.12699999809E+01 0.  1.
       -4    1    3    3    0  502  0.32821999028E+03  0.54993282041E+02  0.97183670148E+03  0.10272394124E+04  0.12699999809E+01 0. -1.
</event>
<event>
 5   0  0.2803717E-02  0.9033815E+03  0.7818609E-02  0.9421364E-01
       -2   -1    0    0    0  501  0.00000000000E+00  0.00000000000E+00  0.12412508072E+03  0.12412508075E+03  0.25500000920E-02 0.  1.
        2   -1    0    0  501    0  0.00000000000E+00  0.00000000000E+00 -0.16437009460E+04  0.16437009460E+04  0.25500000920E-02 0. -1.
    10030    2    1    2    0    0  0.00000000000E+00  0.00000000000E+00 -0.15195758653E+04  0.17678260268E+04  0.90338145349E+03 0.  0.
        5    1    3    3  502    0 -0.73620118479E+02 -0.24565360002E+02 -0.16305068188E+04  0.16323596280E+04  0.46999998093E+01 0. -1.
       -5    1    3    3    0  502  0.73620118479E+02  0.24565360002E+02  0.11093095353E+03  0.13546639881E+03  0.46999998093E+01 0.  1.
</event>
<event>
 5   0  0.1497410E-02  0.9000421E+03  0.7818609E-02  0.9425529E-01
        1   -1    0    0  501    0  0.00000000000E+00  0.00000000000E+00  0.32111575398E+03  0.32111575402E+03  0.50400001928E-02 0.  1.
       -1   -1    0    0    0  501  0.00000000000E+00  0.00000000000E+00 -0.63067268639E+03  0.63067268641E+03  0.50400001928E-02 0. -1.
    10030    2    1    2    0    0  0.00000000000E+00  0.00000000000E+00 -0.30955693241E+03  0.95178844043E+03  0.90004207732E+03 0.  0.
        3    1    3    3  502    0 -0.27979438742E+03  0.16644960258E+03 -0.48333152626E+03  0.58275187165E+03  0.10100000352E+00 0. -1.
       -3    1    3    3    0  502  0.27979438742E+03 -0.16644960258E+03  0.17377459385E+03  0.36903656879E+03  0.10100000352E+00 0.  1.
</event>
<event>
 5   0  0.1559275E-02  0.9068981E+03  0.7818609E-02  0.9416999E-01
       -1   -1    0    0    0  501  0.00000000000E+00  0.00000000000E+00  0.36066796098E+03  0.36066796102E+03  0.50400001928E-02 0.  1.
        1   -1    0    0  501    0  0.00000000000E+00  0.00000000000E+00 -0.57009789512E+03  0.57009789514E+03  0.50400001928E-02 0. -1.
    10030    2    1    2    0    0  0.00000000000E+00  0.00000000000E+00 -0.20942993413E+03  0.93076585616E+03  0.90689810987E+03 0.  0.
        1    1    3    3  502    0 -0.33845207652E+03 -0.29358783089E+03 -0.17635477818E+03  0.48150247181E+03  0.50400001928E-02 0. -1.
       -1    1    3    3    0  502  0.33845207652E+03  0.29358783089E+03 -0.33075155950E+02  0.44926338435E+03  0.50400001928E-02 0.  1.
</event>
<event>
 5   0  0.2414128E-02  0.8220583E+03  0.7818609E-02  0.9528626E-01
        2   -1    0    0  501    0  0.00000000000E+00  0.00000000000E+00  0.22723334438E+03  0.22723334440E+03  0.25500000920E-02 0. -1.
       -2   -1    0    0    0  501  0.00000000000E+00  0.00000000000E+00 -0.74348663316E+03  0.74348663317E+03  0.25500000920E-02 0.  1.
    10030    2    1    2    0    0  0.00000000000E+00  0.00000000000E+00 -0.51625328878E+03  0.97071997757E+03  0.82205828058E+03 0.  0.
        3    1    3    3  502    0  0.96694512178E+02  0.18099878470E+03 -0.67866939832E+03  0.70901519812E+03  0.10100000352E+00 0.  1.
       -3    1    3    3    0  502 -0.96694512178E+02 -0.18099878470E+03  0.16241610954E+03  0.26170477945E+03  0.10100000352E+00 0. -1.
</event>
<event>
 5   0  0.2803717E-02  0.8697957E+03  0.7818609E-02  0.9464146E-01
        2   -1    0    0  501    0  0.00000000000E+00  0.00000000000E+00  0.11052133042E+04  0.11052133042E+04  0.25500000920E-02 0.  1.
       -2   -1    0    0    0  501  0.00000000000E+00  0.00000000000E+00 -0.17113089318E+03  0.17113089320E+03  0.25500000920E-02 0. -1.
    10030    2    1    2    0    0  0.00000000000E+00  0.00000000000E+00  0.93408241106E+03  0.12763441974E+04  0.86979569997E+03 0.  0.
        5    1    3    3  502    0 -0.41441490742E+03  0.98413167904E+02  0.59571515916E+03  0.73234111449E+03  0.46999998093E+01 0.  1.
       -5    1    3    3    0  502  0.41441490742E+03 -0.98413167904E+02  0.33836725189E+03  0.54400308295E+03  0.46999998093E+01 0. -1.
</event>
<event>
 5   0  0.1537870E-02  0.8948842E+03  0.7818609E-02  0.9431999E-01
        1   -1    0    0  501    0  0.00000000000E+00  0.00000000000E+00  0.68274045883E+03  0.68274045885E+03  0.50400001928E-02 0.  1.
       -1   -1    0    0    0  501  0.00000000000E+00  0.00000000000E+00 -0.29323650595E+03  0.29323650600E+03  0.50400001928E-02 0. -1.
    10030    2    1    2    0    0  0.00000000000E+00  0.00000000000E+00  0.38950395288E+03  0.97597696485E+03  0.89488418614E+03 0.  0.
        5    1    3    3  502    0  0.37430510386E+03 -0.22698980371E+03  0.29561885837E+03  0.52824358131E+03  0.46999998093E+01 0. -1.
       -5    1    3    3    0  502 -0.37430510386E+03  0.22698980371E+03  0.93885094503E+02  0.44773338354E+03  0.46999998093E+01 0.  1.
</event>
<event>
 5   0  0.1459111E-02  0.9342389E+03  0.7818609E-02  0.9383765E-01
        1   -1    0    0  501    0  0.00000000000E+00  0.00000000000E+00  0.16429492754E+03  0.16429492761E+03  0.50400001928E-02 0. -1.
       -1   -1    0    0    0  501  0.00000000000E+00  0.00000000000E+00 -0.13281029019E+04  0.13281029019E+04  0.50400001928E-02 0.  1.
    10030    2    1    2    0    0  0.00000000000E+00  0.00000000000E+00 -0.11638079744E+04  0.14923978295E+04  0.93423887757E+03 0.  0.
        2    1    3    3  502    0 -0.14709517511E+02 -0.44940468050E+03 -0.78409086139E+03  0.90386913637E+03  0.25500000920E-02 0.  1.
       -2    1    3    3    0  502  0.14709517511E+02  0.44940468050E+03 -0.37971711297E+03  0.58852869314E+03  0.25500000920E-02 0. -1.
</event>
<event>
 5   0  0.2705111E-02  0.8991003E+03  0.7818609E-02  0.9426707E-01
       -2   -1    0    0    0  501  0.00000000000E+00  0.00000000000E+00  0.34270443751E+03  0.34270443752E+03  0.25500000920E-02 0. -1.
        2   -1    0    0  501    0  0.00000000000E+00  0.00000000000E+00 -0.58970736601E+03  0.58970736602E+03  0.25500000920E-02 0.  1.
    10030    2    1    2    0    0  0.00000000000E+00  0.00000000000E+00 -0.24700292850E+03  0.93241180354E+03  0.89910028622E+03 0.  0.
        4    1    3    3  502    0  0.36799169678E+03 -0.24347073965E+03 -0.21269877288E+03  0.48983494246E+03  0.12699999809E+01 0.  1.
       -4    1    3    3    0  502 -0.36799169678E+03  0.24347073965E+03 -0.34304155621E+02  0.44257686108E+03  0.12699999809E+01 0. -1.
</event>
<event>
 5   0  0.2803717E-02  0.9094508E+03  0.7818609E-02  0.9413844E-01
        2   -1    0    0  501    0  0.00000000000E+00  0.00000000000E+00  0.91458541886E+03  0.91458541887E+03  0.25500000920E-02 0.  1.
       -2   -1    0    0    0  501  0.00000000000E+00  0.00000000000E+00 -0.22608623226E+03  0.22608623227E+03  0.25500000920E-02 0. -1.
    10030    2    1    2    0    0  0.00000000000E+00  0.00000000000E+00  0.68849918661E+03  0.11406716511E+04  0.90945076049E+03 0.  0.
        5    1    3    3  502    0  0.22642535380E+03  0.12035313834E+03  0.81521677860E+03  0.85460739809E+03  0.46999998093E+01 0.  1.
       -5    1    3    3    0  502 -0.22642535380E+03 -0.12035313834E+03 -0.12671759200E+03  0.28606425305E+03  0.46999998093E+01 0. -1.
</event>
<event>
 5   0  0.1560728E-02  0.1201211E+04  0.7818609E-02  0.9111797E-01
       -1   -1    0    0    0  501  0.00000000000E+00  0.00000000000E+00  0.10832997051E+04  0.10832997051E+04  0.50400001928E-02 0.  1.
        1   -1    0    0  501    0  0.00000000000E+00  0.00000000000E+00 -0.33298891911E+03  0.33298891915E+03  0.50400001928E-02 0. -1.
    10030    2    1    2    0    0  0.00000000000E+00  0.00000000000E+00  0.75031078599E+03  0.14162886243E+04  0.12012107191E+04 0.  0.
        4    1    3    3  502    0 -0.21326428187E+03 -0.26816862542E+03 -0.20645158723E+03  0.40002491966E+03  0.12699999809E+01 0. -1.
       -4    1    3    3    0  502  0.21326428187E+03  0.26816862542E+03  0.95676237323E+03  0.10162637046E+04  0.12699999809E+01 0.  1.
</event>
<event>
 5   0  0.2628383E-02  0.9228963E+03  0.7818609E-02  0.9397404E-01
        2   -1    0    0  501    0  0.00000000000E+00  0.00000000000E+00  0.16681789781E+04  0.16681789781E+04  0.25500000920E-02 0.  1.
       -2   -1    0    0    0  501  0.00000000000E+00  0.00000000000E+00 -0.12764481108E+03  0.12764481111E+03  0.25500000920E-02 0. -1.
    10030    2    1    2    0    0  0.00000000000E+00  0.00000000000E+00  0.15405341670E+04  0.17958237892E+04  0.92289629004E+03 0.  0.
        2    1    3    3  502    0 -0.13525929740E+03  0.25408992871E+03  0.68469104657E+02  0.29587968451E+03  0.25500000920E-02 0. -1.
       -2    1    3    3    0  502  0.13525929740E+03 -0.25408992871E+03  0.14720650624E+04  0.14999441047E+04  0.25500000920E-02 0.  1.
</event>
<event>
 5   0  0.1040163E-02  0.8672846E+03  0.7818609E-02  0.9467427E-01
        3   -1    0    0  501    0  0.00000000000E+00  0.00000000000E+00  0.61198828870E+03  0.61198829703E+03  0.10100000352E+00 0.  1.
       -3   -1    0    0    0  501  0.00000000000E+00  0.00000000000E+00 -0.30726997900E+03  0.30726999560E+03  0.10100000352E+00 0. -1.
    10030    2    1    2    0    0  0.00000000000E+00  0.00000000000E+00  0.30471830970E+03  0.91925829263E+03  0.86728459015E+03 0.  0.
        3    1    3    3  502    0  0.12323353632E+03  0.19294573133E+03 -0.23799204679E+03  0.33023443831E+03  0.10100000352E+00 0. -1.
       -3    1    3    3    0  502 -0.12323353632E+03 -0.19294573133E+03  0.54271035649E+03  0.58902385432E+03  0.10100000352E+00 0.  1.
</event>
<event>
 5   0  0.1459111E-02  0.9148585E+03  0.7818609E-02  0.9407196E-01
        1   -1    0    0  501    0  0.00000000000E+00  0.00000000000E+00  0.29159863109E+03  0.29159863113E+03  0.50400001928E-02 0. -1.
       -1   -1    0    0    0  501  0.00000000000E+00  0.00000000000E+00 -0.71756693299E+03  0.71756693301E+03  0.50400001928E-02 0.  1.
    10030    2    1    2    0    0  0.00000000000E+00  0.00000000000E+00 -0.42596830190E+03  0.10091655641E+04  0.91485853640E+03 0.  0.
        2    1    3    3  502    0 -0.17863102286E+03  0.40101104781E+03 -0.35477496665E+03  0.56443261755E+03  0.25500000920E-02 0. -1.
       -2    1    3    3    0  502  0.17863102286E+03 -0.40101104781E+03 -0.71193335245E+02  0.44473294659E+03  0.25500000920E-02 0.  1.
</event>
<event>
 5   0  0.2679861E-02  0.8948263E+03  0.7818609E-02  0.9432072E-01
       -2   -1    0    0    0  501  0.00000000000E+00  0.00000000000E+00  0.36215276126E+03  0.36215276127E+03  0.25500000920E-02 0.  1.
        2   -1    0    0  501    0  0.00000000000E+00  0.00000000000E+00 -0.55274614182E+03  0.55274614183E+03  0.25500000920E-02 0. -1.
    10030    2    1    2    0    0  0.00000000000E+00  0.00000000000E+00 -0.19059338056E+03  0.91489890310E+03  0.89482633297E+03 0.  0.
        1    1    3    3  502    0 -0.13747227174E+03 -0.28289082871E+03 -0.42063682841E+03  0.52522489269E+03  0.50400001928E-02 0. -1.
       -1    1    3    3    0  502  0.13747227174E+03  0.28289082871E+03  0.23004344784E+03  0.38967401041E+03  0.50400001928E-02 0.  1.
</event>
<event>
 5   0  0.1559275E-02  0.8957653E+03  0.7818609E-02  0.9430891E-01
       -1   -1    0    0    0  501  0.00000000000E+00  0.00000000000E+00  0.48341436548E+03  0.48341436551E+03  0.50400001928E-02 0.  1.
        1   -1    0    0  501    0  0.00000000000E+00  0.00000000000E+00 -0.41496254478E+03  0.41496254481E+03  0.50400001928E-02 0. -1.
    10030    2    1    2    0    0  0.00000000000E+00  0.00000000000E+00  0.68451820700E+02  0.89837691032E+03  0.89576527128E+03 0.  0.
        1    1    3    3  502    0 -0.24157357267E+03 -0.29989934112E+03 -0.19513596079E+03  0.43171222943E+03  0.50400001928E-02 0. -1.
       -1    1    3    3    0  502  0.24157357267E+03  0.29989934112E+03  0.26358778149E+03  0.46666468089E+03  0.50400001928E-02 0.  1.
</event>
<event>
 5   0  0.1497410E-02  0.9176091E+03  0.7818609E-02  0.9403833E-01
       -1   -1    0    0    0  501  0.00000000000E+00  0.00000000000E+00  0.48524221771E+03  0.48524221774E+03  0.50400001928E-02 0. -1.
        1   -1    0    0  501    0  0.00000000000E+00  0.00000000000E+00 -0.43380727064E+03  0.43380727067E+03  0.50400001928E-02 0.  1.
    10030    2    1    2    0    0  0.00000000000E+00  0.00000000000E+00  0.51434947069E+02  0.91904948841E+03  0.91760907165E+03 0.  0.
        3    1    3    3  502    0  0.24766087746E+03 -0.14037856282E+03  0.38608714203E+03  0.47969296698E+03  0.10100000352E+00 0. -1.
       -3    1    3    3    0  502 -0.24766087746E+03  0.14037856282E+03 -0.33465219497E+03  0.43935652143E+03  0.10100000352E+00 0.  1.
</event>
<event>
 5   0  0.2705111E-02  0.8897109E+03  0.7818609E-02  0.9438535E-01
       -2   -1    0    0    0  501  0.00000000000E+00  0.00000000000E+00  0.12681322232E+03  0.12681322235E+03  0.25500000920E-02 0.  1.
        2   -1    0    0  501    0  0.00000000000E+00  0.00000000000E+00 -0.15605342437E+04  0.15605342437E+04  0.25500000920E-02 0. -1.
    10030    2    1    2    0    0  0.00000000000E+00  0.00000000000E+00 -0.14337210214E+04  0.16873474660E+04  0.88971091036E+03 0.  0.
        4    1    3    3  502    0 -0.19611776372E+02 -0.50537223713E+02  0.12052232637E+03  0.13215852907E+03  0.12699999809E+01 0.  1.
       -4    1    3    3    0  502  0.19611776372E+02  0.50537223713E+02 -0.15542433477E+04  0.15551889369E+04  0.12699999809E+01 0. -1.
</event>
<event>
 5   0  0.2679861E-02  0.8935951E+03  0.7818609E-02  0.9433624E-01
        2   -1    0    0  501    0  0.00000000000E+00  0.00000000000E+00  0.20853669861E+04  0.20853669861E+04  0.25500000920E-02 0.  1.
       -2   -1    0    0    0  501  0.00000000000E+00  0.00000000000E+00 -0.95728009072E+02  0.95728009106E+02  0.25500000920E-02 0. -1.
    10030    2    1    2    0    0  0.00000000000E+00  0.00000000000E+00  0.19896389770E+04  0.21810949952E+04  0.89359505326E+03 0.  0.
        1    1    3    3  502    0 -0.27298761621E+03  0.19411457074E+03  0.17165124205E+04  0.17488903896E+04  0.50400001928E-02 0.  1.
       -1    1    3    3    0  502  0.27298761621E+03 -0.19411457074E+03  0.27312655652E+03  0.43220460557E+03  0.50400001928E-02 0. -1.
</event>
<event>
 5   0  0.1040163E-02  0.9009252E+03  0.7818609E-02  0.9424426E-01
        4   -1    0    0  501    0  0.00000000000E+00  0.00000000000E+00  0.35881414849E+03  0.35881639602E+03  0.12699999809E+01 0. -1.
       -4   -1    0    0    0  501  0.00000000000E+00  0.00000000000E+00 -0.56551520122E+03  0.56551662726E+03  0.12699999809E+01 0.  1.
    10030    2    1    2    0    0  0.00000000000E+00  0.00000000000E+00 -0.20670105273E+03  0.92433302328E+03  0.90092519819E+03 0.  0.
        2    1    3    3  502    0 -0.23176785926E+03  0.16030679613E+03 -0.46390976795E+03  0.54279543318E+03  0.25500000920E-02 0.  1.
       -2    1    3    3    0  502  0.23176785926E+03 -0.16030679613E+03  0.25720871522E+03  0.38153759010E+03  0.25500000920E-02 0. -1.
</event>
<event>
 5   0  0.1560728E-02  0.8500238E+03  0.7818609E-02  0.9490305E-01
       -1   -1    0    0    0  501  0.00000000000E+00  0.00000000000E+00  0.13268401681E+03  0.13268401691E+03  0.50400001928E-02 0. -1.
        1   -1    0    0  501    0  0.00000000000E+00  0.00000000000E+00 -0.13613930428E+04  0.13613930428E+04  0.50400001928E-02 0.  1.
    10030    2    1    2    0    0  0.00000000000E+00  0.00000000000E+00 -0.12287090260E+04  0.14940770597E+04  0.85002375838E+03 0.  0.
        4    1    3    3  502    0  0.48754950038E+02  0.41022264607E+03 -0.78989314003E+03  0.89139915305E+03  0.12699999809E+01 0.  1.
       -4    1    3    3    0  502 -0.48754950038E+02 -0.41022264607E+03 -0.43881588596E+03  0.60267790666E+03  0.12699999809E+01 0. -1.
</event>
<event>
 5   0  0.1537870E-02  0.9020043E+03  0.7818609E-02  0.9423079E-01
        1   -1    0    0  501    0  0.00000000000E+00  0.00000000000E+00  0.11691291117E+04  0.11691291117E+04  0.50400001928E-02 0. -1.
       -1   -1    0    0    0  501  0.00000000000E+00  0.00000000000E+00 -0.17397814791E+03  0.17397814798E+03  0.50400001928E-02 0.  1.
    10030    2    1    2    0    0  0.00000000000E+00  0.00000000000E+00  0.99515096381E+03  0.13431072597E+04  0.90200425182E+03 0.  0.
        5    1    3    3  502    0  0.49512390228E+01  0.15536313117E+03 -0.13279180106E+03  0.20449442467E+03  0.46999998093E+01 0.  1.
       -5    1    3    3    0  502 -0.49512390228E+01 -0.15536313117E+03  0.11279427649E+04  0.11386128350E+04  0.46999998093E+01 0. -1.
</event>
<event>
 5   0  0.2628383E-02  0.6261618E+03  0.7818609E-02  0.9852568E-01
       -2   -1    0    0    0  501  0.00000000000E+00  0.00000000000E+00  0.11130370521E+03  0.11130370524E+03  0.25500000920E-02 0. -1.
        2   -1    0    0  501    0  0.00000000000E+00  0.00000000000E+00 -0.88065034929E+03  0.88065034930E+03  0.25500000920E-02 0.  1.
    10030    2    1    2    0    0  0.00000000000E+00  0.00000000000E+00 -0.76934664408E+03  0.99195405454E+03  0.62616179023E+03 0.  0.
        2    1    3    3  502    0  0.58267690179E+02 -0.12799564645E+03  0.58449339228E+02  0.15229686304E+03  0.25500000920E-02 0. -1.
       -2    1    3    3    0  502 -0.58267690179E+02  0.12799564645E+03 -0.82779598331E+03  0.83965719149E+03  0.25500000920E-02 0.  1.
</event>
<event>
 5   0  0.1560728E-02  0.8707840E+03  0.7818609E-02  0.9462858E-01
       -1   -1    0    0    0  501  0.00000000000E+00  0.00000000000E+00  0.17101381766E+03  0.17101381773E+03  0.50400001928E-02 0. -1.
        1   -1    0    0  501    0  0.00000000000E+00  0.00000000000E+00 -0.11084846569E+04  0.11084846569E+04  0.50400001928E-02 0.  1.
    10030    2    1    2    0    0  0.00000000000E+00  0.00000000000E+00 -0.93747083920E+03  0.12794984746E+04  0.87078399857E+03 0.  0.
        4    1    3    3  502    0 -0.42314318219E+03 -0.93324302572E+02 -0.40630903500E+03  0.59401028855E+03  0.12699999809E+01 0. -1.
       -4    1    3    3    0  502  0.42314318219E+03  0.93324302572E+02 -0.53116180420E+03  0.68548818606E+03  0.12699999809E+01 0.  1.
</event>
<event>
 5   0  0.2803717E-02  0.9021210E+03  0.7818609E-02  0.9422934E-01
        2   -1    0    0  501    0  0.00000000000E+00  0.00000000000E+00  0.74043837318E+03  0.74043837318E+03  0.25500000920E-02 0.  1.
       -2   -1    0    0    0  501  0.00000000000E+00  0.00000000000E+00 -0.27477717657E+03  0.27477717658E+03  0.25500000920E-02 0. -1.
    10030    2    1    2    0    0  0.00000000000E+00  0.00000000000E+00  0.46566119661E+03  0.10152155498E+04  0.90212097994E+03 0.  0.
        5    1    3    3  502    0  0.33292047081E+03 -0.13612089898E+03  0.53910476025E+03  0.64809024954E+03  0.46999998093E+01 0.  1.
       -5    1    3    3    0  502 -0.33292047081E+03  0.13612089898E+03 -0.73443563645E+02  0.36712530022E+03  0.46999998093E+01 0. -1.
</event>
<event>
 5   0  0.1537870E-02  0.6758049E+03  0.7818609E-02  0.9759528E-01
        1   -1    0    0  501    0  0.00000000000E+00  0.00000000000E+00  0.29820157765E+03  0.29820157770E+03  0.50400001928E-02 0.  1.
       -1   -1    0    0    0  501  0.00000000000E+00  0.00000000000E+00 -0.38288891961E+03  0.38288891965E+03  0.50400001928E-02 0. -1.
    10030    2    1    2    0    0  0.00000000000E+00  0.00000000000E+00 -0.84687341959E+02  0.68109049734E+03  0.67580494204E+03 0.  0.
        5    1    3    3  502    0 -0.26000334533E+03 -0.70565794303E+02 -0.24783718508E+03  0.36609647801E+03  0.46999998093E+01 0. -1.
       -5    1    3    3    0  502  0.26000334533E+03  0.70565794303E+02  0.16314984312E+03  0.31499401933E+03  0.46999998093E+01 0.  1.
</event>
<event>
 5   0  0.1560728E-02  0.9065544E+03  0.7818609E-02  0.9417425E-01
        1   -1    0    0  501    0  0.00000000000E+00  0.00000000000E+00  0.36945119308E+03  0.36945119311E+03  0.50400001928E-02 0. -1.
       -1   -1    0    0    0  501  0.00000000000E+00  0.00000000000E+00 -0.55612273475E+03  0.55612273477E+03  0.50400001928E-02 0.  1.
    10030    2    1    2    0    0  0.00000000000E+00  0.00000000000E+00 -0.18667154167E+03  0.92557392788E+03  0.90655437317E+03 0.  0.
        4    1    3    3  502    0  0.97583074520E+02 -0.40439310579E+03 -0.27711885703E+03  0.49985269257E+03  0.12699999809E+01 0.  1.
       -4    1    3    3    0  502 -0.97583074520E+02  0.40439310579E+03  0.90447315359E+02  0.42572123532E+03  0.12699999809E+01 0. -1.
</event>
<event>
 5   0  0.2628383E-02  0.9913292E+03  0.7818609E-02  0.9318106E-01
       -2   -1    0    0    0  501  0.00000000000E+00  0.00000000000E+00  0.26461903102E+03  0.26461903103E+03  0.25500000920E-02 0.  1.
        2   -1    0    0  501    0  0.00000000000E+00  0.00000000000E+00 -0.92844182411E+03  0.92844182411E+03  0.25500000920E-02 0. -1.
    10030    2    1    2    0    0  0.00000000000E+00  0.00000000000E+00 -0.66382279308E+03  0.11930608551E+04  0.99132916000E+03 0.  0.
        2    1    3    3  502    0 -0.15858571053E+03 -0.45273932617E+03 -0.48204025273E+03  0.68006259293E+03  0.25500000920E-02 0. -1.
       -2    1    3    3    0  502  0.15858571053E+03  0.45273932617E+03 -0.18178254035E+03  0.51299826221E+03  0.25500000920E-02 0.  1.
</event>
<event>
 5   0  0.1537870E-02  0.9770260E+03  0.7818609E-02  0.9334107E-01
        1   -1    0    0  501    0  0.00000000000E+00  0.00000000000E+00  0.31280704248E+03  0.31280704252E+03  0.50400001928E-02 0.  1.
       -1   -1    0    0    0  501  0.00000000000E+00  0.00000000000E+00 -0.76291428662E+03  0.76291428663E+03  0.50400001928E-02 0. -1.
    10030    2    1    2    0    0  0.00000000000E+00  0.00000000000E+00 -0.45010724414E+03  0.10757213292E+04  0.97702602154E+03 0.  0.
        5    1    3    3  502    0  0.67303031529E+02 -0.47009848867E+03 -0.99033763718E+02  0.48513097557E+03  0.46999998093E+01 0. -1.
       -5    1    3    3    0  502 -0.67303031529E+02  0.47009848867E+03 -0.35107348042E+03  0.59059035359E+03  0.46999998093E+01 0.  1.
</event>
<event>
 5   0  0.2679861E-02  0.8977363E+03  0.7818609E-02  0.9428416E-01
       -2   -1    0    0    0  501  0.00000000000E+00  0.00000000000E+00  0.92100233495E+02  0.92100233530E+02  0.25500000920E-02 0.  1.
        2   -1    0    0  501    0  0.00000000000E+00  0.00000000000E+00 -0.21876449626E+04  0.21876449626E+04  0.25500000920E-02 0. -1.
    10030    2    1    2    0    0  0.00000000000E+00  0.00000000000E+00 -0.20955447291E+04  0.22797451962E+04  0.89773629069E+03 0.  0.
        1    1    3    3  502    0 -0.44520627110E+03 -0.20399237586E+02 -0.11835280225E+04  0.12646593742E+04  0.50400001928E-02 0. -1.
       -1    1    3    3    0  502  0.44520627110E+03  0.20399237586E+02 -0.91201670668E+03  0.10150858220E+04  0.50400001928E-02 0.  1.
</event>
<event>
 5   0  0.1559275E-02  0.8713900E+03  0.7818609E-02  0.9462069E-01
       -1   -1    0    0    0  501  0.00000000000E+00  0.00000000000E+00  0.30505799045E+03  0.30505799050E+03  0.50400001928E-02 0.  1.
        1   -1    0    0  501    0  0.00000000000E+00  0.00000000000E+00 -0.62227549582E+03  0.62227549584E+03  0.50400001928E-02 0. -1.
    10030    2    1    2    0    0  0.00000000000E+00  0.00000000000E+00 -0.31721750536E+03  0.92733348633E+03  0.87138995241E+03 0.  0.
        1    1    3    3  502    0  0.13274579629E+03 -0.39323216511E+03 -0.29969912479E+03  0.51193021745E+03  0.50400001928E-02 0. -1.
       -1    1    3    3    0  502 -0.13274579629E+03  0.39323216511E+03 -0.17518380576E+02  0.41540326888E+03  0.50400001928E-02 0.  1.
</event>
<event>
 5   0  0.1459111E-02  0.9206003E+03  0.7818609E-02  0.9400190E-01
        1   -1    0    0  501    0  0.00000000000E+00  0.00000000000E+00  0.56010954439E+03  0.56010954441E+03  0.50400001928E-02 0.  1.
       -1   -1    0    0    0  501  0.00000000000E+00  0.00000000000E+00 -0.37827639465E+03  0.37827639468E+03  0.50400001928E-02 0. -1.
    10030    2    1    2    0    0  0.00000000000E+00  0.00000000000E+00  0.18183314974E+03  0.93838593909E+03  0.92060028044E+03 0.  0.
        2    1    3    3  502    0  0.39337039727E+03  0.22711092444E+03  0.14933986878E+02  0.45446965292E+03  0.25500000920E-02 0.  1.
       -2    1    3    3    0  502 -0.39337039727E+03 -0.22711092444E+03  0.16689916286E+03  0.48391628617E+03  0.25500000920E-02 0. -1.
</event>
<event>
 5   0  0.2705111E-02  0.8923719E+03  0.7818609E-02  0.9435167E-01
       -2   -1    0    0    0  501  0.00000000000E+00  0.00000000000E+00  0.19850414450E+03  0.19850414452E+03  0.25500000920E-02 0. -1.
        2   -1    0    0  501    0  0.00000000000E+00  0.00000000000E+00 -0.10029105011E+04  0.10029105011E+04  0.25500000920E-02 0.  1.
    10030    2    1    2    0    0  0.00000000000E+00  0.00000000000E+00 -0.80440635661E+03  0.12014146456E+04  0.89237187551E+03 0.  0.
        4    1    3    3  502    0 -0.23730324250E+02 -0.30358701326E+02  0.19625743239E+03  0.20000842908E+03  0.12699999809E+01 0. -1.
       -4    1    3    3    0  502  0.23730324250E+02  0.30358701326E+02 -0.10006637890E+04  0.10014062166E+04  0.12699999809E+01 0.  1.
</event>
<event>
 5   0  0.2628383E-02  0.6840423E+03  0.7818609E-02  0.9744918E-01
        2   -1    0    0  501    0  0.00000000000E+00  0.00000000000E+00  0.93604540882E+03  0.93604540882E+03  0.25500000920E-02 0. -1.
       -2   -1    0    0    0  501  0.00000000000E+00  0.00000000000E+00 -0.12497094290E+03  0.12497094293E+03  0.25500000920E-02 0.  1.
    10030    2    1    2    0    0  0.00000000000E+00  0.00000000000E+00  0.81107446592E+03  0.10610163517E+04  0.68404233013E+03 0.  0.
        2    1    3    3  502    0 -0.19315570592E+03  0.18509399055E+03  0.73606866975E+03  0.78317686295E+03  0.25500000920E-02 0. -1.
       -2    1    3    3    0  502  0.19315570592E+03 -0.18509399055E+03  0.75005796168E+02  0.27783948879E+03  0.25500000920E-02 0.  1.
</event>
<event>
 5   0  0.2705111E-02  0.9233549E+03  0.7818609E-02  0.9396849E-01
       -2   -1    0    0    0  501  0.00000000000E+00  0.00000000000E+00  0.11464946248E+03  0.11464946251E+03  0.25500000920E-02 0.  1.
        2   -1    0    0  501    0  0.00000000000E+00  0.00000000000E+00 -0.18591109802E+04  0.18591109802E+04  0.25500000920E-02 0. -1.
    10030    2    1    2    0    0  0.00000000000E+00  0.00000000000E+00 -0.17444615177E+04  0.19737604427E+04  0.92335491464E+03 0.  0.
        4    1    3    3  502    0 -0.29064395674E+02  0.15347097086E+02 -0.18566031939E+04  0.18568945326E+04  0.12699999809E+01 0. -1.
       -4    1    3    3    0  502  0.29064395674E+02 -0.15347097086E+02  0.11214167626E+03  0.11686591008E+03  0.12699999809E+01 0.  1.
</event>
<event>
 5   0  0.1459111E-02  0.8817091E+03  0.7818609E-02  0.9448739E-01
       -1   -1    0    0    0  501  0.00000000000E+00  0.00000000000E+00  0.24216840170E+03  0.24216840175E+03  0.50400001928E-02 0.  1.
        1   -1    0    0  501    0  0.00000000000E+00  0.00000000000E+00 -0.80255199822E+03  0.80255199823E+03  0.50400001928E-02 0. -1.
    10030    2    1    2    0    0  0.00000000000E+00  0.00000000000E+00 -0.56038359652E+03  0.10447204000E+04  0.88170910106E+03 0.  0.
        2    1    3    3  502    0 -0.18961921958E+03  0.10799164394E+03 -0.73407252812E+03  0.76581990059E+03  0.25500000920E-02 0. -1.
       -2    1    3    3    0  502  0.18961921958E+03 -0.10799164394E+03  0.17368893160E+03  0.27890049939E+03  0.25500000920E-02 0.  1.
</event>
<event>
 5   0  0.2679861E-02  0.9130681E+03  0.7818609E-02  0.9409391E-01
       -2   -1    0    0    0  501  0.00000000000E+00  0.00000000000E+00  0.19619481444E+03  0.19619481446E+03  0.25500000920E-02 0.  1.
        2   -1    0    0  501    0  0.00000000000E+00  0.00000000000E+00 -0.10623285263E+04  0.10623285263E+04  0.25500000920E-02 0. -1.
    10030    2    1    2    0    0  0.00000000000E+00  0.00000000000E+00 -0.86613371186E+03  0.12585233408E+04  0.91306812037E+03 0.  0.
        1    1    3    3  502    0  0.19852391580E+03  0.14416403160E+03  0.97602133738E+02  0.26404770343E+03  0.50400001928E-02 0.  1.
       -1    1    3    3    0  502 -0.19852391580E+03 -0.14416403160E+03 -0.96373584560E+03  0.99447563734E+03  0.50400001928E-02 0. -1.
</event>
<event>
 5   0  0.1560728E-02  0.9028073E+03  0.7818609E-02  0.9422079E-01
        1   -1    0    0  501    0  0.00000000000E+00  0.00000000000E+00  0.13445467693E+04  0.13445467693E+04  0.50400001928E-02 0.  1.
       -1   -1    0    0    0  501  0.00000000000E+00  0.00000000000E+00 -0.15154939723E+03  0.15154939732E+03  0.50400001928E-02 0. -1.
    10030    2    1    2    0    0  0.00000000000E+00  0.00000000000E+00  0.11929973721E+04  0.14960961666E+04  0.90280729396E+03 0.  0.
        4    1    3    3  502    0  0.61409732891E+02 -0.37480003909E+03  0.19221475375E+03  0.42566929541E+03  0.12699999809E+01 0. -1.
       -4    1    3    3    0  502 -0.61409732891E+02  0.37480003909E+03  0.10007826183E+04  0.10704268712E+04  0.12699999809E+01 0.  1.
</event>
<event>
 5   0  0.1459111E-02  0.8950774E+03  0.7818609E-02  0.9431756E-01
        1   -1    0    0  501    0  0.00000000000E+00  0.00000000000E+00  0.25074392066E+03  0.25074392071E+03  0.50400001928E-02 0. -1.
       -1   -1    0    0    0  501  0.00000000000E+00  0.00000000000E+00 -0.79878664119E+03  0.79878664121E+03  0.50400001928E-02 0.  1.
    10030    2    1    2    0    0  0.00000000000E+00  0.00000000000E+00 -0.54804272053E+03  0.10495305619E+04  0.89507741390E+03 0.  0.
        2    1    3    3  502    0 -0.33701283768E+02  0.44276577063E+03 -0.33944959541E+03  0.55893052520E+03  0.25500000920E-02 0.  1.
       -2    1    3    3    0  502  0.33701283768E+02 -0.44276577063E+03 -0.20859312512E+03  0.49060003671E+03  0.25500000920E-02 0. -1.
</event>
<event>
 5   0  0.1560728E-02  0.8749670E+03  0.7818609E-02  0.9457426E-01
        1   -1    0    0  501    0  0.00000000000E+00  0.00000000000E+00  0.31417160854E+03  0.31417160858E+03  0.50400001928E-02 0. -1.
       -1   -1    0    0    0  501  0.00000000000E+00  0.00000000000E+00 -0.60919510244E+03  0.60919510246E+03  0.50400001928E-02 0.  1.
    10030    2    1    2    0    0  0.00000000000E+00  0.00000000000E+00 -0.29502349390E+03  0.92336671104E+03  0.87496698287E+03 0.  0.
        4    1    3    3  502    0  0.39716237049E+03  0.60648906795E+02  0.35194992018E+02  0.40330700315E+03  0.12699999809E+01 0. -1.
       -4    1    3    3    0  502 -0.39716237049E+03 -0.60648906795E+02 -0.33021848592E+03  0.52005970789E+03  0.12699999809E+01 0.  1.
</event>
<event>
 5   0  0.2679861E-02  0.9119725E+03  0.7818609E-02  0.9410738E-01
       -2   -1    0    0    0  501  0.00000000000E+00  0.00000000000E+00  0.17739854728E+04  0.17739854728E+04  0.25500000920E-02 0.  1.
        2   -1    0    0  501    0  0.00000000000E+00  0.00000000000E+00 -0.11720696201E+03  0.11720696204E+03  0.25500000920E-02 0. -1.
    10030    2    1    2    0    0  0.00000000000E+00  0.00000000000E+00  0.16567785108E+04  0.18911924349E+04  0.91197247315E+03 0.  0.
        1    1    3    3  502    0 -0.21436528286E+02 -0.33191404508E+03  0.18153908887E+03  0.37892334169E+03  0.50400001928E-02 0. -1.
       -1    1    3    3    0  502  0.21436528286E+02  0.33191404508E+03  0.14752394220E+04  0.15122690932E+04  0.50400001928E-02 0.  1.
</event>
<event>
 5   0  0.1559275E-02  0.8981440E+03  0.7818609E-02  0.9427904E-01
        1   -1    0    0  501    0  0.00000000000E+00  0.00000000000E+00  0.11428299627E+04  0.11428299627E+04  0.50400001928E-02 0. -1.
       -1   -1    0    0    0  501  0.00000000000E+00  0.00000000000E+00 -0.17646165561E+03  0.17646165568E+03  0.50400001928E-02 0.  1.
    10030    2    1    2    0    0  0.00000000000E+00  0.00000000000E+00  0.96636830709E+03  0.13192916184E+04  0.89814401374E+03 0.  0.
        1    1    3    3  502    0  0.32391836892E+02 -0.13525282083E+03 -0.14402976130E+03  0.20021770353E+03  0.50400001928E-02 0.  1.
       -1    1    3    3    0  502 -0.32391836892E+02  0.13525282083E+03  0.11103980684E+04  0.11190739149E+04  0.50400001928E-02 0. -1.
</event>
<event>
 5   0  0.1537870E-02  0.8983472E+03  0.7818609E-02  0.9427650E-01
       -1   -1    0    0    0  501  0.00000000000E+00  0.00000000000E+00  0.16721689643E+03  0.16721689650E+03  0.50400001928E-02 0. -1.
        1   -1    0    0  501    0  0.00000000000E+00  0.00000000000E+00 -0.12065582731E+04  0.12065582731E+04  0.50400001928E-02 0.  1.
    10030    2    1    2    0    0  0.00000000000E+00  0.00000000000E+00 -0.10393413767E+04  0.13737751696E+04  0.89834721538E+03 0.  0.
        5    1    3    3  502    0  0.87515998167E+02  0.43783636183E+03 -0.44514374388E+03  0.63050358634E+03  0.46999998093E+01 0. -1.
       -5    1    3    3    0  502 -0.87515998167E+02 -0.43783636183E+03 -0.59419763277E+03  0.74327158325E+03  0.46999998093E+01 0.  1.
</event>
<event>
 5   0  0.1497410E-02  0.7859597E+03  0.7818609E-02  0.9580565E-01
        1   -1    0    0  501    0  0.00000000000E+00  0.00000000000E+00  0.12244762968E+04  0.12244762968E+04  0.50400001928E-02 0.  1.
       -1   -1    0    0    0  501  0.00000000000E+00  0.00000000000E+00 -0.12612179340E+03  0.12612179350E+03  0.50400001928E-02 0. -1.
    10030    2    1    2    0    0  0.00000000000E+00  0.00000000000E+00  0.10983545034E+04  0.13505980903E+04  0.78595965953E+03 0.  0.
        3    1    3    3  502    0 -0.32255021134E+03 -0.78010526360E+02  0.18745840219E+03  0.38113638479E+03  0.10100000352E+00 0. -1.
       -3    1    3    3    0  502  0.32255021134E+03  0.78010526360E+02  0.91089610120E+03  0.96946170550E+03  0.10100000352E+00 0.  1.
</event>
<event>
 5   0  0.2628383E-02  0.8964066E+03  0.7818609E-02  0.9430085E-01
        2   -1    0    0  501    0  0.00000000000E+00  0.00000000000E+00  0.31047282443E+03  0.31047282444E+03  0.25500000920E-02 0.  1.
       -2   -1    0    0    0  501  0.00000000000E+00  0.00000000000E+00 -0.64703306389E+03  0.64703306390E+03  0.25500000920E-02 0. -1.
    10030    2    1    2    0    0  0.00000000000E+00  0.00000000000E+00 -0.33656023946E+03  0.95750588834E+03  0.89640656591E+03 0.  0.
        2    1    3    3  502    0  0.27494584423E+03  0.15780756293E+03 -0.50671628083E+03  0.59771216605E+03  0.25500000920E-02 0. -1.
       -2    1    3    3    0  502 -0.27494584423E+03 -0.15780756293E+03  0.17015604137E+03  0.35979372229E+03  0.25500000920E-02 0.  1.
</event>
<event>
 5   0  0.2628383E-02  0.8848924E+03  0.7818609E-02  0.9444666E-01
       -2   -1    0    0    0  501  0.00000000000E+00  0.00000000000E+00  0.16643214050E+03  0.16643214052E+03  0.25500000920E-02 0.  1.
        2   -1    0    0  501    0  0.00000000000E+00  0.00000000000E+00 -0.11762068446E+04  0.11762068446E+04  0.25500000920E-02 0. -1.
    10030    2    1    2    0    0  0.00000000000E+00  0.00000000000E+00 -0.10097747041E+04  0.13426389851E+04  0.88489236144E+03 0.  0.
        2    1    3    3  502    0 -0.15051236697E+03 -0.19499800845E+02 -0.11354752962E+04  0.11455733775E+04  0.25500000920E-02 0. -1.
       -2    1    3    3    0  502  0.15051236697E+03  0.19499800845E+02  0.12570059214E+03  0.19706560764E+03  0.25500000920E-02 0.  1.
</event>
<event>
 5   0  0.1040163E-02  0.8928007E+03  0.7818609E-02  0.9434626E-01
       -3   -1    0    0    0  501  0.00000000000E+00  0.00000000000E+00  0.39282059520E+03  0.39282060819E+03  0.10100000352E+00 0.  1.
        3   -1    0    0  501    0  0.00000000000E+00  0.00000000000E+00 -0.50728820729E+03  0.50728821734E+03  0.10100000352E+00 0. -1.
    10030    2    1    2    0    0  0.00000000000E+00  0.00000000000E+00 -0.11446761209E+03  0.90010882553E+03  0.89280068525E+03 0.  0.
        3    1    3    3  502    0  0.22829704947E+03  0.27693924773E+03 -0.32484654844E+03  0.48408695496E+03  0.10100000352E+00 0. -1.
       -3    1    3    3    0  502 -0.22829704947E+03 -0.27693924773E+03  0.21037893635E+03  0.41602187057E+03  0.10100000352E+00 0.  1.
</event>
<event>
 5   0  0.2705111E-02  0.9478581E+03  0.7818609E-02  0.9367658E-01
        2   -1    0    0  501    0  0.00000000000E+00  0.00000000000E+00  0.15248402910E+04  0.15248402910E+04  0.25500000920E-02 0. -1.
       -2   -1    0    0    0  501  0.00000000000E+00  0.00000000000E+00 -0.14729986273E+03  0.14729986276E+03  0.25500000920E-02 0.  1.
    10030    2    1    2    0    0  0.00000000000E+00  0.00000000000E+00  0.13775404283E+04  0.16721401538E+04  0.94785814462E+03 0.  0.
        4    1    3    3  502    0 -0.47089000006E+03 -0.40442663476E+02  0.62679563784E+03  0.78501425828E+03  0.12699999809E+01 0.  1.
       -4    1    3    3    0  502  0.47089000006E+03  0.40442663476E+02  0.75074479046E+03  0.88712589551E+03  0.12699999809E+01 0. -1.
</event>
<event>
 5   0  0.1040163E-02  0.8084516E+03  0.7818609E-02  0.9547864E-01
        3   -1    0    0  501    0  0.00000000000E+00  0.00000000000E+00  0.58102764756E+03  0.58102765634E+03  0.10100000352E+00 0.  1.
       -3   -1    0    0    0  501  0.00000000000E+00  0.00000000000E+00 -0.28122323893E+03  0.28122325707E+03  0.10100000352E+00 0. -1.
    10030    2    1    2    0    0  0.00000000000E+00  0.00000000000E+00  0.29980440863E+03  0.86225091341E+03  0.80845157817E+03 0.  0.
        3    1    3    3  502    0 -0.13021832859E+03 -0.37643487061E+03  0.22331942831E+03  0.45665260557E+03  0.10100000352E+00 0.  1.
       -3    1    3    3    0  502  0.13021832859E+03  0.37643487061E+03  0.76484980325E+02  0.40559830784E+03  0.10100000352E+00 0. -1.
</event>
<event>
 5   0  0.1537870E-02  0.9879412E+03  0.7818609E-02  0.9321870E-01
        1   -1    0    0  501    0  0.00000000000E+00  0.00000000000E+00  0.46231390222E+03  0.46231390225E+03  0.50400001928E-02 0.  1.
       -1   -1    0    0    0  501  0.00000000000E+00  0.00000000000E+00 -0.52779501719E+03  0.52779501721E+03  0.50400001928E-02 0. -1.
    10030    2    1    2    0    0  0.00000000000E+00  0.00000000000E+00 -0.65481114962E+02  0.99010891946E+03  0.98794124116E+03 0.  0.
        5    1    3    3  502    0 -0.35052533080E+02 -0.73711901843E+01 -0.52646930907E+03  0.52770734115E+03  0.46999998093E+01 0. -1.
       -5    1    3    3    0  502  0.35052533080E+02  0.73711901843E+01  0.46098819410E+03  0.46240157831E+03  0.46999998093E+01 0.  1.
</event>
<event>
 5   0  0.1559275E-02  0.9100995E+03  0.7818609E-02  0.9413044E-01
       -1   -1    0    0    0  501  0.00000000000E+00  0.00000000000E+00  0.42493502144E+03  0.42493502146E+03  0.50400001928E-02 0.  1.
        1   -1    0    0  501    0  0.00000000000E+00  0.00000000000E+00 -0.48729870240E+03  0.48729870243E+03  0.50400001928E-02 0. -1.
    10030    2    1    2    0    0  0.00000000000E+00  0.00000000000E+00 -0.62363680964E+02  0.91223372389E+03  0.91009952110E+03 0.  0.
        1    1    3    3  502    0 -0.23960913799E+03  0.24653084529E+03 -0.33000892922E+03  0.47654579012E+03  0.50400001928E-02 0. -1.
       -1    1    3    3    0  502  0.23960913799E+03 -0.24653084529E+03  0.26764524826E+03  0.43568793377E+03  0.50400001928E-02 0.  1.
</event>
<event>
 5   0  0.1459111E-02  0.9921525E+03  0.7818609E-02  0.9317194E-01
       -1   -1    0    0    0  501  0.00000000000E+00  0.00000000000E+00  0.57207902972E+03  0.57207902974E+03  0.50400001928E-02 0.  1.
        1   -1    0    0  501    0  0.00000000000E+00  0.00000000000E+00 -0.43017072951E+03  0.43017072954E+03  0.50400001928E-02 0. -1.
    10030    2    1    2    0    0  0.00000000000E+00  0.00000000000E+00  0.14190830021E+03  0.10022497593E+04  0.99215251565E+03 0.  0.
        2    1    3    3  502    0 -0.81120790025E+02 -0.31695365903E+03 -0.30573688296E+03  0.44778928768E+03  0.25500000920E-02 0. -1.
       -2    1    3    3    0  502  0.81120790025E+02  0.31695365903E+03  0.44764518317E+03  0.55446047160E+03  0.25500000920E-02 0.  1.
</event>
<event>
 5   0  0.2803717E-02  0.8701207E+03  0.7818609E-02  0.9463723E-01
       -2   -1    0    0    0  501  0.00000000000E+00  0.00000000000E+00  0.37297090576E+03  0.37297090577E+03  0.25500000920E-02 0.  1.
        2   -1    0    0  501    0  0.00000000000E+00  0.00000000000E+00 -0.50748595500E+03  0.50748595501E+03  0.25500000920E-02 0. -1.
    10030    2    1    2    0    0  0.00000000000E+00  0.00000000000E+00 -0.13451504924E+03  0.88045686078E+03  0.87012067279E+03 0.  0.
        5    1    3    3  502    0 -0.98762677872E+02  0.84777600796E+02  0.35278088040E+03  0.37605551148E+03  0.46999998093E+01 0.  1.
       -5    1    3    3    0  502  0.98762677872E+02 -0.84777600796E+02 -0.48729592964E+03  0.50440134931E+03  0.46999998093E+01 0. -1.
</event>
<event>
 5   0  0.1497410E-02  0.8783232E+03  0.7818609E-02  0.9453092E-01
       -1   -1    0    0    0  501  0.00000000000E+00  0.00000000000E+00  0.13606489656E+03  0.13606489666E+03  0.50400001928E-02 0. -1.
        1   -1    0    0  501    0  0.00000000000E+00  0.00000000000E+00 -0.14174332718E+04  0.14174332718E+04  0.50400001928E-02 0.  1.
    10030    2    1    2    0    0  0.00000000000E+00  0.00000000000E+00 -0.12813683753E+04  0.15534981685E+04  0.87832320155E+03 0.  0.
        3    1    3    3  502    0  0.20933116037E+03  0.31537018753E+03 -0.24683350762E+03  0.45189012002E+03  0.10100000352E+00 0. -1.
       -3    1    3    3    0  502 -0.20933116037E+03 -0.31537018753E+03 -0.10345348676E+04  0.11016080485E+04  0.10100000352E+00 0.  1.
</event>
<event>
 5   0  0.1459111E-02  0.8611721E+03  0.7818609E-02  0.9475464E-01
       -1   -1    0    0    0  501  0.00000000000E+00  0.00000000000E+00  0.28536458886E+03  0.28536458890E+03  0.50400001928E-02 0. -1.
        1   -1    0    0  501    0  0.00000000000E+00  0.00000000000E+00 -0.64971037216E+03  0.64971037218E+03  0.50400001928E-02 0.  1.
    10030    2    1    2    0    0  0.00000000000E+00  0.00000000000E+00 -0.36434578330E+03  0.93507496108E+03  0.86117206935E+03 0.  0.
        2    1    3    3  502    0  0.13741524791E+03  0.21999987525E+03  0.19100925140E+03  0.32212952301E+03  0.25500000920E-02 0. -1.
       -2    1    3    3    0  502 -0.13741524791E+03 -0.21999987525E+03 -0.55535503470E+03  0.61294543807E+03  0.25500000920E-02 0.  1.
</event>
<event>
 5   0  0.2414128E-02  0.9122444E+03  0.7818609E-02  0.9410403E-01
       -2   -1    0    0    0  501  0.00000000000E+00  0.00000000000E+00  0.14182205143E+04  0.14182205143E+04  0.25500000920E-02 0.  1.
        2   -1    0    0  501    0  0.00000000000E+00  0.00000000000E+00 -0.14669612802E+03  0.14669612804E+03  0.25500000920E-02 0. -1.
    10030    2    1    2    0    0  0.00000000000E+00  0.00000000000E+00  0.12715243863E+04  0.15649166424E+04  0.91224439301E+03 0.  0.
        3    1    3    3  502    0 -0.28341448902E+03 -0.18298933166E+03  0.10914580166E+03  0.35457253744E+03  0.10100000352E+00 0. -1.
       -3    1    3    3    0  502  0.28341448902E+03  0.18298933166E+03  0.11623785846E+04  0.12103441049E+04  0.10100000352E+00 0.  1.
</event>
<event>
 5   0  0.1497410E-02  0.9484633E+03  0.7818609E-02  0.9366949E-01
        1   -1    0    0  501    0  0.00000000000E+00  0.00000000000E+00  0.62969448006E+03  0.62969448008E+03  0.50400001928E-02 0.  1.
       -1   -1    0    0    0  501  0.00000000000E+00  0.00000000000E+00 -0.35715041207E+03  0.35715041210E+03  0.50400001928E-02 0. -1.
    10030    2    1    2    0    0  0.00000000000E+00  0.00000000000E+00  0.27254406799E+03  0.98684489218E+03  0.94846326878E+03 0.  0.
        3    1    3    3  502    0  0.18650576954E+03 -0.89298757529E+02 -0.30777341771E+03  0.37078721259E+03  0.10100000352E+00 0. -1.
       -3    1    3    3    0  502 -0.18650576954E+03  0.89298757529E+02  0.58031748570E+03  0.61605767959E+03  0.10100000352E+00 0.  1.
</event>
<event>
 5   0  0.1497410E-02  0.6910595E+03  0.7818609E-02  0.9732645E-01
        1   -1    0    0  501    0  0.00000000000E+00  0.00000000000E+00  0.13715510991E+04  0.13715510992E+04  0.50400001928E-02 0.  1.
       -1   -1    0    0    0  501  0.00000000000E+00  0.00000000000E+00 -0.87048012276E+02  0.87048012422E+02  0.50400001928E-02 0. -1.
    10030    2    1    2    0    0  0.00000000000E+00  0.00000000000E+00  0.12845030869E+04  0.14585991116E+04  0.69105946785E+03 0.  0.
        3    1    3    3  502    0 -0.32672418332E+02 -0.28127401811E+03  0.22431617719E+03  0.36124827714E+03  0.10100000352E+00 0. -1.
       -3    1    3    3    0  502  0.32672418332E+02  0.28127401811E+03  0.10601869097E+04  0.10973508344E+04  0.10100000352E+00 0.  1.
</event>
<event>
 5   0  0.1559275E-02  0.8848564E+03  0.7818609E-02  0.9444712E-01
        1   -1    0    0  501    0  0.00000000000E+00  0.00000000000E+00  0.78808855535E+03  0.78808855537E+03  0.50400001928E-02 0. -1.
       -1   -1    0    0    0  501  0.00000000000E+00  0.00000000000E+00 -0.24837655136E+03  0.24837655142E+03  0.50400001928E-02 0.  1.
    10030    2    1    2    0    0  0.00000000000E+00  0.00000000000E+00  0.53971200399E+03  0.10364651068E+04  0.88485641227E+03 0.  0.
        1    1    3    3  502    0  0.18478033112E+03  0.56472331717E+02  0.73605671908E+03  0.76099434212E+03  0.50400001928E-02 0. -1.
       -1    1    3    3    0  502 -0.18478033112E+03 -0.56472331717E+02 -0.19634471509E+03  0.27547076467E+03  0.50400001928E-02 0.  1.
</event>
<event>
 5   0  0.1040163E-02  0.8810817E+03  0.7818609E-02  0.9449544E-01
        4   -1    0    0  501    0  0.00000000000E+00  0.00000000000E+00  0.45911264107E+03  0.45911439761E+03  0.12699999809E+01 0. -1.
       -4   -1    0    0    0  501  0.00000000000E+00  0.00000000000E+00 -0.42271679541E+03  0.42271870318E+03  0.12699999809E+01 0.  1.
    10030    2    1    2    0    0  0.00000000000E+00  0.00000000000E+00  0.36395845665E+02  0.88183310079E+03  0.88108169886E+03 0.  0.
        2    1    3    3  502    0  0.13501055797E+03  0.40806431657E+03 -0.78486235128E+02  0.43692611083E+03  0.25500000920E-02 0.  1.
       -2    1    3    3    0  502 -0.13501055797E+03 -0.40806431657E+03  0.11488208079E+03  0.44490698996E+03  0.25500000920E-02 0. -1.
</event>
<event>
 5   0  0.1560728E-02  0.8827560E+03  0.7818609E-02  0.9447398E-01
        1   -1    0    0  501    0  0.00000000000E+00  0.00000000000E+00  0.11938033907E+04  0.11938033907E+04  0.50400001928E-02 0. -1.
       -1   -1    0    0    0  501  0.00000000000E+00  0.00000000000E+00 -0.16318813037E+03  0.16318813045E+03  0.50400001928E-02 0.  1.
    10030    2    1    2    0    0  0.00000000000E+00  0.00000000000E+00  0.10306152603E+04  0.13569915211E+04  0.88275601026E+03 0.  0.
        4    1    3    3  502    0 -0.34288747965E+03  0.85012311940E+02  0.10855634077E+03  0.36957409123E+03  0.12699999809E+01 0.  1.
       -4    1    3    3    0  502  0.34288747965E+03 -0.85012311940E+02  0.92205891954E+03  0.98741742991E+03  0.12699999809E+01 0. -1.
</event>
<event>
 5   0  0.1459111E-02  0.9467817E+03  0.7818609E-02  0.9368920E-01
        1   -1    0    0  501    0  0.00000000000E+00  0.00000000000E+00  0.43753896048E+03  0.43753896051E+03  0.50400001928E-02 0.  1.
       -1   -1    0    0    0  501  0.00000000000E+00  0.00000000000E+00 -0.51218045512E+03  0.51218045515E+03  0.50400001928E-02 0. -1.
    10030    2    1    2    0    0  0.00000000000E+00  0.00000000000E+00 -0.74641494642E+02  0.94971941566E+03  0.94678171495E+03 0.  0.
        2    1    3    3  502    0 -0.26591345869E+03  0.31594611096E+03  0.19484282739E+03  0.45661322794E+03  0.25500000920E-02 0.  1.
       -2    1    3    3    0  502  0.26591345869E+03 -0.31594611096E+03 -0.26948432203E+03  0.49310618772E+03  0.25500000920E-02 0. -1.
</event>
<event>
 5   0  0.2414128E-02  0.8907032E+03  0.7818609E-02  0.9437278E-01
        2   -1    0    0  501    0  0.00000000000E+00  0.00000000000E+00  0.15624355981E+04  0.15624355981E+04  0.25500000920E-02 0.  1.
       -2   -1    0    0    0  501  0.00000000000E+00  0.00000000000E+00 -0.12694158319E+03  0.12694158321E+03  0.25500000920E-02 0. -1.
    10030    2    1    2    0    0  0.00000000000E+00  0.00000000000E+00  0.14354940149E+04  0.16893771813E+04  0.89070320191E+03 0.  0.
        3    1    3    3  502    0  0.43779608770E+02 -0.41596831947E+03  0.10078317498E+04  0.10911787860E+04  0.10100000352E+00 0. -1.
       -3    1    3    3    0  502 -0.43779608770E+02  0.41596831947E+03  0.42766226513E+03  0.59819839532E+03  0.10100000352E+00 0.  1.
</event>
<event>
 5   0  0.2705111E-02  0.9289667E+03  0.7818609E-02  0.9390079E-01
        2   -1    0    0  501    0  0.00000000000E+00  0.00000000000E+00  0.98119157538E+03  0.98119157538E+03  0.25500000920E-02 0. -1.
       -2   -1    0    0    0  501  0.00000000000E+00  0.00000000000E+00 -0.21988038898E+03  0.21988038899E+03  0.25500000920E-02 0.  1.
    10030    2    1    2    0    0  0.00000000000E+00  0.00000000000E+00  0.76131118640E+03  0.12010719644E+04  0.92896670611E+03 0.  0.
        4    1    3    3  502    0  0.17437437833E+03  0.38320306730E+03  0.63431735759E+03  0.76132196714E+03  0.12699999809E+01 0.  1.
       -4    1    3    3    0  502 -0.17437437833E+03 -0.38320306730E+03  0.12699382881E+03  0.43974999723E+03  0.12699999809E+01 0. -1.
</event>
<event>
 5   0  0.2705111E-02  0.9466286E+03  0.7818609E-02  0.9369100E-01
       -2   -1    0    0    0  501  0.00000000000E+00  0.00000000000E+00  0.40218340011E+03  0.40218340012E+03  0.25500000920E-02 0.  1.
        2   -1    0    0  501    0  0.00000000000E+00  0.00000000000E+00 -0.55702550582E+03  0.55702550582E+03  0.25500000920E-02 0. -1.
    10030    2    1    2    0    0  0.00000000000E+00  0.00000000000E+00 -0.15484210570E+03  0.95920890595E+03  0.94662856895E+03 0.  0.
        4    1    3    3  502    0 -0.50269194583E+02  0.41836257580E+03  0.14101411398E+03  0.44434314443E+03  0.12699999809E+01 0. -1.
       -4    1    3    3    0  502  0.50269194583E+02 -0.41836257580E+03 -0.29585621969E+03  0.51486576152E+03  0.12699999809E+01 0.  1.
</event>
<event>
 5   0  0.1537870E-02  0.9011344E+03  0.7818609E-02  0.9424164E-01
        1   -1    0    0  501    0  0.00000000000E+00  0.00000000000E+00  0.57719393185E+03  0.57719393187E+03  0.50400001928E-02 0.  1.
       -1   -1    0    0    0  501  0.00000000000E+00  0.00000000000E+00 -0.35172027027E+03  0.35172027030E+03  0.50400001928E-02 0. -1.
    10030    2    1    2    0    0  0.00000000000E+00  0.00000000000E+00  0.22547366158E+03  0.92891420218E+03  0.90113440892E+03 0.  0.
        5    1    3    3  502    0 -0.24944443496E+03  0.36240549225E+03  0.12643266842E+02  0.44016157163E+03  0.46999998093E+01 0. -1.
       -5    1    3    3    0  502  0.24944443496E+03 -0.36240549225E+03  0.21283039474E+03  0.48875263055E+03  0.46999998093E+01 0.  1.
</event>
<event>
 5   0  0.1497410E-02  0.9271308E+03  0.7818609E-02  0.9392288E-01
       -1   -1    0    0    0  501  0.00000000000E+00  0.00000000000E+00  0.57977638794E+03  0.57977638796E+03  0.50400001928E-02 0. -1.
        1   -1    0    0  501    0  0.00000000000E+00  0.00000000000E+00 -0.37064784787E+03  0.37064784790E+03  0.50400001928E-02 0.  1.
    10030    2    1    2    0    0  0.00000000000E+00  0.00000000000E+00  0.20912854007E+03  0.95042423587E+03  0.92713077926E+03 0.  0.
        3    1    3    3  502    0 -0.22431351760E+02  0.37431680316E+02  0.57766611958E+03  0.57931205075E+03  0.10100000352E+00 0. -1.
       -3    1    3    3    0  502  0.22431351760E+02 -0.37431680316E+02 -0.36853757951E+03  0.37111218512E+03  0.10100000352E+00 0.  1.
</event>
<event>
 5   0  0.2705111E-02  0.9149527E+03  0.7818609E-02  0.9407081E-01
        2   -1    0    0  501    0  0.00000000000E+00  0.00000000000E+00  0.77346235420E+03  0.77346235421E+03  0.25500000920E-02 0. -1.
       -2   -1    0    0    0  501  0.00000000000E+00  0.00000000000E+00 -0.27058148916E+03  0.27058148917E+03  0.25500000920E-02 0.  1.
    10030    2    1    2    0    0  0.00000000000E+00  0.00000000000E+00  0.50288086504E+03  0.10440438434E+04  0.91495266679E+03 0.  0.
        4    1    3    3  502    0  0.25840045684E+03 -0.29172943845E+03  0.52484087420E+03  0.65370973488E+03  0.12699999809E+01 0. -1.
       -4    1    3    3    0  502 -0.25840045684E+03  0.29172943845E+03 -0.21960009155E+02  0.39033410849E+03  0.12699999809E+01 0.  1.
</event>
<event>
 5   0  0.1040163E-02  0.8872062E+03  0.7818609E-02  0.9441717E-01
       -3   -1    0    0    0  501  0.00000000000E+00  0.00000000000E+00  0.61677199099E+03  0.61677199926E+03  0.10100000352E+00 0. -1.
        3   -1    0    0  501    0  0.00000000000E+00  0.00000000000E+00 -0.31905423754E+03  0.31905425353E+03  0.10100000352E+00 0.  1.
    10030    2    1    2    0    0  0.00000000000E+00  0.00000000000E+00  0.29771775345E+03  0.93582625279E+03  0.88720624135E+03 0.  0.
        3    1    3    3  502    0 -0.40694582494E+03  0.26272030382E+02  0.33303754895E+03  0.52650654624E+03  0.10100000352E+00 0. -1.
       -3    1    3    3    0  502  0.40694582494E+03 -0.26272030382E+02 -0.35319795498E+02  0.40931970655E+03  0.10100000352E+00 0.  1.
</event>
<event>
 5   0  0.2803717E-02  0.9222178E+03  0.7818609E-02  0.9398226E-01
       -2   -1    0    0    0  501  0.00000000000E+00  0.00000000000E+00  0.92719716646E+03  0.92719716646E+03  0.25500000920E-02 0. -1.
        2   -1    0    0  501    0  0.00000000000E+00  0.00000000000E+00 -0.22931629620E+03  0.22931629622E+03  0.25500000920E-02 0.  1.
    10030    2    1    2    0    0  0.00000000000E+00  0.00000000000E+00  0.69788087026E+03  0.11565134627E+04  0.92221780523E+03 0.  0.
        5    1    3    3  502    0  0.12035931175E+03 -0.22252703146E+03  0.83235399652E+03  0.86996546436E+03  0.46999998093E+01 0. -1.
       -5    1    3    3    0  502 -0.12035931175E+03  0.22252703146E+03 -0.13447312627E+03  0.28654799832E+03  0.46999998093E+01 0.  1.
</event>
<event>
 5   0  0.1537870E-02  0.9011578E+03  0.7818609E-02  0.9424135E-01
        1   -1    0    0  501    0  0.00000000000E+00  0.00000000000E+00  0.21892621290E+03  0.21892621296E+03  0.50400001928E-02 0. -1.
       -1   -1    0    0    0  501  0.00000000000E+00  0.00000000000E+00 -0.92735045352E+03  0.92735045353E+03  0.50400001928E-02 0.  1.
    10030    2    1    2    0    0  0.00000000000E+00  0.00000000000E+00 -0.70842424062E+03  0.11462766665E+04  0.90115775058E+03 0.  0.
        5    1    3    3  502    0  0.33740570589E+02  0.28124425570E+03 -0.79989037861E+03  0.84857731838E+03  0.46999998093E+01 0. -1.
       -5    1    3    3    0  502 -0.33740570589E+02 -0.28124425570E+03  0.91466137997E+02  0.29769934811E+03  0.46999998093E+01 0.  1.
</event>
<event>
 5   0  0.1497410E-02  0.8610624E+03  0.7818609E-02  0.9475609E-01
        1   -1    0    0  501    0  0.00000000000E+00  0.00000000000E+00  0.63940047706E+03  0.63940047708E+03  0.50400001928E-02 0. -1.
       -1   -1    0    0    0  501  0.00000000000E+00  0.00000000000E+00 -0.28989203381E+03  0.28989203385E+03  0.50400001928E-02 0.  1.
    10030    2    1    2    0    0  0.00000000000E+00  0.00000000000E+00  0.34950844325E+03  0.92929251094E+03  0.86106237810E+03 0.  0.
        3    1    3    3  502    0  0.24903824478E+03 -0.34403597876E+03  0.25088684113E+03  0.49327985900E+03  0.10100000352E+00 0. -1.
       -3    1    3    3    0  502 -0.24903824478E+03  0.34403597876E+03  0.98621602121E+02  0.43601265194E+03  0.10100000352E+00 0.  1.
</event>
<event>
 5   0  0.2628383E-02  0.4858098E+03  0.7818609E-02  0.1017551E+00
       -2   -1    0    0    0  501  0.00000000000E+00  0.00000000000E+00  0.11196011285E+03  0.11196011288E+03  0.25500000920E-02 0.  1.
        2   -1    0    0  501    0  0.00000000000E+00  0.00000000000E+00 -0.52699826632E+03  0.52699826633E+03  0.25500000920E-02 0. -1.
    10030    2    1    2    0    0  0.00000000000E+00  0.00000000000E+00 -0.41503815348E+03  0.63895837921E+03  0.48580977915E+03 0.  0.
        2    1    3    3  502    0 -0.12173002364E+03 -0.83425207141E+02 -0.46127876330E+03  0.48430988150E+03  0.25500000920E-02 0. -1.
       -2    1    3    3    0  502  0.12173002364E+03  0.83425207141E+02  0.46240609821E+02  0.15464849771E+03  0.25500000920E-02 0.  1.
</event>
<event>
 5   0  0.2803717E-02  0.8037916E+03  0.7818609E-02  0.9554545E-01
        2   -1    0    0  501    0  0.00000000000E+00  0.00000000000E+00  0.17264213896E+03  0.17264213898E+03  0.25500000920E-02 0. -1.
       -2   -1    0    0    0  501  0.00000000000E+00  0.00000000000E+00 -0.93557830151E+03  0.93557830151E+03  0.25500000920E-02 0.  1.
    10030    2    1    2    0    0  0.00000000000E+00  0.00000000000E+00 -0.76293616255E+03  0.11082204405E+04  0.80379161267E+03 0.  0.
        5    1    3    3  502    0 -0.18155195172E+03  0.34534690778E+03 -0.51423268623E+03  0.64550983221E+03  0.46999998093E+01 0.  1.
       -5    1    3    3    0  502  0.18155195172E+03 -0.34534690778E+03 -0.24870347631E+03  0.46271060828E+03  0.46999998093E+01 0. -1.
</event>
<event>
 5   0  0.2679861E-02  0.9501903E+03  0.7818609E-02  0.9364928E-01
        2   -1    0    0  501    0  0.00000000000E+00  0.00000000000E+00  0.72139267189E+03  0.72139267189E+03  0.25500000920E-02 0.  1.
       -2   -1    0    0    0  501  0.00000000000E+00  0.00000000000E+00 -0.31288839208E+03  0.31288839209E+03  0.25500000920E-02 0. -1.
    10030    2    1    2    0    0  0.00000000000E+00  0.00000000000E+00  0.40850427981E+03  0.10342810640E+04  0.95019028236E+03 0.  0.
        1    1    3    3  502    0  0.67349453254E+02 -0.27720434057E+03  0.61779175942E+03  0.68047399165E+03  0.50400001928E-02 0.  1.
       -1    1    3    3    0  502 -0.67349453254E+02  0.27720434057E+03 -0.20928747961E+03  0.35380707233E+03  0.50400001928E-02 0. -1.
</event>
<event>
 5   0  0.2705111E-02  0.9014913E+03  0.7818609E-02  0.9423719E-01
       -2   -1    0    0    0  501  0.00000000000E+00  0.00000000000E+00  0.23469729547E+03  0.23469729548E+03  0.25500000920E-02 0.  1.
        2   -1    0    0  501    0  0.00000000000E+00  0.00000000000E+00 -0.86567519872E+03  0.86567519873E+03  0.25500000920E-02 0. -1.
    10030    2    1    2    0    0  0.00000000000E+00  0.00000000000E+00 -0.63097790326E+03  0.11003724942E+04  0.90149127096E+03 0.  0.
        4    1    3    3  502    0 -0.15395180131E+03  0.41869856587E+03 -0.39421965227E+03  0.59533217058E+03  0.12699999809E+01 0. -1.
       -4    1    3    3    0  502  0.15395180131E+03 -0.41869856587E+03 -0.23675825099E+03  0.50504032364E+03  0.12699999809E+01 0.  1.
</event>
<event>
 5   0  0.2803717E-02  0.8966199E+03  0.7818609E-02  0.9429817E-01
        2   -1    0    0  501    0  0.00000000000E+00  0.00000000000E+00  0.13114827301E+04  0.13114827301E+04  0.25500000920E-02 0. -1.
       -2   -1    0    0    0  501  0.00000000000E+00  0.00000000000E+00 -0.15324777006E+03  0.15324777008E+03  0.25500000920E-02 0.  1.
    10030    2    1    2    0    0  0.00000000000E+00  0.00000000000E+00  0.11582349601E+04  0.14647305002E+04  0.89661988351E+03 0.  0.
        5    1    3    3  502    0  0.38832621582E+03  0.14252579239E+03  0.86135402829E+03  0.95554366904E+03  0.46999998093E+01 0. -1.
       -5    1    3    3    0  502 -0.38832621582E+03 -0.14252579239E+03  0.29688093179E+03  0.50918683118E+03  0.46999998093E+01 0.  1.
</event>
<event>
 5   0  0.2414128E-02  0.9038138E+03  0.7818609E-02  0.9420826E-01
       -2   -1    0    0    0  501  0.00000000000E+00  0.00000000000E+00  0.76387920286E+02  0.76387920328E+02  0.25500000920E-02 0. -1.
        2   -1    0    0  501    0  0.00000000000E+00  0.00000000000E+00 -0.26734573954E+04  0.26734573954E+04  0.25500000920E-02 0.  1.
    10030    2    1    2    0    0  0.00000000000E+00  0.00000000000E+00 -0.25970694751E+04  0.27498453157E+04  0.90381380930E+03 0.  0.
        3    1    3    3  502    0  0.31947494982E+03  0.20593937812E+03 -0.55486773946E+03  0.67257229315E+03  0.10100000352E+00 0. -1.
       -3    1    3    3    0  502 -0.31947494982E+03 -0.20593937812E+03 -0.20422017357E+04  0.20772730226E+04  0.10100000352E+00 0.  1.
</event>
<event>
 5   0  0.1459111E-02  0.9042511E+03  0.7818609E-02  0.9420283E-01
        1   -1    0    0  501    0  0.00000000000E+00  0.00000000000E+00  0.11598572505E+04  0.11598572505E+04  0.50400001928E-02 0. -1.
       -1   -1    0    0    0  501  0.00000000000E+00  0.00000000000E+00 -0.17624368610E+03  0.17624368618E+03  0.50400001928E-02 0.  1.
    10030    2    1    2    0    0  0.00000000000E+00  0.00000000000E+00  0.98361356435E+03  0.13361009366E+04  0.90425110944E+03 0.  0.
        2    1    3    3  502    0 -0.27275472554E+03  0.30851856213E+03  0.21601518814E+03  0.46501763945E+03  0.25500000920E-02 0.  1.
       -2    1    3    3    0  502  0.27275472554E+03 -0.30851856213E+03  0.76759837621E+03  0.87108329719E+03  0.25500000920E-02 0. -1.
</event>
<event>
 5   0  0.2803717E-02  0.9060499E+03  0.7818609E-02  0.9418050E-01
        2   -1    0    0  501    0  0.00000000000E+00  0.00000000000E+00  0.58498851097E+03  0.58498851098E+03  0.25500000920E-02 0. -1.
       -2   -1    0    0    0  501  0.00000000000E+00  0.00000000000E+00 -0.35083016507E+03  0.35083016508E+03  0.25500000920E-02 0.  1.
    10030    2    1    2    0    0  0.00000000000E+00  0.00000000000E+00  0.23415834590E+03  0.93581867606E+03  0.90604992330E+03 0.  0.
        5    1    3    3  502    0  0.38777693403E+02  0.20598297720E+02  0.58276019221E+03  0.58443094630E+03  0.46999998093E+01 0. -1.
       -5    1    3    3    0  502 -0.38777693403E+02 -0.20598297720E+02 -0.34860184631E+03  0.35138772976E+03  0.46999998093E+01 0.  1.
</event>
<event>
 5   0  0.1537870E-02  0.9011853E+03  0.7818609E-02  0.9424101E-01
        1   -1    0    0  501    0  0.00000000000E+00  0.00000000000E+00  0.21665474105E+03  0.21665474111E+03  0.50400001928E-02 0. -1.
       -1   -1    0    0    0  501  0.00000000000E+00  0.00000000000E+00 -0.93713043217E+03  0.93713043218E+03  0.50400001928E-02 0.  1.
    10030    2    1    2    0    0  0.00000000000E+00  0.00000000000E+00 -0.72047569111E+03  0.11537851733E+04  0.90118533311E+03 0.  0.
        5    1    3    3  502    0  0.40495898343E+03  0.55932403210E+02 -0.60279066978E+03  0.72835354984E+03  0.46999998093E+01 0.  1.
       -5    1    3    3    0  502 -0.40495898343E+03 -0.55932403210E+02 -0.11768502133E+03  0.42543162345E+03  0.46999998093E+01 0. -1.
</event>
<event>
 5   0  0.1497410E-02  0.8642765E+03  0.7818609E-02  0.9471373E-01
        1   -1    0    0  501    0  0.00000000000E+00  0.00000000000E+00  0.15513396166E+03  0.15513396174E+03  0.50400001928E-02 0. -1.
       -1   -1    0    0    0  501  0.00000000000E+00  0.00000000000E+00 -0.12037561007E+04  0.12037561007E+04  0.50400001928E-02 0.  1.
    10030    2    1    2    0    0  0.00000000000E+00  0.00000000000E+00 -0.10486221391E+04  0.13588900625E+04  0.86427646698E+03 0.  0.
        3    1    3    3  502    0  0.22110322833E+03 -0.19252795366E+03 -0.25150916170E+02  0.29425538109E+03  0.10100000352E+00 0. -1.
       -3    1    3    3    0  502 -0.22110322833E+03  0.19252795366E+03 -0.10234712229E+04  0.10646346814E+04  0.10100000352E+00 0.  1.
</event>
<event>
 5   0  0.1537870E-02  0.9097409E+03  0.7818609E-02  0.9413486E-01
       -1   -1    0    0    0  501  0.00000000000E+00  0.00000000000E+00  0.32657500554E+03  0.32657500558E+03  0.50400001928E-02 0.  1.
        1   -1    0    0  501    0  0.00000000000E+00  0.00000000000E+00 -0.63356691075E+03  0.63356691077E+03  0.50400001928E-02 0. -1.
    10030    2    1    2    0    0  0.00000000000E+00  0.00000000000E+00 -0.30699190520E+03  0.96014191635E+03  0.90974088051E+03 0.  0.
        5    1    3    3  502    0  0.29296375081E+03 -0.47981180296E+02 -0.51719637648E+03  0.59635906533E+03  0.46999998093E+01 0. -1.
       -5    1    3    3    0  502 -0.29296375081E+03  0.47981180296E+02  0.21020447128E+03  0.36378285102E+03  0.46999998093E+01 0.  1.
</event>
<event>
 5   0  0.1560728E-02  0.8996309E+03  0.7818609E-02  0.9426043E-01
       -1   -1    0    0    0  501  0.00000000000E+00  0.00000000000E+00  0.13277235678E+03  0.13277235688E+03  0.50400001928E-02 0. -1.
        1   -1    0    0  501    0  0.00000000000E+00  0.00000000000E+00 -0.15239162910E+04  0.15239162910E+04  0.50400001928E-02 0.  1.
    10030    2    1    2    0    0  0.00000000000E+00  0.00000000000E+00 -0.13911439342E+04  0.16566886479E+04  0.89963094118E+03 0.  0.
        4    1    3    3  502    0  0.19597155289E+03 -0.12572484074E+03  0.13164007780E+02  0.23320911028E+03  0.12699999809E+01 0. -1.
       -4    1    3    3    0  502 -0.19597155289E+03  0.12572484074E+03 -0.14043079420E+04  0.14234795376E+04  0.12699999809E+01 0.  1.
</event>
<event>
 5   0  0.2414128E-02  0.9003163E+03  0.7818609E-02  0.9425186E-01
        2   -1    0    0  501    0  0.00000000000E+00  0.00000000000E+00  0.72165046321E+03  0.72165046321E+03  0.25500000920E-02 0. -1.
       -2   -1    0    0    0  501  0.00000000000E+00  0.00000000000E+00 -0.28080400162E+03  0.28080400163E+03  0.25500000920E-02 0.  1.
    10030    2    1    2    0    0  0.00000000000E+00  0.00000000000E+00  0.44084646159E+03  0.10024544648E+04  0.90031625077E+03 0.  0.
        3    1    3    3  502    0  0.23519466019E+03 -0.35526548492E+03  0.38220764016E+03  0.57237468790E+03  0.10100000352E+00 0. -1.
       -3    1    3    3    0  502 -0.23519466019E+03  0.35526548492E+03  0.58638821431E+02  0.43007977694E+03  0.10100000352E+00 0.  1.
</event>
<event>
 5   0  0.2803717E-02  0.8891179E+03  0.7818609E-02  0.9439288E-01
        2   -1    0    0  501    0  0.00000000000E+00  0.00000000000E+00  0.12471701385E+04  0.12471701385E+04  0.25500000920E-02 0. -1.
       -2   -1    0    0    0  501  0.00000000000E+00  0.00000000000E+00 -0.15846487662E+03  0.15846487664E+03  0.25500000920E-02 0.  1.
    10030    2    1    2    0    0  0.00000000000E+00  0.00000000000E+00  0.10887052619E+04  0.14056350151E+04  0.88911790475E+03 0.  0.
        5    1    3    3  502    0  0.33656178245E+03 -0.15296323278E+03  0.93461873280E+03  0.10050899709E+04  0.46999998093E+01 0. -1.
       -5    1    3    3    0  502 -0.33656178245E+03  0.15296323278E+03  0.15408652908E+03  0.40054504420E+03  0.46999998093E+01 0.  1.
</event>
<event>
 5   0  0.1560728E-02  0.8843658E+03  0.7818609E-02  0.9445339E-01
       -1   -1    0    0    0  501  0.00000000000E+00  0.00000000000E+00  0.10028561306E+03  0.10028561318E+03  0.50400001928E-02 0. -1.
        1   -1    0    0  501    0  0.00000000000E+00  0.00000000000E+00 -0.19496887862E+04  0.19496887862E+04  0.50400001928E-02 0.  1.
    10030    2    1    2    0    0  0.00000000000E+00  0.00000000000E+00 -0.18494031731E+04  0.20499743994E+04  0.88436584132E+03 0.  0.
        4    1    3    3  502    0 -0.14376857614E+03  0.27434747310E+02 -0.18919063457E+04  0.18975598285E+04  0.12699999809E+01 0.  1.
       -4    1    3    3    0  502  0.14376857614E+03 -0.27434747310E+02  0.42503172569E+02  0.15241457090E+03  0.12699999809E+01 0. -1.
</event>
<event>
 5   0  0.2628383E-02  0.9142702E+03  0.7818609E-02  0.9407917E-01
        2   -1    0    0  501    0  0.00000000000E+00  0.00000000000E+00  0.89862727104E+03  0.89862727104E+03  0.25500000920E-02 0.  1.
       -2   -1    0    0    0  501  0.00000000000E+00  0.00000000000E+00 -0.23254635522E+03  0.23254635524E+03  0.25500000920E-02 0. -1.
    10030    2    1    2    0    0  0.00000000000E+00  0.00000000000E+00  0.66608091581E+03  0.11311736263E+04  0.91427019331E+03 0.  0.
        2    1    3    3  502    0  0.32076096297E+03  0.32148264440E+03  0.39773072128E+03  0.60367906429E+03  0.25500000920E-02 0. -1.
       -2    1    3    3    0  502 -0.32076096297E+03 -0.32148264440E+03  0.26835019454E+03  0.52749456199E+03  0.25500000920E-02 0.  1.
</event>
<event>
 5   0  0.2628383E-02  0.9501849E+03  0.7818609E-02  0.9364934E-01
       -2   -1    0    0    0  501  0.00000000000E+00  0.00000000000E+00  0.17249727978E+03  0.17249727980E+03  0.25500000920E-02 0. -1.
        2   -1    0    0  501    0  0.00000000000E+00  0.00000000000E+00 -0.13085009598E+04  0.13085009598E+04  0.25500000920E-02 0.  1.
    10030    2    1    2    0    0  0.00000000000E+00  0.00000000000E+00 -0.11360036801E+04  0.14809982396E+04  0.95018494238E+03 0.  0.
        2    1    3    3  502    0 -0.95289588207E+02  0.45293640898E+03 -0.73501206659E+03  0.86860476296E+03  0.25500000920E-02 0. -1.
       -2    1    3    3    0  502  0.95289588207E+02 -0.45293640898E+03 -0.40099161347E+03  0.61239347668E+03  0.25500000920E-02 0.  1.
</event>
<event>
 5   0  0.1560728E-02  0.9131367E+03  0.7818609E-02  0.9409307E-01
       -1   -1    0    0    0  501  0.00000000000E+00  0.00000000000E+00  0.41602255024E+03  0.41602255027E+03  0.50400001928E-02 0.  1.
        1   -1    0    0  501    0  0.00000000000E+00  0.00000000000E+00 -0.50106582034E+03  0.50106582037E+03  0.50400001928E-02 0. -1.
    10030    2    1    2    0    0  0.00000000000E+00  0.00000000000E+00 -0.85043270099E+02  0.91708837064E+03  0.91313674868E+03 0.  0.
        4    1    3    3  502    0 -0.30810213781E+03 -0.22811889751E+03  0.20651900670E+03  0.43545019434E+03  0.12699999809E+01 0.  1.
       -4    1    3    3    0  502  0.30810213781E+03  0.22811889751E+03 -0.29156227680E+03  0.48163817630E+03  0.12699999809E+01 0. -1.
</event>
<event>
 5   0  0.2803717E-02  0.9078693E+03  0.7818609E-02  0.9415798E-01
        2   -1    0    0  501    0  0.00000000000E+00  0.00000000000E+00  0.73875909666E+03  0.73875909667E+03  0.25500000920E-02 0.  1.
       -2   -1    0    0    0  501  0.00000000000E+00  0.00000000000E+00 -0.27892268616E+03  0.27892268617E+03  0.25500000920E-02 0. -1.
    10030    2    1    2    0    0  0.00000000000E+00  0.00000000000E+00  0.45983641050E+03  0.10176817828E+04  0.90786931147E+03 0.  0.
        5    1    3    3  502    0 -0.29617913825E+03  0.26039850034E+03  0.48183456464E+03  0.62266853028E+03  0.46999998093E+01 0.  1.
       -5    1    3    3    0  502  0.29617913825E+03 -0.26039850034E+03 -0.21998154140E+02  0.39501325256E+03  0.46999998093E+01 0. -1.
</event>
<event>
 5   0  0.1040163E-02  0.9023530E+03  0.7818609E-02  0.9422645E-01
        3   -1    0    0  501    0  0.00000000000E+00  0.00000000000E+00  0.42878159313E+03  0.42878160503E+03  0.10100000352E+00 0.  1.
       -3   -1    0    0    0  501  0.00000000000E+00  0.00000000000E+00 -0.47474103363E+03  0.47474104437E+03  0.10100000352E+00 0. -1.
    10030    2    1    2    0    0  0.00000000000E+00  0.00000000000E+00 -0.45959440494E+02  0.90352264940E+03  0.90235298404E+03 0.  0.
        5    1    3    3  502    0  0.36584719498E+03  0.88541583727E+02  0.22604801886E+03  0.43909404341E+03  0.46999998093E+01 0.  1.
       -5    1    3    3    0  502 -0.36584719498E+03 -0.88541583727E+02 -0.27200745935E+03  0.46442860600E+03  0.46999998093E+01 0. -1.
</event>
<event>
 5   0  0.1497410E-02  0.9001563E+03  0.7818609E-02  0.9425386E-01
        1   -1    0    0  501    0  0.00000000000E+00  0.00000000000E+00  0.14820350124E+04  0.14820350125E+04  0.50400001928E-02 0. -1.
       -1   -1    0    0    0  501  0.00000000000E+00  0.00000000000E+00 -0.13668389572E+03  0.13668389581E+03  0.50400001928E-02 0.  1.
    10030    2    1    2    0    0  0.00000000000E+00  0.00000000000E+00  0.13453511167E+04  0.16187189083E+04  0.90015625127E+03 0.  0.
        3    1    3    3  502    0  0.79270205848E+02  0.15799703634E+03 -0.71648371195E+02  0.19073627952E+03  0.10100000352E+00 0.  1.
       -3    1    3    3    0  502 -0.79270205848E+02 -0.15799703634E+03  0.14169994879E+04  0.14279826287E+04  0.10100000352E+00 0. -1.
</event>
<event>
 5   0  0.2705111E-02  0.7205018E+03  0.7818609E-02  0.9682800E-01
        2   -1    0    0  501    0  0.00000000000E+00  0.00000000000E+00  0.10436795055E+04  0.10436795055E+04  0.25500000920E-02 0. -1.
       -2   -1    0    0    0  501  0.00000000000E+00  0.00000000000E+00 -0.12434920572E+03  0.12434920575E+03  0.25500000920E-02 0.  1.
    10030    2    1    2    0    0  0.00000000000E+00  0.00000000000E+00  0.91933029981E+03  0.11680287113E+04  0.72050181835E+03 0.  0.
        4    1    3    3  502    0  0.22126903022E+03 -0.28206083009E+03  0.51722810706E+03  0.62932092229E+03  0.12699999809E+01 0. -1.
       -4    1    3    3    0  502 -0.22126903022E+03  0.28206083009E+03  0.40210219276E+03  0.53870778900E+03  0.12699999809E+01 0.  1.
</event>
<event>
 5   0  0.1537870E-02  0.8994678E+03  0.7818609E-02  0.9426247E-01
       -1   -1    0    0    0  501  0.00000000000E+00  0.00000000000E+00  0.22185421051E+03  0.22185421056E+03  0.50400001928E-02 0. -1.
        1   -1    0    0  501    0  0.00000000000E+00  0.00000000000E+00 -0.91168242994E+03  0.91168242996E+03  0.50400001928E-02 0.  1.
    10030    2    1    2    0    0  0.00000000000E+00  0.00000000000E+00 -0.68982821944E+03  0.11335366405E+04  0.89946781103E+03 0.  0.
        5    1    3    3  502    0  0.10905709722E+03 -0.40012930573E+03 -0.12575869544E+03  0.43339849011E+03  0.46999998093E+01 0. -1.
       -5    1    3    3    0  502 -0.10905709722E+03  0.40012930573E+03 -0.56406952400E+03  0.70013815041E+03  0.46999998093E+01 0.  1.
</event>
<event>
 5   0  0.1040163E-02  0.8735324E+03  0.7818609E-02  0.9459286E-01
       -4   -1    0    0    0  501  0.00000000000E+00  0.00000000000E+00  0.12840304158E+03  0.12840932204E+03  0.12699999809E+01 0.  1.
        4   -1    0    0  501    0  0.00000000000E+00  0.00000000000E+00 -0.14856284442E+04  0.14856289871E+04  0.12699999809E+01 0. -1.
    10030    2    1    2    0    0  0.00000000000E+00  0.00000000000E+00 -0.13572254027E+04  0.16140383091E+04  0.87353240905E+03 0.  0.
        2    1    3    3  502    0  0.29915555033E+03 -0.60290009260E+02 -0.12559629217E+04  0.12925060112E+04  0.25500000920E-02 0. -1.
       -2    1    3    3    0  502 -0.29915555033E+03  0.60290009260E+02 -0.10126248101E+03  0.32153229788E+03  0.25500000920E-02 0.  1.
</event>
<event>
 5   0  0.1559275E-02  0.8613347E+03  0.7818609E-02  0.9475249E-01
       -1   -1    0    0    0  501  0.00000000000E+00  0.00000000000E+00  0.38040201876E+03  0.38040201880E+03  0.50400001928E-02 0.  1.
        1   -1    0    0  501    0  0.00000000000E+00  0.00000000000E+00 -0.48757459386E+03  0.48757459388E+03  0.50400001928E-02 0. -1.
    10030    2    1    2    0    0  0.00000000000E+00  0.00000000000E+00 -0.10717257509E+03  0.86797661268E+03  0.86133468484E+03 0.  0.
        1    1    3    3  502    0  0.25330888423E+03  0.57580746821E+01  0.29734588555E+03  0.39065729474E+03  0.50400001928E-02 0.  1.
       -1    1    3    3    0  502 -0.25330888423E+03 -0.57580746821E+01 -0.40451846064E+03  0.47731931794E+03  0.50400001928E-02 0. -1.
</event>
<event>
 5   0  0.1559275E-02  0.8967562E+03  0.7818609E-02  0.9429645E-01
       -1   -1    0    0    0  501  0.00000000000E+00  0.00000000000E+00  0.35867950274E+03  0.35867950278E+03  0.50400001928E-02 0. -1.
        1   -1    0    0  501    0  0.00000000000E+00  0.00000000000E+00 -0.56050847352E+03  0.56050847354E+03  0.50400001928E-02 0.  1.
    10030    2    1    2    0    0  0.00000000000E+00  0.00000000000E+00 -0.20182897078E+03  0.91918797632E+03  0.89675615546E+03 0.  0.
        1    1    3    3  502    0  0.43685513916E+03  0.84739465224E+02 -0.15724097141E+03  0.47196177037E+03  0.50400001928E-02 0.  1.
       -1    1    3    3    0  502 -0.43685513916E+03 -0.84739465224E+02 -0.44587999371E+02  0.44722620595E+03  0.50400001928E-02 0. -1.
</event>
<event>
 5   0  0.1497410E-02  0.8807903E+03  0.7818609E-02  0.9449918E-01
       -1   -1    0    0    0  501  0.00000000000E+00  0.00000000000E+00  0.22390893070E+03  0.22390893076E+03  0.50400001928E-02 0. -1.
        1   -1    0    0  501    0  0.00000000000E+00  0.00000000000E+00 -0.86619102347E+03  0.86619102348E+03  0.50400001928E-02 0.  1.
    10030    2    1    2    0    0  0.00000000000E+00  0.00000000000E+00 -0.64228209277E+03  0.10900999542E+04  0.88079034029E+03 0.  0.
        3    1    3    3  502    0  0.23558142890E+03 -0.29586441975E+03 -0.41879982672E+02  0.38051058811E+03  0.10100000352E+00 0. -1.
       -3    1    3    3    0  502 -0.23558142890E+03  0.29586441975E+03 -0.60040211009E+03  0.70958936613E+03  0.10100000352E+00 0.  1.
</event>
<event>
 5   0  0.2705111E-02  0.8547973E+03  0.7818609E-02  0.9483921E-01
        2   -1    0    0  501    0  0.00000000000E+00  0.00000000000E+00  0.52966900892E+03  0.52966900893E+03  0.25500000920E-02 0. -1.
       -2   -1    0    0    0  501  0.00000000000E+00  0.00000000000E+00 -0.34487500563E+03  0.34487500564E+03  0.25500000920E-02 0.  1.
    10030    2    1    2    0    0  0.00000000000E+00  0.00000000000E+00  0.18479400329E+03  0.87454401456E+03  0.85479729162E+03 0.  0.
        4    1    3    3  502    0  0.26936271363E+03  0.29455501315E+03  0.24873093543E+03  0.47030587750E+03  0.12699999809E+01 0. -1.
       -4    1    3    3    0  502 -0.26936271363E+03 -0.29455501315E+03 -0.63936932134E+02  0.40423813707E+03  0.12699999809E+01 0.  1.
</event>
<event>
 5   0  0.2679861E-02  0.8881479E+03  0.7818609E-02  0.9440520E-01
        2   -1    0    0  501    0  0.00000000000E+00  0.00000000000E+00  0.11613522693E+04  0.11613522693E+04  0.25500000920E-02 0.  1.
       -2   -1    0    0    0  501  0.00000000000E+00  0.00000000000E+00 -0.16980347813E+03  0.16980347815E+03  0.25500000920E-02 0. -1.
    10030    2    1    2    0    0  0.00000000000E+00  0.00000000000E+00  0.99154879122E+03  0.13311557475E+04  0.88814785860E+03 0.  0.
        1    1    3    3  502    0 -0.24788197665E+03 -0.18706861998E+03  0.97153769350E+03  0.10199635449E+04  0.50400001928E-02 0.  1.
       -1    1    3    3    0  502  0.24788197665E+03  0.18706861998E+03  0.20011097718E+02  0.31119220264E+03  0.50400001928E-02 0. -1.
</event>
<event>
 5   0  0.1040163E-02  0.9554995E+03  0.7818609E-02  0.9358746E-01
        4   -1    0    0  501    0  0.00000000000E+00  0.00000000000E+00  0.18709399372E+03  0.18709830408E+03  0.12699999809E+01 0. -1.
       -4   -1    0    0    0  501  0.00000000000E+00  0.00000000000E+00 -0.12199285457E+04  0.12199292067E+04  0.12699999809E+01 0.  1.
    10030    2    1    2    0    0  0.00000000000E+00  0.00000000000E+00 -0.10328345520E+04  0.14070275108E+04  0.95549945290E+03 0.  0.
        2    1    3    3  502    0 -0.10779785074E+02 -0.32805982539E+03 -0.10275989872E+04  0.10787488732E+04  0.25500000920E-02 0.  1.
       -2    1    3    3    0  502  0.10779785074E+02  0.32805982539E+03 -0.52355647365E+01  0.32827863766E+03  0.25500000920E-02 0. -1.
</event>
<event>
 5   0  0.1459111E-02  0.9001238E+03  0.7818609E-02  0.9425427E-01
        1   -1    0    0  501    0  0.00000000000E+00  0.00000000000E+00  0.45773783792E+03  0.45773783795E+03  0.50400001928E-02 0. -1.
       -1   -1    0    0    0  501  0.00000000000E+00  0.00000000000E+00 -0.44251465021E+03  0.44251465024E+03  0.50400001928E-02 0.  1.
    10030    2    1    2    0    0  0.00000000000E+00  0.00000000000E+00  0.15223187711E+02  0.90025248818E+03  0.90012376762E+03 0.  0.
        2    1    3    3  502    0  0.32407600610E+01 -0.41713714213E+03 -0.16135575536E+03  0.44726902158E+03  0.25500000920E-02 0. -1.
       -2    1    3    3    0  502 -0.32407600610E+01  0.41713714213E+03  0.17657894307E+03  0.45298346660E+03  0.25500000920E-02 0.  1.
</event>
<event>
 5   0  0.1040163E-02  0.6432036E+03  0.7818609E-02  0.9819616E-01
       -3   -1    0    0    0  501  0.00000000000E+00  0.00000000000E+00  0.36589365251E+03  0.36589366645E+03  0.10100000352E+00 0.  1.
        3   -1    0    0  501    0  0.00000000000E+00  0.00000000000E+00 -0.28267151793E+03  0.28267153597E+03  0.10100000352E+00 0. -1.
    10030    2    1    2    0    0  0.00000000000E+00  0.00000000000E+00  0.83222134581E+02  0.64856520242E+03  0.64320362103E+03 0.  0.
        3    1    3    3  502    0 -0.12344577211E+03  0.28081984668E+03  0.13900330055E+03  0.33677970946E+03  0.10100000352E+00 0.  1.
       -3    1    3    3    0  502  0.12344577211E+03 -0.28081984668E+03 -0.55781165973E+02  0.31178549296E+03  0.10100000352E+00 0. -1.
</event>
<event>
 5   0  0.1537870E-02  0.1017831E+04  0.7818609E-02  0.9289202E-01
        1   -1    0    0  501    0  0.00000000000E+00  0.00000000000E+00  0.23577027806E+03  0.23577027812E+03  0.50400001928E-02 0. -1.
       -1   -1    0    0    0  501  0.00000000000E+00  0.00000000000E+00 -0.10985052572E+04  0.10985052572E+04  0.50400001928E-02 0.  1.
    10030    2    1    2    0    0  0.00000000000E+00  0.00000000000E+00 -0.86273497917E+03  0.13342755354E+04  0.10178308111E+04 0.  0.
        5    1    3    3  502    0  0.17773553449E+03 -0.27285472865E+03 -0.94401728067E+03  0.99861420947E+03  0.46999998093E+01 0.  1.
       -5    1    3    3    0  502 -0.17773553449E+03  0.27285472865E+03  0.81282301496E+02  0.33566132589E+03  0.46999998093E+01 0. -1.
</event>
<event>
 5   0  0.2705111E-02  0.9023320E+03  0.7818609E-02  0.9422671E-01
        2   -1    0    0  501    0  0.00000000000E+00  0.00000000000E+00  0.19150962341E+03  0.19150962343E+03  0.25500000920E-02 0.  1.
       -2   -1    0    0    0  501  0.00000000000E+00  0.00000000000E+00 -0.10628748143E+04  0.10628748143E+04  0.25500000920E-02 0. -1.
    10030    2    1    2    0    0  0.00000000000E+00  0.00000000000E+00 -0.87136519085E+03  0.12543844377E+04  0.90233199085E+03 0.  0.
        4    1    3    3  502    0 -0.12229921095E+03 -0.45343230388E+02  0.16472430563E+03  0.21011619478E+03  0.12699999809E+01 0.  1.
       -4    1    3    3    0  502  0.12229921095E+03  0.45343230388E+02 -0.10360894965E+04  0.10442682429E+04  0.12699999809E+01 0. -1.
</event>
<event>
 5   0  0.1497410E-02  0.9143133E+03  0.7818609E-02  0.9407864E-01
        1   -1    0    0  501    0  0.00000000000E+00  0.00000000000E+00  0.24152424148E+03  0.24152424154E+03  0.50400001928E-02 0. -1.
       -1   -1    0    0    0  501  0.00000000000E+00  0.00000000000E+00 -0.86530522895E+03  0.86530522896E+03  0.50400001928E-02 0.  1.
    10030    2    1    2    0    0  0.00000000000E+00  0.00000000000E+00 -0.62378098746E+03  0.11068294705E+04  0.91431327041E+03 0.  0.
        3    1    3    3  502    0 -0.24406325957E+03 -0.17749205919E+03  0.10381223530E+03  0.31913523175E+03  0.10100000352E+00 0. -1.
       -3    1    3    3    0  502  0.24406325957E+03  0.17749205919E+03 -0.72759322276E+03  0.78769423875E+03  0.10100000352E+00 0.  1.
</event>
<event>
 5   0  0.2705111E-02  0.5577729E+03  0.7818609E-02  0.9997107E-01
       -2   -1    0    0    0  501  0.00000000000E+00  0.00000000000E+00  0.63329087271E+02  0.63329087322E+02  0.25500000920E-02 0.  1.
        2   -1    0    0  501    0  0.00000000000E+00  0.00000000000E+00 -0.12281503752E+04  0.12281503752E+04  0.25500000920E-02 0. -1.
    10030    2    1    2    0    0  0.00000000000E+00  0.00000000000E+00 -0.11648212879E+04  0.12914794625E+04  0.55777286534E+03 0.  0.
        4    1    3    3  502    0 -0.25350750535E+03 -0.11200565063E+03 -0.51049420932E+03  0.58087629638E+03  0.12699999809E+01 0.  1.
       -4    1    3    3    0  502  0.25350750535E+03  0.11200565063E+03 -0.65432707861E+03  0.71060316615E+03  0.12699999809E+01 0. -1.
</event>
<event>
 5   0  0.1559275E-02  0.8703198E+03  0.7818609E-02  0.9463463E-01
        1   -1    0    0  501    0  0.00000000000E+00  0.00000000000E+00  0.64046324268E+03  0.64046324270E+03  0.50400001928E-02 0. -1.
       -1   -1    0    0    0  501  0.00000000000E+00  0.00000000000E+00 -0.29566744085E+03  0.29566744089E+03  0.50400001928E-02 0.  1.
    10030    2    1    2    0    0  0.00000000000E+00  0.00000000000E+00  0.34479580183E+03  0.93613068359E+03  0.87031977560E+03 0.  0.
        1    1    3    3  502    0 -0.40607299416E+02 -0.67300279383E+02  0.63276426775E+03  0.63762755503E+03  0.50400001928E-02 0. -1.
       -1    1    3    3    0  502  0.40607299416E+02  0.67300279383E+02 -0.28796846592E+03  0.29850312856E+03  0.50400001928E-02 0.  1.
</event>
<event>
 5   0  0.1559275E-02  0.8717734E+03  0.7818609E-02  0.9461571E-01
       -1   -1    0    0    0  501  0.00000000000E+00  0.00000000000E+00  0.24600840771E+03  0.24600840776E+03  0.50400001928E-02 0.  1.
        1   -1    0    0  501    0  0.00000000000E+00  0.00000000000E+00 -0.77232002532E+03  0.77232002534E+03  0.50400001928E-02 0. -1.
    10030    2    1    2    0    0  0.00000000000E+00  0.00000000000E+00 -0.52631161761E+03  0.10183284331E+04  0.87177341025E+03 0.  0.
        1    1    3    3  502    0  0.22976550297E+03  0.35048570082E+03 -0.12315383880E+03  0.43680577019E+03  0.50400001928E-02 0.  1.
       -1    1    3    3    0  502 -0.22976550297E+03 -0.35048570082E+03 -0.40315777881E+03  0.58152266291E+03  0.50400001928E-02 0. -1.
</event>
<event>
 5   0  0.2705111E-02  0.9034817E+03  0.7818609E-02  0.9421240E-01
       -2   -1    0    0    0  501  0.00000000000E+00  0.00000000000E+00  0.50565767020E+03  0.50565767020E+03  0.25500000920E-02 0. -1.
        2   -1    0    0  501    0  0.00000000000E+00  0.00000000000E+00 -0.40357301838E+03  0.40357301839E+03  0.25500000920E-02 0.  1.
    10030    2    1    2    0    0  0.00000000000E+00  0.00000000000E+00  0.10208465182E+03  0.90923068859E+03  0.90348169264E+03 0.  0.
        4    1    3    3  502    0  0.10979896373E+02 -0.90613409943E+02 -0.39419442561E+03  0.40462600790E+03  0.12699999809E+01 0.  1.
       -4    1    3    3    0  502 -0.10979896373E+02  0.90613409943E+02  0.49627907743E+03  0.50460468069E+03  0.12699999809E+01 0. -1.
</event>
<event>
 5   0  0.2679861E-02  0.9153192E+03  0.7818609E-02  0.9406632E-01
       -2   -1    0    0    0  501  0.00000000000E+00  0.00000000000E+00  0.14524971791E+03  0.14524971793E+03  0.25500000920E-02 0.  1.
        2   -1    0    0  501    0  0.00000000000E+00  0.00000000000E+00 -0.14420151714E+04  0.14420151714E+04  0.25500000920E-02 0. -1.
    10030    2    1    2    0    0  0.00000000000E+00  0.00000000000E+00 -0.12967654535E+04  0.15872648893E+04  0.91531917249E+03 0.  0.
        1    1    3    3  502    0 -0.21080558698E+03 -0.15357433861E+03  0.37633621458E+01  0.26084139990E+03  0.50400001928E-02 0.  1.
       -1    1    3    3    0  502  0.21080558698E+03  0.15357433861E+03 -0.13005288156E+04  0.13264234894E+04  0.50400001928E-02 0. -1.
</event>
<event>
 5   0  0.2628383E-02  0.6925730E+03  0.7818609E-02  0.9730018E-01
        2   -1    0    0  501    0  0.00000000000E+00  0.00000000000E+00  0.19447899665E+03  0.19447899667E+03  0.25500000920E-02 0. -1.
       -2   -1    0    0    0  501  0.00000000000E+00  0.00000000000E+00 -0.61659281404E+03  0.61659281405E+03  0.25500000920E-02 0.  1.
    10030    2    1    2    0    0  0.00000000000E+00  0.00000000000E+00 -0.42211381739E+03  0.81107181072E+03  0.69257303392E+03 0.  0.
        2    1    3    3  502    0 -0.30643056882E+03 -0.15556907281E+03 -0.26092046817E+03  0.43148687192E+03  0.25500000920E-02 0. -1.
       -2    1    3    3    0  502  0.30643056882E+03  0.15556907281E+03 -0.16119334922E+03  0.37958493880E+03  0.25500000920E-02 0.  1.
</event>
<event>
 5   0  0.2705111E-02  0.8974240E+03  0.7818609E-02  0.9428807E-01
        2   -1    0    0  501    0  0.00000000000E+00  0.00000000000E+00  0.15313004135E+04  0.15313004135E+04  0.25500000920E-02 0.  1.
       -2   -1    0    0    0  501  0.00000000000E+00  0.00000000000E+00 -0.13148463674E+03  0.13148463676E+03  0.25500000920E-02 0. -1.
    10030    2    1    2    0    0  0.00000000000E+00  0.00000000000E+00  0.13998157768E+04  0.16627850503E+04  0.89742404388E+03 0.  0.
        4    1    3    3  502    0 -0.26301230025E+03 -0.11024500267E+03  0.58033976656E+02  0.29103090221E+03  0.12699999809E+01 0. -1.
       -4    1    3    3    0  502  0.26301230025E+03  0.11024500267E+03  0.13417818001E+04  0.13717541481E+04  0.12699999809E+01 0.  1.
</event>
<event>
 5   0  0.1559275E-02  0.8957634E+03  0.7818609E-02  0.9430893E-01
        1   -1    0    0  501    0  0.00000000000E+00  0.00000000000E+00  0.11900915960E+04  0.11900915960E+04  0.50400001928E-02 0.  1.
       -1   -1    0    0    0  501  0.00000000000E+00  0.00000000000E+00 -0.16855677535E+03  0.16855677542E+03  0.50400001928E-02 0. -1.
    10030    2    1    2    0    0  0.00000000000E+00  0.00000000000E+00  0.10215348206E+04  0.13586483714E+04  0.89576336572E+03 0.  0.
        1    1    3    3  502    0  0.13799193164E+03 -0.80342533128E+02  0.11454527519E+04  0.11565287297E+04  0.50400001928E-02 0.  1.
       -1    1    3    3    0  502 -0.13799193164E+03  0.80342533128E+02 -0.12391793129E+03  0.20211964166E+03  0.50400001928E-02 0. -1.
</event>
<event>
 5   0  0.1497410E-02  0.9075872E+03  0.7818609E-02  0.9416146E-01
        1   -1    0    0  501    0  0.00000000000E+00  0.00000000000E+00  0.67368161627E+03  0.67368161629E+03  0.50400001928E-02 0.  1.
       -1   -1    0    0    0  501  0.00000000000E+00  0.00000000000E+00 -0.30567647637E+03  0.30567647641E+03  0.50400001928E-02 0. -1.
    10030    2    1    2    0    0  0.00000000000E+00  0.00000000000E+00  0.36800513991E+03  0.97935809270E+03  0.90758718079E+03 0.  0.
        3    1    3    3  502    0 -0.23134134054E+02  0.37994328595E+03 -0.82590010841E+02  0.38950379817E+03  0.10100000352E+00 0. -1.
       -3    1    3    3    0  502  0.23134134054E+02 -0.37994328595E+03  0.45059515075E+03  0.58985429453E+03  0.10100000352E+00 0.  1.
</event>
<event>
 5   0  0.2628383E-02  0.9217390E+03  0.7818609E-02  0.9398807E-01
       -2   -1    0    0    0  501  0.00000000000E+00  0.00000000000E+00  0.26986243347E+03  0.26986243349E+03  0.25500000920E-02 0.  1.
        2   -1    0    0  501    0  0.00000000000E+00  0.00000000000E+00 -0.78707031610E+03  0.78707031611E+03  0.25500000920E-02 0. -1.
    10030    2    1    2    0    0  0.00000000000E+00  0.00000000000E+00 -0.51720788263E+03  0.10569327496E+04  0.92173903211E+03 0.  0.
        2    1    3    3  502    0 -0.13897507552E+03  0.41725026635E+03 -0.41661546429E+03  0.60578899089E+03  0.25500000920E-02 0. -1.
       -2    1    3    3    0  502  0.13897507552E+03 -0.41725026635E+03 -0.10059241834E+03  0.45114375871E+03  0.25500000920E-02 0.  1.
</event>
<event>
 5   0  0.1040163E-02  0.6920313E+03  0.7818609E-02  0.9730958E-01
        3   -1    0    0  501    0  0.00000000000E+00  0.00000000000E+00  0.37758110789E+03  0.37758112139E+03  0.10100000352E+00 0.  1.
       -3   -1    0    0    0  501  0.00000000000E+00  0.00000000000E+00 -0.31708902419E+03  0.31708904028E+03  0.10100000352E+00 0. -1.
    10030    2    1    2    0    0  0.00000000000E+00  0.00000000000E+00  0.60492083695E+02  0.69467016167E+03  0.69203131528E+03 0.  0.
        4    1    3    3  502    0 -0.24274853281E+03 -0.20305363387E+03  0.17066366333E+03  0.35956268896E+03  0.12699999809E+01 0.  1.
       -4    1    3    3    0  502  0.24274853281E+03  0.20305363387E+03 -0.11017157963E+03  0.33510747271E+03  0.12699999809E+01 0. -1.
</event>
<event>
 5   0  0.1459111E-02  0.8480422E+03  0.7818609E-02  0.9492968E-01
       -1   -1    0    0    0  501  0.00000000000E+00  0.00000000000E+00  0.20630959504E+03  0.20630959510E+03  0.50400001928E-02 0. -1.
        1   -1    0    0  501    0  0.00000000000E+00  0.00000000000E+00 -0.87147613949E+03  0.87147613951E+03  0.50400001928E-02 0.  1.
    10030    2    1    2    0    0  0.00000000000E+00  0.00000000000E+00 -0.66516654446E+03  0.10777857346E+04  0.84804219108E+03 0.  0.
        2    1    3    3  502    0  0.21165460560E+03 -0.68284613089E+02 -0.79140384458E+03  0.82205869965E+03  0.25500000920E-02 0.  1.
       -2    1    3    3    0  502 -0.21165460560E+03  0.68284613089E+02  0.12623730012E+03  0.25572703495E+03  0.25500000920E-02 0. -1.
</event>
<event>
 5   0  0.1459111E-02  0.8957267E+03  0.7818609E-02  0.9430939E-01
        1   -1    0    0  501    0  0.00000000000E+00  0.00000000000E+00  0.43765619626E+03  0.43765619629E+03  0.50400001928E-02 0. -1.
       -1   -1    0    0    0  501  0.00000000000E+00  0.00000000000E+00 -0.45830859315E+03  0.45830859318E+03  0.50400001928E-02 0.  1.
    10030    2    1    2    0    0  0.00000000000E+00  0.00000000000E+00 -0.20652396890E+02  0.89596478948E+03  0.89572673427E+03 0.  0.
        2    1    3    3  502    0  0.44639600025E+03  0.31691933958E+01  0.25768884712E+02  0.44715038661E+03  0.25500000920E-02 0. -1.
       -2    1    3    3    0  502 -0.44639600025E+03 -0.31691933958E+01 -0.46421281602E+02  0.44881440286E+03  0.25500000920E-02 0.  1.
</event>
<event>
 5   0  0.1560728E-02  0.9114597E+03  0.7818609E-02  0.9411369E-01
       -1   -1    0    0    0  501  0.00000000000E+00  0.00000000000E+00  0.15836668780E+03  0.15836668788E+03  0.50400001928E-02 0.  1.
        1   -1    0    0  501    0  0.00000000000E+00  0.00000000000E+00 -0.13114480073E+04  0.13114480073E+04  0.50400001928E-02 0. -1.
    10030    2    1    2    0    0  0.00000000000E+00  0.00000000000E+00 -0.11530813195E+04  0.14698146952E+04  0.91145965836E+03 0.  0.
        4    1    3    3  502    0  0.35535548182E+03  0.27906371846E+03 -0.48067620635E+03  0.65970092138E+03  0.12699999809E+01 0. -1.
       -4    1    3    3    0  502 -0.35535548182E+03 -0.27906371846E+03 -0.67240511316E+03  0.81011377382E+03  0.12699999809E+01 0.  1.
</event>
<event>
 5   0  0.2628383E-02  0.9277178E+03  0.7818609E-02  0.9391581E-01
        2   -1    0    0  501    0  0.00000000000E+00  0.00000000000E+00  0.10745692456E+04  0.10745692456E+04  0.25500000920E-02 0.  1.
       -2   -1    0    0    0  501  0.00000000000E+00  0.00000000000E+00 -0.20023380418E+03  0.20023380419E+03  0.25500000920E-02 0. -1.
    10030    2    1    2    0    0  0.00000000000E+00  0.00000000000E+00  0.87433544140E+03  0.12748030498E+04  0.92771781896E+03 0.  0.
        2    1    3    3  502    0  0.69722278575E+02  0.30968630173E+03  0.90193650863E+03  0.95616748910E+03  0.25500000920E-02 0.  1.
       -2    1    3    3    0  502 -0.69722278575E+02 -0.30968630173E+03 -0.27601067227E+02  0.31863556067E+03  0.25500000920E-02 0. -1.
</event>
<event>
 5   0  0.1559275E-02  0.8716179E+03  0.7818609E-02  0.9461773E-01
        1   -1    0    0  501    0  0.00000000000E+00  0.00000000000E+00  0.46624767296E+03  0.46624767299E+03  0.50400001928E-02 0. -1.
       -1   -1    0    0    0  501  0.00000000000E+00  0.00000000000E+00 -0.40735738048E+03  0.40735738051E+03  0.50400001928E-02 0.  1.
    10030    2    1    2    0    0  0.00000000000E+00  0.00000000000E+00  0.58890292481E+02  0.87360505350E+03  0.87161787668E+03 0.  0.
        1    1    3    3  502    0  0.16641012008E+03  0.26146336808E+03 -0.27764203862E+03  0.41610157721E+03  0.50400001928E-02 0.  1.
       -1    1    3    3    0  502 -0.16641012008E+03 -0.26146336808E+03  0.33653233111E+03  0.45750347629E+03  0.50400001928E-02 0. -1.
</event>
<event>
 5   0  0.2628383E-02  0.8765239E+03  0.7818609E-02  0.9455413E-01
        2   -1    0    0  501    0  0.00000000000E+00  0.00000000000E+00  0.19299588739E+04  0.19299588739E+04  0.25500000920E-02 0.  1.
       -2   -1    0    0    0  501  0.00000000000E+00  0.00000000000E+00 -0.99522088789E+02  0.99522088822E+02  0.25500000920E-02 0. -1.
    10030    2    1    2    0    0  0.00000000000E+00  0.00000000000E+00  0.18304367851E+04  0.20294809627E+04  0.87652390371E+03 0.  0.
        2    1    3    3  502    0 -0.20664426125E+02  0.43727741867E+03  0.86692859451E+03  0.97118677265E+03  0.25500000920E-02 0. -1.
       -2    1    3    3    0  502  0.20664426125E+02 -0.43727741867E+03  0.96350819059E+03  0.10582941901E+04  0.25500000920E-02 0.  1.
</event>
<event>
 5   0  0.2628383E-02  0.9241926E+03  0.7818609E-02  0.9395835E-01
        2   -1    0    0  501    0  0.00000000000E+00  0.00000000000E+00  0.10039474013E+04  0.10039474013E+04  0.25500000920E-02 0. -1.
       -2   -1    0    0    0  501  0.00000000000E+00  0.00000000000E+00 -0.21269338489E+03  0.21269338491E+03  0.25500000920E-02 0.  1.
    10030    2    1    2    0    0  0.00000000000E+00  0.00000000000E+00  0.79125401639E+03  0.12166407862E+04  0.92419255796E+03 0.  0.
        2    1    3    3  502    0 -0.34536727220E+03  0.28394008245E+03  0.24192242135E+03  0.50835713931E+03  0.25500000920E-02 0.  1.
       -2    1    3    3    0  502  0.34536727220E+03 -0.28394008245E+03  0.54933159504E+03  0.70828364689E+03  0.25500000920E-02 0. -1.
</event>
<event>
 5   0  0.2628383E-02  0.9009374E+03  0.7818609E-02  0.9424410E-01
       -2   -1    0    0    0  501  0.00000000000E+00  0.00000000000E+00  0.24859090656E+03  0.24859090658E+03  0.25500000920E-02 0. -1.
        2   -1    0    0  501    0  0.00000000000E+00  0.00000000000E+00 -0.81628904490E+03  0.81628904490E+03  0.25500000920E-02 0.  1.
    10030    2    1    2    0    0  0.00000000000E+00  0.00000000000E+00 -0.56769813834E+03  0.10648799515E+04  0.90093736452E+03 0.  0.
        2    1    3    3  502    0  0.22312365013E+03  0.24477905995E+03 -0.64472932517E+03  0.72482884475E+03  0.25500000920E-02 0.  1.
       -2    1    3    3    0  502 -0.22312365013E+03 -0.24477905995E+03  0.77031186831E+02  0.34005110673E+03  0.25500000920E-02 0. -1.
</event>
<event>
 5   0  0.2679861E-02  0.8878933E+03  0.7818609E-02  0.9440843E-01
        2   -1    0    0  501    0  0.00000000000E+00  0.00000000000E+00  0.14702488312E+04  0.14702488312E+04  0.25500000920E-02 0. -1.
       -2   -1    0    0    0  501  0.00000000000E+00  0.00000000000E+00 -0.13405121483E+03  0.13405121486E+03  0.25500000920E-02 0.  1.
    10030    2    1    2    0    0  0.00000000000E+00  0.00000000000E+00  0.13361976163E+04  0.16043000460E+04  0.88789333130E+03 0.  0.
        1    1    3    3  502    0 -0.11742947765E+03 -0.21837083564E+03  0.27097051071E+01  0.24795734836E+03  0.50400001928E-02 0.  1.
       -1    1    3    3    0  502  0.11742947765E+03  0.21837083564E+03  0.13334879112E+04  0.13563426977E+04  0.50400001928E-02 0. -1.
</event>
<event>
 5   0  0.1459111E-02  0.9056342E+03  0.7818609E-02  0.9418566E-01
        1   -1    0    0  501    0  0.00000000000E+00  0.00000000000E+00  0.34380971678E+03  0.34380971682E+03  0.50400001928E-02 0.  1.
       -1   -1    0    0    0  501  0.00000000000E+00  0.00000000000E+00 -0.59638611885E+03  0.59638611887E+03  0.50400001928E-02 0. -1.
    10030    2    1    2    0    0  0.00000000000E+00  0.00000000000E+00 -0.25257640207E+03  0.94019583569E+03  0.90563423663E+03 0.  0.
        2    1    3    3  502    0  0.23046991170E+03 -0.35758705098E+02  0.27665847367E+03  0.36184938338E+03  0.25500000920E-02 0.  1.
       -2    1    3    3    0  502 -0.23046991170E+03  0.35758705098E+02 -0.52923487574E+03  0.57834645231E+03  0.25500000920E-02 0. -1.
</event>
<event>
 5   0  0.2705111E-02  0.9172477E+03  0.7818609E-02  0.9404274E-01
       -2   -1    0    0    0  501  0.00000000000E+00  0.00000000000E+00  0.56053041228E+03  0.56053041229E+03  0.25500000920E-02 0.  1.
        2   -1    0    0  501    0  0.00000000000E+00  0.00000000000E+00 -0.37524432367E+03  0.37524432368E+03  0.25500000920E-02 0. -1.
    10030    2    1    2    0    0  0.00000000000E+00  0.00000000000E+00  0.18528608861E+03  0.93577473596E+03  0.91724774289E+03 0.  0.
        4    1    3    3  502    0 -0.31516108658E+03 -0.12072213161E+03 -0.22416742689E+03  0.40515798367E+03  0.12699999809E+01 0. -1.
       -4    1    3    3    0  502  0.31516108658E+03  0.12072213161E+03  0.40945351550E+03  0.53061675229E+03  0.12699999809E+01 0.  1.
</event>
<event>
 5   0  0.2803717E-02  0.9302807E+03  0.7818609E-02  0.9388501E-01
        2   -1    0    0  501    0  0.00000000000E+00  0.00000000000E+00  0.16143441230E+04  0.16143441230E+04  0.25500000920E-02 0.  1.
       -2   -1    0    0    0  501  0.00000000000E+00  0.00000000000E+00 -0.13402071486E+03  0.13402071489E+03  0.25500000920E-02 0. -1.
    10030    2    1    2    0    0  0.00000000000E+00  0.00000000000E+00  0.14803234081E+04  0.17483648379E+04  0.93028071767E+03 0.  0.
        5    1    3    3  502    0  0.13407525056E+02 -0.37658874215E+03  0.12525670004E+04  0.13080309717E+04  0.46999998093E+01 0.  1.
       -5    1    3    3    0  502 -0.13407525056E+02  0.37658874215E+03  0.22775640773E+03  0.44033386618E+03  0.46999998093E+01 0. -1.
</event>
<event>
 5   0  0.1497410E-02  0.9021048E+03  0.7818609E-02  0.9422954E-01
        1   -1    0    0  501    0  0.00000000000E+00  0.00000000000E+00  0.39503107960E+03  0.39503107963E+03  0.50400001928E-02 0.  1.
       -1   -1    0    0    0  501  0.00000000000E+00  0.00000000000E+00 -0.51501835203E+03  0.51501835206E+03  0.50400001928E-02 0. -1.
    10030    2    1    2    0    0  0.00000000000E+00  0.00000000000E+00 -0.11998727243E+03  0.91004943169E+03  0.90210477361E+03 0.  0.
        3    1    3    3  502    0  0.78361066986E+01  0.43941581474E+03  0.42391967859E+02  0.44152548279E+03  0.10100000352E+00 0.  1.
       -3    1    3    3    0  502 -0.78361066986E+01 -0.43941581474E+03 -0.16237924029E+03  0.46852394890E+03  0.10100000352E+00 0. -1.
</event>
<event>
 5   0  0.2803717E-02  0.7743263E+03  0.7818609E-02  0.9597941E-01
        2   -1    0    0  501    0  0.00000000000E+00  0.00000000000E+00  0.54378297057E+03  0.54378297058E+03  0.25500000920E-02 0.  1.
       -2   -1    0    0    0  501  0.00000000000E+00  0.00000000000E+00 -0.27565283205E+03  0.27565283206E+03  0.25500000920E-02 0. -1.
    10030    2    1    2    0    0  0.00000000000E+00  0.00000000000E+00  0.26813013853E+03  0.81943580264E+03  0.77432632879E+03 0.  0.
        5    1    3    3  502    0 -0.17075414008E+03  0.34482548298E+03  0.17910797051E+03  0.42445652918E+03  0.46999998093E+01 0. -1.
       -5    1    3    3    0  502  0.17075414008E+03 -0.34482548298E+03  0.89022168017E+02  0.39497927346E+03  0.46999998093E+01 0.  1.
</event>
<event>
 5   0  0.1497410E-02  0.8964787E+03  0.7818609E-02  0.9429994E-01
       -1   -1    0    0    0  501  0.00000000000E+00  0.00000000000E+00  0.16533687021E+03  0.16533687029E+03  0.50400001928E-02 0.  1.
        1   -1    0    0  501    0  0.00000000000E+00  0.00000000000E+00 -0.12152070335E+04  0.12152070335E+04  0.50400001928E-02 0. -1.
    10030    2    1    2    0    0  0.00000000000E+00  0.00000000000E+00 -0.10498701633E+04  0.13805439038E+04  0.89647872845E+03 0.  0.
        3    1    3    3  502    0 -0.23005109091E+03 -0.37264421671E+03 -0.67209060150E+03  0.80218015651E+03  0.10100000352E+00 0. -1.
       -3    1    3    3    0  502  0.23005109091E+03  0.37264421671E+03 -0.37777956182E+03  0.57836374732E+03  0.10100000352E+00 0.  1.
</event>
<event>
 5   0  0.2803717E-02  0.9045052E+03  0.7818609E-02  0.9419967E-01
       -2   -1    0    0    0  501  0.00000000000E+00  0.00000000000E+00  0.11918859105E+03  0.11918859108E+03  0.25500000920E-02 0.  1.
        2   -1    0    0  501    0  0.00000000000E+00  0.00000000000E+00 -0.17160401745E+04  0.17160401745E+04  0.25500000920E-02 0. -1.
    10030    2    1    2    0    0  0.00000000000E+00  0.00000000000E+00 -0.15968515835E+04  0.18352287656E+04  0.90450519205E+03 0.  0.
        5    1    3    3  502    0 -0.31429581938E+03 -0.32339684110E+03 -0.72983099359E+03  0.85792933749E+03  0.46999998093E+01 0.  1.
       -5    1    3    3    0  502  0.31429581938E+03  0.32339684110E+03 -0.86702058990E+03  0.97729942813E+03  0.46999998093E+01 0. -1.
</event>
<event>
 5   0  0.2628383E-02  0.9109231E+03  0.7818609E-02  0.9412029E-01
        2   -1    0    0  501    0  0.00000000000E+00  0.00000000000E+00  0.16506789645E+04  0.16506789645E+04  0.25500000920E-02 0. -1.
       -2   -1    0    0    0  501  0.00000000000E+00  0.00000000000E+00 -0.12567267354E+03  0.12567267357E+03  0.25500000920E-02 0.  1.
    10030    2    1    2    0    0  0.00000000000E+00  0.00000000000E+00  0.15250062910E+04  0.17763516381E+04  0.91092313322E+03 0.  0.
        2    1    3    3  502    0  0.40377804123E+03  0.18966856577E+03  0.94159402230E+03  0.10419261846E+04  0.25500000920E-02 0.  1.
       -2    1    3    3    0  502 -0.40377804123E+03 -0.18966856577E+03  0.58341226867E+03  0.73442545344E+03  0.25500000920E-02 0. -1.
</event>
<event>
 5   0  0.1559275E-02  0.9033929E+03  0.7818609E-02  0.9421350E-01
        1   -1    0    0  501    0  0.00000000000E+00  0.00000000000E+00  0.67065590821E+03  0.67065590823E+03  0.50400001928E-02 0. -1.
       -1   -1    0    0    0  501  0.00000000000E+00  0.00000000000E+00 -0.30422408160E+03  0.30422408164E+03  0.50400001928E-02 0.  1.
    10030    2    1    2    0    0  0.00000000000E+00  0.00000000000E+00  0.36643182661E+03  0.97487998987E+03  0.90339288855E+03 0.  0.
        1    1    3    3  502    0  0.21811499874E+03  0.39487090480E+03  0.15831405885E+03  0.47808004078E+03  0.50400001928E-02 0. -1.
       -1    1    3    3    0  502 -0.21811499874E+03 -0.39487090480E+03  0.20811776776E+03  0.49679994909E+03  0.50400001928E-02 0.  1.
</event>
<event>
 5   0  0.1559275E-02  0.9141590E+03  0.7818609E-02  0.9408053E-01
        1   -1    0    0  501    0  0.00000000000E+00  0.00000000000E+00  0.18177335508E+03  0.18177335515E+03  0.50400001928E-02 0.  1.
       -1   -1    0    0    0  501  0.00000000000E+00  0.00000000000E+00 -0.11493525655E+04  0.11493525655E+04  0.50400001928E-02 0. -1.
    10030    2    1    2    0    0  0.00000000000E+00  0.00000000000E+00 -0.96757921046E+03  0.13311259207E+04  0.91415900598E+03 0.  0.
        1    1    3    3  502    0 -0.19514418291E+03  0.28486832951E+03 -0.47705245104E+02  0.34857855316E+03  0.50400001928E-02 0.  1.
       -1    1    3    3    0  502  0.19514418291E+03 -0.28486832951E+03 -0.91987396535E+03  0.98254736753E+03  0.50400001928E-02 0. -1.
</event>
<event>
 5   0  0.2705111E-02  0.8675715E+03  0.7818609E-02  0.9467052E-01
        2   -1    0    0  501    0  0.00000000000E+00  0.00000000000E+00  0.20247779482E+03  0.20247779484E+03  0.25500000920E-02 0. -1.
       -2   -1    0    0    0  501  0.00000000000E+00  0.00000000000E+00 -0.92933679478E+03  0.92933679478E+03  0.25500000920E-02 0.  1.
    10030    2    1    2    0    0  0.00000000000E+00  0.00000000000E+00 -0.72685899996E+03  0.11318145896E+04  0.86757147225E+03 0.  0.
        4    1    3    3  502    0  0.19189109828E+03 -0.20729889009E+02 -0.87023162884E+03  0.89137905665E+03  0.12699999809E+01 0.  1.
       -4    1    3    3    0  502 -0.19189109828E+03  0.20729889009E+02  0.14337262889E+03  0.24043553297E+03  0.12699999809E+01 0. -1.
</event>
<event>
 5   0  0.2705111E-02  0.8725497E+03  0.7818609E-02  0.9460562E-01
        2   -1    0    0  501    0  0.00000000000E+00  0.00000000000E+00  0.32468203974E+03  0.32468203975E+03  0.25500000920E-02 0.  1.
       -2   -1    0    0    0  501  0.00000000000E+00  0.00000000000E+00 -0.58622193927E+03  0.58622193928E+03  0.25500000920E-02 0. -1.
    10030    2    1    2    0    0  0.00000000000E+00  0.00000000000E+00 -0.26153989953E+03  0.91090397903E+03  0.87254967765E+03 0.  0.
        4    1    3    3  502    0 -0.33602748409E+03 -0.12510715123E+03 -0.39022593211E+03  0.52994731846E+03  0.12699999809E+01 0. -1.
       -4    1    3    3    0  502  0.33602748409E+03  0.12510715123E+03  0.12868603258E+03  0.38095666057E+03  0.12699999809E+01 0.  1.
</event>
<event>
 5   0  0.2679861E-02  0.8726993E+03  0.7818609E-02  0.9460367E-01
       -2   -1    0    0    0  501  0.00000000000E+00  0.00000000000E+00  0.89643213472E+02  0.89643213508E+02  0.25500000920E-02 0.  1.
        2   -1    0    0  501    0  0.00000000000E+00  0.00000000000E+00 -0.21239871714E+04  0.21239871714E+04  0.25500000920E-02 0. -1.
    10030    2    1    2    0    0  0.00000000000E+00  0.00000000000E+00 -0.20343439579E+04  0.22136303849E+04  0.87269934218E+03 0.  0.
        1    1    3    3  502    0 -0.29186522491E+03 -0.29490425791E+03 -0.13598124272E+04  0.14217044939E+04  0.50400001928E-02 0. -1.
       -1    1    3    3    0  502  0.29186522491E+03  0.29490425791E+03 -0.67453153074E+03  0.79192589100E+03  0.50400001928E-02 0.  1.
</event>
<event>
 5   0  0.2803717E-02  0.9095109E+03  0.7818609E-02  0.9413770E-01
       -2   -1    0    0    0  501  0.00000000000E+00  0.00000000000E+00  0.17169129864E+03  0.17169129866E+03  0.25500000920E-02 0. -1.
        2   -1    0    0  501    0  0.00000000000E+00  0.00000000000E+00 -0.12045021038E+04  0.12045021038E+04  0.25500000920E-02 0.  1.
    10030    2    1    2    0    0  0.00000000000E+00  0.00000000000E+00 -0.10328108052E+04  0.13761934025E+04  0.90951092447E+03 0.  0.
        5    1    3    3  502    0 -0.10772315574E+03 -0.13877242583E+03 -0.11510449844E+04  0.11643834036E+04  0.46999998093E+01 0.  1.
       -5    1    3    3    0  502  0.10772315574E+03  0.13877242583E+03  0.11823417928E+03  0.21180999883E+03  0.46999998093E+01 0. -1.
</event>
<event>
 5   0  0.1497410E-02  0.9181934E+03  0.7818609E-02  0.9403120E-01
        1   -1    0    0  501    0  0.00000000000E+00  0.00000000000E+00  0.22338084025E+03  0.22338084030E+03  0.50400001928E-02 0.  1.
       -1   -1    0    0    0  501  0.00000000000E+00  0.00000000000E+00 -0.94354456897E+03  0.94354456898E+03  0.50400001928E-02 0. -1.
    10030    2    1    2    0    0  0.00000000000E+00  0.00000000000E+00 -0.72016372872E+03  0.11669254093E+04  0.91819339720E+03 0.  0.
        3    1    3    3  502    0 -0.16040516911E+03 -0.41966716608E+03 -0.24005533840E+03  0.50938877515E+03  0.10100000352E+00 0. -1.
       -3    1    3    3    0  502  0.16040516911E+03  0.41966716608E+03 -0.48010839032E+03  0.65753663413E+03  0.10100000352E+00 0.  1.
</event>
<event>
 5   0  0.1559275E-02  0.8901335E+03  0.7818609E-02  0.9438000E-01
        1   -1    0    0  501    0  0.00000000000E+00  0.00000000000E+00  0.52754422156E+03  0.52754422158E+03  0.50400001928E-02 0.  1.
       -1   -1    0    0    0  501  0.00000000000E+00  0.00000000000E+00 -0.37548395424E+03  0.37548395427E+03  0.50400001928E-02 0. -1.
    10030    2    1    2    0    0  0.00000000000E+00  0.00000000000E+00  0.15206026732E+03  0.90302817585E+03  0.89013345150E+03 0.  0.
        1    1    3    3  502    0  0.28901020523E+02 -0.67964380438E+02  0.52128441185E+03  0.52649013671E+03  0.50400001928E-02 0.  1.
       -1    1    3    3    0  502 -0.28901020523E+02  0.67964380438E+02 -0.36922414452E+03  0.37653803914E+03  0.50400001928E-02 0. -1.
</event>
<event>
 5   0  0.2628383E-02  0.9021748E+03  0.7818609E-02  0.9422867E-01
       -2   -1    0    0    0  501  0.00000000000E+00  0.00000000000E+00  0.25456715859E+03  0.25456715860E+03  0.25500000920E-02 0.  1.
        2   -1    0    0  501    0  0.00000000000E+00  0.00000000000E+00 -0.79931687821E+03  0.79931687821E+03  0.25500000920E-02 0. -1.
    10030    2    1    2    0    0  0.00000000000E+00  0.00000000000E+00 -0.54474971962E+03  0.10538840368E+04  0.90217476468E+03 0.  0.
        2    1    3    3  502    0 -0.42206605328E+03  0.15814806829E+03 -0.25117794090E+03  0.51598539014E+03  0.25500000920E-02 0.  1.
       -2    1    3    3    0  502  0.42206605328E+03 -0.15814806829E+03 -0.29357177871E+03  0.53789864668E+03  0.25500000920E-02 0. -1.
</event>
<event>
 5   0  0.1537870E-02  0.9121782E+03  0.7818609E-02  0.9410485E-01
       -1   -1    0    0    0  501  0.00000000000E+00  0.00000000000E+00  0.18596056220E+03  0.18596056227E+03  0.50400001928E-02 0.  1.
        1   -1    0    0  501    0  0.00000000000E+00  0.00000000000E+00 -0.11186094723E+04  0.11186094723E+04  0.50400001928E-02 0. -1.
    10030    2    1    2    0    0  0.00000000000E+00  0.00000000000E+00 -0.93264891009E+03  0.13045700346E+04  0.91217815454E+03 0.  0.
        5    1    3    3  502    0 -0.44794759723E+03  0.16831211697E+02 -0.58644868133E+03  0.73816291249E+03  0.46999998093E+01 0. -1.
       -5    1    3    3    0  502  0.44794759723E+03 -0.16831211697E+02 -0.34620022876E+03  0.56640712208E+03  0.46999998093E+01 0.  1.
</event>
<event>
 5   0  0.1559275E-02  0.8900670E+03  0.7818609E-02  0.9438084E-01
        1   -1    0    0  501    0  0.00000000000E+00  0.00000000000E+00  0.84104738443E+03  0.84104738445E+03  0.50400001928E-02 0.  1.
       -1   -1    0    0    0  501  0.00000000000E+00  0.00000000000E+00 -0.23548594037E+03  0.23548594043E+03  0.50400001928E-02 0. -1.
    10030    2    1    2    0    0  0.00000000000E+00  0.00000000000E+00  0.60556144406E+03  0.10765333249E+04  0.89006704075E+03 0.  0.
        1    1    3    3  502    0  0.22359108933E+03 -0.24623864433E+03 -0.54846852240E+02  0.33709734858E+03  0.50400001928E-02 0. -1.
       -1    1    3    3    0  502 -0.22359108933E+03  0.24623864433E+03  0.66040829630E+03  0.73943597629E+03  0.50400001928E-02 0.  1.
</event>
<event>
 5   0  0.1459111E-02  0.9155887E+03  0.7818609E-02  0.9406302E-01
        1   -1    0    0  501    0  0.00000000000E+00  0.00000000000E+00  0.34803215412E+03  0.34803215415E+03  0.50400001928E-02 0. -1.
       -1   -1    0    0    0  501  0.00000000000E+00  0.00000000000E+00 -0.60217331878E+03  0.60217331881E+03  0.50400001928E-02 0.  1.
    10030    2    1    2    0    0  0.00000000000E+00  0.00000000000E+00 -0.25414116467E+03  0.95020547296E+03  0.91558872277E+03 0.  0.
        2    1    3    3  502    0 -0.17158792886E+03  0.22578783459E+02 -0.56691452935E+03  0.59274303234E+03  0.25500000920E-02 0.  1.
       -2    1    3    3    0  502  0.17158792886E+03 -0.22578783459E+02  0.31277336468E+03  0.35746244062E+03  0.25500000920E-02 0. -1.
</event>
<event>
 5   0  0.2628383E-02  0.8704568E+03  0.7818609E-02  0.9463284E-01
       -2   -1    0    0    0  501  0.00000000000E+00  0.00000000000E+00  0.29476993854E+03  0.29476993855E+03  0.25500000920E-02 0. -1.
        2   -1    0    0  501    0  0.00000000000E+00  0.00000000000E+00 -0.64261565304E+03  0.64261565304E+03  0.25500000920E-02 0.  1.
    10030    2    1    2    0    0  0.00000000000E+00  0.00000000000E+00 -0.34784571449E+03  0.93738559160E+03  0.87045683767E+03 0.  0.
        2    1    3    3  502    0 -0.26939268497E+03 -0.93910044886E+02  0.18003191000E+03  0.33734700809E+03  0.25500000920E-02 0. -1.
       -2    1    3    3    0  502  0.26939268497E+03  0.93910044886E+02 -0.52787762449E+03  0.60003858350E+03  0.25500000920E-02 0.  1.
</event>
<event>
 5   0  0.2414128E-02  0.8952690E+03  0.7818609E-02  0.9431515E-01
        2   -1    0    0  501    0  0.00000000000E+00  0.00000000000E+00  0.26095668119E+03  0.26095668120E+03  0.25500000920E-02 0.  1.
       -2   -1    0    0    0  501  0.00000000000E+00  0.00000000000E+00 -0.76785413088E+03  0.76785413089E+03  0.25500000920E-02 0. -1.
    10030    2    1    2    0    0  0.00000000000E+00  0.00000000000E+00 -0.50689744970E+03  0.10288108121E+04  0.89526904479E+03 0.  0.
        3    1    3    3  502    0  0.69369636385E+02  0.24748031341E+03  0.16771316441E+03  0.30689797604E+03  0.10100000352E+00 0.  1.
       -3    1    3    3    0  502 -0.69369636385E+02 -0.24748031341E+03 -0.67461061411E+03  0.72191283605E+03  0.10100000352E+00 0. -1.
</event>
<event>
 5   0  0.1537870E-02  0.1029156E+04  0.7818609E-02  0.9277133E-01
       -1   -1    0    0    0  501  0.00000000000E+00  0.00000000000E+00  0.70802640352E+03  0.70802640354E+03  0.50400001928E-02 0. -1.
        1   -1    0    0  501    0  0.00000000000E+00  0.00000000000E+00 -0.37398406647E+03  0.37398406651E+03  0.50400001928E-02 0.  1.
    10030    2    1    2    0    0  0.00000000000E+00  0.00000000000E+00  0.33404233705E+03  0.10820104700E+04  0.10291561467E+04 0.  0.
        5    1    3    3  502    0  0.15861770066E+02  0.19913831584E+03  0.66556931317E+03  0.69491889111E+03  0.46999998093E+01 0. -1.
       -5    1    3    3    0  502 -0.15861770066E+02 -0.19913831584E+03 -0.33152697613E+03  0.38709157894E+03  0.46999998093E+01 0.  1.
</event>
<event>
 5   0  0.1559275E-02  0.9167138E+03  0.7818609E-02  0.9404926E-01
        1   -1    0    0  501    0  0.00000000000E+00  0.00000000000E+00  0.30048557807E+03  0.30048557812E+03  0.50400001928E-02 0.  1.
       -1   -1    0    0    0  501  0.00000000000E+00  0.00000000000E+00 -0.69917188853E+03  0.69917188855E+03  0.50400001928E-02 0. -1.
    10030    2    1    2    0    0  0.00000000000E+00  0.00000000000E+00 -0.39868631046E+03  0.99965746667E+03  0.91671384658E+03 0.  0.
        1    1    3    3  502    0  0.16058807683E+03  0.26467298234E+03 -0.56793604632E+03  0.64683202667E+03  0.50400001928E-02 0. -1.
       -1    1    3    3    0  502 -0.16058807683E+03 -0.26467298234E+03  0.16924973586E+03  0.35282544000E+03  0.50400001928E-02 0.  1.
</event>
<event>
 5   0  0.1497410E-02  0.8554904E+03  0.7818609E-02  0.9482997E-01
        1   -1    0    0  501    0  0.00000000000E+00  0.00000000000E+00  0.21909164869E+04  0.21909164869E+04  0.50400001928E-02 0. -1.
       -1   -1    0    0    0  501  0.00000000000E+00  0.00000000000E+00 -0.83511144306E+02  0.83511144458E+02  0.50400001928E-02 0.  1.
    10030    2    1    2    0    0  0.00000000000E+00  0.00000000000E+00  0.21074053426E+04  0.22744276314E+04  0.85549036951E+03 0.  0.
        3    1    3    3  502    0 -0.11297666267E+03  0.43044359241E+01 -0.43068309651E+02  0.12098406496E+03  0.10100000352E+00 0.  1.
       -3    1    3    3    0  502  0.11297666267E+03 -0.43044359241E+01  0.21504736523E+04  0.21534435664E+04  0.10100000352E+00 0. -1.
</event>
<event>
 5   0  0.2803717E-02  0.8681946E+03  0.7818609E-02  0.9466237E-01
        2   -1    0    0  501    0  0.00000000000E+00  0.00000000000E+00  0.76985147519E+03  0.76985147520E+03  0.25500000920E-02 0.  1.
       -2   -1    0    0    0  501  0.00000000000E+00  0.00000000000E+00 -0.24477508164E+03  0.24477508166E+03  0.25500000920E-02 0. -1.
    10030    2    1    2    0    0  0.00000000000E+00  0.00000000000E+00  0.52507639355E+03  0.10146265569E+04  0.86819458119E+03 0.  0.
        5    1    3    3  502    0 -0.31071195756E+03 -0.28267084196E+03  0.39041809835E+03  0.57349202870E+03  0.46999998093E+01 0.  1.
       -5    1    3    3    0  502  0.31071195756E+03  0.28267084196E+03  0.13465829520E+03  0.44113452815E+03  0.46999998093E+01 0. -1.
</event>
<event>
 5   0  0.1537870E-02  0.8970679E+03  0.7818609E-02  0.9429254E-01
        1   -1    0    0  501    0  0.00000000000E+00  0.00000000000E+00  0.11109004019E+04  0.11109004019E+04  0.50400001928E-02 0.  1.
       -1   -1    0    0    0  501  0.00000000000E+00  0.00000000000E+00 -0.18109878074E+03  0.18109878081E+03  0.50400001928E-02 0. -1.
    10030    2    1    2    0    0  0.00000000000E+00  0.00000000000E+00  0.92980162113E+03  0.12919991827E+04  0.89706790903E+03 0.  0.
        5    1    3    3  502    0  0.26849683299E+03  0.19174121876E+03  0.90247370466E+03  0.96090380471E+03  0.46999998093E+01 0.  1.
       -5    1    3    3    0  502 -0.26849683299E+03 -0.19174121876E+03  0.27327916461E+02  0.33109537797E+03  0.46999998093E+01 0. -1.
</event>
<event>
 5   0  0.2628383E-02  0.8991294E+03  0.7818609E-02  0.9426670E-01
        2   -1    0    0  501    0  0.00000000000E+00  0.00000000000E+00  0.10486482510E+04  0.10486482510E+04  0.25500000920E-02 0. -1.
       -2   -1    0    0    0  501  0.00000000000E+00  0.00000000000E+00 -0.19273234828E+03  0.19273234830E+03  0.25500000920E-02 0.  1.
    10030    2    1    2    0    0  0.00000000000E+00  0.00000000000E+00  0.85591590275E+03  0.12413805993E+04  0.89912944552E+03 0.  0.
        2    1    3    3  502    0 -0.66541491939E+02  0.34465609501E+03  0.40163541150E+02  0.35331105845E+03  0.25500000920E-02 0.  1.
       -2    1    3    3    0  502  0.66541491939E+02 -0.34465609501E+03  0.81575236160E+03  0.88806954088E+03  0.25500000920E-02 0. -1.
</event>
<event>
 5   0  0.2628383E-02  0.8724292E+03  0.7818609E-02  0.9460718E-01
        2   -1    0    0  501    0  0.00000000000E+00  0.00000000000E+00  0.99429092110E+03  0.99429092110E+03  0.25500000920E-02 0.  1.
       -2   -1    0    0    0  501  0.00000000000E+00  0.00000000000E+00 -0.19137574609E+03  0.19137574611E+03  0.25500000920E-02 0. -1.
    10030    2    1    2    0    0  0.00000000000E+00  0.00000000000E+00  0.80291517501E+03  0.11856666672E+04  0.87242917619E+03 0.  0.
        2    1    3    3  502    0 -0.37699847135E+02  0.32636868715E+02  0.99040488692E+03  0.99165935871E+03  0.25500000920E-02 0.  1.
       -2    1    3    3    0  502  0.37699847135E+02 -0.32636868715E+02 -0.18748971191E+03  0.19400730850E+03  0.25500000920E-02 0. -1.
</event>
<event>
 5   0  0.2803717E-02  0.8644188E+03  0.7818609E-02  0.9471186E-01
       -2   -1    0    0    0  501  0.00000000000E+00  0.00000000000E+00  0.30077446877E+03  0.30077446878E+03  0.25500000920E-02 0.  1.
        2   -1    0    0  501    0  0.00000000000E+00  0.00000000000E+00 -0.62107988680E+03  0.62107988680E+03  0.25500000920E-02 0. -1.
    10030    2    1    2    0    0  0.00000000000E+00  0.00000000000E+00 -0.32030541802E+03  0.92185435558E+03  0.86441881753E+03 0.  0.
        5    1    3    3  502    0 -0.46424101446E+02 -0.33551243323E+03 -0.44642709717E+03  0.56039542569E+03  0.46999998093E+01 0. -1.
       -5    1    3    3    0  502  0.46424101446E+02  0.33551243323E+03  0.12612167915E+03  0.36145892989E+03  0.46999998093E+01 0.  1.
</event>
<event>
 5   0  0.2679861E-02  0.8999012E+03  0.7818609E-02  0.9425705E-01
       -2   -1    0    0    0  501  0.00000000000E+00  0.00000000000E+00  0.23657791433E+03  0.23657791435E+03  0.25500000920E-02 0.  1.
        2   -1    0    0  501    0  0.00000000000E+00  0.00000000000E+00 -0.85576690242E+03  0.85576690242E+03  0.25500000920E-02 0. -1.
    10030    2    1    2    0    0  0.00000000000E+00  0.00000000000E+00 -0.61918898809E+03  0.10923448168E+04  0.89990121444E+03 0.  0.
        1    1    3    3  502    0  0.76547452341E+02  0.57843174409E+02 -0.84320564247E+03  0.84864662894E+03  0.50400001928E-02 0. -1.
       -1    1    3    3    0  502 -0.76547452341E+02 -0.57843174409E+02  0.22401665438E+03  0.24369818783E+03  0.50400001928E-02 0.  1.
</event>
<event>
 5   0  0.2628383E-02  0.8852528E+03  0.7818609E-02  0.9444206E-01
       -2   -1    0    0    0  501  0.00000000000E+00  0.00000000000E+00  0.32232911914E+03  0.32232911915E+03  0.25500000920E-02 0. -1.
        2   -1    0    0  501    0  0.00000000000E+00  0.00000000000E+00 -0.60782013037E+03  0.60782013038E+03  0.25500000920E-02 0.  1.
    10030    2    1    2    0    0  0.00000000000E+00  0.00000000000E+00 -0.28549101123E+03  0.93014924953E+03  0.88525279379E+03 0.  0.
        2    1    3    3  502    0  0.17142970447E+02  0.31429908180E+03 -0.46971969439E+03  0.56543291872E+03  0.25500000920E-02 0.  1.
       -2    1    3    3    0  502 -0.17142970447E+02 -0.31429908180E+03  0.18422868316E+03  0.36471633082E+03  0.25500000920E-02 0. -1.
</event>
<event>
 5   0  0.2679861E-02  0.8988898E+03  0.7818609E-02  0.9426970E-01
        2   -1    0    0  501    0  0.00000000000E+00  0.00000000000E+00  0.10234563164E+04  0.10234563164E+04  0.25500000920E-02 0.  1.
       -2   -1    0    0    0  501  0.00000000000E+00  0.00000000000E+00 -0.19737113019E+03  0.19737113020E+03  0.25500000920E-02 0. -1.
    10030    2    1    2    0    0  0.00000000000E+00  0.00000000000E+00  0.82608518623E+03  0.12208274466E+04  0.89888982613E+03 0.  0.
        1    1    3    3  502    0  0.99924260916E+01  0.17291472369E+03  0.97630891433E+03  0.99155355199E+03  0.50400001928E-02 0.  1.
       -1    1    3    3    0  502 -0.99924260916E+01 -0.17291472369E+03 -0.15022372810E+03  0.22927389463E+03  0.50400001928E-02 0. -1.
</event>
<event>
 5   0  0.1459111E-02  0.8436669E+03  0.7818609E-02  0.9498877E-01
        1   -1    0    0  501    0  0.00000000000E+00  0.00000000000E+00  0.62563621773E+03  0.62563621775E+03  0.50400001928E-02 0. -1.
       -1   -1    0    0    0  501  0.00000000000E+00  0.00000000000E+00 -0.28442001520E+03  0.28442001525E+03  0.50400001928E-02 0.  1.
    10030    2    1    2    0    0  0.00000000000E+00  0.00000000000E+00  0.34121620252E+03  0.91005623299E+03  0.84366690722E+03 0.  0.
        2    1    3    3  502    0  0.16150239808E+03  0.23725565016E+03  0.50407939090E+03  0.58005973869E+03  0.25500000920E-02 0. -1.
       -2    1    3    3    0  502 -0.16150239808E+03 -0.23725565016E+03 -0.16286318837E+03  0.32999649430E+03  0.25500000920E-02 0.  1.
</event>
<event>
 5   0  0.1560728E-02  0.9050118E+03  0.7818609E-02  0.9419338E-01
        1   -1    0    0  501    0  0.00000000000E+00  0.00000000000E+00  0.99899332547E+03  0.99899332548E+03  0.50400001928E-02 0. -1.
       -1   -1    0    0    0  501  0.00000000000E+00  0.00000000000E+00 -0.20496791963E+03  0.20496791969E+03  0.50400001928E-02 0.  1.
    10030    2    1    2    0    0  0.00000000000E+00  0.00000000000E+00  0.79402540584E+03  0.12039612452E+04  0.90501178708E+03 0.  0.
        4    1    3    3  502    0 -0.22753730370E+03 -0.36623687227E+03  0.57969565560E+03  0.72246199706E+03  0.12699999809E+01 0. -1.
       -4    1    3    3    0  502  0.22753730370E+03  0.36623687227E+03  0.21432975024E+03  0.48149924811E+03  0.12699999809E+01 0.  1.
</event>
<event>
 5   0  0.1560728E-02  0.7213831E+03  0.7818609E-02  0.9681347E-01
        1   -1    0    0  501    0  0.00000000000E+00  0.00000000000E+00  0.47684036048E+03  0.47684036051E+03  0.50400001928E-02 0.  1.
       -1   -1    0    0    0  501  0.00000000000E+00  0.00000000000E+00 -0.27283430786E+03  0.27283430791E+03  0.50400001928E-02 0. -1.
    10030    2    1    2    0    0  0.00000000000E+00  0.00000000000E+00  0.20400605262E+03  0.74967466841E+03  0.72138314297E+03 0.  0.
        4    1    3    3  502    0 -0.25872200724E+03 -0.24729924658E+03  0.14851083779E+03  0.38749332411E+03  0.12699999809E+01 0. -1.
       -4    1    3    3    0  502  0.25872200724E+03  0.24729924658E+03  0.55495214834E+02  0.36218134430E+03  0.12699999809E+01 0.  1.
</event>
<event>
 5   0  0.2705111E-02  0.8838753E+03  0.7818609E-02  0.9445966E-01
       -2   -1    0    0    0  501  0.00000000000E+00  0.00000000000E+00  0.25602618880E+03  0.25602618881E+03  0.25500000920E-02 0.  1.
        2   -1    0    0  501    0  0.00000000000E+00  0.00000000000E+00 -0.76284727458E+03  0.76284727459E+03  0.25500000920E-02 0. -1.
    10030    2    1    2    0    0  0.00000000000E+00  0.00000000000E+00 -0.50682108578E+03  0.10188734634E+04  0.88387528612E+03 0.  0.
        4    1    3    3  502    0  0.43322742169E+03  0.85280387119E+02 -0.27493071197E+03  0.52014156979E+03  0.12699999809E+01 0. -1.
       -4    1    3    3    0  502 -0.43322742169E+03 -0.85280387119E+02 -0.23189037381E+03  0.49873189361E+03  0.12699999809E+01 0.  1.
</event>
<event>
 5   0  0.1537870E-02  0.9030022E+03  0.7818609E-02  0.9421836E-01
       -1   -1    0    0    0  501  0.00000000000E+00  0.00000000000E+00  0.19690137996E+03  0.19690138002E+03  0.50400001928E-02 0. -1.
        1   -1    0    0  501    0  0.00000000000E+00  0.00000000000E+00 -0.10353064092E+04  0.10353064092E+04  0.50400001928E-02 0.  1.
    10030    2    1    2    0    0  0.00000000000E+00  0.00000000000E+00 -0.83840502920E+03  0.12322077892E+04  0.90300223852E+03 0.  0.
        5    1    3    3  502    0  0.20418621621E+03 -0.38849193664E+03 -0.27470531770E+03  0.51778672955E+03  0.46999998093E+01 0.  1.
       -5    1    3    3    0  502 -0.20418621621E+03  0.38849193664E+03 -0.56369971150E+03  0.71442105965E+03  0.46999998093E+01 0. -1.
</event>
<event>
 5   0  0.1459111E-02  0.8963117E+03  0.7818609E-02  0.9430204E-01
        1   -1    0    0  501    0  0.00000000000E+00  0.00000000000E+00  0.78574401669E+03  0.78574401671E+03  0.50400001928E-02 0.  1.
       -1   -1    0    0    0  501  0.00000000000E+00  0.00000000000E+00 -0.25560956239E+03  0.25560956244E+03  0.50400001928E-02 0. -1.
    10030    2    1    2    0    0  0.00000000000E+00  0.00000000000E+00  0.53013445431E+03  0.10413535791E+04  0.89631174106E+03 0.  0.
        2    1    3    3  502    0 -0.30140118261E+03 -0.55880632582E+02  0.64489265176E+03  0.71403910977E+03  0.25500000920E-02 0.  1.
       -2    1    3    3    0  502  0.30140118261E+03  0.55880632582E+02 -0.11475819746E+03  0.32731446938E+03  0.25500000920E-02 0. -1.
</event>
<event>
 5   0  0.1560728E-02  0.9177300E+03  0.7818609E-02  0.9403685E-01
       -1   -1    0    0    0  501  0.00000000000E+00  0.00000000000E+00  0.19595641941E+03  0.19595641948E+03  0.50400001928E-02 0. -1.
        1   -1    0    0  501    0  0.00000000000E+00  0.00000000000E+00 -0.10745098471E+04  0.10745098471E+04  0.50400001928E-02 0.  1.
    10030    2    1    2    0    0  0.00000000000E+00  0.00000000000E+00 -0.87855342769E+03  0.12704662666E+04  0.91773003070E+03 0.  0.
        4    1    3    3  502    0 -0.21613597630E+03  0.10281401930E+02  0.12089217645E+03  0.24786487993E+03  0.12699999809E+01 0. -1.
       -4    1    3    3    0  502  0.21613597630E+03 -0.10281401930E+02 -0.99944560413E+03  0.10226013867E+04  0.12699999809E+01 0.  1.
</event>
<event>
 5   0  0.1560728E-02  0.8940432E+03  0.7818609E-02  0.9433058E-01
        1   -1    0    0  501    0  0.00000000000E+00  0.00000000000E+00  0.59000888257E+03  0.59000888260E+03  0.50400001928E-02 0. -1.
       -1   -1    0    0    0  501  0.00000000000E+00  0.00000000000E+00 -0.33868696165E+03  0.33868696169E+03  0.50400001928E-02 0.  1.
    10030    2    1    2    0    0  0.00000000000E+00  0.00000000000E+00  0.25132192092E+03  0.92869584429E+03  0.89404321107E+03 0.  0.
        4    1    3    3  502    0 -0.27420506820E+03  0.20760140176E+03  0.42228079627E+03  0.54461862366E+03  0.12699999809E+01 0. -1.
       -4    1    3    3    0  502  0.27420506820E+03 -0.20760140176E+03 -0.17095887535E+03  0.38407722062E+03  0.12699999809E+01 0.  1.
</event>
<event>
 5   0  0.2414128E-02  0.8227995E+03  0.7818609E-02  0.9527590E-01
       -2   -1    0    0    0  501  0.00000000000E+00  0.00000000000E+00  0.34735885330E+03  0.34735885330E+03  0.25500000920E-02 0. -1.
        2   -1    0    0  501    0  0.00000000000E+00  0.00000000000E+00 -0.48724755856E+03  0.48724755856E+03  0.25500000920E-02 0.  1.
    10030    2    1    2    0    0  0.00000000000E+00  0.00000000000E+00 -0.13988870526E+03  0.83460641187E+03  0.82279949737E+03 0.  0.
        3    1    3    3  502    0 -0.48014869071E+02  0.23734248034E+03  0.26741325997E+03  0.36075856529E+03  0.10100000352E+00 0. -1.
       -3    1    3    3    0  502  0.48014869071E+02 -0.23734248034E+03 -0.40730196523E+03  0.47384784658E+03  0.10100000352E+00 0.  1.
</event>
<event>
 5   0  0.1459111E-02  0.6649602E+03  0.7818609E-02  0.9779105E-01
       -1   -1    0    0    0  501  0.00000000000E+00  0.00000000000E+00  0.41527125039E+03  0.41527125042E+03  0.50400001928E-02 0.  1.
        1   -1    0    0  501    0  0.00000000000E+00  0.00000000000E+00 -0.26619475366E+03  0.26619475370E+03  0.50400001928E-02 0. -1.
    10030    2    1    2    0    0  0.00000000000E+00  0.00000000000E+00  0.14907649674E+03  0.68146600413E+03  0.66496023407E+03 0.  0.
        2    1    3    3  502    0 -0.85446031328E+01  0.14730611988E+03  0.37987838361E+03  0.40752875915E+03  0.25500000920E-02 0.  1.
       -2    1    3    3    0  502  0.85446031328E+01 -0.14730611988E+03 -0.23080188687E+03  0.27393724498E+03  0.25500000920E-02 0. -1.
</event>
<event>
 5   0  0.2414128E-02  0.8951537E+03  0.7818609E-02  0.9431660E-01
        2   -1    0    0  501    0  0.00000000000E+00  0.00000000000E+00  0.33094514627E+03  0.33094514628E+03  0.25500000920E-02 0.  1.
       -2   -1    0    0    0  501  0.00000000000E+00  0.00000000000E+00 -0.60531185451E+03  0.60531185452E+03  0.25500000920E-02 0. -1.
    10030    2    1    2    0    0  0.00000000000E+00  0.00000000000E+00 -0.27436670824E+03  0.93625700079E+03  0.89515366332E+03 0.  0.
        3    1    3    3  502    0 -0.18878756086E+03  0.25222207306E+03  0.19532682867E+03  0.37068760091E+03  0.10100000352E+00 0.  1.
       -3    1    3    3    0  502  0.18878756086E+03 -0.25222207306E+03 -0.46969353691E+03  0.56556939988E+03  0.10100000352E+00 0. -1.
</event>
<event>
 5   0  0.1537870E-02  0.9002886E+03  0.7818609E-02  0.9425221E-01
        1   -1    0    0  501    0  0.00000000000E+00  0.00000000000E+00  0.35423247255E+03  0.35423247259E+03  0.50400001928E-02 0. -1.
       -1   -1    0    0    0  501  0.00000000000E+00  0.00000000000E+00 -0.57202516398E+03  0.57202516400E+03  0.50400001928E-02 0.  1.
    10030    2    1    2    0    0  0.00000000000E+00  0.00000000000E+00 -0.21779269143E+03  0.92625763659E+03  0.90028859423E+03 0.  0.
        5    1    3    3  502    0 -0.33988890073E+03  0.13375214183E+03  0.16173825729E+03  0.39949399764E+03  0.46999998093E+01 0. -1.
       -5    1    3    3    0  502  0.33988890073E+03 -0.13375214183E+03 -0.37953094872E+03  0.52676363895E+03  0.46999998093E+01 0.  1.
</event>
<event>
 5   0  0.2414128E-02  0.8953416E+03  0.7818609E-02  0.9431423E-01
        2   -1    0    0  501    0  0.00000000000E+00  0.00000000000E+00  0.12491713314E+04  0.12491713314E+04  0.25500000920E-02 0. -1.
       -2   -1    0    0    0  501  0.00000000000E+00  0.00000000000E+00 -0.16043366915E+03  0.16043366917E+03  0.25500000920E-02 0.  1.
    10030    2    1    2    0    0  0.00000000000E+00  0.00000000000E+00  0.10887376622E+04  0.14096050005E+04  0.89534158868E+03 0.  0.
        3    1    3    3  502    0  0.43367206113E+03 -0.31436208307E+02  0.37664458282E+03  0.57525719793E+03  0.10100000352E+00 0. -1.
       -3    1    3    3    0  502 -0.43367206113E+03  0.31436208307E+02  0.71209307941E+03  0.83434780262E+03  0.10100000352E+00 0.  1.
</event>
<event>
 5   0  0.1559275E-02  0.9031610E+03  0.7818609E-02  0.9421639E-01
        1   -1    0    0  501    0  0.00000000000E+00  0.00000000000E+00  0.41389433648E+03  0.41389433651E+03  0.50400001928E-02 0.  1.
       -1   -1    0    0    0  501  0.00000000000E+00  0.00000000000E+00 -0.49269809082E+03  0.49269809084E+03  0.50400001928E-02 0. -1.
    10030    2    1    2    0    0  0.00000000000E+00  0.00000000000E+00 -0.78803754338E+02  0.90659242735E+03  0.90316100316E+03 0.  0.
        1    1    3    3  502    0  0.10205814315E+03 -0.46700299099E+02 -0.47847450647E+03  0.49146173390E+03  0.50400001928E-02 0. -1.
       -1    1    3    3    0  502 -0.10205814315E+03  0.46700299099E+02  0.39967075213E+03  0.41513069346E+03  0.50400001928E-02 0.  1.
</event>
<event>
 5   0  0.1537870E-02  0.9083038E+03  0.7818609E-02  0.9415260E-01
       -1   -1    0    0    0  501  0.00000000000E+00  0.00000000000E+00  0.56296027944E+03  0.56296027946E+03  0.50400001928E-02 0.  1.
        1   -1    0    0  501    0  0.00000000000E+00  0.00000000000E+00 -0.36637386093E+03  0.36637386096E+03  0.50400001928E-02 0. -1.
    10030    2    1    2    0    0  0.00000000000E+00  0.00000000000E+00  0.19658641851E+03  0.92933414043E+03  0.90830376231E+03 0.  0.
        5    1    3    3  502    0  0.10103198415E+03  0.41875645087E+03  0.24538344713E+03  0.49578175954E+03  0.46999998093E+01 0.  1.
       -5    1    3    3    0  502 -0.10103198415E+03 -0.41875645087E+03 -0.48797028620E+02  0.43355238088E+03  0.46999998093E+01 0. -1.
</event>
<event>
 5   0  0.2414128E-02  0.9378973E+03  0.7818609E-02  0.9379410E-01
       -2   -1    0    0    0  501  0.00000000000E+00  0.00000000000E+00  0.13744881920E+04  0.13744881920E+04  0.25500000920E-02 0. -1.
        2   -1    0    0  501    0  0.00000000000E+00  0.00000000000E+00 -0.15999615313E+03  0.15999615315E+03  0.25500000920E-02 0.  1.
    10030    2    1    2    0    0  0.00000000000E+00  0.00000000000E+00  0.12144920389E+04  0.15344843452E+04  0.93789727213E+03 0.  0.
        3    1    3    3  502    0 -0.10216744522E+03  0.37699649394E+03  0.18265538457E+03  0.43119316207E+03  0.10100000352E+00 0.  1.
       -3    1    3    3    0  502  0.10216744522E+03 -0.37699649394E+03  0.10318366543E+04  0.11032911831E+04  0.10100000352E+00 0. -1.
</event>
<event>
 5   0  0.1559275E-02  0.8972499E+03  0.7818609E-02  0.9429026E-01
        1   -1    0    0  501    0  0.00000000000E+00  0.00000000000E+00  0.47806955583E+03  0.47806955586E+03  0.50400001928E-02 0. -1.
       -1   -1    0    0    0  501  0.00000000000E+00  0.00000000000E+00 -0.42099389963E+03  0.42099389966E+03  0.50400001928E-02 0.  1.
    10030    2    1    2    0    0  0.00000000000E+00  0.00000000000E+00  0.57075656199E+02  0.89906345552E+03  0.89724994651E+03 0.  0.
        1    1    3    3  502    0 -0.43608447972E+03 -0.53517610995E+02 -0.62367964173E+02  0.44376071381E+03  0.50400001928E-02 0. -1.
       -1    1    3    3    0  502  0.43608447972E+03  0.53517610995E+02  0.11944362037E+03  0.45530274171E+03  0.50400001928E-02 0.  1.
</event>
<event>
 5   0  0.1459111E-02  0.8882406E+03  0.7818609E-02  0.9440402E-01
        1   -1    0    0  501    0  0.00000000000E+00  0.00000000000E+00  0.71778443843E+03  0.71778443845E+03  0.50400001928E-02 0.  1.
       -1   -1    0    0    0  501  0.00000000000E+00  0.00000000000E+00 -0.27479396830E+03  0.27479396834E+03  0.50400001928E-02 0. -1.
    10030    2    1    2    0    0  0.00000000000E+00  0.00000000000E+00  0.44299047013E+03  0.99257840679E+03  0.88824058509E+03 0.  0.
        2    1    3    3  502    0 -0.28881607782E+03  0.29254125885E+03  0.33682124866E+02  0.41246769628E+03  0.25500000920E-02 0. -1.
       -2    1    3    3    0  502  0.28881607782E+03 -0.29254125885E+03  0.40930834527E+03  0.58011071051E+03  0.25500000920E-02 0.  1.
</event>
<event>
 5   0  0.2628383E-02  0.9279976E+03  0.7818609E-02  0.9391244E-01
       -2   -1    0    0    0  501  0.00000000000E+00  0.00000000000E+00  0.19806916097E+03  0.19806916098E+03  0.25500000920E-02 0. -1.
        2   -1    0    0  501    0  0.00000000000E+00  0.00000000000E+00 -0.10869681594E+04  0.10869681594E+04  0.25500000920E-02 0.  1.
    10030    2    1    2    0    0  0.00000000000E+00  0.00000000000E+00 -0.88889899844E+03  0.12850373204E+04  0.92799756755E+03 0.  0.
        2    1    3    3  502    0  0.91497419221E+01 -0.33058566337E+03  0.62288016872E+01  0.33077091253E+03  0.25500000920E-02 0. -1.
       -2    1    3    3    0  502 -0.91497419221E+01  0.33058566337E+03 -0.89512780013E+03  0.95426640786E+03  0.25500000920E-02 0.  1.
</event>
<event>
 5   0  0.2628383E-02  0.8922326E+03  0.7818609E-02  0.9435343E-01
       -2   -1    0    0    0  501  0.00000000000E+00  0.00000000000E+00  0.26246277666E+03  0.26246277667E+03  0.25500000920E-02 0.  1.
        2   -1    0    0  501    0  0.00000000000E+00  0.00000000000E+00 -0.75827800202E+03  0.75827800202E+03  0.25500000920E-02 0. -1.
    10030    2    1    2    0    0  0.00000000000E+00  0.00000000000E+00 -0.49581522536E+03  0.10207407787E+04  0.89223259276E+03 0.  0.
        2    1    3    3  502    0 -0.21816957680E+03  0.30400402201E+03  0.29984154541E+02  0.37538707912E+03  0.25500000920E-02 0.  1.
       -2    1    3    3    0  502  0.21816957680E+03 -0.30400402201E+03 -0.52579937990E+03  0.64535369957E+03  0.25500000920E-02 0. -1.
</event>
<event>
 5   0  0.2705111E-02  0.9042226E+03  0.7818609E-02  0.9420318E-01
       -2   -1    0    0    0  501  0.00000000000E+00  0.00000000000E+00  0.56776496412E+03  0.56776496413E+03  0.25500000920E-02 0.  1.
        2   -1    0    0  501    0  0.00000000000E+00  0.00000000000E+00 -0.36001624306E+03  0.36001624307E+03  0.25500000920E-02 0. -1.
    10030    2    1    2    0    0  0.00000000000E+00  0.00000000000E+00  0.20774872106E+03  0.92778120720E+03  0.90422255962E+03 0.  0.
        4    1    3    3  502    0  0.39296892514E+03 -0.81368007267E+02 -0.10977578329E+03  0.41605007418E+03  0.12699999809E+01 0. -1.
       -4    1    3    3    0  502 -0.39296892514E+03  0.81368007267E+02  0.31752450435E+03  0.51173113301E+03  0.12699999809E+01 0.  1.
</event>
<event>
 5   0  0.2679861E-02  0.9033619E+03  0.7818609E-02  0.9421389E-01
        2   -1    0    0  501    0  0.00000000000E+00  0.00000000000E+00  0.74163961954E+03  0.74163961954E+03  0.25500000920E-02 0. -1.
       -2   -1    0    0    0  501  0.00000000000E+00  0.00000000000E+00 -0.27508737792E+03  0.27508737793E+03  0.25500000920E-02 0.  1.
    10030    2    1    2    0    0  0.00000000000E+00  0.00000000000E+00  0.46655224162E+03  0.10167269975E+04  0.90336193922E+03 0.  0.
        1    1    3    3  502    0  0.27573135642E+02  0.45029568754E+03  0.25816997360E+03  0.51978670561E+03  0.50400001928E-02 0. -1.
       -1    1    3    3    0  502 -0.27573135642E+02 -0.45029568754E+03  0.20838226802E+03  0.49694029186E+03  0.50400001928E-02 0.  1.
</event>
<event>
 5   0  0.1040163E-02  0.9045927E+03  0.7818609E-02  0.9419859E-01
       -4   -1    0    0    0  501  0.00000000000E+00  0.00000000000E+00  0.12230192906E+04  0.12230199500E+04  0.12699999809E+01 0.  1.
        4   -1    0    0  501    0  0.00000000000E+00  0.00000000000E+00 -0.16726487146E+03  0.16726969278E+03  0.12699999809E+01 0. -1.
    10030    2    1    2    0    0  0.00000000000E+00  0.00000000000E+00  0.10557544192E+04  0.13902896428E+04  0.90459266926E+03 0.  0.
        2    1    3    3  502    0 -0.20019970646E+03  0.35234284362E+03  0.83659065609E+03  0.92957481021E+03  0.25500000920E-02 0.  1.
       -2    1    3    3    0  502  0.20019970646E+03 -0.35234284362E+03  0.21916376309E+03  0.46071483260E+03  0.25500000920E-02 0. -1.
</event>
<event>
 5   0  0.2628383E-02  0.9083156E+03  0.7818609E-02  0.9415246E-01
       -2   -1    0    0    0  501  0.00000000000E+00  0.00000000000E+00  0.12514426786E+03  0.12514426789E+03  0.25500000920E-02 0.  1.
        2   -1    0    0  501    0  0.00000000000E+00  0.00000000000E+00 -0.16481720984E+04  0.16481720984E+04  0.25500000920E-02 0. -1.
    10030    2    1    2    0    0  0.00000000000E+00  0.00000000000E+00 -0.15230278305E+04  0.17733163663E+04  0.90831556319E+03 0.  0.
        2    1    3    3  502    0 -0.11324271346E+03 -0.83380802847E+02  0.81566719440E+02  0.16257121566E+03  0.25500000920E-02 0.  1.
       -2    1    3    3    0  502  0.11324271346E+03  0.83380802847E+02 -0.16045945500E+04  0.16107451506E+04  0.25500000920E-02 0. -1.
</event>
<event>
 5   0  0.2414128E-02  0.9003298E+03  0.7818609E-02  0.9425169E-01
       -2   -1    0    0    0  501  0.00000000000E+00  0.00000000000E+00  0.48403622433E+03  0.48403622434E+03  0.25500000920E-02 0.  1.
        2   -1    0    0  501    0  0.00000000000E+00  0.00000000000E+00 -0.41866375590E+03  0.41866375591E+03  0.25500000920E-02 0. -1.
    10030    2    1    2    0    0  0.00000000000E+00  0.00000000000E+00  0.65372468429E+02  0.90269998024E+03  0.90032976998E+03 0.  0.
        3    1    3    3  502    0  0.71537511390E+02 -0.37568389764E+02  0.47670580824E+03  0.48350536424E+03  0.10100000352E+00 0.  1.
       -3    1    3    3    0  502 -0.71537511390E+02  0.37568389764E+02 -0.41133333981E+03  0.41919461600E+03  0.10100000352E+00 0. -1.
</event>
<event>
 5   0  0.1537870E-02  0.8634011E+03  0.7818609E-02  0.9472525E-01
        1   -1    0    0  501    0  0.00000000000E+00  0.00000000000E+00  0.85464203333E+03  0.85464203334E+03  0.50400001928E-02 0.  1.
       -1   -1    0    0    0  501  0.00000000000E+00  0.00000000000E+00 -0.21806248989E+03  0.21806248995E+03  0.50400001928E-02 0. -1.
    10030    2    1    2    0    0  0.00000000000E+00  0.00000000000E+00  0.63657954344E+03  0.10727045233E+04  0.86340111140E+03 0.  0.
        5    1    3    3  502    0  0.29675709873E+03  0.28282992066E+03  0.15028416310E+03  0.43665198882E+03  0.46999998093E+01 0. -1.
       -5    1    3    3    0  502 -0.29675709873E+03 -0.28282992066E+03  0.48629538033E+03  0.63605253447E+03  0.46999998093E+01 0.  1.
</event>
<event>
 5   0  0.1537870E-02  0.4961342E+03  0.7818609E-02  0.1014793E+00
        1   -1    0    0  501    0  0.00000000000E+00  0.00000000000E+00  0.41153566148E+03  0.41153566151E+03  0.50400001928E-02 0.  1.
       -1   -1    0    0    0  501  0.00000000000E+00  0.00000000000E+00 -0.14953089796E+03  0.14953089805E+03  0.50400001928E-02 0. -1.
    10030    2    1    2    0    0  0.00000000000E+00  0.00000000000E+00  0.26200476351E+03  0.56106655956E+03  0.49613424408E+03 0.  0.
        5    1    3    3  502    0  0.94723817022E+02  0.38647167999E+02 -0.12450815174E+03  0.16121592649E+03  0.46999998093E+01 0. -1.
       -5    1    3    3    0  502 -0.94723817022E+02 -0.38647167999E+02  0.38651291526E+03  0.39985063307E+03  0.46999998093E+01 0.  1.
</event>
<event>
 5   0  0.1497410E-02  0.9012812E+03  0.7818609E-02  0.9423981E-01
        1   -1    0    0  501    0  0.00000000000E+00  0.00000000000E+00  0.38510626366E+03  0.38510626370E+03  0.50400001928E-02 0. -1.
       -1   -1    0    0    0  501  0.00000000000E+00  0.00000000000E+00 -0.52732710135E+03  0.52732710137E+03  0.50400001928E-02 0.  1.
    10030    2    1    2    0    0  0.00000000000E+00  0.00000000000E+00 -0.14222083768E+03  0.91243336507E+03  0.90128124302E+03 0.  0.
        3    1    3    3  502    0  0.32877892053E+03  0.66987673527E+02  0.23343410573E+03  0.40874737786E+03  0.10100000352E+00 0. -1.
       -3    1    3    3    0  502 -0.32877892053E+03 -0.66987673527E+02 -0.37565494342E+03  0.50368598720E+03  0.10100000352E+00 0.  1.
</event>
<event>
 5   0  0.1040163E-02  0.8710304E+03  0.7818609E-02  0.9462537E-01
        3   -1    0    0  501    0  0.00000000000E+00  0.00000000000E+00  0.66817628670E+03  0.66817629433E+03  0.10100000352E+00 0. -1.
       -3   -1    0    0    0  501  0.00000000000E+00  0.00000000000E+00 -0.28386743621E+03  0.28386745418E+03  0.10100000352E+00 0.  1.
    10030    2    1    2    0    0  0.00000000000E+00  0.00000000000E+00  0.38430885049E+03  0.95204374851E+03  0.87103042801E+03 0.  0.
        5    1    3    3  502    0  0.40819743620E+03 -0.91130319509E+02  0.32477168407E+03  0.52955511406E+03  0.46999998093E+01 0. -1.
       -5    1    3    3    0  502 -0.40819743620E+03  0.91130319509E+02  0.59537166420E+02  0.42248863445E+03  0.46999998093E+01 0.  1.
</event>
<event>
 5   0  0.2803717E-02  0.8752439E+03  0.7818609E-02  0.9457068E-01
        2   -1    0    0  501    0  0.00000000000E+00  0.00000000000E+00  0.11140504845E+04  0.11140504845E+04  0.25500000920E-02 0. -1.
       -2   -1    0    0    0  501  0.00000000000E+00  0.00000000000E+00 -0.17190689030E+03  0.17190689031E+03  0.25500000920E-02 0.  1.
    10030    2    1    2    0    0  0.00000000000E+00  0.00000000000E+00  0.94214359420E+03  0.12859573748E+04  0.87524386187E+03 0.  0.
        5    1    3    3  502    0 -0.24400164988E+03 -0.27692794698E+03  0.81647190969E+03  0.89603256764E+03  0.46999998093E+01 0. -1.
       -5    1    3    3    0  502  0.24400164988E+03  0.27692794698E+03  0.12567168451E+03  0.38992480718E+03  0.46999998093E+01 0.  1.
</event>
<event>
 5   0  0.1560728E-02  0.8776063E+03  0.7818609E-02  0.9454016E-01
       -1   -1    0    0    0  501  0.00000000000E+00  0.00000000000E+00  0.25788088058E+03  0.25788088063E+03  0.50400001928E-02 0.  1.
        1   -1    0    0  501    0  0.00000000000E+00  0.00000000000E+00 -0.74665565346E+03  0.74665565348E+03  0.50400001928E-02 0. -1.
    10030    2    1    2    0    0  0.00000000000E+00  0.00000000000E+00 -0.48877477288E+03  0.10045365341E+04  0.87760632960E+03 0.  0.
        4    1    3    3  502    0 -0.64578354608E+02 -0.24913120219E+03 -0.65119086590E+03  0.70020559589E+03  0.12699999809E+01 0. -1.
       -4    1    3    3    0  502  0.64578354608E+02  0.24913120219E+03  0.16241609302E+03  0.30433093822E+03  0.12699999809E+01 0.  1.
</event>
<event>
 5   0  0.2679861E-02  0.9064715E+03  0.7818609E-02  0.9417528E-01
        2   -1    0    0  501    0  0.00000000000E+00  0.00000000000E+00  0.64624302543E+03  0.64624302543E+03  0.25500000920E-02 0. -1.
       -2   -1    0    0    0  501  0.00000000000E+00  0.00000000000E+00 -0.31787210014E+03  0.31787210015E+03  0.25500000920E-02 0.  1.
    10030    2    1    2    0    0  0.00000000000E+00  0.00000000000E+00  0.32837092529E+03  0.96411512559E+03  0.90647146167E+03 0.  0.
        1    1    3    3  502    0 -0.22317800470E+03 -0.39369330597E+03  0.19066411611E+03  0.49107600853E+03  0.50400001928E-02 0.  1.
       -1    1    3    3    0  502  0.22317800470E+03  0.39369330597E+03  0.13770680917E+03  0.47303911706E+03  0.50400001928E-02 0. -1.
</event>
<event>
 5   0  0.1040163E-02  0.8979545E+03  0.7818609E-02  0.9428142E-01
        3   -1    0    0  501    0  0.00000000000E+00  0.00000000000E+00  0.30653777846E+03  0.30653779510E+03  0.10100000352E+00 0. -1.
       -3   -1    0    0    0  501  0.00000000000E+00  0.00000000000E+00 -0.65760435874E+03  0.65760436649E+03  0.10100000352E+00 0.  1.
    10030    2    1    2    0    0  0.00000000000E+00  0.00000000000E+00 -0.35106658027E+03  0.96414216160E+03  0.89795454450E+03 0.  0.
        2    1    3    3  502    0  0.25448317182E+03 -0.34942819372E+03 -0.45269542458E+02  0.43463902124E+03  0.25500000920E-02 0. -1.
       -2    1    3    3    0  502 -0.25448317182E+03  0.34942819372E+03 -0.30579703782E+03  0.52950314036E+03  0.25500000920E-02 0.  1.
</event>
<event>
 5   0  0.2628383E-02  0.8719285E+03  0.7818609E-02  0.9461369E-01
        2   -1    0    0  501    0  0.00000000000E+00  0.00000000000E+00  0.26918479487E+03  0.26918479488E+03  0.25500000920E-02 0. -1.
       -2   -1    0    0    0  501  0.00000000000E+00  0.00000000000E+00 -0.70607567050E+03  0.70607567050E+03  0.25500000920E-02 0.  1.
    10030    2    1    2    0    0  0.00000000000E+00  0.00000000000E+00 -0.43689087563E+03  0.97526046538E+03  0.87192851664E+03 0.  0.
        2    1    3    3  502    0  0.59122724729E+02 -0.37535615454E+03 -0.45749556356E+03  0.59471836193E+03  0.25500000920E-02 0.  1.
       -2    1    3    3    0  502 -0.59122724729E+02  0.37535615454E+03  0.20604687926E+02  0.38054210346E+03  0.25500000920E-02 0. -1.
</event>
<event>
 5   0  0.1537870E-02  0.8808331E+03  0.7818609E-02  0.9449863E-01
       -1   -1    0    0    0  501  0.00000000000E+00  0.00000000000E+00  0.21796418351E+03  0.21796418357E+03  0.50400001928E-02 0. -1.
        1   -1    0    0  501    0  0.00000000000E+00  0.00000000000E+00 -0.88990196829E+03  0.88990196831E+03  0.50400001928E-02 0.  1.
    10030    2    1    2    0    0  0.00000000000E+00  0.00000000000E+00 -0.67193778478E+03  0.11078661519E+04  0.88083314189E+03 0.  0.
        5    1    3    3  502    0  0.30753243411E+03 -0.30824920816E+03 -0.41893159259E+03  0.60425122394E+03  0.46999998093E+01 0.  1.
       -5    1    3    3    0  502 -0.30753243411E+03  0.30824920816E+03 -0.25300619219E+03  0.50361492794E+03  0.46999998093E+01 0. -1.
</event>
<event>
 5   0  0.2705111E-02  0.9812930E+03  0.7818609E-02  0.9329304E-01
       -2   -1    0    0    0  501  0.00000000000E+00  0.00000000000E+00  0.75188780979E+03  0.75188780979E+03  0.25500000920E-02 0.  1.
        2   -1    0    0  501    0  0.00000000000E+00  0.00000000000E+00 -0.32017272390E+03  0.32017272391E+03  0.25500000920E-02 0. -1.
    10030    2    1    2    0    0  0.00000000000E+00  0.00000000000E+00  0.43171508589E+03  0.10720605337E+04  0.98129295958E+03 0.  0.
        4    1    3    3  502    0 -0.26042075178E+03 -0.15675633520E+03  0.63663357167E+03  0.70547532491E+03  0.12699999809E+01 0.  1.
       -4    1    3    3    0  502  0.26042075178E+03  0.15675633520E+03 -0.20491848578E+03  0.36658520878E+03  0.12699999809E+01 0. -1.
</event>
<event>
 5   0  0.2803717E-02  0.8961504E+03  0.7818609E-02  0.9430406E-01
       -2   -1    0    0    0  501  0.00000000000E+00  0.00000000000E+00  0.13705837065E+03  0.13705837067E+03  0.25500000920E-02 0. -1.
        2   -1    0    0  501    0  0.00000000000E+00  0.00000000000E+00 -0.14648604489E+04  0.14648604489E+04  0.25500000920E-02 0.  1.
    10030    2    1    2    0    0  0.00000000000E+00  0.00000000000E+00 -0.13278020783E+04  0.16019188196E+04  0.89615040340E+03 0.  0.
        5    1    3    3  502    0  0.34576109506E+03 -0.18273509791E+03 -0.10547444783E+04  0.11249225998E+04  0.46999998093E+01 0.  1.
       -5    1    3    3    0  502 -0.34576109506E+03  0.18273509791E+03 -0.27305759995E+03  0.47699621985E+03  0.46999998093E+01 0. -1.
</event>
<event>
 5   0  0.1560728E-02  0.8661302E+03  0.7818609E-02  0.9468940E-01
        1   -1    0    0  501    0  0.00000000000E+00  0.00000000000E+00  0.96652090800E+03  0.96652090801E+03  0.50400001928E-02 0. -1.
       -1   -1    0    0    0  501  0.00000000000E+00  0.00000000000E+00 -0.19404170384E+03  0.19404170390E+03  0.50400001928E-02 0.  1.
    10030    2    1    2    0    0  0.00000000000E+00  0.00000000000E+00  0.77247920416E+03  0.11605626119E+04  0.86613016072E+03 0.  0.
        4    1    3    3  502    0 -0.26288633853E+02 -0.42488224191E+02 -0.19016430802E+03  0.19662252773E+03  0.12699999809E+01 0.  1.
       -4    1    3    3    0  502  0.26288633853E+02  0.42488224191E+02  0.96264351218E+03  0.96394008419E+03  0.12699999809E+01 0. -1.
</event>
<event>
 5   0  0.2414128E-02  0.8888211E+03  0.7818609E-02  0.9439665E-01
        2   -1    0    0  501    0  0.00000000000E+00  0.00000000000E+00  0.11830210159E+04  0.11830210159E+04  0.25500000920E-02 0. -1.
       -2   -1    0    0    0  501  0.00000000000E+00  0.00000000000E+00 -0.16694608379E+03  0.16694608381E+03  0.25500000920E-02 0.  1.
    10030    2    1    2    0    0  0.00000000000E+00  0.00000000000E+00  0.10160749321E+04  0.13499670997E+04  0.88882107462E+03 0.  0.
        3    1    3    3  502    0 -0.40990223515E+03  0.17071791647E+03  0.53588908041E+03  0.69594652531E+03  0.10100000352E+00 0.  1.
       -3    1    3    3    0  502  0.40990223515E+03 -0.17071791647E+03  0.48018585172E+03  0.65402057443E+03  0.10100000352E+00 0. -1.
</event>
<event>
 5   0  0.1537870E-02  0.9295744E+03  0.7818609E-02  0.9389349E-01
        1   -1    0    0  501    0  0.00000000000E+00  0.00000000000E+00  0.82099971110E+03  0.82099971111E+03  0.50400001928E-02 0.  1.
       -1   -1    0    0    0  501  0.00000000000E+00  0.00000000000E+00 -0.26312696742E+03  0.26312696747E+03  0.50400001928E-02 0. -1.
    10030    2    1    2    0    0  0.00000000000E+00  0.00000000000E+00  0.55787274368E+03  0.10841266786E+04  0.92957444945E+03 0.  0.
        5    1    3    3  502    0 -0.40464913815E+03  0.59880415640E+02  0.53625094347E+03  0.67447294501E+03  0.46999998093E+01 0.  1.
       -5    1    3    3    0  502  0.40464913815E+03 -0.59880415640E+02  0.21621800208E+02  0.40965373357E+03  0.46999998093E+01 0. -1.
</event>
<event>
 5   0  0.1559275E-02  0.8974009E+03  0.7818609E-02  0.9428836E-01
       -1   -1    0    0    0  501  0.00000000000E+00  0.00000000000E+00  0.16160078216E+03  0.16160078224E+03  0.50400001928E-02 0. -1.
        1   -1    0    0  501    0  0.00000000000E+00  0.00000000000E+00 -0.12458609924E+04  0.12458609924E+04  0.50400001928E-02 0.  1.
    10030    2    1    2    0    0  0.00000000000E+00  0.00000000000E+00 -0.10842602103E+04  0.14074617747E+04  0.89740093805E+03 0.  0.
        1    1    3    3  502    0 -0.12768546359E+03  0.15347078258E+03  0.88105703484E+02  0.21821886657E+03  0.50400001928E-02 0. -1.
       -1    1    3    3    0  502  0.12768546359E+03 -0.15347078258E+03 -0.11723659138E+04  0.11892429081E+04  0.50400001928E-02 0.  1.
</event>
<event>
 5   0  0.1497410E-02  0.8927221E+03  0.7818609E-02  0.9434725E-01
       -1   -1    0    0    0  501  0.00000000000E+00  0.00000000000E+00  0.66136237944E+03  0.66136237946E+03  0.50400001928E-02 0.  1.
        1   -1    0    0  501    0  0.00000000000E+00  0.00000000000E+00 -0.30125418401E+03  0.30125418405E+03  0.50400001928E-02 0. -1.
    10030    2    1    2    0    0  0.00000000000E+00  0.00000000000E+00  0.36010819543E+03  0.96261656351E+03  0.89272209334E+03 0.  0.
        3    1    3    3  502    0 -0.41144016083E+03 -0.16550154699E+03  0.12544934797E+03  0.46088102272E+03  0.10100000352E+00 0. -1.
       -3    1    3    3    0  502  0.41144016083E+03  0.16550154699E+03  0.23465884746E+03  0.50173554079E+03  0.10100000352E+00 0.  1.
</event>
<event>
 5   0  0.1560728E-02  0.9769679E+03  0.7818609E-02  0.9334173E-01
        1   -1    0    0  501    0  0.00000000000E+00  0.00000000000E+00  0.19802327518E+04  0.19802327518E+04  0.50400001928E-02 0. -1.
       -1   -1    0    0    0  501  0.00000000000E+00  0.00000000000E+00 -0.12049924709E+03  0.12049924719E+03  0.50400001928E-02 0.  1.
    10030    2    1    2    0    0  0.00000000000E+00  0.00000000000E+00  0.18597335047E+04  0.21007319990E+04  0.97696787208E+03 0.  0.
        4    1    3    3  502    0  0.20888933601E+03 -0.40487286846E+03  0.13088134705E+04  0.13858394957E+04  0.12699999809E+01 0. -1.
       -4    1    3    3    0  502 -0.20888933601E+03  0.40487286846E+03  0.55092003420E+03  0.71489250331E+03  0.12699999809E+01 0.  1.
</event>
<event>
 5   0  0.2414128E-02  0.8820022E+03  0.7818609E-02  0.9448363E-01
        2   -1    0    0  501    0  0.00000000000E+00  0.00000000000E+00  0.63116507612E+03  0.63116507612E+03  0.25500000920E-02 0.  1.
       -2   -1    0    0    0  501  0.00000000000E+00  0.00000000000E+00 -0.30813172166E+03  0.30813172167E+03  0.25500000920E-02 0. -1.
    10030    2    1    2    0    0  0.00000000000E+00  0.00000000000E+00  0.32303335446E+03  0.93929679779E+03  0.88200222576E+03 0.  0.
        3    1    3    3  502    0  0.68333033472E+02 -0.42332570454E+03  0.27120191780E+03  0.50737022578E+03  0.10100000352E+00 0. -1.
       -3    1    3    3    0  502 -0.68333033472E+02  0.42332570454E+03  0.51831436652E+02  0.43192657201E+03  0.10100000352E+00 0.  1.
</event>
<event>
 5   0  0.1537870E-02  0.9071022E+03  0.7818609E-02  0.9416747E-01
        1   -1    0    0  501    0  0.00000000000E+00  0.00000000000E+00  0.52297573173E+03  0.52297573176E+03  0.50400001928E-02 0.  1.
       -1   -1    0    0    0  501  0.00000000000E+00  0.00000000000E+00 -0.39334250281E+03  0.39334250284E+03  0.50400001928E-02 0. -1.
    10030    2    1    2    0    0  0.00000000000E+00  0.00000000000E+00  0.12963322892E+03  0.91631823460E+03  0.90710216240E+03 0.  0.
        5    1    3    3  502    0 -0.16998965622E+03 -0.28826181385E+03  0.37402314047E+03  0.50190313423E+03  0.46999998093E+01 0.  1.
       -5    1    3    3    0  502  0.16998965622E+03  0.28826181385E+03 -0.24438991155E+03  0.41441510037E+03  0.46999998093E+01 0. -1.
</event>
<event>
 5   0  0.2414128E-02  0.8980997E+03  0.7818609E-02  0.9427960E-01
        2   -1    0    0  501    0  0.00000000000E+00  0.00000000000E+00  0.12377074556E+04  0.12377074556E+04  0.25500000920E-02 0.  1.
       -2   -1    0    0    0  501  0.00000000000E+00  0.00000000000E+00 -0.16291875926E+03  0.16291875928E+03  0.25500000920E-02 0. -1.
    10030    2    1    2    0    0  0.00000000000E+00  0.00000000000E+00  0.10747886963E+04  0.14006262149E+04  0.89809968936E+03 0.  0.
        3    1    3    3  502    0 -0.85380108761E+02 -0.42983344706E+03  0.38459722733E+03  0.58306225453E+03  0.10100000352E+00 0. -1.
       -3    1    3    3    0  502  0.85380108761E+02  0.42983344706E+03  0.69019146898E+03  0.81756396033E+03  0.10100000352E+00 0.  1.
</event>
<event>
 5   0  0.2803717E-02  0.9053163E+03  0.7818609E-02  0.9418960E-01
        2   -1    0    0  501    0  0.00000000000E+00  0.00000000000E+00  0.80407092038E+03  0.80407092038E+03  0.25500000920E-02 0. -1.
       -2   -1    0    0    0  501  0.00000000000E+00  0.00000000000E+00 -0.25482754935E+03  0.25482754936E+03  0.25500000920E-02 0.  1.
    10030    2    1    2    0    0  0.00000000000E+00  0.00000000000E+00  0.54924337103E+03  0.10588984697E+04  0.90531634726E+03 0.  0.
        5    1    3    3  502    0  0.32761214584E+03  0.19204283524E+03 -0.13470052169E+02  0.38001802717E+03  0.46999998093E+01 0.  1.
       -5    1    3    3    0  502 -0.32761214584E+03 -0.19204283524E+03  0.56271342320E+03  0.67888044258E+03  0.46999998093E+01 0. -1.
</event>
<event>
 5   0  0.1459111E-02  0.7988816E+03  0.7818609E-02  0.9561637E-01
        1   -1    0    0  501    0  0.00000000000E+00  0.00000000000E+00  0.24572797184E+03  0.24572797189E+03  0.50400001928E-02 0.  1.
       -1   -1    0    0    0  501  0.00000000000E+00  0.00000000000E+00 -0.64930720517E+03  0.64930720519E+03  0.50400001928E-02 0. -1.
    10030    2    1    2    0    0  0.00000000000E+00  0.00000000000E+00 -0.40357923333E+03  0.89503517708E+03  0.79888157485E+03 0.  0.
        2    1    3    3  502    0 -0.30862814512E+03  0.14606972161E+03  0.30439332321E+02  0.34280351295E+03  0.25500000920E-02 0.  1.
       -2    1    3    3    0  502  0.30862814512E+03 -0.14606972161E+03 -0.43401856565E+03  0.55223166413E+03  0.25500000920E-02 0. -1.
</event>
<event>
 5   0  0.1560728E-02  0.9263740E+03  0.7818609E-02  0.9393200E-01
        1   -1    0    0  501    0  0.00000000000E+00  0.00000000000E+00  0.24036320624E+03  0.24036320629E+03  0.50400001928E-02 0.  1.
       -1   -1    0    0    0  501  0.00000000000E+00  0.00000000000E+00 -0.89257499474E+03  0.89257499475E+03  0.50400001928E-02 0. -1.
    10030    2    1    2    0    0  0.00000000000E+00  0.00000000000E+00 -0.65221178850E+03  0.11329382010E+04  0.92637397973E+03 0.  0.
        4    1    3    3  502    0 -0.38192363238E+03 -0.53919017563E+02 -0.63974199480E+03  0.74702366377E+03  0.12699999809E+01 0. -1.
       -4    1    3    3    0  502  0.38192363238E+03  0.53919017563E+02 -0.12469793703E+02  0.38591453727E+03  0.12699999809E+01 0.  1.
</event>
<event>
 5   0  0.2628383E-02  0.8698219E+03  0.7818609E-02  0.9464112E-01
       -2   -1    0    0    0  501  0.00000000000E+00  0.00000000000E+00  0.22286328270E+03  0.22286328271E+03  0.25500000920E-02 0.  1.
        2   -1    0    0  501    0  0.00000000000E+00  0.00000000000E+00 -0.84871551921E+03  0.84871551922E+03  0.25500000920E-02 0. -1.
    10030    2    1    2    0    0  0.00000000000E+00  0.00000000000E+00 -0.62585223652E+03  0.10715788019E+04  0.86982188222E+03 0.  0.
        2    1    3    3  502    0  0.21580459686E+03 -0.31530597195E+02 -0.77647696958E+03  0.80652482100E+03  0.25500000920E-02 0. -1.
       -2    1    3    3    0  502 -0.21580459686E+03  0.31530597195E+02  0.15062473307E+03  0.26505398093E+03  0.25500000920E-02 0.  1.
</event>
<event>
 5   0  0.2414128E-02  0.9003770E+03  0.7818609E-02  0.9425110E-01
        2   -1    0    0  501    0  0.00000000000E+00  0.00000000000E+00  0.13515970573E+04  0.13515970573E+04  0.25500000920E-02 0. -1.
       -2   -1    0    0    0  501  0.00000000000E+00  0.00000000000E+00 -0.14994829402E+03  0.14994829404E+03  0.25500000920E-02 0.  1.
    10030    2    1    2    0    0  0.00000000000E+00  0.00000000000E+00  0.12016487632E+04  0.15015453513E+04  0.90037697207E+03 0.  0.
        3    1    3    3  502    0  0.11715275279E+03  0.36987100288E+03  0.98162793266E+03  0.10555201252E+04  0.10100000352E+00 0.  1.
       -3    1    3    3    0  502 -0.11715275279E+03 -0.36987100288E+03  0.22002083058E+03  0.44602522614E+03  0.10100000352E+00 0. -1.
</event>
<event>
 5   0  0.1559275E-02  0.9035782E+03  0.7818609E-02  0.9421120E-01
        1   -1    0    0  501    0  0.00000000000E+00  0.00000000000E+00  0.11286607589E+04  0.11286607589E+04  0.50400001928E-02 0.  1.
       -1   -1    0    0    0  501  0.00000000000E+00  0.00000000000E+00 -0.18084565698E+03  0.18084565705E+03  0.50400001928E-02 0. -1.
    10030    2    1    2    0    0  0.00000000000E+00  0.00000000000E+00  0.94781510192E+03  0.13095064160E+04  0.90357821244E+03 0.  0.
        1    1    3    3  502    0 -0.30878268153E+03  0.24570788634E+03  0.15509241879E+03  0.42399618891E+03  0.50400001928E-02 0. -1.
       -1    1    3    3    0  502  0.30878268153E+03 -0.24570788634E+03  0.79272268313E+03  0.88551022704E+03  0.50400001928E-02 0.  1.
</event>
<event>
 5   0  0.2803717E-02  0.9112711E+03  0.7818609E-02  0.9411601E-01
        2   -1    0    0  501    0  0.00000000000E+00  0.00000000000E+00  0.61820633666E+03  0.61820633666E+03  0.25500000920E-02 0. -1.
       -2   -1    0    0    0  501  0.00000000000E+00  0.00000000000E+00 -0.33581627919E+03  0.33581627920E+03  0.25500000920E-02 0.  1.
    10030    2    1    2    0    0  0.00000000000E+00  0.00000000000E+00  0.28239005747E+03  0.95402261586E+03  0.91127109414E+03 0.  0.
        5    1    3    3  502    0  0.24458385612E+03  0.32264940000E+03 -0.77551826837E+02  0.41226238470E+03  0.46999998093E+01 0.  1.
       -5    1    3    3    0  502 -0.24458385612E+03 -0.32264940000E+03  0.35994188430E+03  0.54176023116E+03  0.46999998093E+01 0. -1.
</event>
<event>
 5   0  0.1560728E-02  0.9098397E+03  0.7818609E-02  0.9413364E-01
        1   -1    0    0  501    0  0.00000000000E+00  0.00000000000E+00  0.22399651334E+03  0.22399651340E+03  0.50400001928E-02 0. -1.
       -1   -1    0    0    0  501  0.00000000000E+00  0.00000000000E+00 -0.92390762529E+03  0.92390762530E+03  0.50400001928E-02 0.  1.
    10030    2    1    2    0    0  0.00000000000E+00  0.00000000000E+00 -0.69991111195E+03  0.11479041387E+04  0.90983973699E+03 0.  0.
        4    1    3    3  502    0 -0.43841161009E+03 -0.30501711775E+02 -0.49824906158E+03  0.66437100670E+03  0.12699999809E+01 0. -1.
       -4    1    3    3    0  502  0.43841161009E+03  0.30501711775E+02 -0.20166205037E+03  0.48353313200E+03  0.12699999809E+01 0.  1.
</event>
<event>
 5   0  0.1537870E-02  0.7958470E+03  0.7818609E-02  0.9566048E-01
       -1   -1    0    0    0  501  0.00000000000E+00  0.00000000000E+00  0.15904926057E+03  0.15904926065E+03  0.50400001928E-02 0. -1.
        1   -1    0    0  501    0  0.00000000000E+00  0.00000000000E+00 -0.99556012736E+03  0.99556012737E+03  0.50400001928E-02 0.  1.
    10030    2    1    2    0    0  0.00000000000E+00  0.00000000000E+00 -0.83651086679E+03  0.11546093880E+04  0.79584697565E+03 0.  0.
        5    1    3    3  502    0  0.93562871781E+02  0.38251867820E+03 -0.50091834103E+03  0.63719371036E+03  0.46999998093E+01 0.  1.
       -5    1    3    3    0  502 -0.93562871781E+02 -0.38251867820E+03 -0.33559252576E+03  0.51741567766E+03  0.46999998093E+01 0. -1.
</event>
<event>
 5   0  0.2628383E-02  0.7605761E+03  0.7818609E-02  0.9618903E-01
       -2   -1    0    0    0  501  0.00000000000E+00  0.00000000000E+00  0.86426079549E+02  0.86426079586E+02  0.25500000920E-02 0. -1.
        2   -1    0    0  501    0  0.00000000000E+00  0.00000000000E+00 -0.16733258687E+04  0.16733258687E+04  0.25500000920E-02 0.  1.
    10030    2    1    2    0    0  0.00000000000E+00  0.00000000000E+00 -0.15868997891E+04  0.17597519483E+04  0.76057608343E+03 0.  0.
        2    1    3    3  502    0 -0.29624132295E+03 -0.18866245492E+03 -0.11308594086E+04  0.11841433382E+04  0.25500000920E-02 0. -1.
       -2    1    3    3    0  502  0.29624132295E+03  0.18866245492E+03 -0.45604038048E+03  0.57560861004E+03  0.25500000920E-02 0.  1.
</event>
<event>
 5   0  0.1559275E-02  0.8993078E+03  0.7818609E-02  0.9426447E-01
       -1   -1    0    0    0  501  0.00000000000E+00  0.00000000000E+00  0.18323015592E+03  0.18323015599E+03  0.50400001928E-02 0.  1.
        1   -1    0    0  501    0  0.00000000000E+00  0.00000000000E+00 -0.11034680203E+04  0.11034680203E+04  0.50400001928E-02 0. -1.
    10030    2    1    2    0    0  0.00000000000E+00  0.00000000000E+00 -0.92023786434E+03  0.12866981763E+04  0.89930777259E+03 0.  0.
        1    1    3    3  502    0 -0.85070386875E+02  0.80375863404E+02 -0.10812940783E+04  0.10876093664E+04  0.50400001928E-02 0. -1.
       -1    1    3    3    0  502  0.85070386875E+02 -0.80375863404E+02  0.16105621394E+03  0.19908880987E+03  0.50400001928E-02 0.  1.
</event>
<event>
 5   0  0.1459111E-02  0.9075424E+03  0.7818609E-02  0.9416202E-01
       -1   -1    0    0    0  501  0.00000000000E+00  0.00000000000E+00  0.68209347859E+03  0.68209347860E+03  0.50400001928E-02 0. -1.
        1   -1    0    0  501    0  0.00000000000E+00  0.00000000000E+00 -0.30187694329E+03  0.30187694333E+03  0.50400001928E-02 0.  1.
    10030    2    1    2    0    0  0.00000000000E+00  0.00000000000E+00  0.38021653530E+03  0.98397042193E+03  0.90754238332E+03 0.  0.
        2    1    3    3  502    0  0.12571379785E+03 -0.43024129189E+03  0.26674899899E+03  0.52159999682E+03  0.25500000920E-02 0. -1.
       -2    1    3    3    0  502 -0.12571379785E+03  0.43024129189E+03  0.11346753631E+03  0.46237042511E+03  0.25500000920E-02 0.  1.
</event>
<event>
 5   0  0.2803717E-02  0.9062628E+03  0.7818609E-02  0.9417786E-01
        2   -1    0    0  501    0  0.00000000000E+00  0.00000000000E+00  0.10586491176E+04  0.10586491176E+04  0.25500000920E-02 0.  1.
       -2   -1    0    0    0  501  0.00000000000E+00  0.00000000000E+00 -0.19395291270E+03  0.19395291272E+03  0.25500000920E-02 0. -1.
    10030    2    1    2    0    0  0.00000000000E+00  0.00000000000E+00  0.86469620491E+03  0.12526020303E+04  0.90626283142E+03 0.  0.
        5    1    3    3  502    0  0.35916551883E+03 -0.16902762972E+03  0.13036617270E+03  0.41783685633E+03  0.46999998093E+01 0. -1.
       -5    1    3    3    0  502 -0.35916551883E+03  0.16902762972E+03  0.73433003220E+03  0.83476517400E+03  0.46999998093E+01 0.  1.
</event>
<event>
 5   0  0.2705111E-02  0.9043594E+03  0.7818609E-02  0.9420148E-01
       -2   -1    0    0    0  501  0.00000000000E+00  0.00000000000E+00  0.23707163699E+03  0.23707163700E+03  0.25500000920E-02 0.  1.
        2   -1    0    0  501    0  0.00000000000E+00  0.00000000000E+00 -0.86246714563E+03  0.86246714564E+03  0.25500000920E-02 0. -1.
    10030    2    1    2    0    0  0.00000000000E+00  0.00000000000E+00 -0.62539550865E+03  0.10995387826E+04  0.90435943755E+03 0.  0.
        4    1    3    3  502    0 -0.18863658188E+03 -0.32273902781E+03 -0.62200557131E+03  0.72569744641E+03  0.12699999809E+01 0. -1.
       -4    1    3    3    0  502  0.18863658188E+03  0.32273902781E+03 -0.33899373405E+01  0.37384133622E+03  0.12699999809E+01 0.  1.
</event>
<event>
 5   0  0.1459111E-02  0.1097144E+04  0.7818609E-02  0.9207980E-01
        1   -1    0    0  501    0  0.00000000000E+00  0.00000000000E+00  0.43656231118E+03  0.43656231121E+03  0.50400001928E-02 0.  1.
       -1   -1    0    0    0  501  0.00000000000E+00  0.00000000000E+00 -0.68931974647E+03  0.68931974648E+03  0.50400001928E-02 0. -1.
    10030    2    1    2    0    0  0.00000000000E+00  0.00000000000E+00 -0.25275743529E+03  0.11258820577E+04  0.10971436035E+04 0.  0.
        2    1    3    3  502    0 -0.49121440441E+03  0.24256464687E+03 -0.15543690949E+03  0.56946451325E+03  0.25500000920E-02 0. -1.
       -2    1    3    3    0  502  0.49121440441E+03 -0.24256464687E+03 -0.97320525799E+02  0.55641754444E+03  0.25500000920E-02 0.  1.
</event>
<event>
 5   0  0.1497410E-02  0.9212818E+03  0.7818609E-02  0.9399362E-01
        1   -1    0    0  501    0  0.00000000000E+00  0.00000000000E+00  0.13167964973E+04  0.13167964974E+04  0.50400001928E-02 0. -1.
       -1   -1    0    0    0  501  0.00000000000E+00  0.00000000000E+00 -0.16114108763E+03  0.16114108771E+03  0.50400001928E-02 0.  1.
    10030    2    1    2    0    0  0.00000000000E+00  0.00000000000E+00  0.11556554097E+04  0.14779375851E+04  0.92128175895E+03 0.  0.
        3    1    3    3  502    0 -0.43988151100E+03 -0.19048926121E+02  0.36062687024E+03  0.56913122831E+03  0.10100000352E+00 0.  1.
       -3    1    3    3    0  502  0.43988151100E+03  0.19048926121E+02  0.79502853947E+03  0.90880635676E+03  0.10100000352E+00 0. -1.
</event>
<event>
 5   0  0.1459111E-02  0.8679169E+03  0.7818609E-02  0.9466600E-01
       -1   -1    0    0    0  501  0.00000000000E+00  0.00000000000E+00  0.69401077941E+03  0.69401077943E+03  0.50400001928E-02 0. -1.
        1   -1    0    0  501    0  0.00000000000E+00  0.00000000000E+00 -0.27135015436E+03  0.27135015441E+03  0.50400001928E-02 0.  1.
    10030    2    1    2    0    0  0.00000000000E+00  0.00000000000E+00  0.42266062505E+03  0.96536093383E+03  0.86791689038E+03 0.  0.
        2    1    3    3  502    0 -0.16733578583E+02 -0.37319640984E+03 -0.34289186006E+02  0.37514173489E+03  0.25500000920E-02 0.  1.
       -2    1    3    3    0  502  0.16733578583E+02  0.37319640984E+03  0.45694981106E+03  0.59021919895E+03  0.25500000920E-02 0. -1.
</event>
<event>
 5   0  0.2414128E-02  0.8852560E+03  0.7818609E-02  0.9444202E-01
        2   -1    0    0  501    0  0.00000000000E+00  0.00000000000E+00  0.48455833822E+03  0.48455833823E+03  0.25500000920E-02 0. -1.
       -2   -1    0    0    0  501  0.00000000000E+00  0.00000000000E+00 -0.40432599802E+03  0.40432599803E+03  0.25500000920E-02 0.  1.
    10030    2    1    2    0    0  0.00000000000E+00  0.00000000000E+00  0.80232340202E+02  0.88888433625E+03  0.88525597136E+03 0.  0.
        3    1    3    3  502    0 -0.31399073167E+03 -0.78048338327E+02 -0.26317781156E+03  0.41706629376E+03  0.10100000352E+00 0.  1.
       -3    1    3    3    0  502  0.31399073167E+03  0.78048338327E+02  0.34341015176E+03  0.47181804250E+03  0.10100000352E+00 0. -1.
</event>
<event>
 5   0  0.1537870E-02  0.9202103E+03  0.7818609E-02  0.9400664E-01
        1   -1    0    0  501    0  0.00000000000E+00  0.00000000000E+00  0.65877963497E+03  0.65877963499E+03  0.50400001928E-02 0. -1.
       -1   -1    0    0    0  501  0.00000000000E+00  0.00000000000E+00 -0.32134686609E+03  0.32134686613E+03  0.50400001928E-02 0.  1.
    10030    2    1    2    0    0  0.00000000000E+00  0.00000000000E+00  0.33743276888E+03  0.98012650112E+03  0.92021034806E+03 0.  0.
        5    1    3    3  502    0  0.40938754025E+03  0.14712994437E+03  0.92008792516E+01  0.43514609595E+03  0.46999998093E+01 0.  1.
       -5    1    3    3    0  502 -0.40938754025E+03 -0.14712994437E+03  0.32823188963E+03  0.54498040517E+03  0.46999998093E+01 0. -1.
</event>
<event>
 5   0  0.1560728E-02  0.9531757E+03  0.7818609E-02  0.9361446E-01
        1   -1    0    0  501    0  0.00000000000E+00  0.00000000000E+00  0.18970594236E+03  0.18970594243E+03  0.50400001928E-02 0. -1.
       -1   -1    0    0    0  501  0.00000000000E+00  0.00000000000E+00 -0.11973056434E+04  0.11973056434E+04  0.50400001928E-02 0.  1.
    10030    2    1    2    0    0  0.00000000000E+00  0.00000000000E+00 -0.10075997010E+04  0.13870115858E+04  0.95317573495E+03 0.  0.
        4    1    3    3  502    0 -0.42950342295E+02  0.10058066846E+03  0.17119611915E+03  0.20315247201E+03  0.12699999809E+01 0. -1.
       -4    1    3    3    0  502  0.42950342295E+02 -0.10058066846E+03 -0.11787958202E+04  0.11838591138E+04  0.12699999809E+01 0.  1.
</event>
<event>
 5   0  0.1559275E-02  0.8666684E+03  0.7818609E-02  0.9468234E-01
        1   -1    0    0  501    0  0.00000000000E+00  0.00000000000E+00  0.24735464824E+03  0.24735464829E+03  0.50400001928E-02 0.  1.
       -1   -1    0    0    0  501  0.00000000000E+00  0.00000000000E+00 -0.75914696109E+03  0.75914696110E+03  0.50400001928E-02 0. -1.
    10030    2    1    2    0    0  0.00000000000E+00  0.00000000000E+00 -0.51179231284E+03  0.10065016094E+04  0.86666840154E+03 0.  0.
        1    1    3    3  502    0 -0.97090393709E+02 -0.25850986198E+03 -0.64373108454E+03  0.70045956523E+03  0.50400001928E-02 0. -1.
       -1    1    3    3    0  502  0.97090393709E+02  0.25850986198E+03  0.13193877170E+03  0.30604204416E+03  0.50400001928E-02 0.  1.
</event>
<event>
 5   0  0.2679861E-02  0.9010553E+03  0.7818609E-02  0.9424263E-01
        2   -1    0    0  501    0  0.00000000000E+00  0.00000000000E+00  0.11859551661E+04  0.11859551661E+04  0.25500000920E-02 0. -1.
       -2   -1    0    0    0  501  0.00000000000E+00  0.00000000000E+00 -0.17114909112E+03  0.17114909114E+03  0.25500000920E-02 0.  1.
    10030    2    1    2    0    0  0.00000000000E+00  0.00000000000E+00  0.10148060750E+04  0.13571042573E+04  0.90105526757E+03 0.  0.
        1    1    3    3  502    0 -0.23892170530E+03 -0.26175483888E+03  0.92635559061E+03  0.99183358343E+03  0.50400001928E-02 0. -1.
       -1    1    3    3    0  502  0.23892170530E+03  0.26175483888E+03  0.88450484385E+02  0.36527067382E+03  0.50400001928E-02 0.  1.
</event>
<event>
 5   0  0.1559275E-02  0.7155934E+03  0.7818609E-02  0.9690931E-01
       -1   -1    0    0    0  501  0.00000000000E+00  0.00000000000E+00  0.23149068465E+03  0.23149068470E+03  0.50400001928E-02 0.  1.
        1   -1    0    0  501    0  0.00000000000E+00  0.00000000000E+00 -0.55301785256E+03  0.55301785258E+03  0.50400001928E-02 0. -1.
    10030    2    1    2    0    0  0.00000000000E+00  0.00000000000E+00 -0.32152716791E+03  0.78450853728E+03  0.71559340786E+03 0.  0.
        1    1    3    3  502    0  0.50909814564E+01 -0.35591631915E+03 -0.20053599233E+03  0.40855480486E+03  0.50400001928E-02 0. -1.
       -1    1    3    3    0  502 -0.50909814564E+01  0.35591631915E+03 -0.12099117558E+03  0.37595373242E+03  0.50400001928E-02 0.  1.
</event>
<event>
 5   0  0.2414128E-02  0.9189024E+03  0.7818609E-02  0.9402256E-01
        2   -1    0    0  501    0  0.00000000000E+00  0.00000000000E+00  0.14274812111E+04  0.14274812111E+04  0.25500000920E-02 0. -1.
       -2   -1    0    0    0  501  0.00000000000E+00  0.00000000000E+00 -0.14787964199E+03  0.14787964201E+03  0.25500000920E-02 0.  1.
    10030    2    1    2    0    0  0.00000000000E+00  0.00000000000E+00  0.12796015691E+04  0.15753608531E+04  0.91890241147E+03 0.  0.
        3    1    3    3  502    0 -0.21265297760E+03  0.15170595259E+03 -0.81844236905E+01  0.26134838802E+03  0.10100000352E+00 0.  1.
       -3    1    3    3    0  502  0.21265297760E+03 -0.15170595259E+03  0.12877859928E+04  0.13140124651E+04  0.10100000352E+00 0. -1.
</event>
<event>
 5   0  0.2414128E-02  0.8893309E+03  0.7818609E-02  0.9439017E-01
        2   -1    0    0  501    0  0.00000000000E+00  0.00000000000E+00  0.85331946263E+03  0.85331946264E+03  0.25500000920E-02 0. -1.
       -2   -1    0    0    0  501  0.00000000000E+00  0.00000000000E+00 -0.23171550970E+03  0.23171550971E+03  0.25500000920E-02 0.  1.
    10030    2    1    2    0    0  0.00000000000E+00  0.00000000000E+00  0.62160395294E+03  0.10850349723E+04  0.88933088157E+03 0.  0.
        3    1    3    3  502    0 -0.36357703769E+01  0.36475878898E+03  0.62105463482E+03  0.72025763627E+03  0.10100000352E+00 0. -1.
       -3    1    3    3    0  502  0.36357703769E+01 -0.36475878898E+03  0.54931811116E+00  0.36477733608E+03  0.10100000352E+00 0.  1.
</event>
<event>
 5   0  0.2705111E-02  0.9302083E+03  0.7818609E-02  0.9388588E-01
       -2   -1    0    0    0  501  0.00000000000E+00  0.00000000000E+00  0.14276200586E+03  0.14276200588E+03  0.25500000920E-02 0.  1.
        2   -1    0    0  501    0  0.00000000000E+00  0.00000000000E+00 -0.15152622832E+04  0.15152622832E+04  0.25500000920E-02 0. -1.
    10030    2    1    2    0    0  0.00000000000E+00  0.00000000000E+00 -0.13725002774E+04  0.16580242891E+04  0.93020832715E+03 0.  0.
        4    1    3    3  502    0 -0.18907489534E+03 -0.30752352223E+03 -0.12089597554E+04  0.12617073099E+04  0.12699999809E+01 0. -1.
       -4    1    3    3    0  502  0.18907489534E+03  0.30752352223E+03 -0.16354052193E+03  0.39631697918E+03  0.12699999809E+01 0.  1.
</event>
<event>
 5   0  0.1497410E-02  0.9133025E+03  0.7818609E-02  0.9409104E-01
        1   -1    0    0  501    0  0.00000000000E+00  0.00000000000E+00  0.30517037358E+03  0.30517037362E+03  0.50400001928E-02 0. -1.
       -1   -1    0    0    0  501  0.00000000000E+00  0.00000000000E+00 -0.68332439032E+03  0.68332439034E+03  0.50400001928E-02 0.  1.
    10030    2    1    2    0    0  0.00000000000E+00  0.00000000000E+00 -0.37815401674E+03  0.98849476395E+03  0.91330248986E+03 0.  0.
        3    1    3    3  502    0 -0.40903994694E+03 -0.13371946644E+03 -0.23739705168E+02  0.43099670266E+03  0.10100000352E+00 0. -1.
       -3    1    3    3    0  502  0.40903994694E+03  0.13371946644E+03 -0.35441431157E+03  0.55749806130E+03  0.10100000352E+00 0.  1.
</event>
<event>
 5   0  0.2705111E-02  0.8755146E+03  0.7818609E-02  0.9456718E-01
       -2   -1    0    0    0  501  0.00000000000E+00  0.00000000000E+00  0.41031335574E+03  0.41031335575E+03  0.25500000920E-02 0.  1.
        2   -1    0    0  501    0  0.00000000000E+00  0.00000000000E+00 -0.46703685877E+03  0.46703685877E+03  0.25500000920E-02 0. -1.
    10030    2    1    2    0    0  0.00000000000E+00  0.00000000000E+00 -0.56723503026E+02  0.87735021452E+03  0.87551461617E+03 0.  0.
        4    1    3    3  502    0  0.15199302246E+03 -0.40251278196E+03 -0.10922436111E+03  0.44390313411E+03  0.12699999809E+01 0.  1.
       -4    1    3    3    0  502 -0.15199302246E+03  0.40251278196E+03  0.52500858083E+02  0.43344708041E+03  0.12699999809E+01 0. -1.
</event>
<event>
 5   0  0.1537870E-02  0.8739187E+03  0.7818609E-02  0.9458785E-01
       -1   -1    0    0    0  501  0.00000000000E+00  0.00000000000E+00  0.17119009144E+03  0.17119009152E+03  0.50400001928E-02 0.  1.
        1   -1    0    0  501    0  0.00000000000E+00  0.00000000000E+00 -0.11153302857E+04  0.11153302857E+04  0.50400001928E-02 0. -1.
    10030    2    1    2    0    0  0.00000000000E+00  0.00000000000E+00 -0.94414019427E+03  0.12865203772E+04  0.87391874600E+03 0.  0.
        5    1    3    3  502    0  0.15886702869E+03  0.40072456930E+03 -0.57712364502E+03  0.72035595707E+03  0.46999998093E+01 0.  1.
       -5    1    3    3    0  502 -0.15886702869E+03 -0.40072456930E+03 -0.36701654925E+03  0.56616442017E+03  0.46999998093E+01 0. -1.
</event>
<event>
 5   0  0.2679861E-02  0.9128884E+03  0.7818609E-02  0.9409612E-01
       -2   -1    0    0    0  501  0.00000000000E+00  0.00000000000E+00  0.34701387148E+03  0.34701387149E+03  0.25500000920E-02 0.  1.
        2   -1    0    0  501    0  0.00000000000E+00  0.00000000000E+00 -0.60038327844E+03  0.60038327844E+03  0.25500000920E-02 0. -1.
    10030    2    1    2    0    0  0.00000000000E+00  0.00000000000E+00 -0.25336940696E+03  0.94739714993E+03  0.91288843969E+03 0.  0.
        1    1    3    3  502    0  0.35311898331E+03  0.21017756273E+03  0.79505626237E+02  0.41855557441E+03  0.50400001928E-02 0.  1.
       -1    1    3    3    0  502 -0.35311898331E+03 -0.21017756273E+03 -0.33287503319E+03  0.52884157551E+03  0.50400001928E-02 0. -1.
</event>
<event>
 5   0  0.1459111E-02  0.8980845E+03  0.7818609E-02  0.9427979E-01
       -1   -1    0    0    0  501  0.00000000000E+00  0.00000000000E+00  0.43693971850E+03  0.43693971853E+03  0.50400001928E-02 0. -1.
        1   -1    0    0  501    0  0.00000000000E+00  0.00000000000E+00 -0.46148000609E+03  0.46148000611E+03  0.50400001928E-02 0.  1.
    10030    2    1    2    0    0  0.00000000000E+00  0.00000000000E+00 -0.24540287584E+02  0.89841972465E+03  0.89808450378E+03 0.  0.
        2    1    3    3  502    0 -0.35393934608E+03 -0.22904941780E+03 -0.16693136845E+03  0.45343442555E+03  0.25500000920E-02 0.  1.
       -2    1    3    3    0  502  0.35393934608E+03  0.22904941780E+03  0.14239108086E+03  0.44498529910E+03  0.25500000920E-02 0. -1.
</event>
<event>
 5   0  0.2803717E-02  0.9199097E+03  0.7818609E-02  0.9401030E-01
        2   -1    0    0  501    0  0.00000000000E+00  0.00000000000E+00  0.49321873344E+03  0.49321873345E+03  0.25500000920E-02 0. -1.
       -2   -1    0    0    0  501  0.00000000000E+00  0.00000000000E+00 -0.42893439789E+03  0.42893439789E+03  0.25500000920E-02 0.  1.
    10030    2    1    2    0    0  0.00000000000E+00  0.00000000000E+00  0.64284335552E+02  0.92215313134E+03  0.91990973570E+03 0.  0.
        5    1    3    3  502    0 -0.38848962191E+03  0.50519942581E+02  0.27368609311E+03  0.47791486532E+03  0.46999998093E+01 0. -1.
       -5    1    3    3    0  502  0.38848962191E+03 -0.50519942581E+02 -0.20940175756E+03  0.44423826602E+03  0.46999998093E+01 0.  1.
</event>
<event>
 5   0  0.1497410E-02  0.9017683E+03  0.7818609E-02  0.9423374E-01
        1   -1    0    0  501    0  0.00000000000E+00  0.00000000000E+00  0.68415814962E+03  0.68415814964E+03  0.50400001928E-02 0.  1.
       -1   -1    0    0    0  501  0.00000000000E+00  0.00000000000E+00 -0.29714841170E+03  0.29714841175E+03  0.50400001928E-02 0. -1.
    10030    2    1    2    0    0  0.00000000000E+00  0.00000000000E+00  0.38700973792E+03  0.98130656139E+03  0.90176827965E+03 0.  0.
        3    1    3    3  502    0 -0.35342622079E+03  0.73984774233E+02 -0.10033533063E+03  0.37476796706E+03  0.10100000352E+00 0.  1.
       -3    1    3    3    0  502  0.35342622079E+03 -0.73984774233E+02  0.48734506855E+03  0.60653859433E+03  0.10100000352E+00 0. -1.
</event>
<event>
 5   0  0.1559275E-02  0.8949602E+03  0.7818609E-02  0.9431903E-01
        1   -1    0    0  501    0  0.00000000000E+00  0.00000000000E+00  0.58388802527E+03  0.58388802529E+03  0.50400001928E-02 0.  1.
       -1   -1    0    0    0  501  0.00000000000E+00  0.00000000000E+00 -0.34293978683E+03  0.34293978687E+03  0.50400001928E-02 0. -1.
    10030    2    1    2    0    0  0.00000000000E+00  0.00000000000E+00  0.24094823844E+03  0.92682781216E+03  0.89496018894E+03 0.  0.
        1    1    3    3  502    0 -0.40368203036E+03 -0.18666011818E+03  0.69347662139E+02  0.45012251623E+03  0.50400001928E-02 0.  1.
       -1    1    3    3    0  502  0.40368203036E+03  0.18666011818E+03  0.17160057630E+03  0.47670529592E+03  0.50400001928E-02 0. -1.
</event>
<event>
 5   0  0.1040163E-02  0.8687624E+03  0.7818609E-02  0.9465495E-01
        3   -1    0    0  501    0  0.00000000000E+00  0.00000000000E+00  0.10080465579E+04  0.10080465630E+04  0.10100000352E+00 0.  1.
       -3   -1    0    0    0  501  0.00000000000E+00  0.00000000000E+00 -0.18718084970E+03  0.18718087695E+03  0.10100000352E+00 0. -1.
    10030    2    1    2    0    0  0.00000000000E+00  0.00000000000E+00  0.82086570823E+03  0.11952274399E+04  0.86876240840E+03 0.  0.
        5    1    3    3  502    0 -0.27515937761E+03 -0.83956849482E+02  0.85815100477E+03  0.90510036606E+03  0.46999998093E+01 0.  1.
       -5    1    3    3    0  502  0.27515937761E+03  0.83956849482E+02 -0.37285296540E+02  0.29012707388E+03  0.46999998093E+01 0. -1.
</event>
<event>
 5   0  0.1537870E-02  0.9102452E+03  0.7818609E-02  0.9412864E-01
        1   -1    0    0  501    0  0.00000000000E+00  0.00000000000E+00  0.17191724606E+03  0.17191724613E+03  0.50400001928E-02 0. -1.
       -1   -1    0    0    0  501  0.00000000000E+00  0.00000000000E+00 -0.12048621766E+04  0.12048621766E+04  0.50400001928E-02 0.  1.
    10030    2    1    2    0    0  0.00000000000E+00  0.00000000000E+00 -0.10329449305E+04  0.13767794227E+04  0.91024521385E+03 0.  0.
        5    1    3    3  502    0 -0.20447060418E+03 -0.18288043522E+03 -0.10657150103E+04  0.11004653809E+04  0.46999998093E+01 0.  1.
       -5    1    3    3    0  502  0.20447060418E+03  0.18288043522E+03  0.32770079738E+02  0.27631404178E+03  0.46999998093E+01 0. -1.
</event>
<event>
 5   0  0.1559275E-02  0.8811012E+03  0.7818609E-02  0.9449519E-01
       -1   -1    0    0    0  501  0.00000000000E+00  0.00000000000E+00  0.11495766243E+04  0.11495766243E+04  0.50400001928E-02 0. -1.
        1   -1    0    0  501    0  0.00000000000E+00  0.00000000000E+00 -0.16883158876E+03  0.16883158884E+03  0.50400001928E-02 0.  1.
    10030    2    1    2    0    0  0.00000000000E+00  0.00000000000E+00  0.98074503552E+03  0.13184082131E+04  0.88110123808E+03 0.  0.
        1    1    3    3  502    0  0.19752815944E+03  0.27347350964E+03  0.66410455758E+02  0.34382478518E+03  0.50400001928E-02 0.  1.
       -1    1    3    3    0  502 -0.19752815944E+03 -0.27347350964E+03  0.91433457976E+03  0.97458342795E+03  0.50400001928E-02 0. -1.
</event>
<event>
 5   0  0.1459111E-02  0.9619343E+03  0.7818609E-02  0.9351309E-01
       -1   -1    0    0    0  501  0.00000000000E+00  0.00000000000E+00  0.17267927438E+03  0.17267927446E+03  0.50400001928E-02 0.  1.
        1   -1    0    0  501    0  0.00000000000E+00  0.00000000000E+00 -0.13396477465E+04  0.13396477465E+04  0.50400001928E-02 0. -1.
    10030    2    1    2    0    0  0.00000000000E+00  0.00000000000E+00 -0.11669684721E+04  0.15123270210E+04  0.96193430307E+03 0.  0.
        2    1    3    3  502    0 -0.11121648633E+03  0.46649844968E+03 -0.52594420221E+03  0.71176345384E+03  0.25500000920E-02 0.  1.
       -2    1    3    3    0  502  0.11121648633E+03 -0.46649844968E+03 -0.64102426992E+03  0.80056356713E+03  0.25500000920E-02 0. -1.
</event>
<event>
 5   0  0.1497410E-02  0.9093559E+03  0.7818609E-02  0.9413961E-01
       -1   -1    0    0    0  501  0.00000000000E+00  0.00000000000E+00  0.61825441965E+03  0.61825441967E+03  0.50400001928E-02 0.  1.
        1   -1    0    0  501    0  0.00000000000E+00  0.00000000000E+00 -0.33438021277E+03  0.33438021280E+03  0.50400001928E-02 0. -1.
    10030    2    1    2    0    0  0.00000000000E+00  0.00000000000E+00  0.28387420688E+03  0.95263463247E+03  0.90935591363E+03 0.  0.
        3    1    3    3  502    0  0.53021053807E+02  0.10306920353E+03  0.60251769750E+03  0.61356505675E+03  0.10100000352E+00 0.  1.
       -3    1    3    3    0  502 -0.53021053807E+02 -0.10306920353E+03 -0.31864349062E+03  0.33906957572E+03  0.10100000352E+00 0. -1.
</event>
<event>
 5   0  0.2803717E-02  0.9280781E+03  0.7818609E-02  0.9391147E-01
       -2   -1    0    0    0  501  0.00000000000E+00  0.00000000000E+00  0.15806246955E+03  0.15806246957E+03  0.25500000920E-02 0. -1.
        2   -1    0    0  501    0  0.00000000000E+00  0.00000000000E+00 -0.13623235404E+04  0.13623235404E+04  0.25500000920E-02 0.  1.
    10030    2    1    2    0    0  0.00000000000E+00  0.00000000000E+00 -0.12042610708E+04  0.15203860100E+04  0.92807806383E+03 0.  0.
        5    1    3    3  502    0 -0.20800613984E+03  0.35671357525E+02 -0.12791117023E+04  0.12964134514E+04  0.46999998093E+01 0.  1.
       -5    1    3    3    0  502  0.20800613984E+03 -0.35671357525E+02  0.74850631484E+02  0.22397255857E+03  0.46999998093E+01 0. -1.
</event>
<event>
 5   0  0.1537870E-02  0.9144067E+03  0.7818609E-02  0.9407749E-01
        1   -1    0    0  501    0  0.00000000000E+00  0.00000000000E+00  0.18612018045E+04  0.18612018045E+04  0.50400001928E-02 0.  1.
       -1   -1    0    0    0  501  0.00000000000E+00  0.00000000000E+00 -0.11231178790E+03  0.11231178802E+03  0.50400001928E-02 0. -1.
    10030    2    1    2    0    0  0.00000000000E+00  0.00000000000E+00  0.17488900166E+04  0.19735135925E+04  0.91440669821E+03 0.  0.
        5    1    3    3  502    0 -0.45613173686E+03 -0.30730820570E+02  0.86688568760E+03  0.98005787078E+03  0.46999998093E+01 0. -1.
       -5    1    3    3    0  502  0.45613173686E+03  0.30730820570E+02  0.88200432901E+03  0.99345572176E+03  0.46999998093E+01 0.  1.
</event>
<event>
 5   0  0.2679861E-02  0.9111974E+03  0.7818609E-02  0.9411691E-01
        2   -1    0    0  501    0  0.00000000000E+00  0.00000000000E+00  0.18168810263E+04  0.18168810263E+04  0.25500000920E-02 0.  1.
       -2   -1    0    0    0  501  0.00000000000E+00  0.00000000000E+00 -0.11424534203E+03  0.11424534206E+03  0.25500000920E-02 0. -1.
    10030    2    1    2    0    0  0.00000000000E+00  0.00000000000E+00  0.17026356843E+04  0.19311263684E+04  0.91119744143E+03 0.  0.
        1    1    3    3  502    0 -0.34087872056E+03 -0.53570708840E+02  0.14818030762E+04  0.15214494667E+04  0.50400001928E-02 0.  1.
       -1    1    3    3    0  502  0.34087872056E+03  0.53570708840E+02  0.22083260809E+03  0.40967690172E+03  0.50400001928E-02 0. -1.
</event>
<event>
 5   0  0.1559275E-02  0.9591733E+03  0.7818609E-02  0.9354492E-01
        1   -1    0    0  501    0  0.00000000000E+00  0.00000000000E+00  0.27072514521E+03  0.27072514526E+03  0.50400001928E-02 0. -1.
       -1   -1    0    0    0  501  0.00000000000E+00  0.00000000000E+00 -0.84958247749E+03  0.84958247751E+03  0.50400001928E-02 0.  1.
    10030    2    1    2    0    0  0.00000000000E+00  0.00000000000E+00 -0.57885733229E+03  0.11203076228E+04  0.95917326823E+03 0.  0.
        1    1    3    3  502    0 -0.43571278569E+03  0.14694135574E+03 -0.13028155292E+03  0.47792329583E+03  0.50400001928E-02 0.  1.
       -1    1    3    3    0  502  0.43571278569E+03 -0.14694135574E+03 -0.44857577937E+03  0.64238432694E+03  0.50400001928E-02 0. -1.
</event>
<event>
 5   0  0.2705111E-02  0.8834025E+03  0.7818609E-02  0.9446570E-01
        2   -1    0    0  501    0  0.00000000000E+00  0.00000000000E+00  0.70667702720E+03  0.70667702721E+03  0.25500000920E-02 0. -1.
       -2   -1    0    0    0  501  0.00000000000E+00  0.00000000000E+00 -0.27608083503E+03  0.27608083504E+03  0.25500000920E-02 0.  1.
    10030    2    1    2    0    0  0.00000000000E+00  0.00000000000E+00  0.43059619218E+03  0.98275786225E+03  0.88340247628E+03 0.  0.
        4    1    3    3  502    0  0.43067860827E+03 -0.35711354556E+02  0.31688671786E+03  0.53589007205E+03  0.12699999809E+01 0. -1.
       -4    1    3    3    0  502 -0.43067860827E+03  0.35711354556E+02  0.11370947431E+03  0.44686779019E+03  0.12699999809E+01 0.  1.
</event>
<event>
 5   0  0.2414128E-02  0.8014261E+03  0.7818609E-02  0.9557955E-01
        2   -1    0    0  501    0  0.00000000000E+00  0.00000000000E+00  0.11863392478E+04  0.11863392478E+04  0.25500000920E-02 0.  1.
       -2   -1    0    0    0  501  0.00000000000E+00  0.00000000000E+00 -0.13534992660E+03  0.13534992663E+03  0.25500000920E-02 0. -1.
    10030    2    1    2    0    0  0.00000000000E+00  0.00000000000E+00  0.10509893212E+04  0.13216891744E+04  0.80142605431E+03 0.  0.
        3    1    3    3  502    0  0.19132436159E+02 -0.29597045535E+03  0.81115989280E+02  0.30748068959E+03  0.10100000352E+00 0. -1.
       -3    1    3    3    0  502 -0.19132436159E+02  0.29597045535E+03  0.96987333189E+03  0.10142084848E+04  0.10100000352E+00 0.  1.
</event>
<event>
 5   0  0.1559275E-02  0.8555630E+03  0.7818609E-02  0.9482901E-01
        1   -1    0    0  501    0  0.00000000000E+00  0.00000000000E+00  0.76076272560E+03  0.76076272562E+03  0.50400001928E-02 0. -1.
       -1   -1    0    0    0  501  0.00000000000E+00  0.00000000000E+00 -0.24054410812E+03  0.24054410817E+03  0.50400001928E-02 0.  1.
    10030    2    1    2    0    0  0.00000000000E+00  0.00000000000E+00  0.52021861748E+03  0.10013068338E+04  0.85556295234E+03 0.  0.
        1    1    3    3  502    0  0.11572522311E+03  0.13557555031E+03  0.71522884259E+03  0.73710606727E+03  0.50400001928E-02 0. -1.
       -1    1    3    3    0  502 -0.11572522311E+03 -0.13557555031E+03 -0.19501022511E+03  0.26420076652E+03  0.50400001928E-02 0.  1.
</event>
<event>
 5   0  0.1537870E-02  0.8938961E+03  0.7818609E-02  0.9433244E-01
       -1   -1    0    0    0  501  0.00000000000E+00  0.00000000000E+00  0.78190736299E+03  0.78190736300E+03  0.50400001928E-02 0.  1.
        1   -1    0    0  501    0  0.00000000000E+00  0.00000000000E+00 -0.25548110792E+03  0.25548110797E+03  0.50400001928E-02 0. -1.
    10030    2    1    2    0    0  0.00000000000E+00  0.00000000000E+00  0.52642625507E+03  0.10373884710E+04  0.89389610005E+03 0.  0.
        5    1    3    3  502    0  0.86399508719E+02  0.13171369182E+01  0.77209208938E+03  0.77692656953E+03  0.46999998093E+01 0.  1.
       -5    1    3    3    0  502 -0.86399508719E+02 -0.13171369182E+01 -0.24566583432E+03  0.26046190145E+03  0.46999998093E+01 0. -1.
</event>
<event>
 5   0  0.1537870E-02  0.9129862E+03  0.7818609E-02  0.9409492E-01
        1   -1    0    0  501    0  0.00000000000E+00  0.00000000000E+00  0.42579280325E+03  0.42579280328E+03  0.50400001928E-02 0. -1.
       -1   -1    0    0    0  501  0.00000000000E+00  0.00000000000E+00 -0.48940690187E+03  0.48940690189E+03  0.50400001928E-02 0.  1.
    10030    2    1    2    0    0  0.00000000000E+00  0.00000000000E+00 -0.63614098617E+02  0.91519970517E+03  0.91298617010E+03 0.  0.
        5    1    3    3  502    0 -0.36202479775E+03  0.14773088585E+03 -0.26791468216E+03  0.47401132448E+03  0.46999998093E+01 0.  1.
       -5    1    3    3    0  502  0.36202479775E+03 -0.14773088585E+03  0.20430058355E+03  0.44118838069E+03  0.46999998093E+01 0. -1.
</event>
<event>
 5   0  0.1459111E-02  0.8878314E+03  0.7818609E-02  0.9440922E-01
       -1   -1    0    0    0  501  0.00000000000E+00  0.00000000000E+00  0.15323229890E+03  0.15323229898E+03  0.50400001928E-02 0.  1.
        1   -1    0    0  501    0  0.00000000000E+00  0.00000000000E+00 -0.12860288439E+04  0.12860288439E+04  0.50400001928E-02 0. -1.
    10030    2    1    2    0    0  0.00000000000E+00  0.00000000000E+00 -0.11327965450E+04  0.14392611429E+04  0.88783141705E+03 0.  0.
        2    1    3    3  502    0  0.37785910535E+02 -0.28636242865E+03 -0.19941916843E+02  0.28953220137E+03  0.25500000920E-02 0.  1.
       -2    1    3    3    0  502 -0.37785910535E+02  0.28636242865E+03 -0.11128546282E+04  0.11497289415E+04  0.25500000920E-02 0. -1.
</event>
<event>
 5   0  0.2414128E-02  0.9153034E+03  0.7818609E-02  0.9406651E-01
       -2   -1    0    0    0  501  0.00000000000E+00  0.00000000000E+00  0.56920573412E+03  0.56920573413E+03  0.25500000920E-02 0. -1.
        2   -1    0    0  501    0  0.00000000000E+00  0.00000000000E+00 -0.36796021149E+03  0.36796021150E+03  0.25500000920E-02 0.  1.
    10030    2    1    2    0    0  0.00000000000E+00  0.00000000000E+00  0.20124552263E+03  0.93716594563E+03  0.91530336461E+03 0.  0.
        3    1    3    3  502    0 -0.15621024742E+03 -0.11615816246E+03 -0.32345712746E+03  0.37751673289E+03  0.10100000352E+00 0.  1.
       -3    1    3    3    0  502  0.15621024742E+03  0.11615816246E+03  0.52470265010E+03  0.55964921274E+03  0.10100000352E+00 0. -1.
</event>
<event>
 5   0  0.2628383E-02  0.8712246E+03  0.7818609E-02  0.9462285E-01
       -2   -1    0    0    0  501  0.00000000000E+00  0.00000000000E+00  0.20925733529E+03  0.20925733531E+03  0.25500000920E-02 0.  1.
        2   -1    0    0  501    0  0.00000000000E+00  0.00000000000E+00 -0.90681694101E+03  0.90681694102E+03  0.25500000920E-02 0. -1.
    10030    2    1    2    0    0  0.00000000000E+00  0.00000000000E+00 -0.69755960572E+03  0.11160742763E+04  0.87122464769E+03 0.  0.
        2    1    3    3  502    0 -0.20196349555E+02  0.12251854541E+03 -0.88366518737E+03  0.89234682152E+03  0.25500000920E-02 0. -1.
       -2    1    3    3    0  502  0.20196349555E+02 -0.12251854541E+03  0.18610558165E+03  0.22372745480E+03  0.25500000920E-02 0.  1.
</event>
<event>
 5   0  0.2414128E-02  0.9410481E+03  0.7818609E-02  0.9375676E-01
       -2   -1    0    0    0  501  0.00000000000E+00  0.00000000000E+00  0.76146875399E+02  0.76146875442E+02  0.25500000920E-02 0. -1.
        2   -1    0    0  501    0  0.00000000000E+00  0.00000000000E+00 -0.29074452515E+04  0.29074452515E+04  0.25500000920E-02 0.  1.
    10030    2    1    2    0    0  0.00000000000E+00  0.00000000000E+00 -0.28312983761E+04  0.29835921270E+04  0.94104807818E+03 0.  0.
        3    1    3    3  502    0  0.11032674138E+03 -0.26242622140E+03 -0.22786092034E+03  0.36463697120E+03  0.10100000352E+00 0. -1.
       -3    1    3    3    0  502 -0.11032674138E+03  0.26242622140E+03 -0.26034374558E+04  0.26189551558E+04  0.10100000352E+00 0.  1.
</event>
<event>
 5   0  0.2628383E-02  0.8862774E+03  0.7818609E-02  0.9442900E-01
       -2   -1    0    0    0  501  0.00000000000E+00  0.00000000000E+00  0.14833057952E+03  0.14833057955E+03  0.25500000920E-02 0. -1.
        2   -1    0    0  501    0  0.00000000000E+00  0.00000000000E+00 -0.13238802088E+04  0.13238802088E+04  0.25500000920E-02 0.  1.
    10030    2    1    2    0    0  0.00000000000E+00  0.00000000000E+00 -0.11755496293E+04  0.14722107884E+04  0.88627742521E+03 0.  0.
        2    1    3    3  502    0  0.32302586146E+03  0.66239969965E+02 -0.10795286111E+04  0.11287672315E+04  0.25500000920E-02 0.  1.
       -2    1    3    3    0  502 -0.32302586146E+03 -0.66239969965E+02 -0.96021018197E+02  0.34344355684E+03  0.25500000920E-02 0. -1.
</event>
<event>
 5   0  0.2414128E-02  0.9054512E+03  0.7818609E-02  0.9418793E-01
       -2   -1    0    0    0  501  0.00000000000E+00  0.00000000000E+00  0.28545012125E+03  0.28545012126E+03  0.25500000920E-02 0. -1.
        2   -1    0    0  501    0  0.00000000000E+00  0.00000000000E+00 -0.71802544174E+03  0.71802544175E+03  0.25500000920E-02 0.  1.
    10030    2    1    2    0    0  0.00000000000E+00  0.00000000000E+00 -0.43257532049E+03  0.10034755630E+04  0.90545115697E+03 0.  0.
        3    1    3    3  502    0 -0.11350504634E+03  0.29488924415E+03  0.14303038740E+03  0.34684400497E+03  0.10100000352E+00 0. -1.
       -3    1    3    3    0  502  0.11350504634E+03 -0.29488924415E+03 -0.57560570789E+03  0.65663155804E+03  0.10100000352E+00 0.  1.
</event>
<event>
 5   0  0.2803717E-02  0.9138192E+03  0.7818609E-02  0.9408470E-01
        2   -1    0    0  501    0  0.00000000000E+00  0.00000000000E+00  0.36702880349E+03  0.36702880350E+03  0.25500000920E-02 0. -1.
       -2   -1    0    0    0  501  0.00000000000E+00  0.00000000000E+00 -0.56880108558E+03  0.56880108559E+03  0.25500000920E-02 0.  1.
    10030    2    1    2    0    0  0.00000000000E+00  0.00000000000E+00 -0.20177228209E+03  0.93582988909E+03  0.91381919847E+03 0.  0.
        5    1    3    3  502    0  0.18712424724E+03  0.15347729917E+03  0.29597019982E+03  0.38234959715E+03  0.46999998093E+01 0. -1.
       -5    1    3    3    0  502 -0.18712424724E+03 -0.15347729917E+03 -0.49774248191E+03  0.55348029193E+03  0.46999998093E+01 0.  1.
</event>
<event>
 5   0  0.2705111E-02  0.9012533E+03  0.7818609E-02  0.9424016E-01
       -2   -1    0    0    0  501  0.00000000000E+00  0.00000000000E+00  0.17068781273E+03  0.17068781275E+03  0.25500000920E-02 0. -1.
        2   -1    0    0  501    0  0.00000000000E+00  0.00000000000E+00 -0.11896829569E+04  0.11896829569E+04  0.25500000920E-02 0.  1.
    10030    2    1    2    0    0  0.00000000000E+00  0.00000000000E+00 -0.10189951441E+04  0.13603707696E+04  0.90125330905E+03 0.  0.
        4    1    3    3  502    0 -0.38758717278E+03 -0.19597587249E+03 -0.32816332022E+03  0.54435570791E+03  0.12699999809E+01 0. -1.
       -4    1    3    3    0  502  0.38758717278E+03  0.19597587249E+03 -0.69083182390E+03  0.81601506170E+03  0.12699999809E+01 0.  1.
</event>
<event>
 5   0  0.2705111E-02  0.8140660E+03  0.7818609E-02  0.9539877E-01
       -2   -1    0    0    0  501  0.00000000000E+00  0.00000000000E+00  0.54349645744E+03  0.54349645744E+03  0.25500000920E-02 0. -1.
        2   -1    0    0  501    0  0.00000000000E+00  0.00000000000E+00 -0.30483335280E+03  0.30483335281E+03  0.25500000920E-02 0.  1.
    10030    2    1    2    0    0  0.00000000000E+00  0.00000000000E+00  0.23866310464E+03  0.84832981025E+03  0.81406596136E+03 0.  0.
        4    1    3    3  502    0  0.73305022451E+02 -0.34896511209E+03  0.32386794238E+03  0.48170772547E+03  0.12699999809E+01 0.  1.
       -4    1    3    3    0  502 -0.73305022451E+02  0.34896511209E+03 -0.85204837738E+02  0.36662208478E+03  0.12699999809E+01 0. -1.
</event>
<event>
 5   0  0.1559275E-02  0.9185740E+03  0.7818609E-02  0.9402656E-01
       -1   -1    0    0    0  501  0.00000000000E+00  0.00000000000E+00  0.38388214931E+03  0.38388214934E+03  0.50400001928E-02 0.  1.
        1   -1    0    0  501    0  0.00000000000E+00  0.00000000000E+00 -0.54950342055E+03  0.54950342057E+03  0.50400001928E-02 0. -1.
    10030    2    1    2    0    0  0.00000000000E+00  0.00000000000E+00 -0.16562127124E+03  0.93338556992E+03  0.91857401261E+03 0.  0.
        1    1    3    3  502    0  0.34031589407E+03 -0.21765531676E+02  0.22981226678E+03  0.41122052978E+03  0.50400001928E-02 0.  1.
       -1    1    3    3    0  502 -0.34031589407E+03  0.21765531676E+02 -0.39543353801E+03  0.52216504013E+03  0.50400001928E-02 0. -1.
</event>
<event>
 5   0  0.2628383E-02  0.9412049E+03  0.7818609E-02  0.9375490E-01
       -2   -1    0    0    0  501  0.00000000000E+00  0.00000000000E+00  0.27511722140E+03  0.27511722141E+03  0.25500000920E-02 0. -1.
        2   -1    0    0  501    0  0.00000000000E+00  0.00000000000E+00 -0.80499012054E+03  0.80499012054E+03  0.25500000920E-02 0.  1.
    10030    2    1    2    0    0  0.00000000000E+00  0.00000000000E+00 -0.52987289913E+03  0.10801073420E+04  0.94120485597E+03 0.  0.
        2    1    3    3  502    0 -0.14804326514E+03  0.21220288887E+03  0.18616558584E+03  0.31875460743E+03  0.25500000920E-02 0. -1.
       -2    1    3    3    0  502  0.14804326514E+03 -0.21220288887E+03 -0.71603848498E+03  0.76135273453E+03  0.25500000920E-02 0.  1.
</event>
<event>
 5   0  0.1537870E-02  0.6196205E+03  0.7818609E-02  0.9865516E-01
       -1   -1    0    0    0  501  0.00000000000E+00  0.00000000000E+00  0.14886213878E+03  0.14886213887E+03  0.50400001928E-02 0.  1.
        1   -1    0    0  501    0  0.00000000000E+00  0.00000000000E+00 -0.64477358926E+03  0.64477358928E+03  0.50400001928E-02 0. -1.
    10030    2    1    2    0    0  0.00000000000E+00  0.00000000000E+00 -0.49591145048E+03  0.79363572815E+03  0.61962045018E+03 0.  0.
        5    1    3    3  502    0 -0.29185226371E+03 -0.75174103035E+02 -0.33970723775E+03  0.45414974070E+03  0.46999998093E+01 0. -1.
       -5    1    3    3    0  502  0.29185226371E+03  0.75174103035E+02 -0.15620421273E+03  0.33948598745E+03  0.46999998093E+01 0.  1.
</event>
<event>
 5   0  0.1560728E-02  0.8592341E+03  0.7818609E-02  0.9478026E-01
       -1   -1    0    0    0  501  0.00000000000E+00  0.00000000000E+00  0.96647293793E+03  0.96647293795E+03  0.50400001928E-02 0. -1.
        1   -1    0    0  501    0  0.00000000000E+00  0.00000000000E+00 -0.19097359623E+03  0.19097359630E+03  0.50400001928E-02 0.  1.
    10030    2    1    2    0    0  0.00000000000E+00  0.00000000000E+00  0.77549934170E+03  0.11574465342E+04  0.85923410701E+03 0.  0.
        4    1    3    3  502    0 -0.98315971248E+02  0.26748773839E+03  0.82081356999E+03  0.86887988236E+03  0.12699999809E+01 0. -1.
       -4    1    3    3    0  502  0.98315971248E+02 -0.26748773839E+03 -0.45314228288E+02  0.28856665188E+03  0.12699999809E+01 0.  1.
</event>
<event>
 5   0  0.1497410E-02  0.8947142E+03  0.7818609E-02  0.9432213E-01
       -1   -1    0    0    0  501  0.00000000000E+00  0.00000000000E+00  0.14759211510E+03  0.14759211518E+03  0.50400001928E-02 0.  1.
        1   -1    0    0  501    0  0.00000000000E+00  0.00000000000E+00 -0.13559557476E+04  0.13559557476E+04  0.50400001928E-02 0. -1.
    10030    2    1    2    0    0  0.00000000000E+00  0.00000000000E+00 -0.12083636325E+04  0.15035478628E+04  0.89471420429E+03 0.  0.
        3    1    3    3  502    0  0.38561400662E+03 -0.61442306584E+02 -0.97103084945E+03  0.10466012803E+04  0.10100000352E+00 0. -1.
       -3    1    3    3    0  502 -0.38561400662E+03  0.61442306584E+02 -0.23733278305E+03  0.45694658250E+03  0.10100000352E+00 0.  1.
</event>
<event>
 5   0  0.2679861E-02  0.9042545E+03  0.7818609E-02  0.9420279E-01
        2   -1    0    0  501    0  0.00000000000E+00  0.00000000000E+00  0.57809400722E+03  0.57809400723E+03  0.25500000920E-02 0.  1.
       -2   -1    0    0    0  501  0.00000000000E+00  0.00000000000E+00 -0.35360870382E+03  0.35360870383E+03  0.25500000920E-02 0. -1.
    10030    2    1    2    0    0  0.00000000000E+00  0.00000000000E+00  0.22448530340E+03  0.93170271106E+03  0.90425454954E+03 0.  0.
        1    1    3    3  502    0 -0.17448845831E+03 -0.36015106909E+03 -0.10453388293E+03  0.41362101900E+03  0.50400001928E-02 0. -1.
       -1    1    3    3    0  502  0.17448845831E+03  0.36015106909E+03  0.32901918633E+03  0.51808169206E+03  0.50400001928E-02 0.  1.
</event>
<event>
 5   0  0.2414128E-02  0.9130542E+03  0.7818609E-02  0.9409409E-01
        2   -1    0    0  501    0  0.00000000000E+00  0.00000000000E+00  0.92512282874E+03  0.92512282874E+03  0.25500000920E-02 0.  1.
       -2   -1    0    0    0  501  0.00000000000E+00  0.00000000000E+00 -0.22528574616E+03  0.22528574618E+03  0.25500000920E-02 0. -1.
    10030    2    1    2    0    0  0.00000000000E+00  0.00000000000E+00  0.69983708257E+03  0.11504085749E+04  0.91305418628E+03 0.  0.
        3    1    3    3  502    0 -0.12230425633E+03  0.28643931037E+03 -0.70633668890E+02  0.31936645883E+03  0.10100000352E+00 0. -1.
       -3    1    3    3    0  502  0.12230425633E+03 -0.28643931037E+03  0.77047075146E+03  0.83104211608E+03  0.10100000352E+00 0.  1.
</event>
<event>
 5   0  0.2803717E-02  0.8948755E+03  0.7818609E-02  0.9432010E-01
        2   -1    0    0  501    0  0.00000000000E+00  0.00000000000E+00  0.14111368471E+04  0.14111368471E+04  0.25500000920E-02 0.  1.
       -2   -1    0    0    0  501  0.00000000000E+00  0.00000000000E+00 -0.14187181085E+03  0.14187181088E+03  0.25500000920E-02 0. -1.
    10030    2    1    2    0    0  0.00000000000E+00  0.00000000000E+00  0.12692650362E+04  0.15530086580E+04  0.89487549945E+03 0.  0.
        5    1    3    3  502    0 -0.24600688650E+02 -0.39095466790E+03  0.25948810892E+03  0.46990096287E+03  0.46999998093E+01 0. -1.
       -5    1    3    3    0  502  0.24600688650E+02  0.39095466790E+03  0.10097769273E+04  0.10831076951E+04  0.46999998093E+01 0.  1.
</event>
<event>
 5   0  0.1537870E-02  0.8892193E+03  0.7818609E-02  0.9439159E-01
       -1   -1    0    0    0  501  0.00000000000E+00  0.00000000000E+00  0.20029451099E+03  0.20029451105E+03  0.50400001928E-02 0. -1.
        1   -1    0    0  501    0  0.00000000000E+00  0.00000000000E+00 -0.98693539275E+03  0.98693539276E+03  0.50400001928E-02 0.  1.
    10030    2    1    2    0    0  0.00000000000E+00  0.00000000000E+00 -0.78664088176E+03  0.11872299038E+04  0.88921930234E+03 0.  0.
        5    1    3    3  502    0  0.10308052721E+03 -0.10827978009E+03 -0.95233584267E+03  0.96401024533E+03  0.46999998093E+01 0.  1.
       -5    1    3    3    0  502 -0.10308052721E+03  0.10827978009E+03  0.16569496091E+03  0.22321965849E+03  0.46999998093E+01 0. -1.
</event>
<event>
 5   0  0.2414128E-02  0.9068186E+03  0.7818609E-02  0.9417098E-01
       -2   -1    0    0    0  501  0.00000000000E+00  0.00000000000E+00  0.52721847181E+03  0.52721847181E+03  0.25500000920E-02 0.  1.
        2   -1    0    0  501    0  0.00000000000E+00  0.00000000000E+00 -0.38993325272E+03  0.38993325273E+03  0.25500000920E-02 0. -1.
    10030    2    1    2    0    0  0.00000000000E+00  0.00000000000E+00  0.13728521909E+03  0.91715172454E+03  0.90681864474E+03 0.  0.
        3    1    3    3  502    0 -0.40203201714E+03 -0.79241453781E+02  0.26494456410E+03  0.48795961211E+03  0.10100000352E+00 0.  1.
       -3    1    3    3    0  502  0.40203201714E+03  0.79241453781E+02 -0.12765934502E+03  0.42919211243E+03  0.10100000352E+00 0. -1.
</event>
<event>
 5   0  0.2705111E-02  0.8442120E+03  0.7818609E-02  0.9498139E-01
        2   -1    0    0  501    0  0.00000000000E+00  0.00000000000E+00  0.44462533688E+03  0.44462533689E+03  0.25500000920E-02 0. -1.
       -2   -1    0    0    0  501  0.00000000000E+00  0.00000000000E+00 -0.40072719687E+03  0.40072719688E+03  0.25500000920E-02 0.  1.
    10030    2    1    2    0    0  0.00000000000E+00  0.00000000000E+00  0.43898140017E+02  0.84535253377E+03  0.84421197554E+03 0.  0.
        4    1    3    3  502    0 -0.29455846836E+03  0.29719233750E+03  0.77556746829E+02  0.42556390664E+03  0.12699999809E+01 0. -1.
       -4    1    3    3    0  502  0.29455846836E+03 -0.29719233750E+03 -0.33658606813E+02  0.41978862713E+03  0.12699999809E+01 0.  1.
</event>
<event>
 5   0  0.2803717E-02  0.8942688E+03  0.7818609E-02  0.9432774E-01
       -2   -1    0    0    0  501  0.00000000000E+00  0.00000000000E+00  0.14824926672E+03  0.14824926674E+03  0.25500000920E-02 0.  1.
        2   -1    0    0  501    0  0.00000000000E+00  0.00000000000E+00 -0.13486012920E+04  0.13486012920E+04  0.25500000920E-02 0. -1.
    10030    2    1    2    0    0  0.00000000000E+00  0.00000000000E+00 -0.12003520253E+04  0.14968505588E+04  0.89426875750E+03 0.  0.
        5    1    3    3  502    0 -0.41241162101E+02 -0.43570511488E+03 -0.44706635318E+03  0.62564382418E+03  0.46999998093E+01 0.  1.
       -5    1    3    3    0  502  0.41241162101E+02  0.43570511488E+03 -0.75328567212E+03  0.87120673460E+03  0.46999998093E+01 0. -1.
</event>
<event>
 5   0  0.1497410E-02  0.9253187E+03  0.7818609E-02  0.9394474E-01
        1   -1    0    0  501    0  0.00000000000E+00  0.00000000000E+00  0.39044958714E+03  0.39044958717E+03  0.50400001928E-02 0. -1.
       -1   -1    0    0    0  501  0.00000000000E+00  0.00000000000E+00 -0.54822354135E+03  0.54822354137E+03  0.50400001928E-02 0.  1.
    10030    2    1    2    0    0  0.00000000000E+00  0.00000000000E+00 -0.15777395420E+03  0.93867312854E+03  0.92531865950E+03 0.  0.
        3    1    3    3  502    0 -0.20976381874E+03 -0.38661585269E+03 -0.22441812810E+03  0.49379771529E+03  0.10100000352E+00 0. -1.
       -3    1    3    3    0  502  0.20976381874E+03  0.38661585269E+03  0.66644173901E+02  0.44487541325E+03  0.10100000352E+00 0.  1.
</event>
<event>
 5   0  0.2414128E-02  0.8976861E+03  0.7818609E-02  0.9428479E-01
        2   -1    0    0  501    0  0.00000000000E+00  0.00000000000E+00  0.87173925725E+03  0.87173925725E+03  0.25500000920E-02 0.  1.
       -2   -1    0    0    0  501  0.00000000000E+00  0.00000000000E+00 -0.23110131927E+03  0.23110131929E+03  0.25500000920E-02 0. -1.
    10030    2    1    2    0    0  0.00000000000E+00  0.00000000000E+00  0.64063793798E+03  0.11028405765E+04  0.89768611981E+03 0.  0.
        3    1    3    3  502    0 -0.20555749860E+03  0.44413457907E+02 -0.16682907514E+03  0.26843694043E+03  0.10100000352E+00 0. -1.
       -3    1    3    3    0  502  0.20555749860E+03 -0.44413457907E+02  0.80746701312E+03  0.83440363611E+03  0.10100000352E+00 0.  1.
</event>
<event>
 5   0  0.2679861E-02  0.8843133E+03  0.7818609E-02  0.9445406E-01
       -2   -1    0    0    0  501  0.00000000000E+00  0.00000000000E+00  0.39207896593E+03  0.39207896593E+03  0.25500000920E-02 0. -1.
        2   -1    0    0  501    0  0.00000000000E+00  0.00000000000E+00 -0.49863047037E+03  0.49863047038E+03  0.25500000920E-02 0.  1.
    10030    2    1    2    0    0  0.00000000000E+00  0.00000000000E+00 -0.10655150444E+03  0.89070943631E+03  0.88431333634E+03 0.  0.
        1    1    3    3  502    0  0.11004890402E+03  0.40843141000E+03  0.76401481536E+02  0.42984202256E+03  0.50400001928E-02 0. -1.
       -1    1    3    3    0  502 -0.11004890402E+03 -0.40843141000E+03 -0.18295298598E+03  0.46086741375E+03  0.50400001928E-02 0.  1.
</event>
<event>
 5   0  0.2705111E-02  0.9092579E+03  0.7818609E-02  0.9414082E-01
       -2   -1    0    0    0  501  0.00000000000E+00  0.00000000000E+00  0.20301087796E+03  0.20301087798E+03  0.25500000920E-02 0. -1.
        2   -1    0    0  501    0  0.00000000000E+00  0.00000000000E+00 -0.10181104379E+04  0.10181104379E+04  0.25500000920E-02 0.  1.
    10030    2    1    2    0    0  0.00000000000E+00  0.00000000000E+00 -0.81509955998E+03  0.12211213159E+04  0.90925792574E+03 0.  0.
        4    1    3    3  502    0 -0.35036381765E+03 -0.19245751336E+03 -0.11673444320E+03  0.41644116307E+03  0.12699999809E+01 0. -1.
       -4    1    3    3    0  502  0.35036381765E+03  0.19245751336E+03 -0.69836511678E+03  0.80468015286E+03  0.12699999809E+01 0.  1.
</event>
<event>
 5   0  0.2679861E-02  0.5633250E+03  0.7818609E-02  0.9984559E-01
       -2   -1    0    0    0  501  0.00000000000E+00  0.00000000000E+00  0.88521752095E+02  0.88521752132E+02  0.25500000920E-02 0.  1.
        2   -1    0    0  501    0  0.00000000000E+00  0.00000000000E+00 -0.89620631797E+03  0.89620631798E+03  0.25500000920E-02 0. -1.
    10030    2    1    2    0    0  0.00000000000E+00  0.00000000000E+00 -0.80768456588E+03  0.98472807011E+03  0.56332496314E+03 0.  0.
        1    1    3    3  502    0 -0.61403098344E+02  0.54003990476E+02 -0.87499978374E+03  0.87881249026E+03  0.50400001928E-02 0. -1.
       -1    1    3    3    0  502  0.61403098344E+02 -0.54003990476E+02  0.67315217859E+02  0.10591557985E+03  0.50400001928E-02 0.  1.
</event>
<event>
 5   0  0.2414128E-02  0.8708405E+03  0.7818609E-02  0.9462785E-01
        2   -1    0    0  501    0  0.00000000000E+00  0.00000000000E+00  0.77510775549E+03  0.77510775550E+03  0.25500000920E-02 0. -1.
       -2   -1    0    0    0  501  0.00000000000E+00  0.00000000000E+00 -0.24459924677E+03  0.24459924678E+03  0.25500000920E-02 0.  1.
    10030    2    1    2    0    0  0.00000000000E+00  0.00000000000E+00  0.53050850872E+03  0.10197070023E+04  0.87084045190E+03 0.  0.
        3    1    3    3  502    0  0.33599842935E+02 -0.42978493259E+03  0.33692843384E+03  0.54714241058E+03  0.10100000352E+00 0.  1.
       -3    1    3    3    0  502 -0.33599842935E+02  0.42978493259E+03  0.19358007488E+03  0.47256459169E+03  0.10100000352E+00 0. -1.
</event>
<event>
 5   0  0.2628383E-02  0.9721372E+03  0.7818609E-02  0.9339643E-01
        2   -1    0    0  501    0  0.00000000000E+00  0.00000000000E+00  0.10410523752E+04  0.10410523752E+04  0.25500000920E-02 0.  1.
       -2   -1    0    0    0  501  0.00000000000E+00  0.00000000000E+00 -0.22694599134E+03  0.22694599136E+03  0.25500000920E-02 0. -1.
    10030    2    1    2    0    0  0.00000000000E+00  0.00000000000E+00  0.81410638391E+03  0.12679983666E+04  0.97213715771E+03 0.  0.
        2    1    3    3  502    0 -0.13214043602E+03  0.44845346438E+03  0.58054064198E+03  0.74538516321E+03  0.25500000920E-02 0.  1.
       -2    1    3    3    0  502  0.13214043602E+03 -0.44845346438E+03  0.23356574193E+03  0.52261320339E+03  0.25500000920E-02 0. -1.
</event>
<event>
 5   0  0.2679861E-02  0.9022502E+03  0.7818609E-02  0.9422773E-01
       -2   -1    0    0    0  501  0.00000000000E+00  0.00000000000E+00  0.26387397689E+03  0.26387397690E+03  0.25500000920E-02 0. -1.
        2   -1    0    0  501    0  0.00000000000E+00  0.00000000000E+00 -0.77125401993E+03  0.77125401993E+03  0.25500000920E-02 0.  1.
    10030    2    1    2    0    0  0.00000000000E+00  0.00000000000E+00 -0.50738004304E+03  0.10351279968E+04  0.90225022125E+03 0.  0.
        1    1    3    3  502    0  0.21841761236E+03 -0.33816283144E+03 -0.20103531855E+02  0.40306886009E+03  0.50400001928E-02 0.  1.
       -1    1    3    3    0  502 -0.21841761236E+03  0.33816283144E+03 -0.48727651118E+03  0.63205913674E+03  0.50400001928E-02 0. -1.
</event>
<event>
 5   0  0.2628383E-02  0.8986420E+03  0.7818609E-02  0.9427281E-01
        2   -1    0    0  501    0  0.00000000000E+00  0.00000000000E+00  0.11551025955E+04  0.11551025955E+04  0.25500000920E-02 0. -1.
       -2   -1    0    0    0  501  0.00000000000E+00  0.00000000000E+00 -0.17478047308E+03  0.17478047310E+03  0.25500000920E-02 0.  1.
    10030    2    1    2    0    0  0.00000000000E+00  0.00000000000E+00  0.98032212245E+03  0.13298830686E+04  0.89864203802E+03 0.  0.
        2    1    3    3  502    0  0.33392081257E+03 -0.28314245656E+03  0.63974339715E+03  0.77520602034E+03  0.25500000920E-02 0.  1.
       -2    1    3    3    0  502 -0.33392081257E+03  0.28314245656E+03  0.34057872530E+03  0.55467704830E+03  0.25500000920E-02 0. -1.
</event>
<event>
 5   0  0.1559275E-02  0.9032810E+03  0.7818609E-02  0.9421489E-01
       -1   -1    0    0    0  501  0.00000000000E+00  0.00000000000E+00  0.50306341016E+03  0.50306341018E+03  0.50400001928E-02 0. -1.
        1   -1    0    0  501    0  0.00000000000E+00  0.00000000000E+00 -0.40547404544E+03  0.40547404547E+03  0.50400001928E-02 0.  1.
    10030    2    1    2    0    0  0.00000000000E+00  0.00000000000E+00  0.97589364720E+02  0.90853745565E+03  0.90328103280E+03 0.  0.
        1    1    3    3  502    0 -0.14845528343E+03  0.30852750076E+03  0.34504382727E+03  0.48608994298E+03  0.50400001928E-02 0. -1.
       -1    1    3    3    0  502  0.14845528343E+03 -0.30852750076E+03 -0.24745446255E+03  0.42244751267E+03  0.50400001928E-02 0.  1.
</event>
<event>
 5   0  0.1459111E-02  0.8942506E+03  0.7818609E-02  0.9432797E-01
       -1   -1    0    0    0  501  0.00000000000E+00  0.00000000000E+00  0.23306441971E+03  0.23306441977E+03  0.50400001928E-02 0.  1.
        1   -1    0    0  501    0  0.00000000000E+00  0.00000000000E+00 -0.85779305935E+03  0.85779305937E+03  0.50400001928E-02 0. -1.
    10030    2    1    2    0    0  0.00000000000E+00  0.00000000000E+00 -0.62472863964E+03  0.10908574791E+04  0.89425061733E+03 0.  0.
        2    1    3    3  502    0 -0.31743550612E+03 -0.16665272022E+03 -0.63827979520E+03  0.73207890741E+03  0.25500000920E-02 0. -1.
       -2    1    3    3    0  502  0.31743550612E+03  0.16665272022E+03  0.13551155564E+02  0.35877857172E+03  0.25500000920E-02 0.  1.
</event>
<event>
 5   0  0.1560728E-02  0.8939128E+03  0.7818609E-02  0.9433223E-01
        1   -1    0    0  501    0  0.00000000000E+00  0.00000000000E+00  0.13871680072E+04  0.13871680072E+04  0.50400001928E-02 0. -1.
       -1   -1    0    0    0  501  0.00000000000E+00  0.00000000000E+00 -0.14401286207E+03  0.14401286215E+03  0.50400001928E-02 0.  1.
    10030    2    1    2    0    0  0.00000000000E+00  0.00000000000E+00  0.12431551451E+04  0.15311808693E+04  0.89391282563E+03 0.  0.
        4    1    3    3  502    0  0.32665494950E+03  0.14345534587E+03  0.16041188729E+03  0.39117320816E+03  0.12699999809E+01 0.  1.
       -4    1    3    3    0  502 -0.32665494950E+03 -0.14345534587E+03  0.10827432578E+04  0.11400076612E+04  0.12699999809E+01 0. -1.
</event>
<event>
 5   0  0.1537870E-02  0.8821596E+03  0.7818609E-02  0.9448162E-01
        1   -1    0    0  501    0  0.00000000000E+00  0.00000000000E+00  0.51409898774E+03  0.51409898776E+03  0.50400001928E-02 0. -1.
       -1   -1    0    0    0  501  0.00000000000E+00  0.00000000000E+00 -0.37843176819E+03  0.37843176823E+03  0.50400001928E-02 0.  1.
    10030    2    1    2    0    0  0.00000000000E+00  0.00000000000E+00  0.13566721955E+03  0.89253075599E+03  0.88215959777E+03 0.  0.
        5    1    3    3  502    0 -0.74517935436E+02  0.13155999691E+03 -0.35136625629E+03  0.38254580320E+03  0.46999998093E+01 0.  1.
       -5    1    3    3    0  502  0.74517935436E+02 -0.13155999691E+03  0.48703347584E+03  0.50998495279E+03  0.46999998093E+01 0. -1.
</event>
<event>
 5   0  0.2414128E-02  0.9073304E+03  0.7818609E-02  0.9416464E-01
       -2   -1    0    0    0  501  0.00000000000E+00  0.00000000000E+00  0.14979853431E+03  0.14979853433E+03  0.25500000920E-02 0.  1.
        2   -1    0    0  501    0  0.00000000000E+00  0.00000000000E+00 -0.13739260476E+04  0.13739260476E+04  0.25500000920E-02 0. -1.
    10030    2    1    2    0    0  0.00000000000E+00  0.00000000000E+00 -0.12241275133E+04  0.15237245819E+04  0.90733038789E+03 0.  0.
        3    1    3    3  502    0 -0.70694623683E+02 -0.70378586482E+02 -0.13552800951E+04  0.13589462909E+04  0.10100000352E+00 0. -1.
       -3    1    3    3    0  502  0.70694623683E+02  0.70378586482E+02  0.13115258184E+03  0.16477829098E+03  0.10100000352E+00 0.  1.
</event>
<event>
 5   0  0.1537870E-02  0.9291133E+03  0.7818609E-02  0.9389903E-01
        1   -1    0    0  501    0  0.00000000000E+00  0.00000000000E+00  0.67261439122E+03  0.67261439124E+03  0.50400001928E-02 0. -1.
       -1   -1    0    0    0  501  0.00000000000E+00  0.00000000000E+00 -0.32085675424E+03  0.32085675428E+03  0.50400001928E-02 0.  1.
    10030    2    1    2    0    0  0.00000000000E+00  0.00000000000E+00  0.35175763699E+03  0.99347114552E+03  0.92911327716E+03 0.  0.
        5    1    3    3  502    0  0.24805773230E+03 -0.39268404619E+03  0.18397860473E+03  0.49960345843E+03  0.46999998093E+01 0. -1.
       -5    1    3    3    0  502 -0.24805773230E+03  0.39268404619E+03  0.16777903226E+03  0.49386768708E+03  0.46999998093E+01 0.  1.
</event>
<event>
 5   0  0.2414128E-02  0.9456454E+03  0.7818609E-02  0.9370255E-01
       -2   -1    0    0    0  501  0.00000000000E+00  0.00000000000E+00  0.26770790471E+03  0.26770790472E+03  0.25500000920E-02 0. -1.
        2   -1    0    0  501    0  0.00000000000E+00  0.00000000000E+00 -0.83509413951E+03  0.83509413952E+03  0.25500000920E-02 0.  1.
    10030    2    1    2    0    0  0.00000000000E+00  0.00000000000E+00 -0.56738623481E+03  0.11028020442E+04  0.94564539301E+03 0.  0.
        3    1    3    3  502    0  0.46069744060E+03 -0.12180906610E+02 -0.40694998167E+03  0.61481607335E+03  0.10100000352E+00 0.  1.
       -3    1    3    3    0  502 -0.46069744060E+03  0.12180906610E+02 -0.16043625314E+03  0.48798597089E+03  0.10100000352E+00 0. -1.
</event>
<event>
 5   0  0.1497410E-02  0.9138733E+03  0.7818609E-02  0.9408403E-01
       -1   -1    0    0    0  501  0.00000000000E+00  0.00000000000E+00  0.12491227491E+04  0.12491227491E+04  0.50400001928E-02 0.  1.
        1   -1    0    0  501    0  0.00000000000E+00  0.00000000000E+00 -0.16715019699E+03  0.16715019706E+03  0.50400001928E-02 0. -1.
    10030    2    1    2    0    0  0.00000000000E+00  0.00000000000E+00  0.10819725521E+04  0.14162729462E+04  0.91387332522E+03 0.  0.
        3    1    3    3  502    0  0.64371882580E+02 -0.44760260996E+03  0.43937118665E+03  0.63050684815E+03  0.10100000352E+00 0. -1.
       -3    1    3    3    0  502 -0.64371882580E+02  0.44760260996E+03  0.64260136549E+03  0.78576609805E+03  0.10100000352E+00 0.  1.
</event>
<event>
 5   0  0.1459111E-02  0.8924603E+03  0.7818609E-02  0.9435056E-01
        1   -1    0    0  501    0  0.00000000000E+00  0.00000000000E+00  0.73271403889E+03  0.73271403891E+03  0.50400001928E-02 0. -1.
       -1   -1    0    0    0  501  0.00000000000E+00  0.00000000000E+00 -0.27175861453E+03  0.27175861457E+03  0.50400001928E-02 0.  1.
    10030    2    1    2    0    0  0.00000000000E+00  0.00000000000E+00  0.46095542437E+03  0.10044726535E+04  0.89246031192E+03 0.  0.
        2    1    3    3  502    0 -0.11489681565E+02 -0.19449791277E+03 -0.22135503313E+03  0.29488896478E+03  0.25500000920E-02 0.  1.
       -2    1    3    3    0  502  0.11489681565E+02  0.19449791277E+03  0.68231045749E+03  0.70958368870E+03  0.25500000920E-02 0. -1.
</event>
<event>
 5   0  0.1537870E-02  0.9711929E+03  0.7818609E-02  0.9340717E-01
       -1   -1    0    0    0  501  0.00000000000E+00  0.00000000000E+00  0.17796795075E+03  0.17796795082E+03  0.50400001928E-02 0. -1.
        1   -1    0    0  501    0  0.00000000000E+00  0.00000000000E+00 -0.13249795447E+04  0.13249795447E+04  0.50400001928E-02 0.  1.
    10030    2    1    2    0    0  0.00000000000E+00  0.00000000000E+00 -0.11470115940E+04  0.15029474956E+04  0.97119286329E+03 0.  0.
        5    1    3    3  502    0 -0.34944361059E+03  0.17741160773E+03 -0.10171797195E+04  0.10900744870E+04  0.46999998093E+01 0.  1.
       -5    1    3    3    0  502  0.34944361059E+03 -0.17741160773E+03 -0.12983187448E+03  0.41287300853E+03  0.46999998093E+01 0. -1.
</event>
<event>
 5   0  0.2705111E-02  0.8962837E+03  0.7818609E-02  0.9430239E-01
        2   -1    0    0  501    0  0.00000000000E+00  0.00000000000E+00  0.34219307682E+03  0.34219307683E+03  0.25500000920E-02 0.  1.
       -2   -1    0    0    0  501  0.00000000000E+00  0.00000000000E+00 -0.58689414812E+03  0.58689414812E+03  0.25500000920E-02 0. -1.
    10030    2    1    2    0    0  0.00000000000E+00  0.00000000000E+00 -0.24470107130E+03  0.92908722496E+03  0.89628369241E+03 0.  0.
        4    1    3    3  502    0 -0.32330298014E+03  0.15011082983E+03  0.15919916824E+03  0.39038963391E+03  0.12699999809E+01 0.  1.
       -4    1    3    3    0  502  0.32330298014E+03 -0.15011082983E+03 -0.40390023953E+03  0.53869759104E+03  0.12699999809E+01 0. -1.
</event>
<event>
 5   0  0.2705111E-02  0.9237338E+03  0.7818609E-02  0.9396390E-01
       -2   -1    0    0    0  501  0.00000000000E+00  0.00000000000E+00  0.57417993236E+03  0.57417993237E+03  0.25500000920E-02 0. -1.
        2   -1    0    0  501    0  0.00000000000E+00  0.00000000000E+00 -0.37152294658E+03  0.37152294659E+03  0.25500000920E-02 0.  1.
    10030    2    1    2    0    0  0.00000000000E+00  0.00000000000E+00  0.20265698578E+03  0.94570287895E+03  0.92373377191E+03 0.  0.
        4    1    3    3  502    0  0.32905485350E+03 -0.12154042827E+03 -0.20626714772E+03  0.40693601640E+03  0.12699999809E+01 0.  1.
       -4    1    3    3    0  502 -0.32905485350E+03  0.12154042827E+03  0.40892413351E+03  0.53876686255E+03  0.12699999809E+01 0. -1.
</event>
<event>
 5   0  0.2414128E-02  0.9069784E+03  0.7818609E-02  0.9416900E-01
       -2   -1    0    0    0  501  0.00000000000E+00  0.00000000000E+00  0.19886297297E+03  0.19886297299E+03  0.25500000920E-02 0.  1.
        2   -1    0    0  501    0  0.00000000000E+00  0.00000000000E+00 -0.10341414277E+04  0.10341414278E+04  0.25500000920E-02 0. -1.
    10030    2    1    2    0    0  0.00000000000E+00  0.00000000000E+00 -0.83527845478E+03  0.12330044007E+04  0.90697836536E+03 0.  0.
        3    1    3    3  502    0 -0.16141306278E+03  0.18951171420E+03  0.97673942373E+02  0.26741180953E+03  0.10100000352E+00 0.  1.
       -3    1    3    3    0  502  0.16141306278E+03 -0.18951171420E+03 -0.93295239715E+03  0.96559259121E+03  0.10100000352E+00 0. -1.
</event>
<event>
 5   0  0.1560728E-02  0.9014884E+03  0.7818609E-02  0.9423723E-01
       -1   -1    0    0    0  501  0.00000000000E+00  0.00000000000E+00  0.11012773692E+03  0.11012773703E+03  0.50400001928E-02 0. -1.
        1   -1    0    0  501    0  0.00000000000E+00  0.00000000000E+00 -0.18448607747E+04  0.18448607747E+04  0.50400001928E-02 0.  1.
    10030    2    1    2    0    0  0.00000000000E+00  0.00000000000E+00 -0.17347330378E+04  0.19549885118E+04  0.90148841848E+03 0.  0.
        4    1    3    3  502    0 -0.23833257753E+02  0.42962619233E+03 -0.11584958966E+04  0.12358240347E+04  0.12699999809E+01 0.  1.
       -4    1    3    3    0  502  0.23833257753E+02 -0.42962619233E+03 -0.57623714116E+03  0.71916447706E+03  0.12699999809E+01 0. -1.
</event>
<event>
 5   0  0.2705111E-02  0.9021509E+03  0.7818609E-02  0.9422897E-01
        2   -1    0    0  501    0  0.00000000000E+00  0.00000000000E+00  0.27759986264E+04  0.27759986264E+04  0.25500000920E-02 0. -1.
       -2   -1    0    0    0  501  0.00000000000E+00  0.00000000000E+00 -0.73295812507E+02  0.73295812552E+02  0.25500000920E-02 0.  1.
    10030    2    1    2    0    0  0.00000000000E+00  0.00000000000E+00  0.27027028139E+04  0.28492944389E+04  0.90215092951E+03 0.  0.
        4    1    3    3  502    0 -0.65821409941E+01 -0.36035685571E+03  0.22079944080E+04  0.22372173133E+04  0.12699999809E+01 0. -1.
       -4    1    3    3    0  502  0.65821409941E+01  0.36035685571E+03  0.49470840582E+03  0.61207712564E+03  0.12699999809E+01 0.  1.
</event>
<event>
 5   0  0.1560728E-02  0.8975494E+03  0.7818609E-02  0.9428650E-01
       -1   -1    0    0    0  501  0.00000000000E+00  0.00000000000E+00  0.17645772775E+03  0.17645772782E+03  0.50400001928E-02 0.  1.
        1   -1    0    0  501    0  0.00000000000E+00  0.00000000000E+00 -0.11413427573E+04  0.11413427573E+04  0.50400001928E-02 0. -1.
    10030    2    1    2    0    0  0.00000000000E+00  0.00000000000E+00 -0.96488502958E+03  0.13178004852E+04  0.89754944064E+03 0.  0.
        4    1    3    3  502    0 -0.76243419349E+02  0.15748060280E+03  0.12431448263E+03  0.21463667614E+03  0.12699999809E+01 0.  1.
       -4    1    3    3    0  502  0.76243419349E+02 -0.15748060280E+03 -0.10891995122E+04  0.11031638090E+04  0.12699999809E+01 0. -1.
</event>
<event>
 5   0  0.2679861E-02  0.9018693E+03  0.7818609E-02  0.9423248E-01
       -2   -1    0    0    0  501  0.00000000000E+00  0.00000000000E+00  0.24791736746E+03  0.24791736748E+03  0.25500000920E-02 0. -1.
        2   -1    0    0  501    0  0.00000000000E+00  0.00000000000E+00 -0.82020100071E+03  0.82020100071E+03  0.25500000920E-02 0.  1.
    10030    2    1    2    0    0  0.00000000000E+00  0.00000000000E+00 -0.57228363325E+03  0.10681183682E+04  0.90186933177E+03 0.  0.
        1    1    3    3  502    0  0.32325743766E+03  0.30699044753E+03 -0.36649868407E+03  0.57711332624E+03  0.50400001928E-02 0. -1.
       -1    1    3    3    0  502 -0.32325743766E+03 -0.30699044753E+03 -0.20578494918E+03  0.49100504195E+03  0.50400001928E-02 0.  1.
</event>
<event>
 5   0  0.2803717E-02  0.8748162E+03  0.7818609E-02  0.9457622E-01
        2   -1    0    0  501    0  0.00000000000E+00  0.00000000000E+00  0.53672585226E+03  0.53672585227E+03  0.25500000920E-02 0. -1.
       -2   -1    0    0    0  501  0.00000000000E+00  0.00000000000E+00 -0.35646845816E+03  0.35646845817E+03  0.25500000920E-02 0.  1.
    10030    2    1    2    0    0  0.00000000000E+00  0.00000000000E+00  0.18025739411E+03  0.89319431043E+03  0.87481617958E+03 0.  0.
        5    1    3    3  502    0 -0.54458925784E+02  0.18129534849E+03 -0.31245149006E+03  0.36535161368E+03  0.46999998093E+01 0.  1.
       -5    1    3    3    0  502  0.54458925784E+02 -0.18129534849E+03  0.49270888416E+03  0.52784269675E+03  0.46999998093E+01 0. -1.
</event>
<event>
 5   0  0.1560728E-02  0.9195772E+03  0.7818609E-02  0.9401434E-01
       -1   -1    0    0    0  501  0.00000000000E+00  0.00000000000E+00  0.52764118553E+03  0.52764118555E+03  0.50400001928E-02 0. -1.
        1   -1    0    0  501    0  0.00000000000E+00  0.00000000000E+00 -0.40066160836E+03  0.40066160839E+03  0.50400001928E-02 0.  1.
    10030    2    1    2    0    0  0.00000000000E+00  0.00000000000E+00  0.12697957717E+03  0.92830279394E+03  0.91957722037E+03 0.  0.
        4    1    3    3  502    0 -0.12438720595E+03  0.14279869700E+03 -0.35946104134E+03  0.40629730249E+03  0.12699999809E+01 0.  1.
       -4    1    3    3    0  502  0.12438720595E+03 -0.14279869700E+03  0.48644061851E+03  0.52200549145E+03  0.12699999809E+01 0. -1.
</event>
<event>
 5   0  0.1559275E-02  0.8870612E+03  0.7818609E-02  0.9441902E-01
        1   -1    0    0  501    0  0.00000000000E+00  0.00000000000E+00  0.12713424117E+04  0.12713424117E+04  0.50400001928E-02 0. -1.
       -1   -1    0    0    0  501  0.00000000000E+00  0.00000000000E+00 -0.15473358960E+03  0.15473358968E+03  0.50400001928E-02 0.  1.
    10030    2    1    2    0    0  0.00000000000E+00  0.00000000000E+00  0.11166088221E+04  0.14260760013E+04  0.88706115917E+03 0.  0.
        1    1    3    3  502    0 -0.15580403293E+03  0.40388928740E+03  0.40311980446E+03  0.59152939904E+03  0.50400001928E-02 0.  1.
       -1    1    3    3    0  502  0.15580403293E+03 -0.40388928740E+03  0.71348901760E+03  0.83454660230E+03  0.50400001928E-02 0. -1.
</event>
<event>
 5   0  0.1560728E-02  0.9073250E+03  0.7818609E-02  0.9416471E-01
        1   -1    0    0  501    0  0.00000000000E+00  0.00000000000E+00  0.19119450625E+04  0.19119450626E+04  0.50400001928E-02 0.  1.
       -1   -1    0    0    0  501  0.00000000000E+00  0.00000000000E+00 -0.10764413622E+03  0.10764413634E+03  0.50400001928E-02 0. -1.
    10030    2    1    2    0    0  0.00000000000E+00  0.00000000000E+00  0.18043009263E+04  0.20195891989E+04  0.90732502420E+03 0.  0.
        4    1    3    3  502    0  0.49040902562E+02  0.40742333010E+03  0.47163392789E+03  0.62517114046E+03  0.12699999809E+01 0. -1.
       -4    1    3    3    0  502 -0.49040902562E+02 -0.40742333010E+03  0.13326669984E+04  0.13944180584E+04  0.12699999809E+01 0.  1.
</event>
<event>
 5   0  0.2705111E-02  0.9083256E+03  0.7818609E-02  0.9415233E-01
       -2   -1    0    0    0  501  0.00000000000E+00  0.00000000000E+00  0.14817231687E+03  0.14817231689E+03  0.25500000920E-02 0.  1.
        2   -1    0    0  501    0  0.00000000000E+00  0.00000000000E+00 -0.13920539915E+04  0.13920539915E+04  0.25500000920E-02 0. -1.
    10030    2    1    2    0    0  0.00000000000E+00  0.00000000000E+00 -0.12438816746E+04  0.15402263084E+04  0.90832563575E+03 0.  0.
        4    1    3    3  502    0  0.11279737518E+03 -0.42749835767E+02  0.12050879833E+03  0.17051328300E+03  0.12699999809E+01 0.  1.
       -4    1    3    3    0  502 -0.11279737518E+03  0.42749835767E+02 -0.13643904730E+04  0.13697130254E+04  0.12699999809E+01 0. -1.
</event>
<event>
 5   0  0.1559275E-02  0.9072801E+03  0.7818609E-02  0.9416526E-01
       -1   -1    0    0    0  501  0.00000000000E+00  0.00000000000E+00  0.13505057761E+04  0.13505057761E+04  0.50400001928E-02 0. -1.
        1   -1    0    0  501    0  0.00000000000E+00  0.00000000000E+00 -0.15237942656E+03  0.15237942665E+03  0.50400001928E-02 0.  1.
    10030    2    1    2    0    0  0.00000000000E+00  0.00000000000E+00  0.11981263495E+04  0.15028852027E+04  0.90728010183E+03 0.  0.
        1    1    3    3  502    0  0.82400313533E+01  0.36321743165E+03  0.10490464835E+04  0.11101771595E+04  0.50400001928E-02 0. -1.
       -1    1    3    3    0  502 -0.82400313533E+01 -0.36321743165E+03  0.14907986597E+03  0.39270804325E+03  0.50400001928E-02 0.  1.
</event>
<event>
 5   0  0.2679861E-02  0.9016975E+03  0.7818609E-02  0.9423462E-01
       -2   -1    0    0    0  501  0.00000000000E+00  0.00000000000E+00  0.41376547243E+03  0.41376547243E+03  0.25500000920E-02 0. -1.
        2   -1    0    0  501    0  0.00000000000E+00  0.00000000000E+00 -0.49125558133E+03  0.49125558134E+03  0.25500000920E-02 0.  1.
    10030    2    1    2    0    0  0.00000000000E+00  0.00000000000E+00 -0.77490108909E+02  0.90502105377E+03  0.90169750515E+03 0.  0.
        1    1    3    3  502    0  0.75383412354E+02  0.35879606442E+03  0.22460980923E+03  0.42996144145E+03  0.50400001928E-02 0. -1.
       -1    1    3    3    0  502 -0.75383412354E+02 -0.35879606442E+03 -0.30209991814E+03  0.47505961233E+03  0.50400001928E-02 0.  1.
</event>
<event>
 5   0  0.1537870E-02  0.8869348E+03  0.7818609E-02  0.9442063E-01
       -1   -1    0    0    0  501  0.00000000000E+00  0.00000000000E+00  0.29712477504E+03  0.29712477508E+03  0.50400001928E-02 0.  1.
        1   -1    0    0  501    0  0.00000000000E+00  0.00000000000E+00 -0.66188804769E+03  0.66188804771E+03  0.50400001928E-02 0. -1.
    10030    2    1    2    0    0  0.00000000000E+00  0.00000000000E+00 -0.36476327265E+03  0.95901282279E+03  0.88693480550E+03 0.  0.
        5    1    3    3  502    0 -0.23333263004E+03  0.34110569894E+03 -0.85563868722E+01  0.41339148013E+03  0.46999998093E+01 0.  1.
       -5    1    3    3    0  502  0.23333263004E+03 -0.34110569894E+03 -0.35620688578E+03  0.54562134266E+03  0.46999998093E+01 0. -1.
</event>
<event>
 5   0  0.1537870E-02  0.9231858E+03  0.7818609E-02  0.9397053E-01
        1   -1    0    0  501    0  0.00000000000E+00  0.00000000000E+00  0.12489974564E+04  0.12489974564E+04  0.50400001928E-02 0.  1.
       -1   -1    0    0    0  501  0.00000000000E+00  0.00000000000E+00 -0.17059123905E+03  0.17059123912E+03  0.50400001928E-02 0. -1.
    10030    2    1    2    0    0  0.00000000000E+00  0.00000000000E+00  0.10784062173E+04  0.14195886955E+04  0.92318583983E+03 0.  0.
        5    1    3    3  502    0 -0.13652527676E+03  0.79396003751E+02  0.12061193975E+04  0.12164246658E+04  0.46999998093E+01 0.  1.
       -5    1    3    3    0  502  0.13652527676E+03 -0.79396003751E+02 -0.12771318012E+03  0.20316402974E+03  0.46999998093E+01 0. -1.
</event>
<event>
 5   0  0.2414128E-02  0.8966838E+03  0.7818609E-02  0.9429736E-01
       -2   -1    0    0    0  501  0.00000000000E+00  0.00000000000E+00  0.27785400256E+03  0.27785400257E+03  0.25500000920E-02 0.  1.
        2   -1    0    0  501    0  0.00000000000E+00  0.00000000000E+00 -0.72343917606E+03  0.72343917606E+03  0.25500000920E-02 0. -1.
    10030    2    1    2    0    0  0.00000000000E+00  0.00000000000E+00 -0.44558517350E+03  0.10012931786E+04  0.89668382540E+03 0.  0.
        3    1    3    3  502    0 -0.31149247376E+03  0.18184795311E+03 -0.52015672402E+03  0.63297651378E+03  0.10100000352E+00 0. -1.
       -3    1    3    3    0  502  0.31149247376E+03 -0.18184795311E+03  0.74571550520E+02  0.36831666485E+03  0.10100000352E+00 0.  1.
</event>
<event>
 5   0  0.1559275E-02  0.8870304E+03  0.7818609E-02  0.9441941E-01
        1   -1    0    0  501    0  0.00000000000E+00  0.00000000000E+00  0.23153037333E+03  0.23153037338E+03  0.50400001928E-02 0.  1.
       -1   -1    0    0    0  501  0.00000000000E+00  0.00000000000E+00 -0.84958927686E+03  0.84958927688E+03  0.50400001928E-02 0. -1.
    10030    2    1    2    0    0  0.00000000000E+00  0.00000000000E+00 -0.61805890353E+03  0.10811196503E+04  0.88703037712E+03 0.  0.
        1    1    3    3  502    0 -0.62983656407E+02 -0.43125854801E+03 -0.40920068086E+03  0.59782612308E+03  0.50400001928E-02 0. -1.
       -1    1    3    3    0  502  0.62983656407E+02  0.43125854801E+03 -0.20885822268E+03  0.48329352717E+03  0.50400001928E-02 0.  1.
</event>
<event>
 5   0  0.1537870E-02  0.8590890E+03  0.7818609E-02  0.9478219E-01
        1   -1    0    0  501    0  0.00000000000E+00  0.00000000000E+00  0.44182490759E+03  0.44182490762E+03  0.50400001928E-02 0.  1.
       -1   -1    0    0    0  501  0.00000000000E+00  0.00000000000E+00 -0.41760545427E+03  0.41760545430E+03  0.50400001928E-02 0. -1.
    10030    2    1    2    0    0  0.00000000000E+00  0.00000000000E+00  0.24219453322E+02  0.85943036192E+03  0.85908903210E+03 0.  0.
        5    1    3    3  502    0  0.26151334039E+03 -0.92453952075E+02 -0.31596788613E+03  0.42046968443E+03  0.46999998093E+01 0. -1.
       -5    1    3    3    0  502 -0.26151334039E+03  0.92453952075E+02  0.34018733946E+03  0.43896067749E+03  0.46999998093E+01 0.  1.
</event>
<event>
 5   0  0.1040163E-02  0.8983314E+03  0.7818609E-02  0.9427670E-01
       -3   -1    0    0    0  501  0.00000000000E+00  0.00000000000E+00  0.17709647684E+03  0.17709650564E+03  0.10100000352E+00 0. -1.
        3   -1    0    0  501    0  0.00000000000E+00  0.00000000000E+00 -0.11392083980E+04  0.11392084024E+04  0.10100000352E+00 0.  1.
    10030    2    1    2    0    0  0.00000000000E+00  0.00000000000E+00 -0.96211192113E+03  0.13163049081E+04  0.89833137666E+03 0.  0.
        2    1    3    3  502    0 -0.27466239868E+03 -0.27666042424E+03 -0.15416636385E+03  0.41922272283E+03  0.25500000920E-02 0. -1.
       -2    1    3    3    0  502  0.27466239868E+03  0.27666042424E+03 -0.80794555728E+03  0.89708218526E+03  0.25500000920E-02 0.  1.
</event>
<event>
 5   0  0.2803717E-02  0.9258494E+03  0.7818609E-02  0.9393833E-01
        2   -1    0    0  501    0  0.00000000000E+00  0.00000000000E+00  0.47650155636E+03  0.47650155637E+03  0.25500000920E-02 0.  1.
       -2   -1    0    0    0  501  0.00000000000E+00  0.00000000000E+00 -0.44973472787E+03  0.44973472788E+03  0.25500000920E-02 0. -1.
    10030    2    1    2    0    0  0.00000000000E+00  0.00000000000E+00  0.26766828492E+02  0.92623628424E+03  0.92584944302E+03 0.  0.
        5    1    3    3  502    0  0.41073325238E+03  0.16980139457E+03 -0.11606496786E+03  0.45937727956E+03  0.46999998093E+01 0. -1.
       -5    1    3    3    0  502 -0.41073325238E+03 -0.16980139457E+03  0.14283179635E+03  0.46685900469E+03  0.46999998093E+01 0.  1.
</event>
<event>
 5   0  0.1559275E-02  0.9025740E+03  0.7818609E-02  0.9422369E-01
        1   -1    0    0  501    0  0.00000000000E+00  0.00000000000E+00  0.85818542579E+03  0.85818542580E+03  0.50400001928E-02 0.  1.
       -1   -1    0    0    0  501  0.00000000000E+00  0.00000000000E+00 -0.23731464114E+03  0.23731464119E+03  0.50400001928E-02 0. -1.
    10030    2    1    2    0    0  0.00000000000E+00  0.00000000000E+00  0.62087078465E+03  0.10955000670E+04  0.90257402221E+03 0.  0.
        1    1    3    3  502    0 -0.62091665672E+02  0.69835576999E+01  0.85290985856E+03  0.85519551675E+03  0.50400001928E-02 0.  1.
       -1    1    3    3    0  502  0.62091665672E+02 -0.69835576999E+01 -0.23203907391E+03  0.24030455025E+03  0.50400001928E-02 0. -1.
</event>
<event>
 5   0  0.1537870E-02  0.6360737E+03  0.7818609E-02  0.9833268E-01
        1   -1    0    0  501    0  0.00000000000E+00  0.00000000000E+00  0.86400815892E+03  0.86400815893E+03  0.50400001928E-02 0.  1.
       -1   -1    0    0    0  501  0.00000000000E+00  0.00000000000E+00 -0.11706769702E+03  0.11706769713E+03  0.50400001928E-02 0. -1.
    10030    2    1    2    0    0  0.00000000000E+00  0.00000000000E+00  0.74694046190E+03  0.98107585606E+03  0.63607372350E+03 0.  0.
        5    1    3    3  502    0  0.29115762553E+02  0.25658072904E+03  0.65972429022E+03  0.70847697722E+03  0.46999998093E+01 0.  1.
       -5    1    3    3    0  502 -0.29115762553E+02 -0.25658072904E+03  0.87216171672E+02  0.27259887884E+03  0.46999998093E+01 0. -1.
</event>
<event>
 5   0  0.1559275E-02  0.8737887E+03  0.7818609E-02  0.9458953E-01
        1   -1    0    0  501    0  0.00000000000E+00  0.00000000000E+00  0.91418594466E+03  0.91418594467E+03  0.50400001928E-02 0.  1.
       -1   -1    0    0    0  501  0.00000000000E+00  0.00000000000E+00 -0.20879412972E+03  0.20879412978E+03  0.50400001928E-02 0. -1.
    10030    2    1    2    0    0  0.00000000000E+00  0.00000000000E+00  0.70539181494E+03  0.11229800745E+04  0.87378866726E+03 0.  0.
        1    1    3    3  502    0  0.15784132014E+03  0.31035040154E+03  0.13530246258E+02  0.34844557921E+03  0.50400001928E-02 0. -1.
       -1    1    3    3    0  502 -0.15784132014E+03 -0.31035040154E+03  0.69186156868E+03  0.77453449525E+03  0.50400001928E-02 0.  1.
</event>
<event>
 5   0  0.2705111E-02  0.8812467E+03  0.7818609E-02  0.9449332E-01
       -2   -1    0    0    0  501  0.00000000000E+00  0.00000000000E+00  0.19658281816E+03  0.19658281818E+03  0.25500000920E-02 0.  1.
        2   -1    0    0  501    0  0.00000000000E+00  0.00000000000E+00 -0.98761900857E+03  0.98761900857E+03  0.25500000920E-02 0. -1.
    10030    2    1    2    0    0  0.00000000000E+00  0.00000000000E+00 -0.79103619040E+03  0.11842018268E+04  0.88124668054E+03 0.  0.
        4    1    3    3  502    0  0.40795223415E+03  0.16639582430E+03 -0.40343607308E+03  0.59739005153E+03  0.12699999809E+01 0.  1.
       -4    1    3    3    0  502 -0.40795223415E+03 -0.16639582430E+03 -0.38760011732E+03  0.58681177522E+03  0.12699999809E+01 0. -1.
</event>
<event>
 5   0  0.1459111E-02  0.8537153E+03  0.7818609E-02  0.9485364E-01
        1   -1    0    0  501    0  0.00000000000E+00  0.00000000000E+00  0.63707000608E+03  0.63707000610E+03  0.50400001928E-02 0.  1.
       -1   -1    0    0    0  501  0.00000000000E+00  0.00000000000E+00 -0.28600851911E+03  0.28600851916E+03  0.50400001928E-02 0. -1.
    10030    2    1    2    0    0  0.00000000000E+00  0.00000000000E+00  0.35106148697E+03  0.92307852526E+03  0.85371528987E+03 0.  0.
        2    1    3    3  502    0 -0.29156209143E+03 -0.19038958277E+03  0.44247175542E+03  0.56306118738E+03  0.25500000920E-02 0.  1.
       -2    1    3    3    0  502  0.29156209143E+03  0.19038958277E+03 -0.91410268452E+02  0.36001733788E+03  0.25500000920E-02 0. -1.
</event>
<event>
 5   0  0.1537870E-02  0.9520209E+03  0.7818609E-02  0.9362792E-01
        1   -1    0    0  501    0  0.00000000000E+00  0.00000000000E+00  0.22823378071E+03  0.22823378076E+03  0.50400001928E-02 0. -1.
       -1   -1    0    0    0  501  0.00000000000E+00  0.00000000000E+00 -0.99278002729E+03  0.99278002730E+03  0.50400001928E-02 0.  1.
    10030    2    1    2    0    0  0.00000000000E+00  0.00000000000E+00 -0.76454624658E+03  0.12210138081E+04  0.95202088019E+03 0.  0.
        5    1    3    3  502    0 -0.51291483753E+02  0.41841129722E+03 -0.66578622820E+03  0.78803059687E+03  0.46999998093E+01 0.  1.
       -5    1    3    3    0  502  0.51291483753E+02 -0.41841129722E+03 -0.98760018381E+02  0.43298321119E+03  0.46999998093E+01 0. -1.
</event>
<event>
 5   0  0.2679861E-02  0.8841090E+03  0.7818609E-02  0.9445667E-01
       -2   -1    0    0    0  501  0.00000000000E+00  0.00000000000E+00  0.44638182538E+03  0.44638182538E+03  0.25500000920E-02 0.  1.
        2   -1    0    0  501    0  0.00000000000E+00  0.00000000000E+00 -0.43776910696E+03  0.43776910696E+03  0.25500000920E-02 0. -1.
    10030    2    1    2    0    0  0.00000000000E+00  0.00000000000E+00  0.86127184203E+01  0.88415093235E+03  0.88410898211E+03 0.  0.
        1    1    3    3  502    0  0.26097395170E+03  0.18960668504E+03  0.30656906632E+03  0.44501987701E+03  0.50400001928E-02 0.  1.
       -1    1    3    3    0  502 -0.26097395170E+03 -0.18960668504E+03 -0.29795634790E+03  0.43913105534E+03  0.50400001928E-02 0. -1.
</event>
<event>
 5   0  0.2705111E-02  0.9513020E+03  0.7818609E-02  0.9363630E-01
       -2   -1    0    0    0  501  0.00000000000E+00  0.00000000000E+00  0.12004942250E+04  0.12004942250E+04  0.25500000920E-02 0. -1.
        2   -1    0    0  501    0  0.00000000000E+00  0.00000000000E+00 -0.18845893820E+03  0.18845893822E+03  0.25500000920E-02 0.  1.
    10030    2    1    2    0    0  0.00000000000E+00  0.00000000000E+00  0.10120352868E+04  0.13889531632E+04  0.95130198566E+03 0.  0.
        4    1    3    3  502    0  0.36264693568E+03  0.30609934812E+03  0.45909911916E+03  0.66029025814E+03  0.12699999809E+01 0. -1.
       -4    1    3    3    0  502 -0.36264693568E+03 -0.30609934812E+03  0.55293616765E+03  0.72866290511E+03  0.12699999809E+01 0.  1.
</event>
<event>
 5   0  0.2705111E-02  0.8969712E+03  0.7818609E-02  0.9429376E-01
        2   -1    0    0  501    0  0.00000000000E+00  0.00000000000E+00  0.92764830345E+03  0.92764830345E+03  0.25500000920E-02 0.  1.
       -2   -1    0    0    0  501  0.00000000000E+00  0.00000000000E+00 -0.21682712754E+03  0.21682712755E+03  0.25500000920E-02 0. -1.
    10030    2    1    2    0    0  0.00000000000E+00  0.00000000000E+00  0.71082117591E+03  0.11444754310E+04  0.89697116345E+03 0.  0.
        4    1    3    3  502    0  0.29272693484E+03  0.26574409575E+03  0.85259843718E+02  0.40445004223E+03  0.12699999809E+01 0. -1.
       -4    1    3    3    0  502 -0.29272693484E+03 -0.26574409575E+03  0.62556133219E+03  0.74002538878E+03  0.12699999809E+01 0.  1.
</event>
<event>
 5   0  0.2628383E-02  0.9800381E+03  0.7818609E-02  0.9330714E-01
        2   -1    0    0  501    0  0.00000000000E+00  0.00000000000E+00  0.82477177003E+03  0.82477177003E+03  0.25500000920E-02 0.  1.
       -2   -1    0    0    0  501  0.00000000000E+00  0.00000000000E+00 -0.29113347260E+03  0.29113347261E+03  0.25500000920E-02 0. -1.
    10030    2    1    2    0    0  0.00000000000E+00  0.00000000000E+00  0.53363829743E+03  0.11159052426E+04  0.98003810031E+03 0.  0.
        2    1    3    3  502    0  0.35538621702E+03 -0.20784808463E+03 -0.35763165981E+02  0.41325439330E+03  0.25500000920E-02 0. -1.
       -2    1    3    3    0  502 -0.35538621702E+03  0.20784808463E+03  0.56940146341E+03  0.70265084934E+03  0.25500000920E-02 0.  1.
</event>
<event>
 5   0  0.2414128E-02  0.8741392E+03  0.7818609E-02  0.9458499E-01
       -2   -1    0    0    0  501  0.00000000000E+00  0.00000000000E+00  0.30305911866E+03  0.30305911867E+03  0.25500000920E-02 0. -1.
        2   -1    0    0  501    0  0.00000000000E+00  0.00000000000E+00 -0.63033846779E+03  0.63033846779E+03  0.25500000920E-02 0.  1.
    10030    2    1    2    0    0  0.00000000000E+00  0.00000000000E+00 -0.32727934913E+03  0.93339758646E+03  0.87413916629E+03 0.  0.
        3    1    3    3  502    0 -0.73035037897E+02  0.24348158464E+03  0.21600818193E+03  0.33358198944E+03  0.10100000352E+00 0. -1.
       -3    1    3    3    0  502  0.73035037897E+02 -0.24348158464E+03 -0.54328753106E+03  0.59981559702E+03  0.10100000352E+00 0.  1.
</event>
<event>
 5   0  0.1497410E-02  0.8980908E+03  0.7818609E-02  0.9427971E-01
       -1   -1    0    0    0  501  0.00000000000E+00  0.00000000000E+00  0.10638924987E+04  0.10638924987E+04  0.50400001928E-02 0.  1.
        1   -1    0    0  501    0  0.00000000000E+00  0.00000000000E+00 -0.18953207247E+03  0.18953207254E+03  0.50400001928E-02 0. -1.
    10030    2    1    2    0    0  0.00000000000E+00  0.00000000000E+00  0.87436042622E+03  0.12534245712E+04  0.89809075313E+03 0.  0.
        3    1    3    3  502    0 -0.17041996229E+03 -0.26812997603E+03 -0.57177626559E+01  0.31775674753E+03  0.10100000352E+00 0. -1.
       -3    1    3    3    0  502  0.17041996229E+03  0.26812997603E+03  0.88007818888E+03  0.93566782371E+03  0.10100000352E+00 0.  1.
</event>
<event>
 5   0  0.1560728E-02  0.8908958E+03  0.7818609E-02  0.9437034E-01
       -1   -1    0    0    0  501  0.00000000000E+00  0.00000000000E+00  0.20979021214E+03  0.20979021220E+03  0.50400001928E-02 0. -1.
        1   -1    0    0  501    0  0.00000000000E+00  0.00000000000E+00 -0.94582026170E+03  0.94582026171E+03  0.50400001928E-02 0.  1.
    10030    2    1    2    0    0  0.00000000000E+00  0.00000000000E+00 -0.73603004956E+03  0.11556104739E+04  0.89089580399E+03 0.  0.
        4    1    3    3  502    0  0.23290680028E+03 -0.30650961752E+03 -0.77305240772E+02  0.39264670685E+03  0.12699999809E+01 0. -1.
       -4    1    3    3    0  502 -0.23290680028E+03  0.30650961752E+03 -0.65872480879E+03  0.76296376707E+03  0.12699999809E+01 0.  1.
</event>
<event>
 5   0  0.2414128E-02  0.8785093E+03  0.7818609E-02  0.9452852E-01
       -2   -1    0    0    0  501  0.00000000000E+00  0.00000000000E+00  0.15845713575E+03  0.15845713577E+03  0.25500000920E-02 0.  1.
        2   -1    0    0  501    0  0.00000000000E+00  0.00000000000E+00 -0.12176457427E+04  0.12176457427E+04  0.25500000920E-02 0. -1.
    10030    2    1    2    0    0  0.00000000000E+00  0.00000000000E+00 -0.10591886070E+04  0.13761028785E+04  0.87850932097E+03 0.  0.
        3    1    3    3  502    0 -0.18853473670E+03 -0.32646904899E+03 -0.17648419480E+03  0.41626201857E+03  0.10100000352E+00 0.  1.
       -3    1    3    3    0  502  0.18853473670E+03  0.32646904899E+03 -0.88270441216E+03  0.95984085991E+03  0.10100000352E+00 0. -1.
</event>
<event>
 5   0  0.2628383E-02  0.8978274E+03  0.7818609E-02  0.9428301E-01
        2   -1    0    0  501    0  0.00000000000E+00  0.00000000000E+00  0.15849018293E+04  0.15849018293E+04  0.25500000920E-02 0. -1.
       -2   -1    0    0    0  501  0.00000000000E+00  0.00000000000E+00 -0.12715205530E+03  0.12715205533E+03  0.25500000920E-02 0.  1.
    10030    2    1    2    0    0  0.00000000000E+00  0.00000000000E+00  0.14577497740E+04  0.17120538847E+04  0.89782743348E+03 0.  0.
        2    1    3    3  502    0 -0.20972323421E+03 -0.54263899299E+02 -0.20885424784E+02  0.21763411200E+03  0.25500000920E-02 0.  1.
       -2    1    3    3    0  502  0.20972323421E+03  0.54263899299E+02  0.14786351988E+04  0.14944197727E+04  0.25500000920E-02 0. -1.
</event>
<event>
 5   0  0.1559275E-02  0.8401219E+03  0.7818609E-02  0.9503692E-01
        1   -1    0    0  501    0  0.00000000000E+00  0.00000000000E+00  0.24015311933E+03  0.24015311938E+03  0.50400001928E-02 0. -1.
       -1   -1    0    0    0  501  0.00000000000E+00  0.00000000000E+00 -0.73474450477E+03  0.73474450479E+03  0.50400001928E-02 0.  1.
    10030    2    1    2    0    0  0.00000000000E+00  0.00000000000E+00 -0.49459138545E+03  0.97489762417E+03  0.84012185964E+03 0.  0.
        1    1    3    3  502    0 -0.22922809330E+02  0.20742038742E+02 -0.73342266281E+03  0.73407389935E+03  0.50400001928E-02 0.  1.
       -1    1    3    3    0  502  0.22922809330E+02 -0.20742038742E+02  0.23883127737E+03  0.24082372481E+03  0.50400001928E-02 0. -1.
</event>
<event>
 5   0  0.2679861E-02  0.8934601E+03  0.7818609E-02  0.9433794E-01
       -2   -1    0    0    0  501  0.00000000000E+00  0.00000000000E+00  0.33775419586E+03  0.33775419587E+03  0.25500000920E-02 0. -1.
        2   -1    0    0  501    0  0.00000000000E+00  0.00000000000E+00 -0.59086681601E+03  0.59086681602E+03  0.25500000920E-02 0.  1.
    10030    2    1    2    0    0  0.00000000000E+00  0.00000000000E+00 -0.25311262015E+03  0.92862101189E+03  0.89346011956E+03 0.  0.
        1    1    3    3  502    0 -0.18060242262E+03  0.40810286649E+03 -0.10570278387E+03  0.45862649644E+03  0.50400001928E-02 0.  1.
       -1    1    3    3    0  502  0.18060242262E+03 -0.40810286649E+03 -0.14740983629E+03  0.46999451545E+03  0.50400001928E-02 0. -1.
</event>
<event>
 5   0  0.1459111E-02  0.9120208E+03  0.7818609E-02  0.9410678E-01
        1   -1    0    0  501    0  0.00000000000E+00  0.00000000000E+00  0.11125578668E+04  0.11125578668E+04  0.50400001928E-02 0.  1.
       -1   -1    0    0    0  501  0.00000000000E+00  0.00000000000E+00 -0.18690756629E+03  0.18690756635E+03  0.50400001928E-02 0. -1.
    10030    2    1    2    0    0  0.00000000000E+00  0.00000000000E+00  0.92565030055E+03  0.12994654332E+04  0.91202079646E+03 0.  0.
        2    1    3    3  502    0  0.21672373250E+03 -0.93585864273E+02 -0.93070128709E+02  0.25375093908E+03  0.25500000920E-02 0. -1.
       -2    1    3    3    0  502 -0.21672373250E+03  0.93585864273E+02  0.10187204293E+04  0.10457144941E+04  0.25500000920E-02 0.  1.
</event>
<event>
 5   0  0.2803717E-02  0.8981686E+03  0.7818609E-02  0.9427874E-01
        2   -1    0    0  501    0  0.00000000000E+00  0.00000000000E+00  0.54606893385E+03  0.54606893386E+03  0.25500000920E-02 0.  1.
       -2   -1    0    0    0  501  0.00000000000E+00  0.00000000000E+00 -0.36932467310E+03  0.36932467311E+03  0.25500000920E-02 0. -1.
    10030    2    1    2    0    0  0.00000000000E+00  0.00000000000E+00  0.17674426076E+03  0.91539360696E+03  0.89816864895E+03 0.  0.
        5    1    3    3  502    0  0.16077833952E+03 -0.39996783241E+03 -0.39860936738E+02  0.43293755404E+03  0.46999998093E+01 0. -1.
       -5    1    3    3    0  502 -0.16077833952E+03  0.39996783241E+03  0.21660519749E+03  0.48245605292E+03  0.46999998093E+01 0.  1.
</event>
<event>
 5   0  0.1459111E-02  0.8734610E+03  0.7818609E-02  0.9459378E-01
       -1   -1    0    0    0  501  0.00000000000E+00  0.00000000000E+00  0.18970169873E+03  0.18970169880E+03  0.50400001928E-02 0.  1.
        1   -1    0    0  501    0  0.00000000000E+00  0.00000000000E+00 -0.10054392321E+04  0.10054392321E+04  0.50400001928E-02 0. -1.
    10030    2    1    2    0    0  0.00000000000E+00  0.00000000000E+00 -0.81573753338E+03  0.11951409309E+04  0.87346100164E+03 0.  0.
        2    1    3    3  502    0 -0.30586217682E+03 -0.83649798060E+02  0.30365128799E+01  0.31710909849E+03  0.25500000920E-02 0.  1.
       -2    1    3    3    0  502  0.30586217682E+03  0.83649798060E+02 -0.81877404626E+03  0.87803183243E+03  0.25500000920E-02 0. -1.
</event>
<event>
 5   0  0.1559275E-02  0.8545823E+03  0.7818609E-02  0.9484207E-01
       -1   -1    0    0    0  501  0.00000000000E+00  0.00000000000E+00  0.20283222490E+03  0.20283222496E+03  0.50400001928E-02 0.  1.
        1   -1    0    0  501    0  0.00000000000E+00  0.00000000000E+00 -0.90014155202E+03  0.90014155203E+03  0.50400001928E-02 0. -1.
    10030    2    1    2    0    0  0.00000000000E+00  0.00000000000E+00 -0.69730932712E+03  0.11029737770E+04  0.85458226933E+03 0.  0.
        1    1    3    3  502    0  0.36827061009E+03 -0.19061520779E+03 -0.21564598190E+03  0.46739767782E+03  0.50400001928E-02 0.  1.
       -1    1    3    3    0  502 -0.36827061009E+03  0.19061520779E+03 -0.48166334521E+03  0.63557609918E+03  0.50400001928E-02 0. -1.
</event>
<event>
 5   0  0.1537870E-02  0.6080662E+03  0.7818609E-02  0.9888811E-01
        1   -1    0    0  501    0  0.00000000000E+00  0.00000000000E+00  0.45389480345E+03  0.45389480347E+03  0.50400001928E-02 0.  1.
       -1   -1    0    0    0  501  0.00000000000E+00  0.00000000000E+00 -0.20365099348E+03  0.20365099354E+03  0.50400001928E-02 0. -1.
    10030    2    1    2    0    0  0.00000000000E+00  0.00000000000E+00  0.25024380997E+03  0.65754579702E+03  0.60806620589E+03 0.  0.
        5    1    3    3  502    0 -0.25219070361E+03  0.12290918695E+03  0.25172659839E+03  0.37695515590E+03  0.46999998093E+01 0.  1.
       -5    1    3    3    0  502  0.25219070361E+03 -0.12290918695E+03 -0.14827884194E+01  0.28059064112E+03  0.46999998093E+01 0. -1.
</event>
<event>
 5   0  0.2679861E-02  0.8927925E+03  0.7818609E-02  0.9434636E-01
        2   -1    0    0  501    0  0.00000000000E+00  0.00000000000E+00  0.84876623708E+03  0.84876623709E+03  0.25500000920E-02 0. -1.
       -2   -1    0    0    0  501  0.00000000000E+00  0.00000000000E+00 -0.23477559034E+03  0.23477559035E+03  0.25500000920E-02 0.  1.
    10030    2    1    2    0    0  0.00000000000E+00  0.00000000000E+00  0.61399064675E+03  0.10835418274E+04  0.89279246049E+03 0.  0.
        1    1    3    3  502    0 -0.26143002713E+03 -0.19329293106E+03 -0.64235817556E+02  0.33141221548E+03  0.50400001928E-02 0.  1.
       -1    1    3    3    0  502  0.26143002713E+03  0.19329293106E+03  0.67822646430E+03  0.75212961196E+03  0.50400001928E-02 0. -1.
</event>
<event>
 5   0  0.1497410E-02  0.9091111E+03  0.7818609E-02  0.9414263E-01
        1   -1    0    0  501    0  0.00000000000E+00  0.00000000000E+00  0.80922423958E+03  0.80922423960E+03  0.50400001928E-02 0. -1.
       -1   -1    0    0    0  501  0.00000000000E+00  0.00000000000E+00 -0.25533188830E+03  0.25533188835E+03  0.50400001928E-02 0.  1.
    10030    2    1    2    0    0  0.00000000000E+00  0.00000000000E+00  0.55389235128E+03  0.10645561279E+04  0.90911111133E+03 0.  0.
        3    1    3    3  502    0 -0.21003654390E+02  0.26855467982E+03  0.70569004524E+03  0.75535502892E+03  0.10100000352E+00 0. -1.
       -3    1    3    3    0  502  0.21003654390E+02 -0.26855467982E+03 -0.15179769396E+03  0.30920109903E+03  0.10100000352E+00 0.  1.
</event>
<event>
 5   0  0.2628383E-02  0.8800423E+03  0.7818609E-02  0.9450879E-01
        2   -1    0    0  501    0  0.00000000000E+00  0.00000000000E+00  0.52381380801E+03  0.52381380802E+03  0.25500000920E-02 0. -1.
       -2   -1    0    0    0  501  0.00000000000E+00  0.00000000000E+00 -0.36963248820E+03  0.36963248821E+03  0.25500000920E-02 0.  1.
    10030    2    1    2    0    0  0.00000000000E+00  0.00000000000E+00  0.15418131981E+03  0.89344629622E+03  0.88004227447E+03 0.  0.
        2    1    3    3  502    0 -0.41981572935E+03 -0.13165847656E+03  0.70718101400E+02  0.44562344074E+03  0.25500000920E-02 0.  1.
       -2    1    3    3    0  502  0.41981572935E+03  0.13165847656E+03  0.83463218412E+02  0.44782285549E+03  0.25500000920E-02 0. -1.
</event>
<event>
 5   0  0.1560728E-02  0.8839345E+03  0.7818609E-02  0.9445890E-01
       -1   -1    0    0    0  501  0.00000000000E+00  0.00000000000E+00  0.21100498497E+03  0.21100498503E+03  0.50400001928E-02 0.  1.
        1   -1    0    0  501    0  0.00000000000E+00  0.00000000000E+00 -0.92573667342E+03  0.92573667343E+03  0.50400001928E-02 0. -1.
    10030    2    1    2    0    0  0.00000000000E+00  0.00000000000E+00 -0.71473168845E+03  0.11367416585E+04  0.88393450641E+03 0.  0.
        4    1    3    3  502    0  0.42766222791E+03  0.28286980708E+01 -0.21398694528E+03  0.47822066911E+03  0.12699999809E+01 0. -1.
       -4    1    3    3    0  502 -0.42766222791E+03 -0.28286980708E+01 -0.50074474317E+03  0.65852098936E+03  0.12699999809E+01 0.  1.
</event>
<event>
 5   0  0.1537870E-02  0.8634906E+03  0.7818609E-02  0.9472407E-01
        1   -1    0    0  501    0  0.00000000000E+00  0.00000000000E+00  0.43578536197E+03  0.43578536200E+03  0.50400001928E-02 0. -1.
       -1   -1    0    0    0  501  0.00000000000E+00  0.00000000000E+00 -0.42774265668E+03  0.42774265671E+03  0.50400001928E-02 0.  1.
    10030    2    1    2    0    0  0.00000000000E+00  0.00000000000E+00  0.80427052930E+01  0.86352801871E+03  0.86349056393E+03 0.  0.
        5    1    3    3  502    0 -0.17917150861E+03  0.15031487805E+03  0.36692124328E+03  0.43514397712E+03  0.46999998093E+01 0. -1.
       -5    1    3    3    0  502  0.17917150861E+03 -0.15031487805E+03 -0.35887853798E+03  0.42838404159E+03  0.46999998093E+01 0.  1.
</event>
<event>
 5   0  0.2803717E-02  0.8853813E+03  0.7818609E-02  0.9444042E-01
        2   -1    0    0  501    0  0.00000000000E+00  0.00000000000E+00  0.20016976781E+04  0.20016976781E+04  0.25500000920E-02 0. -1.
       -2   -1    0    0    0  501  0.00000000000E+00  0.00000000000E+00 -0.97904403974E+02  0.97904404008E+02  0.25500000920E-02 0.  1.
    10030    2    1    2    0    0  0.00000000000E+00  0.00000000000E+00  0.19037932742E+04  0.20996020821E+04  0.88538131481E+03 0.  0.
        5    1    3    3  502    0 -0.25866532531E+03  0.29064206160E+03  0.14525527282E+04  0.15037659648E+04  0.46999998093E+01 0. -1.
       -5    1    3    3    0  502  0.25866532531E+03 -0.29064206160E+03  0.45124054594E+03  0.59583611739E+03  0.46999998093E+01 0.  1.
</event>
<event>
 5   0  0.1537870E-02  0.8735769E+03  0.7818609E-02  0.9459228E-01
       -1   -1    0    0    0  501  0.00000000000E+00  0.00000000000E+00  0.19389262340E+03  0.19389262347E+03  0.50400001928E-02 0.  1.
        1   -1    0    0  501    0  0.00000000000E+00  0.00000000000E+00 -0.98396813642E+03  0.98396813644E+03  0.50400001928E-02 0. -1.
    10030    2    1    2    0    0  0.00000000000E+00  0.00000000000E+00 -0.79007551302E+03  0.11778607599E+04  0.87357693046E+03 0.  0.
        5    1    3    3  502    0  0.39616721776E+03 -0.17945987191E+03 -0.34097429443E+03  0.55266614652E+03  0.46999998093E+01 0.  1.
       -5    1    3    3    0  502 -0.39616721776E+03  0.17945987191E+03 -0.44910121859E+03  0.62519461338E+03  0.46999998093E+01 0. -1.
</event>
<event>
 5   0  0.1040163E-02  0.8646424E+03  0.7818609E-02  0.9470892E-01
       -4   -1    0    0    0  501  0.00000000000E+00  0.00000000000E+00  0.48028005812E+03  0.48028173724E+03  0.12699999809E+01 0. -1.
        4   -1    0    0  501    0  0.00000000000E+00  0.00000000000E+00 -0.38914794706E+03  0.38915001940E+03  0.12699999809E+01 0.  1.
    10030    2    1    2    0    0  0.00000000000E+00  0.00000000000E+00  0.91132111064E+02  0.86943175665E+03  0.86464242193E+03 0.  0.
        5    1    3    3  502    0 -0.23260093088E+03 -0.22540940797E+03  0.33345058990E+03  0.46489136382E+03  0.46999998093E+01 0. -1.
       -5    1    3    3    0  502  0.23260093088E+03  0.22540940797E+03 -0.24231847883E+03  0.40454039283E+03  0.46999998093E+01 0.  1.
</event>
<event>
 5   0  0.2679861E-02  0.9109833E+03  0.7818609E-02  0.9411955E-01
        2   -1    0    0  501    0  0.00000000000E+00  0.00000000000E+00  0.50305074557E+03  0.50305074557E+03  0.25500000920E-02 0.  1.
       -2   -1    0    0    0  501  0.00000000000E+00  0.00000000000E+00 -0.41242883688E+03  0.41242883689E+03  0.25500000920E-02 0. -1.
    10030    2    1    2    0    0  0.00000000000E+00  0.00000000000E+00  0.90621908687E+02  0.91547958246E+03  0.91098327952E+03 0.  0.
        1    1    3    3  502    0  0.87403550547E+02 -0.82898405581E+02  0.48675244395E+03  0.50143740189E+03  0.50400001928E-02 0.  1.
       -1    1    3    3    0  502 -0.87403550547E+02  0.82898405581E+02 -0.39613053527E+03  0.41404218057E+03  0.50400001928E-02 0. -1.
</event>
<event>
 5   0  0.1560728E-02  0.9037218E+03  0.7818609E-02  0.9420941E-01
       -1   -1    0    0    0  501  0.00000000000E+00  0.00000000000E+00  0.21973769469E+03  0.21973769475E+03  0.50400001928E-02 0. -1.
        1   -1    0    0  501    0  0.00000000000E+00  0.00000000000E+00 -0.92919093276E+03  0.92919093277E+03  0.50400001928E-02 0.  1.
    10030    2    1    2    0    0  0.00000000000E+00  0.00000000000E+00 -0.70945323807E+03  0.11489286275E+04  0.90372180129E+03 0.  0.
        4    1    3    3  502    0 -0.22094581006E+03 -0.15393739709E+03  0.10658031116E+03  0.28961137553E+03  0.12699999809E+01 0.  1.
       -4    1    3    3    0  502  0.22094581006E+03  0.15393739709E+03 -0.81603354923E+03  0.85931725199E+03  0.12699999809E+01 0. -1.
</event>
<event>
 5   0  0.2679861E-02  0.8923814E+03  0.7818609E-02  0.9435156E-01
        2   -1    0    0  501    0  0.00000000000E+00  0.00000000000E+00  0.60178955057E+03  0.60178955058E+03  0.25500000920E-02 0.  1.
       -2   -1    0    0    0  501  0.00000000000E+00  0.00000000000E+00 -0.33082350290E+03  0.33082350291E+03  0.25500000920E-02 0. -1.
    10030    2    1    2    0    0  0.00000000000E+00  0.00000000000E+00  0.27096604768E+03  0.93261305349E+03  0.89238136945E+03 0.  0.
        1    1    3    3  502    0 -0.21062023222E+03  0.24396387115E+03 -0.18698388096E+03  0.37261538402E+03  0.50400001928E-02 0. -1.
       -1    1    3    3    0  502  0.21062023222E+03 -0.24396387115E+03  0.45794992863E+03  0.55999766947E+03  0.50400001928E-02 0.  1.
</event>
<event>
 5   0  0.2679861E-02  0.8824014E+03  0.7818609E-02  0.9447852E-01
        2   -1    0    0  501    0  0.00000000000E+00  0.00000000000E+00  0.74956225796E+03  0.74956225797E+03  0.25500000920E-02 0. -1.
       -2   -1    0    0    0  501  0.00000000000E+00  0.00000000000E+00 -0.25969563366E+03  0.25969563367E+03  0.25500000920E-02 0.  1.
    10030    2    1    2    0    0  0.00000000000E+00  0.00000000000E+00  0.48986662431E+03  0.10092578916E+04  0.88240137251E+03 0.  0.
        1    1    3    3  502    0  0.33091064514E+03 -0.24327737555E+03  0.60605333921E+02  0.41516110493E+03  0.50400001928E-02 0.  1.
       -1    1    3    3    0  502 -0.33091064514E+03  0.24327737555E+03  0.42926129039E+03  0.59409678670E+03  0.50400001928E-02 0. -1.
</event>
<event>
 5   0  0.1560728E-02  0.8503193E+03  0.7818609E-02  0.9489908E-01
        1   -1    0    0  501    0  0.00000000000E+00  0.00000000000E+00  0.57263213066E+03  0.57263213068E+03  0.50400001928E-02 0. -1.
       -1   -1    0    0    0  501  0.00000000000E+00  0.00000000000E+00 -0.31566641058E+03  0.31566641063E+03  0.50400001928E-02 0.  1.
    10030    2    1    2    0    0  0.00000000000E+00  0.00000000000E+00  0.25696572007E+03  0.88829854131E+03  0.85031930308E+03 0.  0.
        4    1    3    3  502    0  0.25825603518E+03 -0.37588752314E+02 -0.22214187631E+03  0.34272105293E+03  0.12699999809E+01 0.  1.
       -4    1    3    3    0  502 -0.25825603518E+03  0.37588752314E+02  0.47910759639E+03  0.54557748838E+03  0.12699999809E+01 0. -1.
</event>
<event>
 5   0  0.1497410E-02  0.9211952E+03  0.7818609E-02  0.9399467E-01
        1   -1    0    0  501    0  0.00000000000E+00  0.00000000000E+00  0.44078292027E+03  0.44078292030E+03  0.50400001928E-02 0. -1.
       -1   -1    0    0    0  501  0.00000000000E+00  0.00000000000E+00 -0.48130300500E+03  0.48130300502E+03  0.50400001928E-02 0.  1.
    10030    2    1    2    0    0  0.00000000000E+00  0.00000000000E+00 -0.40520084724E+02  0.92208592532E+03  0.92119518910E+03 0.  0.
        3    1    3    3  502    0 -0.84209794069E+02 -0.42637936723E+03  0.13239801431E+03  0.45433456682E+03  0.10100000352E+00 0. -1.
       -3    1    3    3    0  502  0.84209794069E+02  0.42637936723E+03 -0.17291809903E+03  0.46775135851E+03  0.10100000352E+00 0.  1.
</event>
<event>
 5   0  0.1040163E-02  0.9123186E+03  0.7818609E-02  0.9410312E-01
       -3   -1    0    0    0  501  0.00000000000E+00  0.00000000000E+00  0.33008307838E+03  0.33008309383E+03  0.10100000352E+00 0.  1.
        3   -1    0    0  501    0  0.00000000000E+00  0.00000000000E+00 -0.63039069582E+03  0.63039070391E+03  0.10100000352E+00 0. -1.
    10030    2    1    2    0    0  0.00000000000E+00  0.00000000000E+00 -0.30030761744E+03  0.96047379774E+03  0.91231861269E+03 0.  0.
        4    1    3    3  502    0  0.99676215102E+02  0.72339233721E+02  0.31224629031E+03  0.33566005318E+03  0.12699999809E+01 0.  1.
       -4    1    3    3    0  502 -0.99676215102E+02 -0.72339233721E+02 -0.61255390775E+03  0.62481374456E+03  0.12699999809E+01 0. -1.
</event>
<event>
 5   0  0.2705111E-02  0.8923180E+03  0.7818609E-02  0.9435236E-01
       -2   -1    0    0    0  501  0.00000000000E+00  0.00000000000E+00  0.52405276567E+03  0.52405276568E+03  0.25500000920E-02 0. -1.
        2   -1    0    0  501    0  0.00000000000E+00  0.00000000000E+00 -0.37984317480E+03  0.37984317481E+03  0.25500000920E-02 0.  1.
    10030    2    1    2    0    0  0.00000000000E+00  0.00000000000E+00  0.14420959087E+03  0.90389594049E+03  0.89231802915E+03 0.  0.
        4    1    3    3  502    0  0.33038381627E+03  0.11373441145E+02 -0.23140497946E+03  0.40352533828E+03  0.12699999809E+01 0.  1.
       -4    1    3    3    0  502 -0.33038381627E+03 -0.11373441145E+02  0.37561457033E+03  0.50037060221E+03  0.12699999809E+01 0. -1.
</event>
<event>
 5   0  0.1560728E-02  0.8245249E+03  0.7818609E-02  0.9525181E-01
       -1   -1    0    0    0  501  0.00000000000E+00  0.00000000000E+00  0.17277347816E+03  0.17277347824E+03  0.50400001928E-02 0.  1.
        1   -1    0    0  501    0  0.00000000000E+00  0.00000000000E+00 -0.98371781331E+03  0.98371781332E+03  0.50400001928E-02 0. -1.
    10030    2    1    2    0    0  0.00000000000E+00  0.00000000000E+00 -0.81094433515E+03  0.11564912916E+04  0.82452494974E+03 0.  0.
        4    1    3    3  502    0 -0.16001548926E+03  0.37482102395E+03 -0.49264872397E+03  0.63937480005E+03  0.12699999809E+01 0.  1.
       -4    1    3    3    0  502  0.16001548926E+03 -0.37482102395E+03 -0.31829561117E+03  0.51711649151E+03  0.12699999809E+01 0. -1.
</event>
<event>
 5   0  0.1559275E-02  0.8913981E+03  0.7818609E-02  0.9436399E-01
        1   -1    0    0  501    0  0.00000000000E+00  0.00000000000E+00  0.45190013262E+03  0.45190013265E+03  0.50400001928E-02 0.  1.
       -1   -1    0    0    0  501  0.00000000000E+00  0.00000000000E+00 -0.43958301911E+03  0.43958301914E+03  0.50400001928E-02 0. -1.
    10030    2    1    2    0    0  0.00000000000E+00  0.00000000000E+00  0.12317113514E+02  0.89148315179E+03  0.89139805846E+03 0.  0.
        1    1    3    3  502    0  0.20389606939E+03 -0.10874770521E+03 -0.37499192054E+03  0.44047543745E+03  0.50400001928E-02 0. -1.
       -1    1    3    3    0  502 -0.20389606939E+03  0.10874770521E+03  0.38730903406E+03  0.45100771433E+03  0.50400001928E-02 0.  1.
</event>
<event>
 5   0  0.1537870E-02  0.9401272E+03  0.7818609E-02  0.9376765E-01
        1   -1    0    0  501    0  0.00000000000E+00  0.00000000000E+00  0.72871959278E+03  0.72871959280E+03  0.50400001928E-02 0.  1.
       -1   -1    0    0    0  501  0.00000000000E+00  0.00000000000E+00 -0.30321645928E+03  0.30321645933E+03  0.50400001928E-02 0. -1.
    10030    2    1    2    0    0  0.00000000000E+00  0.00000000000E+00  0.42550313350E+03  0.10319360521E+04  0.94012717175E+03 0.  0.
        5    1    3    3  502    0  0.11728634857E+03 -0.33427023407E+03  0.55186327877E+03  0.65579558202E+03  0.46999998093E+01 0.  1.
       -5    1    3    3    0  502 -0.11728634857E+03  0.33427023407E+03 -0.12636014527E+03  0.37614047011E+03  0.46999998093E+01 0. -1.
</event>
<event>
 5   0  0.2705111E-02  0.9026796E+03  0.7818609E-02  0.9422238E-01
        2   -1    0    0  501    0  0.00000000000E+00  0.00000000000E+00  0.64196014817E+03  0.64196014818E+03  0.25500000920E-02 0.  1.
       -2   -1    0    0    0  501  0.00000000000E+00  0.00000000000E+00 -0.31732128690E+03  0.31732128691E+03  0.25500000920E-02 0. -1.
    10030    2    1    2    0    0  0.00000000000E+00  0.00000000000E+00  0.32463886127E+03  0.95928143509E+03  0.90267961175E+03 0.  0.
        4    1    3    3  502    0 -0.42492893315E+03 -0.16770899484E+02  0.32299576220E+03  0.53401660704E+03  0.12699999809E+01 0.  1.
       -4    1    3    3    0  502  0.42492893315E+03  0.16770899484E+02  0.16430990691E+01  0.42526482805E+03  0.12699999809E+01 0. -1.
</event>
<event>
 5   0  0.2628383E-02  0.9019295E+03  0.7818609E-02  0.9423173E-01
       -2   -1    0    0    0  501  0.00000000000E+00  0.00000000000E+00  0.16275274087E+04  0.16275274087E+04  0.25500000920E-02 0. -1.
        2   -1    0    0  501    0  0.00000000000E+00  0.00000000000E+00 -0.12495592849E+03  0.12495592852E+03  0.25500000920E-02 0.  1.
    10030    2    1    2    0    0  0.00000000000E+00  0.00000000000E+00  0.15025714802E+04  0.17524833372E+04  0.90192948400E+03 0.  0.
        2    1    3    3  502    0 -0.37803270447E+03 -0.17200163211E+03  0.40986397261E+03  0.58350815174E+03  0.25500000920E-02 0.  1.
       -2    1    3    3    0  502  0.37803270447E+03  0.17200163211E+03  0.10927075076E+04  0.11689751855E+04  0.25500000920E-02 0. -1.
</event>
<event>
 5   0  0.1537870E-02  0.8854993E+03  0.7818609E-02  0.9443892E-01
       -1   -1    0    0    0  501  0.00000000000E+00  0.00000000000E+00  0.48792720765E+03  0.48792720768E+03  0.50400001928E-02 0. -1.
        1   -1    0    0  501    0  0.00000000000E+00  0.00000000000E+00 -0.40175515329E+03  0.40175515333E+03  0.50400001928E-02 0.  1.
    10030    2    1    2    0    0  0.00000000000E+00  0.00000000000E+00  0.86172054359E+02  0.88968236101E+03  0.88549933966E+03 0.  0.
        5    1    3    3  502    0 -0.25936189404E+03  0.46253107294E+02 -0.31439982110E+03  0.41021613757E+03  0.46999998093E+01 0.  1.
       -5    1    3    3    0  502  0.25936189404E+03 -0.46253107294E+02  0.40057187546E+03  0.47946622344E+03  0.46999998093E+01 0. -1.
</event>
<event>
 5   0  0.1559275E-02  0.9276895E+03  0.7818609E-02  0.9391615E-01
       -1   -1    0    0    0  501  0.00000000000E+00  0.00000000000E+00  0.44093278023E+03  0.44093278026E+03  0.50400001928E-02 0. -1.
        1   -1    0    0  501    0  0.00000000000E+00  0.00000000000E+00 -0.48794729231E+03  0.48794729234E+03  0.50400001928E-02 0.  1.
    10030    2    1    2    0    0  0.00000000000E+00  0.00000000000E+00 -0.47014512082E+02  0.92888007260E+03  0.92768950890E+03 0.  0.
        1    1    3    3  502    0 -0.69087609938E+00  0.41435406531E+02  0.43907545680E+03  0.44102678718E+03  0.50400001928E-02 0. -1.
       -1    1    3    3    0  502  0.69087609938E+00 -0.41435406531E+02 -0.48608996888E+03  0.48785328542E+03  0.50400001928E-02 0.  1.
</event>
<event>
 5   0  0.2414128E-02  0.9059540E+03  0.7818609E-02  0.9418169E-01
       -2   -1    0    0    0  501  0.00000000000E+00  0.00000000000E+00  0.26474935435E+03  0.26474935436E+03  0.25500000920E-02 0. -1.
        2   -1    0    0  501    0  0.00000000000E+00  0.00000000000E+00 -0.77502804907E+03  0.77502804907E+03  0.25500000920E-02 0.  1.
    10030    2    1    2    0    0  0.00000000000E+00  0.00000000000E+00 -0.51027869472E+03  0.10397774034E+04  0.90595402887E+03 0.  0.
        3    1    3    3  502    0  0.18015937938E+03  0.37826468016E+03 -0.45275512962E+03  0.61687015476E+03  0.10100000352E+00 0.  1.
       -3    1    3    3    0  502 -0.18015937938E+03 -0.37826468016E+03 -0.57523565098E+02  0.42290724868E+03  0.10100000352E+00 0. -1.
</event>
<event>
 5   0  0.2705111E-02  0.8964965E+03  0.7818609E-02  0.9429972E-01
       -2   -1    0    0    0  501  0.00000000000E+00  0.00000000000E+00  0.25179349993E+03  0.25179349995E+03  0.25500000920E-02 0. -1.
        2   -1    0    0  501    0  0.00000000000E+00  0.00000000000E+00 -0.79798130627E+03  0.79798130628E+03  0.25500000920E-02 0.  1.
    10030    2    1    2    0    0  0.00000000000E+00  0.00000000000E+00 -0.54618780634E+03  0.10497748062E+04  0.89649652759E+03 0.  0.
        4    1    3    3  502    0  0.21276633067E+02  0.35928056461E+03  0.39777041217E+02  0.36210363866E+03  0.12699999809E+01 0. -1.
       -4    1    3    3    0  502 -0.21276633067E+02 -0.35928056461E+03 -0.58596484755E+03  0.68767116756E+03  0.12699999809E+01 0.  1.
</event>
<event>
 5   0  0.2705111E-02  0.9399398E+03  0.7818609E-02  0.9376987E-01
       -2   -1    0    0    0  501  0.00000000000E+00  0.00000000000E+00  0.44598973976E+03  0.44598973977E+03  0.25500000920E-02 0.  1.
        2   -1    0    0  501    0  0.00000000000E+00  0.00000000000E+00 -0.49523938651E+03  0.49523938651E+03  0.25500000920E-02 0. -1.
    10030    2    1    2    0    0  0.00000000000E+00  0.00000000000E+00 -0.49249646750E+02  0.94122912628E+03  0.93993975363E+03 0.  0.
        4    1    3    3  502    0 -0.55592903687E+02 -0.39024913279E+03  0.23162680824E+03  0.45720624206E+03  0.12699999809E+01 0.  1.
       -4    1    3    3    0  502  0.55592903687E+02  0.39024913279E+03 -0.28087645499E+03  0.48402288422E+03  0.12699999809E+01 0. -1.
</event>
<event>
 5   0  0.1497410E-02  0.9022488E+03  0.7818609E-02  0.9422775E-01
        1   -1    0    0  501    0  0.00000000000E+00  0.00000000000E+00  0.32783069324E+03  0.32783069328E+03  0.50400001928E-02 0.  1.
       -1   -1    0    0    0  501  0.00000000000E+00  0.00000000000E+00 -0.62078760293E+03  0.62078760295E+03  0.50400001928E-02 0. -1.
    10030    2    1    2    0    0  0.00000000000E+00  0.00000000000E+00 -0.29295690969E+03  0.94861829623E+03  0.90224881325E+03 0.  0.
        3    1    3    3  502    0 -0.44279168371E+03  0.16549842977E+01 -0.55753478073E+02  0.44629102014E+03  0.10100000352E+00 0.  1.
       -3    1    3    3    0  502  0.44279168371E+03 -0.16549842977E+01 -0.23720343161E+03  0.50232727609E+03  0.10100000352E+00 0. -1.
</event>
<event>
 5   0  0.1497410E-02  0.8999922E+03  0.7818609E-02  0.9425591E-01
       -1   -1    0    0    0  501  0.00000000000E+00  0.00000000000E+00  0.22595002223E+03  0.22595002228E+03  0.50400001928E-02 0. -1.
        1   -1    0    0  501    0  0.00000000000E+00  0.00000000000E+00 -0.89620026921E+03  0.89620026922E+03  0.50400001928E-02 0.  1.
    10030    2    1    2    0    0  0.00000000000E+00  0.00000000000E+00 -0.67025024698E+03  0.11221502915E+04  0.89999215727E+03 0.  0.
        3    1    3    3  502    0  0.42332251496E+03  0.14396018269E+03 -0.39833380430E+03  0.59882912064E+03  0.10100000352E+00 0. -1.
       -3    1    3    3    0  502 -0.42332251496E+03 -0.14396018269E+03 -0.27191644268E+03  0.52332117087E+03  0.10100000352E+00 0.  1.
</event>
<event>
 5   0  0.1559275E-02  0.9014249E+03  0.7818609E-02  0.9423802E-01
        1   -1    0    0  501    0  0.00000000000E+00  0.00000000000E+00  0.28526523811E+03  0.28526523816E+03  0.50400001928E-02 0.  1.
       -1   -1    0    0    0  501  0.00000000000E+00  0.00000000000E+00 -0.71211520710E+03  0.71211520712E+03  0.50400001928E-02 0. -1.
    10030    2    1    2    0    0  0.00000000000E+00  0.00000000000E+00 -0.42684996899E+03  0.99738044527E+03  0.90142490347E+03 0.  0.
        1    1    3    3  502    0 -0.16845478314E+03  0.25313133424E+03  0.15469040660E+03  0.34114748755E+03  0.50400001928E-02 0.  1.
       -1    1    3    3    0  502  0.16845478314E+03 -0.25313133424E+03 -0.58154037559E+03  0.65623295773E+03  0.50400001928E-02 0. -1.
</event>
<event>
 5   0  0.1040163E-02  0.9296510E+03  0.7818609E-02  0.9389257E-01
        4   -1    0    0  501    0  0.00000000000E+00  0.00000000000E+00  0.29049380861E+03  0.29049658473E+03  0.12699999809E+01 0. -1.
       -4   -1    0    0    0  501  0.00000000000E+00  0.00000000000E+00 -0.74377058002E+03  0.74377166430E+03  0.12699999809E+01 0.  1.
    10030    2    1    2    0    0  0.00000000000E+00  0.00000000000E+00 -0.45327677142E+03  0.10342682490E+04  0.92965099873E+03 0.  0.
        3    1    3    3  502    0  0.40972347946E+03  0.21517492993E+03 -0.17828276095E+03  0.49594186468E+03  0.10100000352E+00 0.  1.
       -3    1    3    3    0  502 -0.40972347946E+03 -0.21517492993E+03 -0.27499401047E+03  0.53832638435E+03  0.10100000352E+00 0. -1.
</event>
<event>
 5   0  0.2414128E-02  0.9977909E+03  0.7818609E-02  0.9310971E-01
       -2   -1    0    0    0  501  0.00000000000E+00  0.00000000000E+00  0.33066245508E+03  0.33066245509E+03  0.25500000920E-02 0.  1.
        2   -1    0    0  501    0  0.00000000000E+00  0.00000000000E+00 -0.75272132356E+03  0.75272132356E+03  0.25500000920E-02 0. -1.
    10030    2    1    2    0    0  0.00000000000E+00  0.00000000000E+00 -0.42205886848E+03  0.10833837786E+04  0.99779092167E+03 0.  0.
        3    1    3    3  502    0  0.23614213113E+03 -0.43943556653E+03 -0.21697129441E+03  0.54400668748E+03  0.10100000352E+00 0. -1.
       -3    1    3    3    0  502 -0.23614213113E+03  0.43943556653E+03 -0.20508757407E+03  0.53937709116E+03  0.10100000352E+00 0.  1.
</event>
<event>
 5   0  0.2414128E-02  0.9175503E+03  0.7818609E-02  0.9403905E-01
        2   -1    0    0  501    0  0.00000000000E+00  0.00000000000E+00  0.97862169265E+03  0.97862169265E+03  0.25500000920E-02 0. -1.
       -2   -1    0    0    0  501  0.00000000000E+00  0.00000000000E+00 -0.21507254325E+03  0.21507254326E+03  0.25500000920E-02 0.  1.
    10030    2    1    2    0    0  0.00000000000E+00  0.00000000000E+00  0.76354914940E+03  0.11936942359E+04  0.91755033938E+03 0.  0.
        3    1    3    3  502    0 -0.25400462868E+03 -0.38131592278E+03  0.35114090671E+03  0.57725222470E+03  0.10100000352E+00 0.  1.
       -3    1    3    3    0  502  0.25400462868E+03  0.38131592278E+03  0.41240824269E+03  0.61644201122E+03  0.10100000352E+00 0. -1.
</event>
<event>
 5   0  0.1040163E-02  0.8634908E+03  0.7818609E-02  0.9472407E-01
        3   -1    0    0  501    0  0.00000000000E+00  0.00000000000E+00  0.77592324209E+03  0.77592324866E+03  0.10100000352E+00 0.  1.
       -3   -1    0    0    0  501  0.00000000000E+00  0.00000000000E+00 -0.24023519630E+03  0.24023521753E+03  0.10100000352E+00 0. -1.
    10030    2    1    2    0    0  0.00000000000E+00  0.00000000000E+00  0.53568804579E+03  0.10161584662E+04  0.86349079093E+03 0.  0.
        1    1    3    3  502    0  0.37778002662E+02  0.18968248486E+03  0.72209217353E+03  0.74754513553E+03  0.50400001928E-02 0.  1.
       -1    1    3    3    0  502 -0.37778002662E+02 -0.18968248486E+03 -0.18640412775E+03  0.26861333067E+03  0.50400001928E-02 0. -1.
</event>
<event>
 5   0  0.1497410E-02  0.9097645E+03  0.7818609E-02  0.9413457E-01
       -1   -1    0    0    0  501  0.00000000000E+00  0.00000000000E+00  0.11069589998E+04  0.11069589998E+04  0.50400001928E-02 0. -1.
        1   -1    0    0  501    0  0.00000000000E+00  0.00000000000E+00 -0.18692459904E+03  0.18692459910E+03  0.50400001928E-02 0.  1.
    10030    2    1    2    0    0  0.00000000000E+00  0.00000000000E+00  0.92003440080E+03  0.12938835990E+04  0.90976451293E+03 0.  0.
        3    1    3    3  502    0  0.29983210313E+03  0.33490160606E+03  0.36087440270E+03  0.57644489809E+03  0.10100000352E+00 0. -1.
       -3    1    3    3    0  502 -0.29983210313E+03 -0.33490160606E+03  0.55915999811E+03  0.71743870086E+03  0.10100000352E+00 0.  1.
</event>
<event>
 5   0  0.2628383E-02  0.8725791E+03  0.7818609E-02  0.9460523E-01
       -2   -1    0    0    0  501  0.00000000000E+00  0.00000000000E+00  0.29835551481E+03  0.29835551482E+03  0.25500000920E-02 0.  1.
        2   -1    0    0  501    0  0.00000000000E+00  0.00000000000E+00 -0.63799250228E+03  0.63799250229E+03  0.25500000920E-02 0. -1.
    10030    2    1    2    0    0  0.00000000000E+00  0.00000000000E+00 -0.33963698747E+03  0.93634801711E+03  0.87257912300E+03 0.  0.
        2    1    3    3  502    0  0.64046998372E+02 -0.40016429746E+03 -0.34323016001E+03  0.53107478354E+03  0.25500000920E-02 0. -1.
       -2    1    3    3    0  502 -0.64046998372E+02  0.40016429746E+03  0.35931725395E+01  0.40527323358E+03  0.25500000920E-02 0.  1.
</event>
<event>
 5   0  0.2679861E-02  0.7335652E+03  0.7818609E-02  0.9661493E-01
       -2   -1    0    0    0  501  0.00000000000E+00  0.00000000000E+00  0.10869532875E+03  0.10869532878E+03  0.25500000920E-02 0. -1.
        2   -1    0    0  501    0  0.00000000000E+00  0.00000000000E+00 -0.12376748748E+04  0.12376748748E+04  0.25500000920E-02 0.  1.
    10030    2    1    2    0    0  0.00000000000E+00  0.00000000000E+00 -0.11289795460E+04  0.13463702035E+04  0.73356520478E+03 0.  0.
        1    1    3    3  502    0  0.30164091858E+02  0.35919305143E+03 -0.68897065105E+03  0.77756676798E+03  0.50400001928E-02 0.  1.
       -1    1    3    3    0  502 -0.30164091858E+02 -0.35919305143E+03 -0.44000889495E+03  0.56880343555E+03  0.50400001928E-02 0. -1.
</event>
<event>
 5   0  0.2705111E-02  0.8777323E+03  0.7818609E-02  0.9453853E-01
        2   -1    0    0  501    0  0.00000000000E+00  0.00000000000E+00  0.83977410470E+03  0.83977410470E+03  0.25500000920E-02 0.  1.
       -2   -1    0    0    0  501  0.00000000000E+00  0.00000000000E+00 -0.22935158050E+03  0.22935158052E+03  0.25500000920E-02 0. -1.
    10030    2    1    2    0    0  0.00000000000E+00  0.00000000000E+00  0.61042252420E+03  0.10691256852E+04  0.87773234687E+03 0.  0.
        4    1    3    3  502    0  0.21039798322E+02  0.22774248667E+03 -0.15101893727E+03  0.27407598520E+03  0.12699999809E+01 0. -1.
       -4    1    3    3    0  502 -0.21039798322E+02 -0.22774248667E+03  0.76144146147E+03  0.79504970002E+03  0.12699999809E+01 0.  1.
</event>
<event>
 5   0  0.1040163E-02  0.8642501E+03  0.7818609E-02  0.9471408E-01
       -3   -1    0    0    0  501  0.00000000000E+00  0.00000000000E+00  0.89523437256E+03  0.89523437825E+03  0.10100000352E+00 0. -1.
        3   -1    0    0  501    0  0.00000000000E+00  0.00000000000E+00 -0.20858451935E+03  0.20858454380E+03  0.10100000352E+00 0.  1.
    10030    2    1    2    0    0  0.00000000000E+00  0.00000000000E+00  0.68664985321E+03  0.11038189221E+04  0.86425007479E+03 0.  0.
        3    1    3    3  502    0 -0.18900619281E+03  0.14024505184E+03  0.80619270744E+03  0.83984445418E+03  0.10100000352E+00 0. -1.
       -3    1    3    3    0  502  0.18900619281E+03 -0.14024505184E+03 -0.11954285424E+03  0.26397446787E+03  0.10100000352E+00 0.  1.
</event>
<event>
 5   0  0.1537870E-02  0.9044492E+03  0.7818609E-02  0.9420037E-01
        1   -1    0    0  501    0  0.00000000000E+00  0.00000000000E+00  0.11117186025E+03  0.11117186036E+03  0.50400001928E-02 0. -1.
       -1   -1    0    0    0  501  0.00000000000E+00  0.00000000000E+00 -0.18395581079E+04  0.18395581079E+04  0.50400001928E-02 0.  1.
    10030    2    1    2    0    0  0.00000000000E+00  0.00000000000E+00 -0.17283862476E+04  0.19507299682E+04  0.90444921805E+03 0.  0.
        5    1    3    3  502    0 -0.29129802970E+03 -0.22358661489E+03 -0.14333614985E+04  0.14796596879E+04  0.46999998093E+01 0.  1.
       -5    1    3    3    0  502  0.29129802970E+03  0.22358661489E+03 -0.29502474908E+03  0.47107028035E+03  0.46999998093E+01 0. -1.
</event>
<event>
 5   0  0.2679861E-02  0.9061734E+03  0.7818609E-02  0.9417897E-01
       -2   -1    0    0    0  501  0.00000000000E+00  0.00000000000E+00  0.17231857052E+03  0.17231857054E+03  0.25500000920E-02 0.  1.
        2   -1    0    0  501    0  0.00000000000E+00  0.00000000000E+00 -0.11913258760E+04  0.11913258760E+04  0.25500000920E-02 0. -1.
    10030    2    1    2    0    0  0.00000000000E+00  0.00000000000E+00 -0.10190073054E+04  0.13636444465E+04  0.90617343148E+03 0.  0.
        1    1    3    3  502    0 -0.17337173341E+03 -0.64985194841E+01  0.12035265669E+03  0.21115101396E+03  0.50400001928E-02 0.  1.
       -1    1    3    3    0  502  0.17337173341E+03  0.64985194841E+01 -0.11393599621E+04  0.11524934325E+04  0.50400001928E-02 0. -1.
</event>
<event>
 5   0  0.2414128E-02  0.9285488E+03  0.7818609E-02  0.9390581E-01
       -2   -1    0    0    0  501  0.00000000000E+00  0.00000000000E+00  0.13587139514E+03  0.13587139516E+03  0.25500000920E-02 0.  1.
        2   -1    0    0  501    0  0.00000000000E+00  0.00000000000E+00 -0.15864319307E+04  0.15864319307E+04  0.25500000920E-02 0. -1.
    10030    2    1    2    0    0  0.00000000000E+00  0.00000000000E+00 -0.14505605355E+04  0.17223033258E+04  0.92854880268E+03 0.  0.
        3    1    3    3  502    0  0.51913805206E+02  0.16171256472E+03 -0.15267415486E+04  0.15361594199E+04  0.10100000352E+00 0. -1.
       -3    1    3    3    0  502 -0.51913805206E+02 -0.16171256472E+03  0.76181013115E+02  0.18614390595E+03  0.10100000352E+00 0.  1.
</event>
<event>
 5   0  0.1560728E-02  0.9575394E+03  0.7818609E-02  0.9356381E-01
       -1   -1    0    0    0  501  0.00000000000E+00  0.00000000000E+00  0.55041440006E+03  0.55041440009E+03  0.50400001928E-02 0. -1.
        1   -1    0    0  501    0  0.00000000000E+00  0.00000000000E+00 -0.41645065085E+03  0.41645065088E+03  0.50400001928E-02 0.  1.
    10030    2    1    2    0    0  0.00000000000E+00  0.00000000000E+00  0.13396374921E+03  0.96686505097E+03  0.95753941991E+03 0.  0.
        4    1    3    3  502    0 -0.42822913373E+03  0.14424198451E+02  0.28267542797E+03  0.51331789269E+03  0.12699999809E+01 0. -1.
       -4    1    3    3    0  502  0.42822913373E+03 -0.14424198451E+02 -0.14871167876E+03  0.45354715828E+03  0.12699999809E+01 0.  1.
</event>
<event>
 5   0  0.2803717E-02  0.9091040E+03  0.7818609E-02  0.9414272E-01
        2   -1    0    0  501    0  0.00000000000E+00  0.00000000000E+00  0.80352589136E+03  0.80352589137E+03  0.25500000920E-02 0. -1.
       -2   -1    0    0    0  501  0.00000000000E+00  0.00000000000E+00 -0.25713859950E+03  0.25713859951E+03  0.25500000920E-02 0.  1.
    10030    2    1    2    0    0  0.00000000000E+00  0.00000000000E+00  0.54638729187E+03  0.10606644909E+04  0.90910400367E+03 0.  0.
        5    1    3    3  502    0  0.25573127124E+03  0.21403760134E+02  0.71088848408E+03  0.75580495555E+03  0.46999998093E+01 0. -1.
       -5    1    3    3    0  502 -0.25573127124E+03 -0.21403760134E+02 -0.16450119222E+03  0.30485953532E+03  0.46999998093E+01 0.  1.
</event>
<event>
 5   0  0.2628383E-02  0.9119028E+03  0.7818609E-02  0.9410823E-01
       -2   -1    0    0    0  501  0.00000000000E+00  0.00000000000E+00  0.24570661924E+03  0.24570661925E+03  0.25500000920E-02 0. -1.
        2   -1    0    0  501    0  0.00000000000E+00  0.00000000000E+00 -0.84609720175E+03  0.84609720176E+03  0.25500000920E-02 0.  1.
    10030    2    1    2    0    0  0.00000000000E+00  0.00000000000E+00 -0.60039058252E+03  0.10918038210E+04  0.91190280841E+03 0.  0.
        2    1    3    3  502    0 -0.11367566961E+03  0.40629428337E+03 -0.50720540383E+03  0.65973822403E+03  0.25500000920E-02 0.  1.
       -2    1    3    3    0  502  0.11367566961E+03 -0.40629428337E+03 -0.93185178687E+02  0.43206559698E+03  0.25500000920E-02 0. -1.
</event>
<event>
 5   0  0.2628383E-02  0.9429065E+03  0.7818609E-02  0.9373480E-01
        2   -1    0    0  501    0  0.00000000000E+00  0.00000000000E+00  0.66061659058E+03  0.66061659059E+03  0.25500000920E-02 0. -1.
       -2   -1    0    0    0  501  0.00000000000E+00  0.00000000000E+00 -0.33645564149E+03  0.33645564150E+03  0.25500000920E-02 0.  1.
    10030    2    1    2    0    0  0.00000000000E+00  0.00000000000E+00  0.32416094909E+03  0.99707223209E+03  0.94290652511E+03 0.  0.
        2    1    3    3  502    0 -0.17021378264E+03 -0.40300182738E+03 -0.23756275175E+02  0.43811820927E+03  0.25500000920E-02 0.  1.
       -2    1    3    3    0  502  0.17021378264E+03  0.40300182738E+03  0.34791722427E+03  0.55895402282E+03  0.25500000920E-02 0. -1.
</event>
<event>
 5   0  0.1497410E-02  0.8914156E+03  0.7818609E-02  0.9436376E-01
        1   -1    0    0  501    0  0.00000000000E+00  0.00000000000E+00  0.18307126368E+03  0.18307126375E+03  0.50400001928E-02 0.  1.
       -1   -1    0    0    0  501  0.00000000000E+00  0.00000000000E+00 -0.10851262531E+04  0.10851262531E+04  0.50400001928E-02 0. -1.
    10030    2    1    2    0    0  0.00000000000E+00  0.00000000000E+00 -0.90205498944E+03  0.12681975169E+04  0.89141558089E+03 0.  0.
        3    1    3    3  502    0  0.20163670692E+03  0.21250446183E+03 -0.92892862271E+03  0.97402459114E+03  0.10100000352E+00 0. -1.
       -3    1    3    3    0  502 -0.20163670692E+03 -0.21250446183E+03  0.26873633267E+02  0.29417292574E+03  0.10100000352E+00 0.  1.
</event>
<event>
 5   0  0.1459111E-02  0.8825906E+03  0.7818609E-02  0.9447610E-01
        1   -1    0    0  501    0  0.00000000000E+00  0.00000000000E+00  0.55536232148E+03  0.55536232151E+03  0.50400001928E-02 0.  1.
       -1   -1    0    0    0  501  0.00000000000E+00  0.00000000000E+00 -0.35065672296E+03  0.35065672300E+03  0.50400001928E-02 0. -1.
    10030    2    1    2    0    0  0.00000000000E+00  0.00000000000E+00  0.20470559852E+03  0.90601904450E+03  0.88259057719E+03 0.  0.
        2    1    3    3  502    0  0.41900934298E+03 -0.13834954455E+03  0.10816940237E+03  0.45432372335E+03  0.25500000920E-02 0. -1.
       -2    1    3    3    0  502 -0.41900934298E+03  0.13834954455E+03  0.96536196150E+02  0.45169532116E+03  0.25500000920E-02 0.  1.
</event>
<event>
 5   0  0.2679861E-02  0.9145496E+03  0.7818609E-02  0.9407574E-01
       -2   -1    0    0    0  501  0.00000000000E+00  0.00000000000E+00  0.20700382533E+03  0.20700382535E+03  0.25500000920E-02 0. -1.
        2   -1    0    0  501    0  0.00000000000E+00  0.00000000000E+00 -0.10101274504E+04  0.10101274504E+04  0.25500000920E-02 0.  1.
    10030    2    1    2    0    0  0.00000000000E+00  0.00000000000E+00 -0.80312362508E+03  0.12171312758E+04  0.91454960788E+03 0.  0.
        1    1    3    3  502    0 -0.36183757265E+03  0.33622225319E+02 -0.32161064009E+02  0.36481668970E+03  0.50400001928E-02 0. -1.
       -1    1    3    3    0  502  0.36183757265E+03 -0.33622225319E+02 -0.77096256107E+03  0.85231458606E+03  0.50400001928E-02 0.  1.
</event>
<event>
 5   0  0.1040163E-02  0.8823328E+03  0.7818609E-02  0.9447940E-01
       -4   -1    0    0    0  501  0.00000000000E+00  0.00000000000E+00  0.41973346195E+03  0.41973538329E+03  0.12699999809E+01 0. -1.
        4   -1    0    0  501    0  0.00000000000E+00  0.00000000000E+00 -0.46368993755E+03  0.46369167675E+03  0.12699999809E+01 0.  1.
    10030    2    1    2    0    0  0.00000000000E+00  0.00000000000E+00 -0.43956475597E+02  0.88342706003E+03  0.88233281626E+03 0.  0.
        1    1    3    3  502    0 -0.27226737045E+03 -0.25389568151E+03 -0.25898949145E+03  0.45350644407E+03  0.50400001928E-02 0. -1.
       -1    1    3    3    0  502  0.27226737045E+03  0.25389568151E+03  0.21503301585E+03  0.42992061597E+03  0.50400001928E-02 0.  1.
</event>
<event>
 5   0  0.1537870E-02  0.8733924E+03  0.7818609E-02  0.9459467E-01
        1   -1    0    0  501    0  0.00000000000E+00  0.00000000000E+00  0.56228082446E+03  0.56228082449E+03  0.50400001928E-02 0. -1.
       -1   -1    0    0    0  501  0.00000000000E+00  0.00000000000E+00 -0.33916075744E+03  0.33916075748E+03  0.50400001928E-02 0.  1.
    10030    2    1    2    0    0  0.00000000000E+00  0.00000000000E+00  0.22312006703E+03  0.90144158196E+03  0.87339244408E+03 0.  0.
        5    1    3    3  502    0 -0.13487414495E+03  0.16841142348E+03  0.50339431011E+03  0.54770554497E+03  0.46999998093E+01 0. -1.
       -5    1    3    3    0  502  0.13487414495E+03 -0.16841142348E+03 -0.28027424309E+03  0.35373603700E+03  0.46999998093E+01 0.  1.
</event>
<event>
 5   0  0.2803717E-02  0.9035897E+03  0.7818609E-02  0.9421105E-01
       -2   -1    0    0    0  501  0.00000000000E+00  0.00000000000E+00  0.58244143897E+03  0.58244143898E+03  0.25500000920E-02 0.  1.
        2   -1    0    0  501    0  0.00000000000E+00  0.00000000000E+00 -0.35045343044E+03  0.35045343045E+03  0.25500000920E-02 0. -1.
    10030    2    1    2    0    0  0.00000000000E+00  0.00000000000E+00  0.23198800853E+03  0.93289486943E+03  0.90358973063E+03 0.  0.
        5    1    3    3  502    0 -0.43268604749E+03 -0.12937922798E+03  0.10376458764E+03  0.46340627960E+03  0.46999998093E+01 0.  1.
       -5    1    3    3    0  502  0.43268604749E+03  0.12937922798E+03  0.12822342089E+03  0.46948858983E+03  0.46999998093E+01 0. -1.
</event>
<event>
 5   0  0.1040163E-02  0.7393988E+03  0.7818609E-02  0.9652130E-01
       -4   -1    0    0    0  501  0.00000000000E+00  0.00000000000E+00  0.31296987995E+03  0.31297245671E+03  0.12699999809E+01 0. -1.
        4   -1    0    0  501    0  0.00000000000E+00  0.00000000000E+00 -0.43670649131E+03  0.43670833797E+03  0.12699999809E+01 0.  1.
    10030    2    1    2    0    0  0.00000000000E+00  0.00000000000E+00 -0.12373661136E+03  0.74968079468E+03  0.73939877260E+03 0.  0.
        3    1    3    3  502    0  0.10023019679E+03 -0.26335029407E+03 -0.30452494304E+03  0.41489145673E+03  0.10100000352E+00 0.  1.
       -3    1    3    3    0  502 -0.10023019679E+03  0.26335029407E+03  0.18078833168E+03  0.33478933795E+03  0.10100000352E+00 0. -1.
</event>
<event>
 5   0  0.1497410E-02  0.8859142E+03  0.7818609E-02  0.9443363E-01
        1   -1    0    0  501    0  0.00000000000E+00  0.00000000000E+00  0.30412607026E+03  0.30412607030E+03  0.50400001928E-02 0.  1.
       -1   -1    0    0    0  501  0.00000000000E+00  0.00000000000E+00 -0.64516332807E+03  0.64516332809E+03  0.50400001928E-02 0. -1.
    10030    2    1    2    0    0  0.00000000000E+00  0.00000000000E+00 -0.34103725781E+03  0.94928939839E+03  0.88591418924E+03 0.  0.
        3    1    3    3  502    0 -0.36658086629E+03  0.63371073713E+02 -0.42816367896E+03  0.56720505172E+03  0.10100000352E+00 0. -1.
       -3    1    3    3    0  502  0.36658086629E+03 -0.63371073713E+02  0.87126421144E+02  0.38208434668E+03  0.10100000352E+00 0.  1.
</event>
<event>
 5   0  0.1497410E-02  0.8960479E+03  0.7818609E-02  0.9430535E-01
       -1   -1    0    0    0  501  0.00000000000E+00  0.00000000000E+00  0.32963433189E+03  0.32963433193E+03  0.50400001928E-02 0.  1.
        1   -1    0    0  501    0  0.00000000000E+00  0.00000000000E+00 -0.60893365990E+03  0.60893365992E+03  0.50400001928E-02 0. -1.
    10030    2    1    2    0    0  0.00000000000E+00  0.00000000000E+00 -0.27929932802E+03  0.93856799185E+03  0.89604785625E+03 0.  0.
        3    1    3    3  502    0 -0.28406734223E+03  0.66330786754E+02 -0.49583204229E+03  0.57527684862E+03  0.10100000352E+00 0. -1.
       -3    1    3    3    0  502  0.28406734223E+03 -0.66330786754E+02  0.21653271428E+03  0.36329114323E+03  0.10100000352E+00 0.  1.
</event>
<event>
 5   0  0.2628383E-02  0.7121854E+03  0.7818609E-02  0.9696618E-01
       -2   -1    0    0    0  501  0.00000000000E+00  0.00000000000E+00  0.11370016755E+03  0.11370016758E+03  0.25500000920E-02 0. -1.
        2   -1    0    0  501    0  0.00000000000E+00  0.00000000000E+00 -0.11152315202E+04  0.11152315202E+04  0.25500000920E-02 0.  1.
    10030    2    1    2    0    0  0.00000000000E+00  0.00000000000E+00 -0.10015313526E+04  0.12289316878E+04  0.71218539924E+03 0.  0.
        2    1    3    3  502    0  0.27010808652E+03 -0.73187346982E+02 -0.88073490657E+03  0.92412593396E+03  0.25500000920E-02 0.  1.
       -2    1    3    3    0  502 -0.27010808652E+03  0.73187346982E+02 -0.12079644605E+03  0.30480575380E+03  0.25500000920E-02 0. -1.
</event>
<event>
 5   0  0.2679861E-02  0.9037295E+03  0.7818609E-02  0.9420931E-01
       -2   -1    0    0    0  501  0.00000000000E+00  0.00000000000E+00  0.58649833336E+03  0.58649833336E+03  0.25500000920E-02 0.  1.
        2   -1    0    0  501    0  0.00000000000E+00  0.00000000000E+00 -0.34813697369E+03  0.34813697370E+03  0.25500000920E-02 0. -1.
    10030    2    1    2    0    0  0.00000000000E+00  0.00000000000E+00  0.23836135966E+03  0.93463530706E+03  0.90372950568E+03 0.  0.
        1    1    3    3  502    0 -0.23130538919E+03  0.13086106514E+03  0.49713013306E+03  0.56370663528E+03  0.50400001928E-02 0.  1.
       -1    1    3    3    0  502  0.23130538919E+03 -0.13086106514E+03 -0.25876877340E+03  0.37092867178E+03  0.50400001928E-02 0. -1.
</event>
<event>
 5   0  0.1559275E-02  0.8813674E+03  0.7818609E-02  0.9449177E-01
       -1   -1    0    0    0  501  0.00000000000E+00  0.00000000000E+00  0.46185386052E+03  0.46185386055E+03  0.50400001928E-02 0.  1.
        1   -1    0    0  501    0  0.00000000000E+00  0.00000000000E+00 -0.42048396469E+03  0.42048396472E+03  0.50400001928E-02 0. -1.
    10030    2    1    2    0    0  0.00000000000E+00  0.00000000000E+00  0.41369895828E+02  0.88233782527E+03  0.88136744303E+03 0.  0.
        1    1    3    3  502    0 -0.24927435451E+03 -0.33145421654E+03 -0.12848427694E+03  0.43417486215E+03  0.50400001928E-02 0.  1.
       -1    1    3    3    0  502  0.24927435451E+03  0.33145421654E+03  0.16985417277E+03  0.44816296312E+03  0.50400001928E-02 0. -1.
</event>
<event>
 5   0  0.2679861E-02  0.8806150E+03  0.7818609E-02  0.9450143E-01
       -2   -1    0    0    0  501  0.00000000000E+00  0.00000000000E+00  0.12237698327E+03  0.12237698330E+03  0.25500000920E-02 0.  1.
        2   -1    0    0  501    0  0.00000000000E+00  0.00000000000E+00 -0.15842089233E+04  0.15842089233E+04  0.25500000920E-02 0. -1.
    10030    2    1    2    0    0  0.00000000000E+00  0.00000000000E+00 -0.14618319401E+04  0.17065859066E+04  0.88061503265E+03 0.  0.
        1    1    3    3  502    0 -0.33901564002E+03 -0.26164913533E+03 -0.53253566440E+03  0.68336381824E+03  0.50400001928E-02 0.  1.
       -1    1    3    3    0  502  0.33901564002E+03  0.26164913533E+03 -0.92929627566E+03  0.10232220884E+04  0.50400001928E-02 0. -1.
</event>
<event>
 5   0  0.2679861E-02  0.9484943E+03  0.7818609E-02  0.9366912E-01
       -2   -1    0    0    0  501  0.00000000000E+00  0.00000000000E+00  0.11090750987E+03  0.11090750990E+03  0.25500000920E-02 0.  1.
        2   -1    0    0  501    0  0.00000000000E+00  0.00000000000E+00 -0.20279093487E+04  0.20279093487E+04  0.25500000920E-02 0. -1.
    10030    2    1    2    0    0  0.00000000000E+00  0.00000000000E+00 -0.19170018388E+04  0.21388168586E+04  0.94849433555E+03 0.  0.
        1    1    3    3  502    0  0.35942450431E+03  0.11945560421E+03 -0.16020728475E+04  0.16462360173E+04  0.50400001928E-02 0. -1.
       -1    1    3    3    0  502 -0.35942450431E+03 -0.11945560421E+03 -0.31492899130E+03  0.49258084135E+03  0.50400001928E-02 0.  1.
</event>
<event>
 5   0  0.2803717E-02  0.8857988E+03  0.7818609E-02  0.9443510E-01
        2   -1    0    0  501    0  0.00000000000E+00  0.00000000000E+00  0.15224826601E+04  0.15224826601E+04  0.25500000920E-02 0.  1.
       -2   -1    0    0    0  501  0.00000000000E+00  0.00000000000E+00 -0.12884210596E+03  0.12884210599E+03  0.25500000920E-02 0. -1.
    10030    2    1    2    0    0  0.00000000000E+00  0.00000000000E+00  0.13936405542E+04  0.16513247661E+04  0.88579878583E+03 0.  0.
        5    1    3    3  502    0 -0.15111378302E+03  0.12047153358E+02  0.14725631290E+04  0.14803529201E+04  0.46999998093E+01 0.  1.
       -5    1    3    3    0  502  0.15111378302E+03 -0.12047153358E+02 -0.78922574780E+02  0.17097184602E+03  0.46999998093E+01 0. -1.
</event>
<event>
 5   0  0.2414128E-02  0.8937852E+03  0.7818609E-02  0.9433384E-01
       -2   -1    0    0    0  501  0.00000000000E+00  0.00000000000E+00  0.42406799610E+03  0.42406799611E+03  0.25500000920E-02 0. -1.
        2   -1    0    0  501    0  0.00000000000E+00  0.00000000000E+00 -0.47094564849E+03  0.47094564850E+03  0.25500000920E-02 0.  1.
    10030    2    1    2    0    0  0.00000000000E+00  0.00000000000E+00 -0.46877652387E+02  0.89501364460E+03  0.89378515860E+03 0.  0.
        3    1    3    3  502    0 -0.70641037023E+02  0.40351083460E+03  0.15541746890E+03  0.43813896151E+03  0.10100000352E+00 0.  1.
       -3    1    3    3    0  502  0.70641037023E+02 -0.40351083460E+03 -0.20229512129E+03  0.45687468309E+03  0.10100000352E+00 0. -1.
</event>
<event>
 5   0  0.1560728E-02  0.9026276E+03  0.7818609E-02  0.9422303E-01
       -1   -1    0    0    0  501  0.00000000000E+00  0.00000000000E+00  0.22401622574E+03  0.22401622580E+03  0.50400001928E-02 0. -1.
        1   -1    0    0  501    0  0.00000000000E+00  0.00000000000E+00 -0.90923838091E+03  0.90923838092E+03  0.50400001928E-02 0.  1.
    10030    2    1    2    0    0  0.00000000000E+00  0.00000000000E+00 -0.68522215517E+03  0.11332546067E+04  0.90262760966E+03 0.  0.
        4    1    3    3  502    0  0.16905669124E+02  0.33369653011E+03 -0.72351471107E+03  0.79694060375E+03  0.12699999809E+01 0.  1.
       -4    1    3    3    0  502 -0.16905669124E+02 -0.33369653011E+03  0.38292555908E+02  0.33631400298E+03  0.12699999809E+01 0. -1.
</event>
<event>
 5   0  0.1559275E-02  0.8255288E+03  0.7818609E-02  0.9523783E-01
       -1   -1    0    0    0  501  0.00000000000E+00  0.00000000000E+00  0.89163016054E+03  0.89163016056E+03  0.50400001928E-02 0.  1.
        1   -1    0    0  501    0  0.00000000000E+00  0.00000000000E+00 -0.19108195797E+03  0.19108195804E+03  0.50400001928E-02 0. -1.
    10030    2    1    2    0    0  0.00000000000E+00  0.00000000000E+00  0.70054820257E+03  0.10827121186E+04  0.82552876850E+03 0.  0.
        1    1    3    3  502    0 -0.92312389664E+02 -0.52283746884E+02 -0.17289510487E+03  0.20284941407E+03  0.50400001928E-02 0. -1.
       -1    1    3    3    0  502  0.92312389664E+02  0.52283746884E+02  0.87344330744E+03  0.87986270452E+03  0.50400001928E-02 0.  1.
</event>
<event>
 5   0  0.1559275E-02  0.9125837E+03  0.7818609E-02  0.9409987E-01
        1   -1    0    0  501    0  0.00000000000E+00  0.00000000000E+00  0.17119075404E+04  0.17119075404E+04  0.50400001928E-02 0.  1.
       -1   -1    0    0    0  501  0.00000000000E+00  0.00000000000E+00 -0.12162002662E+03  0.12162002673E+03  0.50400001928E-02 0. -1.
    10030    2    1    2    0    0  0.00000000000E+00  0.00000000000E+00  0.15902875137E+04  0.18335275671E+04  0.91258367448E+03 0.  0.
        1    1    3    3  502    0 -0.12692854149E+03 -0.36808177400E+03  0.12731687032E+04  0.13313728230E+04  0.50400001928E-02 0.  1.
       -1    1    3    3    0  502  0.12692854149E+03  0.36808177400E+03  0.31711881056E+03  0.50215474411E+03  0.50400001928E-02 0. -1.
</event>
<event>
 5   0  0.2803717E-02  0.9155747E+03  0.7818609E-02  0.9406319E-01
       -2   -1    0    0    0  501  0.00000000000E+00  0.00000000000E+00  0.84418214778E+02  0.84418214817E+02  0.25500000920E-02 0.  1.
        2   -1    0    0  501    0  0.00000000000E+00  0.00000000000E+00 -0.24825122425E+04  0.24825122425E+04  0.25500000920E-02 0. -1.
    10030    2    1    2    0    0  0.00000000000E+00  0.00000000000E+00 -0.23980940277E+04  0.25669304573E+04  0.91557468669E+03 0.  0.
        5    1    3    3  502    0  0.41766747369E+03 -0.93996643904E+02 -0.16534221952E+04  0.17079544880E+04  0.46999998093E+01 0. -1.
       -5    1    3    3    0  502 -0.41766747369E+03  0.93996643904E+02 -0.74467183252E+03  0.85897596928E+03  0.46999998093E+01 0.  1.
</event>
<event>
 5   0  0.2679861E-02  0.6947157E+03  0.7818609E-02  0.9726312E-01
        2   -1    0    0  501    0  0.00000000000E+00  0.00000000000E+00  0.14184578811E+04  0.14184578811E+04  0.25500000920E-02 0. -1.
       -2   -1    0    0    0  501  0.00000000000E+00  0.00000000000E+00 -0.85062424105E+02  0.85062424144E+02  0.25500000920E-02 0.  1.
    10030    2    1    2    0    0  0.00000000000E+00  0.00000000000E+00  0.13333954570E+04  0.15035203052E+04  0.69471567100E+03 0.  0.
        1    1    3    3  502    0  0.55128023558E+02  0.20579274517E+03  0.12604517471E+04  0.12783303015E+04  0.50400001928E-02 0. -1.
       -1    1    3    3    0  502 -0.55128023558E+02 -0.20579274517E+03  0.72943709892E+02  0.22519000374E+03  0.50400001928E-02 0.  1.
</event>
<event>
 5   0  0.1497410E-02  0.9243733E+03  0.7818609E-02  0.9395616E-01
        1   -1    0    0  501    0  0.00000000000E+00  0.00000000000E+00  0.51870128842E+03  0.51870128844E+03  0.50400001928E-02 0.  1.
       -1   -1    0    0    0  501  0.00000000000E+00  0.00000000000E+00 -0.41182952908E+03  0.41182952911E+03  0.50400001928E-02 0. -1.
    10030    2    1    2    0    0  0.00000000000E+00  0.00000000000E+00  0.10687175933E+03  0.93053081755E+03  0.92437331716E+03 0.  0.
        3    1    3    3  502    0 -0.97233363774E+02 -0.43735872925E+03  0.16767979156E+03  0.47838635827E+03  0.10100000352E+00 0.  1.
       -3    1    3    3    0  502  0.97233363774E+02  0.43735872925E+03 -0.60808032227E+02  0.45214445929E+03  0.10100000352E+00 0. -1.
</event>
<event>
 5   0  0.1497410E-02  0.8707235E+03  0.7818609E-02  0.9462937E-01
       -1   -1    0    0    0  501  0.00000000000E+00  0.00000000000E+00  0.70824616970E+03  0.70824616972E+03  0.50400001928E-02 0.  1.
        1   -1    0    0  501    0  0.00000000000E+00  0.00000000000E+00 -0.26761863210E+03  0.26761863215E+03  0.50400001928E-02 0. -1.
    10030    2    1    2    0    0  0.00000000000E+00  0.00000000000E+00  0.44062753760E+03  0.97586480186E+03  0.87072354087E+03 0.  0.
        3    1    3    3  502    0  0.38561397018E+03 -0.18564277396E+03  0.30982308095E+03  0.52834810988E+03  0.10100000352E+00 0.  1.
       -3    1    3    3    0  502 -0.38561397018E+03  0.18564277396E+03  0.13080445665E+03  0.44751669198E+03  0.10100000352E+00 0. -1.
</event>
<event>
 5   0  0.2679861E-02  0.5475515E+03  0.7818609E-02  0.1002062E+00
        2   -1    0    0  501    0  0.00000000000E+00  0.00000000000E+00  0.93721675099E+03  0.93721675099E+03  0.25500000920E-02 0.  1.
       -2   -1    0    0    0  501  0.00000000000E+00  0.00000000000E+00 -0.79974189364E+02  0.79974189405E+02  0.25500000920E-02 0. -1.
    10030    2    1    2    0    0  0.00000000000E+00  0.00000000000E+00  0.85724256162E+03  0.10171909404E+04  0.54755145855E+03 0.  0.
        1    1    3    3  502    0 -0.22078002643E+03  0.89535996822E+02  0.67918913161E+03  0.71976273265E+03  0.50400001928E-02 0.  1.
       -1    1    3    3    0  502  0.22078002643E+03 -0.89535996822E+02  0.17805343001E+03  0.29742820774E+03  0.50400001928E-02 0. -1.
</event>
<event>
 5   0  0.1559275E-02  0.9257334E+03  0.7818609E-02  0.9393973E-01
       -1   -1    0    0    0  501  0.00000000000E+00  0.00000000000E+00  0.33078086752E+03  0.33078086756E+03  0.50400001928E-02 0. -1.
        1   -1    0    0  501    0  0.00000000000E+00  0.00000000000E+00 -0.64769643290E+03  0.64769643292E+03  0.50400001928E-02 0.  1.
    10030    2    1    2    0    0  0.00000000000E+00  0.00000000000E+00 -0.31691556537E+03  0.97847730048E+03  0.92573341302E+03 0.  0.
        1    1    3    3  502    0 -0.46004026586E+03  0.39588458059E+02 -0.19256543781E+03  0.50028565848E+03  0.50400001928E-02 0.  1.
       -1    1    3    3    0  502  0.46004026586E+03 -0.39588458059E+02 -0.12435012756E+03  0.47819164199E+03  0.50400001928E-02 0. -1.
</event>
<event>
 5   0  0.1459111E-02  0.8242271E+03  0.7818609E-02  0.9525597E-01
        1   -1    0    0  501    0  0.00000000000E+00  0.00000000000E+00  0.13243987086E+04  0.13243987086E+04  0.50400001928E-02 0. -1.
       -1   -1    0    0    0  501  0.00000000000E+00  0.00000000000E+00 -0.12823748852E+03  0.12823748862E+03  0.50400001928E-02 0.  1.
    10030    2    1    2    0    0  0.00000000000E+00  0.00000000000E+00  0.11961612201E+04  0.14526361972E+04  0.82422706645E+03 0.  0.
        2    1    3    3  502    0  0.73517204547E+02 -0.53370579514E+02  0.13065313517E+04  0.13096859818E+04  0.25500000920E-02 0. -1.
       -2    1    3    3    0  502 -0.73517204547E+02  0.53370579514E+02 -0.11037013160E+03  0.14295021538E+03  0.25500000920E-02 0.  1.
</event>
<event>
 5   0  0.1560728E-02  0.9455696E+03  0.7818609E-02  0.9370344E-01
       -1   -1    0    0    0  501  0.00000000000E+00  0.00000000000E+00  0.16249366976E+03  0.16249366984E+03  0.50400001928E-02 0.  1.
        1   -1    0    0  501    0  0.00000000000E+00  0.00000000000E+00 -0.13755950028E+04  0.13755950028E+04  0.50400001928E-02 0. -1.
    10030    2    1    2    0    0  0.00000000000E+00  0.00000000000E+00 -0.12131013331E+04  0.15380886727E+04  0.94556962765E+03 0.  0.
        4    1    3    3  502    0 -0.14985150436E+03  0.22501556084E+03 -0.12374561664E+04  0.12666439328E+04  0.12699999809E+01 0. -1.
       -4    1    3    3    0  502  0.14985150436E+03 -0.22501556084E+03  0.24354833328E+02  0.27144473983E+03  0.12699999809E+01 0.  1.
</event>
<event>
 5   0  0.1459111E-02  0.9297141E+03  0.7818609E-02  0.9389181E-01
       -1   -1    0    0    0  501  0.00000000000E+00  0.00000000000E+00  0.30856806166E+03  0.30856806170E+03  0.50400001928E-02 0. -1.
        1   -1    0    0  501    0  0.00000000000E+00  0.00000000000E+00 -0.70030609410E+03  0.70030609412E+03  0.50400001928E-02 0.  1.
    10030    2    1    2    0    0  0.00000000000E+00  0.00000000000E+00 -0.39173803244E+03  0.10088741558E+04  0.92971413683E+03 0.  0.
        2    1    3    3  502    0 -0.36460935738E+03  0.17007179508E+03 -0.44856488094E+03  0.60255692792E+03  0.25500000920E-02 0.  1.
       -2    1    3    3    0  502  0.36460935738E+03 -0.17007179508E+03  0.56826848498E+02  0.40631722790E+03  0.25500000920E-02 0. -1.
</event>
<event>
 5   0  0.1559275E-02  0.9194202E+03  0.7818609E-02  0.9401626E-01
       -1   -1    0    0    0  501  0.00000000000E+00  0.00000000000E+00  0.68190958185E+03  0.68190958187E+03  0.50400001928E-02 0.  1.
        1   -1    0    0  501    0  0.00000000000E+00  0.00000000000E+00 -0.30991410399E+03  0.30991410403E+03  0.50400001928E-02 0. -1.
    10030    2    1    2    0    0  0.00000000000E+00  0.00000000000E+00  0.37199547786E+03  0.99182368589E+03  0.91942024578E+03 0.  0.
        1    1    3    3  502    0  0.22353297071E+03 -0.70665715867E+02  0.61257821056E+03  0.65590601192E+03  0.50400001928E-02 0.  1.
       -1    1    3    3    0  502 -0.22353297071E+03  0.70665715867E+02 -0.24058273270E+03  0.33591767398E+03  0.50400001928E-02 0. -1.
</event>
<event>
 5   0  0.1497410E-02  0.8705038E+03  0.7818609E-02  0.9463223E-01
        1   -1    0    0  501    0  0.00000000000E+00  0.00000000000E+00  0.56721516791E+03  0.56721516793E+03  0.50400001928E-02 0. -1.
       -1   -1    0    0    0  501  0.00000000000E+00  0.00000000000E+00 -0.33399006175E+03  0.33399006179E+03  0.50400001928E-02 0.  1.
    10030    2    1    2    0    0  0.00000000000E+00  0.00000000000E+00  0.23322510616E+03  0.90120522972E+03  0.87050382879E+03 0.  0.
        3    1    3    3  502    0  0.28253157962E+02  0.12648727697E+03 -0.31354986879E+03  0.33927982933E+03  0.10100000352E+00 0.  1.
       -3    1    3    3    0  502 -0.28253157962E+02 -0.12648727697E+03  0.54677497495E+03  0.56192540039E+03  0.10100000352E+00 0. -1.
</event>
<event>
 5   0  0.1560728E-02  0.8879524E+03  0.7818609E-02  0.9440768E-01
        1   -1    0    0  501    0  0.00000000000E+00  0.00000000000E+00  0.40728303486E+03  0.40728303489E+03  0.50400001928E-02 0.  1.
       -1   -1    0    0    0  501  0.00000000000E+00  0.00000000000E+00 -0.48397510178E+03  0.48397510181E+03  0.50400001928E-02 0. -1.
    10030    2    1    2    0    0  0.00000000000E+00  0.00000000000E+00 -0.76692066919E+02  0.89125813670E+03  0.88795235971E+03 0.  0.
        4    1    3    3  502    0 -0.14205892895E+03  0.41778842389E+03 -0.87367689874E+02  0.44984734362E+03  0.12699999809E+01 0.  1.
       -4    1    3    3    0  502  0.14205892895E+03 -0.41778842389E+03  0.10675622955E+02  0.44141079308E+03  0.12699999809E+01 0. -1.
</event>
<event>
 5   0  0.2414128E-02  0.9101984E+03  0.7818609E-02  0.9412922E-01
       -2   -1    0    0    0  501  0.00000000000E+00  0.00000000000E+00  0.43060125026E+03  0.43060125027E+03  0.25500000920E-02 0. -1.
        2   -1    0    0  501    0  0.00000000000E+00  0.00000000000E+00 -0.48099091701E+03  0.48099091702E+03  0.25500000920E-02 0.  1.
    10030    2    1    2    0    0  0.00000000000E+00  0.00000000000E+00 -0.50389666753E+02  0.91159216729E+03  0.91019841845E+03 0.  0.
        3    1    3    3  502    0 -0.30578000213E+02 -0.21088821979E+03 -0.42793796795E+03  0.47805833322E+03  0.10100000352E+00 0.  1.
       -3    1    3    3    0  502  0.30578000213E+02  0.21088821979E+03  0.37754830120E+03  0.43353383407E+03  0.10100000352E+00 0. -1.
</event>
<event>
 5   0  0.1459111E-02  0.9017743E+03  0.7818609E-02  0.9423366E-01
       -1   -1    0    0    0  501  0.00000000000E+00  0.00000000000E+00  0.51888567845E+03  0.51888567848E+03  0.50400001928E-02 0.  1.
        1   -1    0    0  501    0  0.00000000000E+00  0.00000000000E+00 -0.39179966779E+03  0.39179966782E+03  0.50400001928E-02 0. -1.
    10030    2    1    2    0    0  0.00000000000E+00  0.00000000000E+00  0.12708601067E+03  0.91068534630E+03  0.90177433200E+03 0.  0.
        2    1    3    3  502    0 -0.24576194956E+03 -0.37760057417E+03  0.45531206513E+02  0.45282912918E+03  0.25500000920E-02 0. -1.
       -2    1    3    3    0  502  0.24576194956E+03  0.37760057417E+03  0.81554804155E+02  0.45785621712E+03  0.25500000920E-02 0.  1.
</event>
<event>
 5   0  0.1497410E-02  0.9845470E+03  0.7818609E-02  0.9325658E-01
        1   -1    0    0  501    0  0.00000000000E+00  0.00000000000E+00  0.11064634673E+04  0.11064634673E+04  0.50400001928E-02 0. -1.
       -1   -1    0    0    0  501  0.00000000000E+00  0.00000000000E+00 -0.21901600342E+03  0.21901600348E+03  0.50400001928E-02 0.  1.
    10030    2    1    2    0    0  0.00000000000E+00  0.00000000000E+00  0.88744746384E+03  0.13254794707E+04  0.98454701579E+03 0.  0.
        3    1    3    3  502    0 -0.20018088081E+03  0.13437087901E+03 -0.13408963002E+03  0.27587670660E+03  0.10100000352E+00 0.  1.
       -3    1    3    3    0  502  0.20018088081E+03 -0.13437087901E+03  0.10215370939E+04  0.10496027641E+04  0.10100000352E+00 0. -1.
</event>
<event>
 5   0  0.1040163E-02  0.8826672E+03  0.7818609E-02  0.9447511E-01
        4   -1    0    0  501    0  0.00000000000E+00  0.00000000000E+00  0.29671433440E+03  0.29671705232E+03  0.12699999809E+01 0.  1.
       -4   -1    0    0    0  501  0.00000000000E+00  0.00000000000E+00 -0.65643430741E+03  0.65643553594E+03  0.12699999809E+01 0. -1.
    10030    2    1    2    0    0  0.00000000000E+00  0.00000000000E+00 -0.35971997301E+03  0.95315258827E+03  0.88266720656E+03 0.  0.
        3    1    3    3  502    0 -0.74206614332E+02  0.12819405957E+03  0.26907276244E+03  0.30714898699E+03  0.10100000352E+00 0.  1.
       -3    1    3    3    0  502  0.74206614332E+02 -0.12819405957E+03 -0.62879273544E+03  0.64600360128E+03  0.10100000352E+00 0. -1.
</event>
<event>
 5   0  0.2679861E-02  0.9087002E+03  0.7818609E-02  0.9414771E-01
        2   -1    0    0  501    0  0.00000000000E+00  0.00000000000E+00  0.23602139572E+04  0.23602139572E+04  0.25500000920E-02 0.  1.
       -2   -1    0    0    0  501  0.00000000000E+00  0.00000000000E+00 -0.87464105338E+02  0.87464105375E+02  0.25500000920E-02 0. -1.
    10030    2    1    2    0    0  0.00000000000E+00  0.00000000000E+00  0.22727498519E+04  0.24476780626E+04  0.90870017546E+03 0.  0.
        1    1    3    3  502    0 -0.17932701681E+03  0.33080937682E+03  0.45047861542E+03  0.58696167313E+03  0.50400001928E-02 0. -1.
       -1    1    3    3    0  502  0.17932701681E+03 -0.33080937682E+03  0.18222712365E+04  0.18607163895E+04  0.50400001928E-02 0.  1.
</event>
<event>
 5   0  0.1040163E-02  0.7720659E+03  0.7818609E-02  0.9601355E-01
       -3   -1    0    0    0  501  0.00000000000E+00  0.00000000000E+00  0.18596519078E+03  0.18596521821E+03  0.10100000352E+00 0. -1.
        3   -1    0    0  501    0  0.00000000000E+00  0.00000000000E+00 -0.80134032487E+03  0.80134033123E+03  0.10100000352E+00 0.  1.
    10030    2    1    2    0    0  0.00000000000E+00  0.00000000000E+00 -0.61537513408E+03  0.98730554944E+03  0.77206586009E+03 0.  0.
        1    1    3    3  502    0  0.89335630842E+02  0.14948346387E+03 -0.74825655267E+03  0.76825388352E+03  0.50400001928E-02 0.  1.
       -1    1    3    3    0  502 -0.89335630842E+02 -0.14948346387E+03  0.13288141859E+03  0.21905166592E+03  0.50400001928E-02 0. -1.
</event>
<event>
 5   0  0.1559275E-02  0.8910154E+03  0.7818609E-02  0.9436883E-01
       -1   -1    0    0    0  501  0.00000000000E+00  0.00000000000E+00  0.29543096196E+03  0.29543096200E+03  0.50400001928E-02 0.  1.
        1   -1    0    0  501    0  0.00000000000E+00  0.00000000000E+00 -0.67182229366E+03  0.67182229368E+03  0.50400001928E-02 0. -1.
    10030    2    1    2    0    0  0.00000000000E+00  0.00000000000E+00 -0.37639133170E+03  0.96725325569E+03  0.89101539047E+03 0.  0.
        1    1    3    3  502    0  0.27234990959E+02  0.12806398090E+02 -0.67071751884E+03  0.67139238800E+03  0.50400001928E-02 0. -1.
       -1    1    3    3    0  502 -0.27234990959E+02 -0.12806398090E+02  0.29432618714E+03  0.29586086768E+03  0.50400001928E-02 0.  1.
</event>
<event>
 5   0  0.2628383E-02  0.8224377E+03  0.7818609E-02  0.9528096E-01
       -2   -1    0    0    0  501  0.00000000000E+00  0.00000000000E+00  0.17299313003E+03  0.17299313005E+03  0.25500000920E-02 0.  1.
        2   -1    0    0  501    0  0.00000000000E+00  0.00000000000E+00 -0.97750092511E+03  0.97750092511E+03  0.25500000920E-02 0. -1.
    10030    2    1    2    0    0  0.00000000000E+00  0.00000000000E+00 -0.80450779508E+03  0.11504940552E+04  0.82243770502E+03 0.  0.
        2    1    3    3  502    0 -0.36044435677E+03 -0.57264892601E+02 -0.66731006859E+03  0.76059327495E+03  0.25500000920E-02 0. -1.
       -2    1    3    3    0  502  0.36044435677E+03  0.57264892601E+02 -0.13719772649E+03  0.38990078022E+03  0.25500000920E-02 0.  1.
</event>
<event>
 5   0  0.1537870E-02  0.9029961E+03  0.7818609E-02  0.9421844E-01
        1   -1    0    0  501    0  0.00000000000E+00  0.00000000000E+00  0.53846094568E+03  0.53846094570E+03  0.50400001928E-02 0. -1.
       -1   -1    0    0    0  501  0.00000000000E+00  0.00000000000E+00 -0.37857990406E+03  0.37857990409E+03  0.50400001928E-02 0.  1.
    10030    2    1    2    0    0  0.00000000000E+00  0.00000000000E+00  0.15988104162E+03  0.91704084979E+03  0.90299610892E+03 0.  0.
        5    1    3    3  502    0 -0.27590444214E+02 -0.37552707320E+02 -0.37610628263E+03  0.37901116642E+03  0.46999998093E+01 0.  1.
       -5    1    3    3    0  502  0.27590444214E+02  0.37552707320E+02  0.53598732425E+03  0.53802968337E+03  0.46999998093E+01 0. -1.
</event>
<event>
 5   0  0.1560728E-02  0.8648560E+03  0.7818609E-02  0.9470612E-01
       -1   -1    0    0    0  501  0.00000000000E+00  0.00000000000E+00  0.15072039681E+03  0.15072039689E+03  0.50400001928E-02 0.  1.
        1   -1    0    0  501    0  0.00000000000E+00  0.00000000000E+00 -0.12406680030E+04  0.12406680030E+04  0.50400001928E-02 0. -1.
    10030    2    1    2    0    0  0.00000000000E+00  0.00000000000E+00 -0.10899476062E+04  0.13913883999E+04  0.86485599678E+03 0.  0.
        4    1    3    3  502    0  0.31389328705E+03 -0.25419468430E+03 -0.79342120137E+03  0.89031609492E+03  0.12699999809E+01 0. -1.
       -4    1    3    3    0  502 -0.31389328705E+03  0.25419468430E+03 -0.29652640485E+03  0.50107230502E+03  0.12699999809E+01 0.  1.
</event>
<event>
 5   0  0.1497410E-02  0.8942077E+03  0.7818609E-02  0.9432851E-01
        1   -1    0    0  501    0  0.00000000000E+00  0.00000000000E+00  0.24478405361E+03  0.24478405366E+03  0.50400001928E-02 0. -1.
       -1   -1    0    0    0  501  0.00000000000E+00  0.00000000000E+00 -0.81664573362E+03  0.81664573363E+03  0.50400001928E-02 0.  1.
    10030    2    1    2    0    0  0.00000000000E+00  0.00000000000E+00 -0.57186168001E+03  0.10614297873E+04  0.89420770087E+03 0.  0.
        3    1    3    3  502    0  0.26709365622E+03  0.10170167954E+03  0.12219828686E+03  0.31082902748E+03  0.10100000352E+00 0. -1.
       -3    1    3    3    0  502 -0.26709365622E+03 -0.10170167954E+03 -0.69405996687E+03  0.75060075981E+03  0.10100000352E+00 0.  1.
</event>
<event>
 5   0  0.1040163E-02  0.8810275E+03  0.7818609E-02  0.9449614E-01
        3   -1    0    0  501    0  0.00000000000E+00  0.00000000000E+00  0.24251746142E+03  0.24251748246E+03  0.10100000352E+00 0.  1.
       -3   -1    0    0    0  501  0.00000000000E+00  0.00000000000E+00 -0.80015827224E+03  0.80015827862E+03  0.10100000352E+00 0. -1.
    10030    2    1    2    0    0  0.00000000000E+00  0.00000000000E+00 -0.55764081082E+03  0.10426757611E+04  0.88102750742E+03 0.  0.
        2    1    3    3  502    0 -0.39366453917E+03  0.96930550563E+02 -0.48272584904E+03  0.63038999545E+03  0.25500000920E-02 0. -1.
       -2    1    3    3    0  502  0.39366453917E+03 -0.96930550563E+02 -0.74914961780E+02  0.41228576562E+03  0.25500000920E-02 0.  1.
</event>
<event>
 5   0  0.2414128E-02  0.9028227E+03  0.7818609E-02  0.9422060E-01
       -2   -1    0    0    0  501  0.00000000000E+00  0.00000000000E+00  0.13186024744E+03  0.13186024747E+03  0.25500000920E-02 0. -1.
        2   -1    0    0  501    0  0.00000000000E+00  0.00000000000E+00 -0.15453648742E+04  0.15453648742E+04  0.25500000920E-02 0.  1.
    10030    2    1    2    0    0  0.00000000000E+00  0.00000000000E+00 -0.14135046267E+04  0.16772251216E+04  0.90282267299E+03 0.  0.
        3    1    3    3  502    0 -0.19380326772E+03 -0.12984218940E+03  0.11201621673E+02  0.23354697012E+03  0.10100000352E+00 0. -1.
       -3    1    3    3    0  502  0.19380326772E+03  0.12984218940E+03 -0.14247062484E+04  0.14436781515E+04  0.10100000352E+00 0.  1.
</event>
<event>
 5   0  0.2705111E-02  0.8973386E+03  0.7818609E-02  0.9428914E-01
       -2   -1    0    0    0  501  0.00000000000E+00  0.00000000000E+00  0.54809944101E+03  0.54809944101E+03  0.25500000920E-02 0.  1.
        2   -1    0    0  501    0  0.00000000000E+00  0.00000000000E+00 -0.36727670948E+03  0.36727670949E+03  0.25500000920E-02 0. -1.
    10030    2    1    2    0    0  0.00000000000E+00  0.00000000000E+00  0.18082273152E+03  0.91537615050E+03  0.89733864102E+03 0.  0.
        4    1    3    3  502    0  0.20371117899E+03 -0.37250651237E+02 -0.31560514239E+03  0.37748387285E+03  0.12699999809E+01 0. -1.
       -4    1    3    3    0  502 -0.20371117899E+03  0.37250651237E+02  0.49642787391E+03  0.53789227765E+03  0.12699999809E+01 0.  1.
</event>
<event>
 5   0  0.1560728E-02  0.8650375E+03  0.7818609E-02  0.9470373E-01
       -1   -1    0    0    0  501  0.00000000000E+00  0.00000000000E+00  0.37560166939E+03  0.37560166942E+03  0.50400001928E-02 0.  1.
        1   -1    0    0  501    0  0.00000000000E+00  0.00000000000E+00 -0.49806077837E+03  0.49806077840E+03  0.50400001928E-02 0. -1.
    10030    2    1    2    0    0  0.00000000000E+00  0.00000000000E+00 -0.12245910898E+03  0.87366244782E+03  0.86503747859E+03 0.  0.
        4    1    3    3  502    0  0.17416324301E+03  0.37269718340E+03  0.73649068961E+02  0.41792562016E+03  0.12699999809E+01 0.  1.
       -4    1    3    3    0  502 -0.17416324301E+03 -0.37269718340E+03 -0.19610817794E+03  0.45573682766E+03  0.12699999809E+01 0. -1.
</event>
<event>
 5   0  0.1497410E-02  0.8782296E+03  0.7818609E-02  0.9453212E-01
        1   -1    0    0  501    0  0.00000000000E+00  0.00000000000E+00  0.52007084317E+03  0.52007084319E+03  0.50400001928E-02 0. -1.
       -1   -1    0    0    0  501  0.00000000000E+00  0.00000000000E+00 -0.37076062615E+03  0.37076062618E+03  0.50400001928E-02 0.  1.
    10030    2    1    2    0    0  0.00000000000E+00  0.00000000000E+00  0.14931021702E+03  0.89083146938E+03  0.87822956334E+03 0.  0.
        3    1    3    3  502    0 -0.27152651514E+03  0.20315105831E+03  0.35762905380E+03  0.49284434788E+03  0.10100000352E+00 0. -1.
       -3    1    3    3    0  502  0.27152651514E+03 -0.20315105831E+03 -0.20831883678E+03  0.39798712149E+03  0.10100000352E+00 0.  1.
</event>
<event>
 5   0  0.2414128E-02  0.8483978E+03  0.7818609E-02  0.9492490E-01
        2   -1    0    0  501    0  0.00000000000E+00  0.00000000000E+00  0.36443184994E+03  0.36443184995E+03  0.25500000920E-02 0. -1.
       -2   -1    0    0    0  501  0.00000000000E+00  0.00000000000E+00 -0.49376780339E+03  0.49376780339E+03  0.25500000920E-02 0.  1.
    10030    2    1    2    0    0  0.00000000000E+00  0.00000000000E+00 -0.12933595344E+03  0.85819965334E+03  0.84839781715E+03 0.  0.
        3    1    3    3  502    0  0.33430108086E+02 -0.42283826291E+03 -0.58689094706E+02  0.42819877247E+03  0.10100000352E+00 0. -1.
       -3    1    3    3    0  502 -0.33430108086E+02  0.42283826291E+03 -0.70646858738E+02  0.43000088088E+03  0.10100000352E+00 0.  1.
</event>
<event>
 5   0  0.1459111E-02  0.9032243E+03  0.7818609E-02  0.9421560E-01
       -1   -1    0    0    0  501  0.00000000000E+00  0.00000000000E+00  0.23610402464E+03  0.23610402470E+03  0.50400001928E-02 0.  1.
        1   -1    0    0  501    0  0.00000000000E+00  0.00000000000E+00 -0.86382913312E+03  0.86382913314E+03  0.50400001928E-02 0. -1.
    10030    2    1    2    0    0  0.00000000000E+00  0.00000000000E+00 -0.62772510848E+03  0.10999331578E+04  0.90322430210E+03 0.  0.
        2    1    3    3  502    0 -0.17043406698E+03  0.41315106015E+03 -0.23482871646E+03  0.50486245233E+03  0.25500000920E-02 0.  1.
       -2    1    3    3    0  502  0.17043406698E+03 -0.41315106015E+03 -0.39289639202E+03  0.59507070551E+03  0.25500000920E-02 0. -1.
</event>
<event>
 5   0  0.2414128E-02  0.9497809E+03  0.7818609E-02  0.9365407E-01
       -2   -1    0    0    0  501  0.00000000000E+00  0.00000000000E+00  0.46139463964E+03  0.46139463964E+03  0.25500000920E-02 0. -1.
        2   -1    0    0  501    0  0.00000000000E+00  0.00000000000E+00 -0.48878099973E+03  0.48878099974E+03  0.25500000920E-02 0.  1.
    10030    2    1    2    0    0  0.00000000000E+00  0.00000000000E+00 -0.27386360099E+02  0.95017563938E+03  0.94978088682E+03 0.  0.
        3    1    3    3  502    0 -0.71492025944E+02 -0.40018803968E+03  0.23188663821E+03  0.46800961535E+03  0.10100000352E+00 0. -1.
       -3    1    3    3    0  502  0.71492025944E+02  0.40018803968E+03 -0.25927299831E+03  0.48216602403E+03  0.10100000352E+00 0.  1.
</event>
<event>
 5   0  0.1537870E-02  0.8933105E+03  0.7818609E-02  0.9433982E-01
        1   -1    0    0  501    0  0.00000000000E+00  0.00000000000E+00  0.56228472838E+03  0.56228472841E+03  0.50400001928E-02 0.  1.
       -1   -1    0    0    0  501  0.00000000000E+00  0.00000000000E+00 -0.35480409559E+03  0.35480409562E+03  0.50400001928E-02 0. -1.
    10030    2    1    2    0    0  0.00000000000E+00  0.00000000000E+00  0.20748063279E+03  0.91708882403E+03  0.89331052729E+03 0.  0.
        5    1    3    3  502    0  0.43874916215E+02 -0.43040876146E+03 -0.10126978892E+02  0.43278326668E+03  0.46999998093E+01 0. -1.
       -5    1    3    3    0  502 -0.43874916215E+02  0.43040876146E+03  0.21760761169E+03  0.48430555735E+03  0.46999998093E+01 0.  1.
</event>
<event>
 5   0  0.1459111E-02  0.8291973E+03  0.7818609E-02  0.9518691E-01
       -1   -1    0    0    0  501  0.00000000000E+00  0.00000000000E+00  0.62459613264E+03  0.62459613266E+03  0.50400001928E-02 0. -1.
        1   -1    0    0  501    0  0.00000000000E+00  0.00000000000E+00 -0.27520508094E+03  0.27520508098E+03  0.50400001928E-02 0.  1.
    10030    2    1    2    0    0  0.00000000000E+00  0.00000000000E+00  0.34939105171E+03  0.89980121365E+03  0.82919727271E+03 0.  0.
        2    1    3    3  502    0 -0.33893130311E+03 -0.18140599568E+03  0.34318877424E+03  0.51532620569E+03  0.25500000920E-02 0. -1.
       -2    1    3    3    0  502  0.33893130311E+03  0.18140599568E+03  0.62022774641E+01  0.38447500796E+03  0.25500000920E-02 0.  1.
</event>
<event>
 5   0  0.2803717E-02  0.8331049E+03  0.7818609E-02  0.9513298E-01
        2   -1    0    0  501    0  0.00000000000E+00  0.00000000000E+00  0.25551003752E+03  0.25551003754E+03  0.25500000920E-02 0.  1.
       -2   -1    0    0    0  501  0.00000000000E+00  0.00000000000E+00 -0.67909638843E+03  0.67909638844E+03  0.25500000920E-02 0. -1.
    10030    2    1    2    0    0  0.00000000000E+00  0.00000000000E+00 -0.42358635091E+03  0.93460642597E+03  0.83310490023E+03 0.  0.
        5    1    3    3  502    0  0.30523766645E+03 -0.73837920333E+02 -0.51875767996E+03  0.60642698820E+03  0.46999998093E+01 0. -1.
       -5    1    3    3    0  502 -0.30523766645E+03  0.73837920333E+02  0.95171329057E+02  0.32817943777E+03  0.46999998093E+01 0.  1.
</event>
<event>
 5   0  0.1559275E-02  0.9118633E+03  0.7818609E-02  0.9410872E-01
       -1   -1    0    0    0  501  0.00000000000E+00  0.00000000000E+00  0.24410219735E+03  0.24410219740E+03  0.50400001928E-02 0. -1.
        1   -1    0    0  501    0  0.00000000000E+00  0.00000000000E+00 -0.85158459985E+03  0.85158459987E+03  0.50400001928E-02 0.  1.
    10030    2    1    2    0    0  0.00000000000E+00  0.00000000000E+00 -0.60748240250E+03  0.10956867973E+04  0.91186330574E+03 0.  0.
        1    1    3    3  502    0  0.77999440742E+02 -0.15986354815E+03 -0.80817108268E+03  0.82751481297E+03  0.50400001928E-02 0.  1.
       -1    1    3    3    0  502 -0.77999440742E+02  0.15986354815E+03  0.20068868018E+03  0.26817198430E+03  0.50400001928E-02 0. -1.
</event>
<event>
 5   0  0.1559275E-02  0.8735477E+03  0.7818609E-02  0.9459266E-01
        1   -1    0    0  501    0  0.00000000000E+00  0.00000000000E+00  0.10854410140E+04  0.10854410140E+04  0.50400001928E-02 0. -1.
       -1   -1    0    0    0  501  0.00000000000E+00  0.00000000000E+00 -0.17575473908E+03  0.17575473916E+03  0.50400001928E-02 0.  1.
    10030    2    1    2    0    0  0.00000000000E+00  0.00000000000E+00  0.90968627494E+03  0.12611957532E+04  0.87354771424E+03 0.  0.
        1    1    3    3  502    0  0.10202739824E+03  0.11766427148E+03  0.10439920327E+04  0.10555443312E+04  0.50400001928E-02 0. -1.
       -1    1    3    3    0  502 -0.10202739824E+03 -0.11766427148E+03 -0.13430575775E+03  0.20565142199E+03  0.50400001928E-02 0.  1.
</event>
<event>
 5   0  0.2414128E-02  0.9077527E+03  0.7818609E-02  0.9415942E-01
        2   -1    0    0  501    0  0.00000000000E+00  0.00000000000E+00  0.26161594922E+03  0.26161594924E+03  0.25500000920E-02 0.  1.
       -2   -1    0    0    0  501  0.00000000000E+00  0.00000000000E+00 -0.78742815064E+03  0.78742815065E+03  0.25500000920E-02 0. -1.
    10030    2    1    2    0    0  0.00000000000E+00  0.00000000000E+00 -0.52581220142E+03  0.10490440999E+04  0.90775274846E+03 0.  0.
        3    1    3    3  502    0 -0.32415008601E+03 -0.87893075052E+02  0.89908407282E+02  0.34768089221E+03  0.10100000352E+00 0.  1.
       -3    1    3    3    0  502  0.32415008601E+03  0.87893075052E+02 -0.61572060870E+03  0.70136320768E+03  0.10100000352E+00 0. -1.
</event>
<event>
 5   0  0.1459111E-02  0.9034574E+03  0.7818609E-02  0.9421270E-01
        1   -1    0    0  501    0  0.00000000000E+00  0.00000000000E+00  0.18419480543E+04  0.18419480543E+04  0.50400001928E-02 0.  1.
       -1   -1    0    0    0  501  0.00000000000E+00  0.00000000000E+00 -0.11078423519E+03  0.11078423530E+03  0.50400001928E-02 0. -1.
    10030    2    1    2    0    0  0.00000000000E+00  0.00000000000E+00  0.17311638191E+04  0.19527322896E+04  0.90345737381E+03 0.  0.
        2    1    3    3  502    0 -0.11243711290E+03  0.29930108652E+03  0.15553208930E+04  0.15878432936E+04  0.25500000920E-02 0.  1.
       -2    1    3    3    0  502  0.11243711290E+03 -0.29930108652E+03  0.17584292610E+03  0.36488899602E+03  0.25500000920E-02 0. -1.
</event>
<event>
 5   0  0.1559275E-02  0.9300351E+03  0.7818609E-02  0.9388796E-01
       -1   -1    0    0    0  501  0.00000000000E+00  0.00000000000E+00  0.14957763465E+03  0.14957763473E+03  0.50400001928E-02 0.  1.
        1   -1    0    0  501    0  0.00000000000E+00  0.00000000000E+00 -0.14456794006E+04  0.14456794006E+04  0.50400001928E-02 0. -1.
    10030    2    1    2    0    0  0.00000000000E+00  0.00000000000E+00 -0.12961017659E+04  0.15952570353E+04  0.93003506444E+03 0.  0.
        1    1    3    3  502    0  0.17322717508E+03  0.42077769883E+03 -0.81239246531E+03  0.93115146122E+03  0.50400001928E-02 0. -1.
       -1    1    3    3    0  502 -0.17322717508E+03 -0.42077769883E+03 -0.48370930062E+03  0.66410557410E+03  0.50400001928E-02 0.  1.
</event>
<event>
 5   0  0.2803717E-02  0.9000099E+03  0.7818609E-02  0.9425569E-01
        2   -1    0    0  501    0  0.00000000000E+00  0.00000000000E+00  0.98733789607E+03  0.98733789607E+03  0.25500000920E-02 0. -1.
       -2   -1    0    0    0  501  0.00000000000E+00  0.00000000000E+00 -0.20510147818E+03  0.20510147819E+03  0.25500000920E-02 0.  1.
    10030    2    1    2    0    0  0.00000000000E+00  0.00000000000E+00  0.78223641789E+03  0.11924393743E+04  0.90000991540E+03 0.  0.
        5    1    3    3  502    0  0.25298035479E+03  0.37068954079E+03  0.43450955588E+03  0.62468427202E+03  0.46999998093E+01 0.  1.
       -5    1    3    3    0  502 -0.25298035479E+03 -0.37068954079E+03  0.34772686202E+03  0.56775510225E+03  0.46999998093E+01 0. -1.
</event>
<event>
 5   0  0.1537870E-02  0.8655945E+03  0.7818609E-02  0.9469642E-01
       -1   -1    0    0    0  501  0.00000000000E+00  0.00000000000E+00  0.10134097955E+04  0.10134097955E+04  0.50400001928E-02 0. -1.
        1   -1    0    0  501    0  0.00000000000E+00  0.00000000000E+00 -0.18483486113E+03  0.18483486120E+03  0.50400001928E-02 0.  1.
    10030    2    1    2    0    0  0.00000000000E+00  0.00000000000E+00  0.82857493440E+03  0.11982446567E+04  0.86559449830E+03 0.  0.
        5    1    3    3  502    0  0.26185270867E+02  0.51975466884E+01  0.10122335549E+04  0.10125964362E+04  0.46999998093E+01 0. -1.
       -5    1    3    3    0  502 -0.26185270867E+02 -0.51975466884E+01 -0.18365862052E+03  0.18564822054E+03  0.46999998093E+01 0.  1.
</event>
<event>
 5   0  0.2414128E-02  0.9023987E+03  0.7818609E-02  0.9422588E-01
       -2   -1    0    0    0  501  0.00000000000E+00  0.00000000000E+00  0.63230694706E+03  0.63230694707E+03  0.25500000920E-02 0. -1.
        2   -1    0    0  501    0  0.00000000000E+00  0.00000000000E+00 -0.32196520491E+03  0.32196520492E+03  0.25500000920E-02 0.  1.
    10030    2    1    2    0    0  0.00000000000E+00  0.00000000000E+00  0.31034174216E+03  0.95427215198E+03  0.90239866086E+03 0.  0.
        3    1    3    3  502    0  0.16826187425E+03  0.15593911676E+03  0.56602995860E+03  0.61075280654E+03  0.10100000352E+00 0. -1.
       -3    1    3    3    0  502 -0.16826187425E+03 -0.15593911676E+03 -0.25568821644E+03  0.34351934544E+03  0.10100000352E+00 0.  1.
</event>
<event>
 5   0  0.1459111E-02  0.9047981E+03  0.7818609E-02  0.9419603E-01
       -1   -1    0    0    0  501  0.00000000000E+00  0.00000000000E+00  0.66860527470E+03  0.66860527472E+03  0.50400001928E-02 0. -1.
        1   -1    0    0  501    0  0.00000000000E+00  0.00000000000E+00 -0.30610719394E+03  0.30610719398E+03  0.50400001928E-02 0.  1.
    10030    2    1    2    0    0  0.00000000000E+00  0.00000000000E+00  0.36249808076E+03  0.97471246870E+03  0.90479806481E+03 0.  0.
        2    1    3    3  502    0  0.31459804147E+03  0.27371272321E+03 -0.77323170159E+01  0.41707358017E+03  0.25500000920E-02 0.  1.
       -2    1    3    3    0  502 -0.31459804147E+03 -0.27371272321E+03  0.37023039778E+03  0.55763888852E+03  0.25500000920E-02 0. -1.
</event>
<event>
 5   0  0.1459111E-02  0.9083079E+03  0.7818609E-02  0.9415255E-01
       -1   -1    0    0    0  501  0.00000000000E+00  0.00000000000E+00  0.33599861953E+03  0.33599861957E+03  0.50400001928E-02 0. -1.
        1   -1    0    0  501    0  0.00000000000E+00  0.00000000000E+00 -0.61385913721E+03  0.61385913723E+03  0.50400001928E-02 0.  1.
    10030    2    1    2    0    0  0.00000000000E+00  0.00000000000E+00 -0.27786051767E+03  0.94985775680E+03  0.90830792734E+03 0.  0.
        2    1    3    3  502    0 -0.40276308772E+03  0.93636028905E+02  0.57463766949E+02  0.41747801770E+03  0.25500000920E-02 0. -1.
       -2    1    3    3    0  502  0.40276308772E+03 -0.93636028905E+02 -0.33532428462E+03  0.53237973910E+03  0.25500000920E-02 0.  1.
</event>
<event>
 5   0  0.1559275E-02  0.8547190E+03  0.7818609E-02  0.9484025E-01
       -1   -1    0    0    0  501  0.00000000000E+00  0.00000000000E+00  0.54582218541E+03  0.54582218544E+03  0.50400001928E-02 0.  1.
        1   -1    0    0  501    0  0.00000000000E+00  0.00000000000E+00 -0.33460741680E+03  0.33460741684E+03  0.50400001928E-02 0. -1.
    10030    2    1    2    0    0  0.00000000000E+00  0.00000000000E+00  0.21121476861E+03  0.88042960228E+03  0.85471902172E+03 0.  0.
        1    1    3    3  502    0 -0.26754923757E+03  0.16790137576E+03 -0.19091041467E+03  0.36908027983E+03  0.50400001928E-02 0. -1.
       -1    1    3    3    0  502  0.26754923757E+03 -0.16790137576E+03  0.40212518328E+03  0.51134932244E+03  0.50400001928E-02 0.  1.
</event>
<event>
 5   0  0.1560728E-02  0.7577907E+03  0.7818609E-02  0.9623207E-01
       -1   -1    0    0    0  501  0.00000000000E+00  0.00000000000E+00  0.20859207457E+03  0.20859207463E+03  0.50400001928E-02 0. -1.
        1   -1    0    0  501    0  0.00000000000E+00  0.00000000000E+00 -0.68824135421E+03  0.68824135423E+03  0.50400001928E-02 0.  1.
    10030    2    1    2    0    0  0.00000000000E+00  0.00000000000E+00 -0.47964927965E+03  0.89683342886E+03  0.75779071494E+03 0.  0.
        4    1    3    3  502    0  0.34500680066E+03  0.12379612780E+03 -0.35337072614E+03  0.50914404322E+03  0.12699999809E+01 0.  1.
       -4    1    3    3    0  502 -0.34500680066E+03 -0.12379612780E+03 -0.12627855351E+03  0.38768938564E+03  0.12699999809E+01 0. -1.
</event>
<event>
 5   0  0.2628383E-02  0.9414349E+03  0.7818609E-02  0.9375218E-01
       -2   -1    0    0    0  501  0.00000000000E+00  0.00000000000E+00  0.19652221071E+03  0.19652221072E+03  0.25500000920E-02 0. -1.
        2   -1    0    0  501    0  0.00000000000E+00  0.00000000000E+00 -0.11274802915E+04  0.11274802915E+04  0.25500000920E-02 0.  1.
    10030    2    1    2    0    0  0.00000000000E+00  0.00000000000E+00 -0.93095808077E+03  0.13240025022E+04  0.94143490358E+03 0.  0.
        2    1    3    3  502    0 -0.20179811147E+02  0.10559267462E+03  0.17902648815E+03  0.20882413936E+03  0.25500000920E-02 0. -1.
       -2    1    3    3    0  502  0.20179811147E+02 -0.10559267462E+03 -0.11099845689E+04  0.11151783628E+04  0.25500000920E-02 0.  1.
</event>
<event>
 5   0  0.2679861E-02  0.9485840E+03  0.7818609E-02  0.9366807E-01
       -2   -1    0    0    0  501  0.00000000000E+00  0.00000000000E+00  0.16746565010E+03  0.16746565012E+03  0.25500000920E-02 0. -1.
        2   -1    0    0  501    0  0.00000000000E+00  0.00000000000E+00 -0.13432777638E+04  0.13432777638E+04  0.25500000920E-02 0.  1.
    10030    2    1    2    0    0  0.00000000000E+00  0.00000000000E+00 -0.11758121137E+04  0.15107434139E+04  0.94858396358E+03 0.  0.
        1    1    3    3  502    0 -0.11339176430E+03  0.33489319351E+03 -0.10913932010E+04  0.11472359228E+04  0.50400001928E-02 0.  1.
       -1    1    3    3    0  502  0.11339176430E+03 -0.33489319351E+03 -0.84418912700E+02  0.36350749115E+03  0.50400001928E-02 0. -1.
</event>
<event>
 5   0  0.2414128E-02  0.8984953E+03  0.7818609E-02  0.9427464E-01
       -2   -1    0    0    0  501  0.00000000000E+00  0.00000000000E+00  0.96485004549E+02  0.96485004583E+02  0.25500000920E-02 0.  1.
        2   -1    0    0  501    0  0.00000000000E+00  0.00000000000E+00 -0.20917599871E+04  0.20917599871E+04  0.25500000920E-02 0. -1.
    10030    2    1    2    0    0  0.00000000000E+00  0.00000000000E+00 -0.19952749826E+04  0.21882449917E+04  0.89849534648E+03 0.  0.
        3    1    3    3  502    0  0.70902296647E+02 -0.25127471646E+03 -0.10725518192E+03  0.28225839766E+03  0.10100000352E+00 0.  1.
       -3    1    3    3    0  502 -0.70902296647E+02  0.25127471646E+03 -0.18880198007E+04  0.19059865941E+04  0.10100000352E+00 0. -1.
</event>
<event>
 5   0  0.2679861E-02  0.9193913E+03  0.7818609E-02  0.9401661E-01
       -2   -1    0    0    0  501  0.00000000000E+00  0.00000000000E+00  0.17600745261E+03  0.17600745263E+03  0.25500000920E-02 0. -1.
        2   -1    0    0  501    0  0.00000000000E+00  0.00000000000E+00 -0.12006314288E+04  0.12006314288E+04  0.25500000920E-02 0.  1.
    10030    2    1    2    0    0  0.00000000000E+00  0.00000000000E+00 -0.10246239762E+04  0.13766388814E+04  0.91939127538E+03 0.  0.
        1    1    3    3  502    0  0.15365060799E+03 -0.43322789090E+03 -0.51982326591E+03  0.69391003927E+03  0.50400001928E-02 0. -1.
       -1    1    3    3    0  502 -0.15365060799E+03  0.43322789090E+03 -0.50480071024E+03  0.68272884213E+03  0.50400001928E-02 0.  1.
</event>
<event>
 5   0  0.2705111E-02  0.9081937E+03  0.7818609E-02  0.9415396E-01
       -2   -1    0    0    0  501  0.00000000000E+00  0.00000000000E+00  0.12388871415E+03  0.12388871418E+03  0.25500000920E-02 0. -1.
        2   -1    0    0  501    0  0.00000000000E+00  0.00000000000E+00 -0.16644288244E+04  0.16644288244E+04  0.25500000920E-02 0.  1.
    10030    2    1    2    0    0  0.00000000000E+00  0.00000000000E+00 -0.15405401103E+04  0.17883175386E+04  0.90819369493E+03 0.  0.
        4    1    3    3  502    0  0.18706573576E+03  0.12321767901E+03 -0.15480645174E+04  0.15641871848E+04  0.12699999809E+01 0.  1.
       -4    1    3    3    0  502 -0.18706573576E+03 -0.12321767901E+03  0.75244071483E+01  0.22413035386E+03  0.12699999809E+01 0. -1.
</event>
<event>
 5   0  0.1497410E-02  0.8904962E+03  0.7818609E-02  0.9437540E-01
       -1   -1    0    0    0  501  0.00000000000E+00  0.00000000000E+00  0.61215079009E+03  0.61215079011E+03  0.50400001928E-02 0. -1.
        1   -1    0    0  501    0  0.00000000000E+00  0.00000000000E+00 -0.32385136253E+03  0.32385136257E+03  0.50400001928E-02 0.  1.
    10030    2    1    2    0    0  0.00000000000E+00  0.00000000000E+00  0.28829942756E+03  0.93600215268E+03  0.89049619308E+03 0.  0.
        3    1    3    3  502    0 -0.77926135535E+02  0.77240367993E+02 -0.30941904376E+03  0.32829668273E+03  0.10100000352E+00 0.  1.
       -3    1    3    3    0  502  0.77926135535E+02 -0.77240367993E+02  0.59771847132E+03  0.60770546995E+03  0.10100000352E+00 0. -1.
</event>
<event>
 5   0  0.1559275E-02  0.9003390E+03  0.7818609E-02  0.9425158E-01
       -1   -1    0    0    0  501  0.00000000000E+00  0.00000000000E+00  0.27251169072E+03  0.27251169077E+03  0.50400001928E-02 0. -1.
        1   -1    0    0  501    0  0.00000000000E+00  0.00000000000E+00 -0.74364735553E+03  0.74364735555E+03  0.50400001928E-02 0.  1.
    10030    2    1    2    0    0  0.00000000000E+00  0.00000000000E+00 -0.47113566481E+03  0.10161590463E+04  0.90033904323E+03 0.  0.
        1    1    3    3  502    0  0.42443924398E+03 -0.32614209656E+01 -0.66297015493E+02  0.42959818783E+03  0.50400001928E-02 0. -1.
       -1    1    3    3    0  502 -0.42443924398E+03  0.32614209656E+01 -0.40483864931E+03  0.58656085848E+03  0.50400001928E-02 0.  1.
</event>
<event>
 5   0  0.1537870E-02  0.8850200E+03  0.7818609E-02  0.9444503E-01
        1   -1    0    0  501    0  0.00000000000E+00  0.00000000000E+00  0.12817974980E+04  0.12817974980E+04  0.50400001928E-02 0. -1.
       -1   -1    0    0    0  501  0.00000000000E+00  0.00000000000E+00 -0.15276601170E+03  0.15276601179E+03  0.50400001928E-02 0.  1.
    10030    2    1    2    0    0  0.00000000000E+00  0.00000000000E+00  0.11290314863E+04  0.14345635098E+04  0.88501998091E+03 0.  0.
        5    1    3    3  502    0 -0.22184248533E+03 -0.12695367944E+02  0.11847611473E+04  0.12054278605E+04  0.46999998093E+01 0. -1.
       -5    1    3    3    0  502  0.22184248533E+03  0.12695367944E+02 -0.55729661025E+02  0.22913564930E+03  0.46999998093E+01 0.  1.
</event>
<event>
 5   0  0.1560728E-02  0.8976790E+03  0.7818609E-02  0.9428487E-01
       -1   -1    0    0    0  501  0.00000000000E+00  0.00000000000E+00  0.18322104915E+03  0.18322104922E+03  0.50400001928E-02 0.  1.
        1   -1    0    0  501    0  0.00000000000E+00  0.00000000000E+00 -0.10995292369E+04  0.10995292369E+04  0.50400001928E-02 0. -1.
    10030    2    1    2    0    0  0.00000000000E+00  0.00000000000E+00 -0.91630818778E+03  0.12827502862E+04  0.89767900813E+03 0.  0.
        4    1    3    3  502    0 -0.12651865615E+03 -0.12766114999E+03 -0.10458575825E+04  0.10611899148E+04  0.12699999809E+01 0. -1.
       -4    1    3    3    0  502  0.12651865615E+03  0.12766114999E+03  0.12954939471E+03  0.22156037133E+03  0.12699999809E+01 0.  1.
</event>
<event>
 5   0  0.1560728E-02  0.9043881E+03  0.7818609E-02  0.9420113E-01
        1   -1    0    0  501    0  0.00000000000E+00  0.00000000000E+00  0.16678958230E+03  0.16678958238E+03  0.50400001928E-02 0. -1.
       -1   -1    0    0    0  501  0.00000000000E+00  0.00000000000E+00 -0.12259725025E+04  0.12259725025E+04  0.50400001928E-02 0.  1.
    10030    2    1    2    0    0  0.00000000000E+00  0.00000000000E+00 -0.10591829202E+04  0.13927620848E+04  0.90438806196E+03 0.  0.
        4    1    3    3  502    0  0.42437407278E+03 -0.17621277466E+02 -0.29064756822E+03  0.51466638212E+03  0.12699999809E+01 0. -1.
       -4    1    3    3    0  502 -0.42437407278E+03  0.17621277466E+02 -0.76853535194E+03  0.87809570273E+03  0.12699999809E+01 0.  1.
</event>
<event>
 5   0  0.1497410E-02  0.9156105E+03  0.7818609E-02  0.9406275E-01
       -1   -1    0    0    0  501  0.00000000000E+00  0.00000000000E+00  0.81750321001E+03  0.81750321003E+03  0.50400001928E-02 0. -1.
        1   -1    0    0  501    0  0.00000000000E+00  0.00000000000E+00 -0.25637288633E+03  0.25637288638E+03  0.50400001928E-02 0.  1.
    10030    2    1    2    0    0  0.00000000000E+00  0.00000000000E+00  0.56113032369E+03  0.10738760964E+04  0.91561052324E+03 0.  0.
        3    1    3    3  502    0 -0.40143892697E+03 -0.20003220209E+03  0.17294641562E+03  0.48070424050E+03  0.10100000352E+00 0.  1.
       -3    1    3    3    0  502  0.40143892697E+03  0.20003220209E+03  0.38818390807E+03  0.59317185591E+03  0.10100000352E+00 0. -1.
</event>
<event>
 5   0  0.2705111E-02  0.8807234E+03  0.7818609E-02  0.9450004E-01
        2   -1    0    0  501    0  0.00000000000E+00  0.00000000000E+00  0.32329531376E+03  0.32329531377E+03  0.25500000920E-02 0. -1.
       -2   -1    0    0    0  501  0.00000000000E+00  0.00000000000E+00 -0.59981822994E+03  0.59981822995E+03  0.25500000920E-02 0.  1.
    10030    2    1    2    0    0  0.00000000000E+00  0.00000000000E+00 -0.27652291618E+03  0.92311354372E+03  0.88072339098E+03 0.  0.
        4    1    3    3  502    0 -0.27855071020E+03  0.32373977947E+03 -0.25769759689E+02  0.42785936519E+03  0.12699999809E+01 0. -1.
       -4    1    3    3    0  502  0.27855071020E+03 -0.32373977947E+03 -0.25075315649E+03  0.49525417853E+03  0.12699999809E+01 0.  1.
</event>
<event>
 5   0  0.1459111E-02  0.9004658E+03  0.7818609E-02  0.9424999E-01
       -1   -1    0    0    0  501  0.00000000000E+00  0.00000000000E+00  0.88940308760E+02  0.88940308903E+02  0.50400001928E-02 0. -1.
        1   -1    0    0  501    0  0.00000000000E+00  0.00000000000E+00 -0.22791654658E+04  0.22791654658E+04  0.50400001928E-02 0.  1.
    10030    2    1    2    0    0  0.00000000000E+00  0.00000000000E+00 -0.21902251570E+04  0.23681057747E+04  0.90046583593E+03 0.  0.
        2    1    3    3  502    0  0.20066406993E+03 -0.14318346937E+03 -0.20859205187E+04  0.21004361417E+04  0.25500000920E-02 0.  1.
       -2    1    3    3    0  502 -0.20066406993E+03  0.14318346937E+03 -0.10430463831E+03  0.26766963302E+03  0.25500000920E-02 0. -1.
</event>
<event>
 5   0  0.1497410E-02  0.8936372E+03  0.7818609E-02  0.9433570E-01
       -1   -1    0    0    0  501  0.00000000000E+00  0.00000000000E+00  0.11517708065E+03  0.11517708076E+03  0.50400001928E-02 0.  1.
        1   -1    0    0  501    0  0.00000000000E+00  0.00000000000E+00 -0.17333903671E+04  0.17333903671E+04  0.50400001928E-02 0. -1.
    10030    2    1    2    0    0  0.00000000000E+00  0.00000000000E+00 -0.16182132865E+04  0.18485674479E+04  0.89363715730E+03 0.  0.
        3    1    3    3  502    0 -0.12546781422E+03  0.15237937591E+03  0.20098528021E+02  0.19840768039E+03  0.10100000352E+00 0.  1.
       -3    1    3    3    0  502  0.12546781422E+03 -0.15237937591E+03 -0.16383118145E+04  0.16501597675E+04  0.10100000352E+00 0. -1.
</event>
<event>
 5   0  0.2803717E-02  0.9071503E+03  0.7818609E-02  0.9416687E-01
       -2   -1    0    0    0  501  0.00000000000E+00  0.00000000000E+00  0.13919256821E+03  0.13919256823E+03  0.25500000920E-02 0. -1.
        2   -1    0    0  501    0  0.00000000000E+00  0.00000000000E+00 -0.14780271763E+04  0.14780271763E+04  0.25500000920E-02 0.  1.
    10030    2    1    2    0    0  0.00000000000E+00  0.00000000000E+00 -0.13388346081E+04  0.16172197445E+04  0.90715026003E+03 0.  0.
        5    1    3    3  502    0 -0.32716506227E+03  0.49889631347E+01 -0.12293431513E+04  0.12721511473E+04  0.46999998093E+01 0.  1.
       -5    1    3    3    0  502  0.32716506227E+03 -0.49889631347E+01 -0.10949145675E+03  0.34506859727E+03  0.46999998093E+01 0. -1.
</event>
<event>
 5   0  0.1459111E-02  0.8376092E+03  0.7818609E-02  0.9507120E-01
        1   -1    0    0  501    0  0.00000000000E+00  0.00000000000E+00  0.23482771212E+03  0.23482771217E+03  0.50400001928E-02 0. -1.
       -1   -1    0    0    0  501  0.00000000000E+00  0.00000000000E+00 -0.74691910388E+03  0.74691910390E+03  0.50400001928E-02 0.  1.
    10030    2    1    2    0    0  0.00000000000E+00  0.00000000000E+00 -0.51209139176E+03  0.98174681607E+03  0.83760922712E+03 0.  0.
        2    1    3    3  502    0 -0.22753377538E+03 -0.14293231740E+03 -0.63256700546E+03  0.68727162221E+03  0.25500000920E-02 0.  1.
       -2    1    3    3    0  502  0.22753377538E+03  0.14293231740E+03  0.12047561370E+03  0.29447519386E+03  0.25500000920E-02 0. -1.
</event>
<event>
 5   0  0.1497410E-02  0.9192270E+03  0.7818609E-02  0.9401861E-01
       -1   -1    0    0    0  501  0.00000000000E+00  0.00000000000E+00  0.32021466037E+03  0.32021466041E+03  0.50400001928E-02 0. -1.
        1   -1    0    0  501    0  0.00000000000E+00  0.00000000000E+00 -0.65969680455E+03  0.65969680457E+03  0.50400001928E-02 0.  1.
    10030    2    1    2    0    0  0.00000000000E+00  0.00000000000E+00 -0.33948214418E+03  0.97991146498E+03  0.91922704105E+03 0.  0.
        3    1    3    3  502    0  0.51851153678E+02  0.16547717388E+02  0.31676709458E+03  0.32140904079E+03  0.10100000352E+00 0. -1.
       -3    1    3    3    0  502 -0.51851153678E+02 -0.16547717388E+02 -0.65624923877E+03  0.65850242420E+03  0.10100000352E+00 0.  1.
</event>
<event>
 5   0  0.1537870E-02  0.8918370E+03  0.7818609E-02  0.9435843E-01
       -1   -1    0    0    0  501  0.00000000000E+00  0.00000000000E+00  0.29517370941E+03  0.29517370945E+03  0.50400001928E-02 0.  1.
        1   -1    0    0  501    0  0.00000000000E+00  0.00000000000E+00 -0.67364846184E+03  0.67364846186E+03  0.50400001928E-02 0. -1.
    10030    2    1    2    0    0  0.00000000000E+00  0.00000000000E+00 -0.37847475243E+03  0.96882217132E+03  0.89183701504E+03 0.  0.
        5    1    3    3  502    0 -0.29955405730E+03  0.20470978571E+03 -0.47080754565E+03  0.59440774276E+03  0.46999998093E+01 0. -1.
       -5    1    3    3    0  502  0.29955405730E+03 -0.20470978571E+03  0.92332793219E+02  0.37441442856E+03  0.46999998093E+01 0.  1.
</event>
<event>
 5   0  0.2628383E-02  0.8674040E+03  0.7818609E-02  0.9467271E-01
       -2   -1    0    0    0  501  0.00000000000E+00  0.00000000000E+00  0.36707471253E+03  0.36707471254E+03  0.25500000920E-02 0. -1.
        2   -1    0    0  501    0  0.00000000000E+00  0.00000000000E+00 -0.51242276220E+03  0.51242276221E+03  0.25500000920E-02 0.  1.
    10030    2    1    2    0    0  0.00000000000E+00  0.00000000000E+00 -0.14534804967E+03  0.87949747475E+03  0.86740403075E+03 0.  0.
        2    1    3    3  502    0  0.46101918071E+02  0.41670909013E+03 -0.18524254063E+03  0.45835210429E+03  0.25500000920E-02 0. -1.
       -2    1    3    3    0  502 -0.46101918071E+02 -0.41670909013E+03  0.39894490964E+02  0.42114537046E+03  0.25500000920E-02 0.  1.
</event>
<event>
 5   0  0.2628383E-02  0.8934348E+03  0.7818609E-02  0.9433826E-01
        2   -1    0    0  501    0  0.00000000000E+00  0.00000000000E+00  0.20273660871E+03  0.20273660873E+03  0.25500000920E-02 0.  1.
       -2   -1    0    0    0  501  0.00000000000E+00  0.00000000000E+00 -0.98431369402E+03  0.98431369403E+03  0.25500000920E-02 0. -1.
    10030    2    1    2    0    0  0.00000000000E+00  0.00000000000E+00 -0.78157708531E+03  0.11870503028E+04  0.89343476593E+03 0.  0.
        2    1    3    3  502    0 -0.96824558957E+01  0.11600562731E+03 -0.96380752654E+03  0.97081203316E+03  0.25500000920E-02 0. -1.
       -2    1    3    3    0  502  0.96824558957E+01 -0.11600562731E+03  0.18223044123E+03  0.21623826959E+03  0.25500000920E-02 0.  1.
</event>
<event>
 5   0  0.2414128E-02  0.8355709E+03  0.7818609E-02  0.9509911E-01
       -2   -1    0    0    0  501  0.00000000000E+00  0.00000000000E+00  0.22587253371E+03  0.22587253372E+03  0.25500000920E-02 0. -1.
        2   -1    0    0  501    0  0.00000000000E+00  0.00000000000E+00 -0.77275736195E+03  0.77275736196E+03  0.25500000920E-02 0.  1.
    10030    2    1    2    0    0  0.00000000000E+00  0.00000000000E+00 -0.54688482824E+03  0.99862989568E+03  0.83557085468E+03 0.  0.
        3    1    3    3  502    0  0.29720423321E+03  0.28582361758E+03 -0.35378577047E+03  0.54331379349E+03  0.10100000352E+00 0.  1.
       -3    1    3    3    0  502 -0.29720423321E+03 -0.28582361758E+03 -0.19309905778E+03  0.45531610220E+03  0.10100000352E+00 0. -1.
</event>
<event>
 5   0  0.2705111E-02  0.9675382E+03  0.7818609E-02  0.9344883E-01
       -2   -1    0    0    0  501  0.00000000000E+00  0.00000000000E+00  0.19614049861E+03  0.19614049862E+03  0.25500000920E-02 0.  1.
        2   -1    0    0  501    0  0.00000000000E+00  0.00000000000E+00 -0.11931881692E+04  0.11931881692E+04  0.25500000920E-02 0. -1.
    10030    2    1    2    0    0  0.00000000000E+00  0.00000000000E+00 -0.99704767064E+03  0.13893286679E+04  0.96753815937E+03 0.  0.
        4    1    3    3  502    0  0.18025203549E+03  0.25860147335E+03  0.28420685809E+02  0.31650413362E+03  0.12699999809E+01 0.  1.
       -4    1    3    3    0  502 -0.18025203549E+03 -0.25860147335E+03 -0.10254683565E+04  0.10728245343E+04  0.12699999809E+01 0. -1.
</event>
<event>
 5   0  0.1559275E-02  0.8852879E+03  0.7818609E-02  0.9444161E-01
       -1   -1    0    0    0  501  0.00000000000E+00  0.00000000000E+00  0.29091217241E+03  0.29091217245E+03  0.50400001928E-02 0.  1.
        1   -1    0    0  501    0  0.00000000000E+00  0.00000000000E+00 -0.67351486946E+03  0.67351486948E+03  0.50400001928E-02 0. -1.
    10030    2    1    2    0    0  0.00000000000E+00  0.00000000000E+00 -0.38260269705E+03  0.96442704194E+03  0.88528791668E+03 0.  0.
        1    1    3    3  502    0  0.43279307711E+03  0.91639828449E+02 -0.20767736970E+03  0.48871013460E+03  0.50400001928E-02 0.  1.
       -1    1    3    3    0  502 -0.43279307711E+03 -0.91639828449E+02 -0.17492532735E+03  0.47571690734E+03  0.50400001928E-02 0. -1.
</event>
<event>
 5   0  0.2705111E-02  0.9426394E+03  0.7818609E-02  0.9373796E-01
        2   -1    0    0  501    0  0.00000000000E+00  0.00000000000E+00  0.13790843736E+04  0.13790843736E+04  0.25500000920E-02 0. -1.
       -2   -1    0    0    0  501  0.00000000000E+00  0.00000000000E+00 -0.16107952780E+03  0.16107952782E+03  0.25500000920E-02 0.  1.
    10030    2    1    2    0    0  0.00000000000E+00  0.00000000000E+00  0.12180048458E+04  0.15401639015E+04  0.94263940024E+03 0.  0.
        4    1    3    3  502    0 -0.25668400870E+03  0.10421171434E+03 -0.14006723438E+02  0.27738882986E+03  0.12699999809E+01 0.  1.
       -4    1    3    3    0  502  0.25668400870E+03 -0.10421171434E+03  0.12320115693E+04  0.12627750716E+04  0.12699999809E+01 0. -1.
</event>
<event>
 5   0  0.1560728E-02  0.8375790E+03  0.7818609E-02  0.9507161E-01
        1   -1    0    0  501    0  0.00000000000E+00  0.00000000000E+00  0.36467699639E+03  0.36467699642E+03  0.50400001928E-02 0. -1.
       -1   -1    0    0    0  501  0.00000000000E+00  0.00000000000E+00 -0.48093145805E+03  0.48093145808E+03  0.50400001928E-02 0.  1.
    10030    2    1    2    0    0  0.00000000000E+00  0.00000000000E+00 -0.11625446166E+03  0.84560845450E+03  0.83757898640E+03 0.  0.
        4    1    3    3  502    0  0.28854981700E+03  0.17143800299E+03  0.19473548061E+03  0.38804059848E+03  0.12699999809E+01 0. -1.
       -4    1    3    3    0  502 -0.28854981700E+03 -0.17143800299E+03 -0.31098994227E+03  0.45756785601E+03  0.12699999809E+01 0.  1.
</event>
<event>
 5   0  0.2679861E-02  0.9039736E+03  0.7818609E-02  0.9420628E-01
       -2   -1    0    0    0  501  0.00000000000E+00  0.00000000000E+00  0.39041509701E+03  0.39041509702E+03  0.25500000920E-02 0. -1.
        2   -1    0    0  501    0  0.00000000000E+00  0.00000000000E+00 -0.52326886300E+03  0.52326886300E+03  0.25500000920E-02 0.  1.
    10030    2    1    2    0    0  0.00000000000E+00  0.00000000000E+00 -0.13285376599E+03  0.91368396002E+03  0.90397359235E+03 0.  0.
        1    1    3    3  502    0  0.36893386506E+03  0.22894626037E+03  0.60474473772E+02  0.43838995076E+03  0.50400001928E-02 0. -1.
       -1    1    3    3    0  502 -0.36893386506E+03 -0.22894626037E+03 -0.19332823976E+03  0.47529400926E+03  0.50400001928E-02 0.  1.
</event>
<event>
 5   0  0.1497410E-02  0.9617316E+03  0.7818609E-02  0.9351542E-01
        1   -1    0    0  501    0  0.00000000000E+00  0.00000000000E+00  0.58986588042E+03  0.58986588044E+03  0.50400001928E-02 0.  1.
       -1   -1    0    0    0  501  0.00000000000E+00  0.00000000000E+00 -0.39200763966E+03  0.39200763970E+03  0.50400001928E-02 0. -1.
    10030    2    1    2    0    0  0.00000000000E+00  0.00000000000E+00  0.19785824076E+03  0.98187352014E+03  0.96173162895E+03 0.  0.
        3    1    3    3  502    0 -0.10974626010E+03  0.44286231357E+02  0.57476584843E+03  0.58682305904E+03  0.10100000352E+00 0.  1.
       -3    1    3    3    0  502  0.10974626010E+03 -0.44286231357E+02 -0.37690760767E+03  0.39505046110E+03  0.10100000352E+00 0. -1.
</event>
<event>
 5   0  0.2414128E-02  0.8915437E+03  0.7818609E-02  0.9436214E-01
       -2   -1    0    0    0  501  0.00000000000E+00  0.00000000000E+00  0.21668240267E+03  0.21668240268E+03  0.25500000920E-02 0.  1.
        2   -1    0    0  501    0  0.00000000000E+00  0.00000000000E+00 -0.91706811728E+03  0.91706811729E+03  0.25500000920E-02 0. -1.
    10030    2    1    2    0    0  0.00000000000E+00  0.00000000000E+00 -0.70038571462E+03  0.11337505200E+04  0.89154365697E+03 0.  0.
        3    1    3    3  502    0 -0.16904219825E+03  0.39053614231E+03 -0.51898906037E+03  0.67115080141E+03  0.10100000352E+00 0.  1.
       -3    1    3    3    0  502  0.16904219825E+03 -0.39053614231E+03 -0.18139665424E+03  0.46259971856E+03  0.10100000352E+00 0. -1.
</event>
<event>
 5   0  0.1537870E-02  0.8765141E+03  0.7818609E-02  0.9455426E-01
        1   -1    0    0  501    0  0.00000000000E+00  0.00000000000E+00  0.10627847276E+04  0.10627847276E+04  0.50400001928E-02 0.  1.
       -1   -1    0    0    0  501  0.00000000000E+00  0.00000000000E+00 -0.18072260728E+03  0.18072260735E+03  0.50400001928E-02 0. -1.
    10030    2    1    2    0    0  0.00000000000E+00  0.00000000000E+00  0.88206212034E+03  0.12435073350E+04  0.87651406606E+03 0.  0.
        5    1    3    3  502    0 -0.39085382719E+03 -0.42707558305E+02  0.71560099731E+03  0.81651547880E+03  0.46999998093E+01 0. -1.
       -5    1    3    3    0  502  0.39085382719E+03  0.42707558305E+02  0.16646112303E+03  0.42699185618E+03  0.46999998093E+01 0.  1.
</event>
<event>
 5   0  0.2679861E-02  0.8921137E+03  0.7818609E-02  0.9435494E-01
        2   -1    0    0  501    0  0.00000000000E+00  0.00000000000E+00  0.82805707704E+03  0.82805707704E+03  0.25500000920E-02 0.  1.
       -2   -1    0    0    0  501  0.00000000000E+00  0.00000000000E+00 -0.24028139315E+03  0.24028139316E+03  0.25500000920E-02 0. -1.
    10030    2    1    2    0    0  0.00000000000E+00  0.00000000000E+00  0.58777568389E+03  0.10683384702E+04  0.89211368801E+03 0.  0.
        1    1    3    3  502    0 -0.29191221446E+03 -0.15694403097E+03  0.65139310348E+03  0.73086055106E+03  0.50400001928E-02 0. -1.
       -1    1    3    3    0  502  0.29191221446E+03  0.15694403097E+03 -0.63617419594E+02  0.33747791914E+03  0.50400001928E-02 0.  1.
</event>
<event>
 5   0  0.2414128E-02  0.9501758E+03  0.7818609E-02  0.9364945E-01
       -2   -1    0    0    0  501  0.00000000000E+00  0.00000000000E+00  0.84573557583E+03  0.84573557584E+03  0.25500000920E-02 0. -1.
        2   -1    0    0  501    0  0.00000000000E+00  0.00000000000E+00 -0.26687832224E+03  0.26687832226E+03  0.25500000920E-02 0.  1.
    10030    2    1    2    0    0  0.00000000000E+00  0.00000000000E+00  0.57885725359E+03  0.11126138981E+04  0.95017575543E+03 0.  0.
        3    1    3    3  502    0 -0.41922278024E+03  0.11093425105E+03  0.51664939300E+03  0.67452261120E+03  0.10100000352E+00 0. -1.
       -3    1    3    3    0  502  0.41922278024E+03 -0.11093425105E+03  0.62207860589E+02  0.43809128689E+03  0.10100000352E+00 0.  1.
</event>
<event>
 5   0  0.1537870E-02  0.9147869E+03  0.7818609E-02  0.9407284E-01
        1   -1    0    0  501    0  0.00000000000E+00  0.00000000000E+00  0.50306224061E+03  0.50306224064E+03  0.50400001928E-02 0.  1.
       -1   -1    0    0    0  501  0.00000000000E+00  0.00000000000E+00 -0.41587056097E+03  0.41587056100E+03  0.50400001928E-02 0. -1.
    10030    2    1    2    0    0  0.00000000000E+00  0.00000000000E+00  0.87191679645E+02  0.91893280163E+03  0.91478691777E+03 0.  0.
        5    1    3    3  502    0  0.35674896863E+03  0.16345082372E+03  0.27960890952E+03  0.48186017752E+03  0.46999998093E+01 0.  1.
       -5    1    3    3    0  502 -0.35674896863E+03 -0.16345082372E+03 -0.19241722987E+03  0.43707262411E+03  0.46999998093E+01 0. -1.
</event>
<event>
 5   0  0.1560728E-02  0.8981418E+03  0.7818609E-02  0.9427907E-01
        1   -1    0    0  501    0  0.00000000000E+00  0.00000000000E+00  0.43749350689E+03  0.43749350692E+03  0.50400001928E-02 0. -1.
       -1   -1    0    0    0  501  0.00000000000E+00  0.00000000000E+00 -0.46095461763E+03  0.46095461766E+03  0.50400001928E-02 0.  1.
    10030    2    1    2    0    0  0.00000000000E+00  0.00000000000E+00 -0.23461110737E+02  0.89844812457E+03  0.89814175320E+03 0.  0.
        4    1    3    3  502    0  0.31342221030E+03 -0.21086595928E+03  0.23117959154E+03  0.44288096723E+03  0.12699999809E+01 0. -1.
       -4    1    3    3    0  502 -0.31342221030E+03  0.21086595928E+03 -0.25464070228E+03  0.45556715734E+03  0.12699999809E+01 0.  1.
</event>
<event>
 5   0  0.1459111E-02  0.9022624E+03  0.7818609E-02  0.9422758E-01
       -1   -1    0    0    0  501  0.00000000000E+00  0.00000000000E+00  0.21771328962E+03  0.21771328968E+03  0.50400001928E-02 0.  1.
        1   -1    0    0  501    0  0.00000000000E+00  0.00000000000E+00 -0.93480451005E+03  0.93480451006E+03  0.50400001928E-02 0. -1.
    10030    2    1    2    0    0  0.00000000000E+00  0.00000000000E+00 -0.71709122043E+03  0.11525177997E+04  0.90226241210E+03 0.  0.
        2    1    3    3  502    0 -0.73957093446E+02 -0.16020184937E+03  0.17180688283E+03  0.24627604270E+03  0.25500000920E-02 0.  1.
       -2    1    3    3    0  502  0.73957093446E+02  0.16020184937E+03 -0.88889810326E+03  0.90624175704E+03  0.25500000920E-02 0. -1.
</event>
<event>
 5   0  0.2705111E-02  0.8480855E+03  0.7818609E-02  0.9492910E-01
       -2   -1    0    0    0  501  0.00000000000E+00  0.00000000000E+00  0.18852967633E+03  0.18852967634E+03  0.25500000920E-02 0. -1.
        2   -1    0    0  501    0  0.00000000000E+00  0.00000000000E+00 -0.95376104580E+03  0.95376104580E+03  0.25500000920E-02 0.  1.
    10030    2    1    2    0    0  0.00000000000E+00  0.00000000000E+00 -0.76523136947E+03  0.11422907221E+04  0.84808551755E+03 0.  0.
        4    1    3    3  502    0 -0.49192430175E+02  0.92674985802E+02  0.17076745778E+03  0.20042875471E+03  0.12699999809E+01 0. -1.
       -4    1    3    3    0  502  0.49192430175E+02 -0.92674985802E+02 -0.93599882725E+03  0.94186196743E+03  0.12699999809E+01 0.  1.
</event>
<event>
 5   0  0.2679861E-02  0.8480432E+03  0.7818609E-02  0.9492967E-01
       -2   -1    0    0    0  501  0.00000000000E+00  0.00000000000E+00  0.14461787952E+03  0.14461787954E+03  0.25500000920E-02 0. -1.
        2   -1    0    0  501    0  0.00000000000E+00  0.00000000000E+00 -0.12432370391E+04  0.12432370391E+04  0.25500000920E-02 0.  1.
    10030    2    1    2    0    0  0.00000000000E+00  0.00000000000E+00 -0.10986191596E+04  0.13878549186E+04  0.84804316955E+03 0.  0.
        1    1    3    3  502    0 -0.38301856543E+03  0.18161726251E+03 -0.53244030751E+03  0.68057382597E+03  0.50400001928E-02 0. -1.
       -1    1    3    3    0  502  0.38301856543E+03 -0.18161726251E+03 -0.56617885206E+03  0.70728109267E+03  0.50400001928E-02 0.  1.
</event>
<event>
 5   0  0.1559275E-02  0.9139811E+03  0.7818609E-02  0.9408271E-01
        1   -1    0    0  501    0  0.00000000000E+00  0.00000000000E+00  0.57356757818E+03  0.57356757820E+03  0.50400001928E-02 0.  1.
       -1   -1    0    0    0  501  0.00000000000E+00  0.00000000000E+00 -0.36410770194E+03  0.36410770198E+03  0.50400001928E-02 0. -1.
    10030    2    1    2    0    0  0.00000000000E+00  0.00000000000E+00  0.20945987623E+03  0.93767528018E+03  0.91398112196E+03 0.  0.
        1    1    3    3  502    0  0.32529677955E+03  0.32085508213E+03  0.11357875128E+03  0.47081430658E+03  0.50400001928E-02 0.  1.
       -1    1    3    3    0  502 -0.32529677955E+03 -0.32085508213E+03  0.95881124954E+02  0.46686097359E+03  0.50400001928E-02 0. -1.
</event>
<event>
 5   0  0.2803717E-02  0.9891754E+03  0.7818609E-02  0.9320497E-01
        2   -1    0    0  501    0  0.00000000000E+00  0.00000000000E+00  0.12448047383E+04  0.12448047383E+04  0.25500000920E-02 0. -1.
       -2   -1    0    0    0  501  0.00000000000E+00  0.00000000000E+00 -0.19651032579E+03  0.19651032580E+03  0.25500000920E-02 0.  1.
    10030    2    1    2    0    0  0.00000000000E+00  0.00000000000E+00  0.10482944125E+04  0.14413150641E+04  0.98917538319E+03 0.  0.
        5    1    3    3  502    0  0.11738958606E+03 -0.31798378476E+03  0.10489028377E+04  0.11023217567E+04  0.46999998093E+01 0. -1.
       -5    1    3    3    0  502 -0.11738958606E+03  0.31798378476E+03 -0.60842522716E+00  0.33899330740E+03  0.46999998093E+01 0.  1.
</event>
<event>
 5   0  0.1560728E-02  0.8985969E+03  0.7818609E-02  0.9427337E-01
        1   -1    0    0  501    0  0.00000000000E+00  0.00000000000E+00  0.25410790600E+03  0.25410790605E+03  0.50400001928E-02 0. -1.
       -1   -1    0    0    0  501  0.00000000000E+00  0.00000000000E+00 -0.79442271970E+03  0.79442271971E+03  0.50400001928E-02 0.  1.
    10030    2    1    2    0    0  0.00000000000E+00  0.00000000000E+00 -0.54031481370E+03  0.10485306258E+04  0.89859689253E+03 0.  0.
        4    1    3    3  502    0  0.35131486964E+03 -0.16533113612E+03 -0.53395645322E+03  0.66020271813E+03  0.12699999809E+01 0.  1.
       -4    1    3    3    0  502 -0.35131486964E+03  0.16533113612E+03 -0.63583604781E+01  0.38832790763E+03  0.12699999809E+01 0. -1.
</event>
<event>
 5   0  0.1497410E-02  0.8940922E+03  0.7818609E-02  0.9432997E-01
        1   -1    0    0  501    0  0.00000000000E+00  0.00000000000E+00  0.70483390033E+03  0.70483390034E+03  0.50400001928E-02 0.  1.
       -1   -1    0    0    0  501  0.00000000000E+00  0.00000000000E+00 -0.28354225646E+03  0.28354225651E+03  0.50400001928E-02 0. -1.
    10030    2    1    2    0    0  0.00000000000E+00  0.00000000000E+00  0.42129164386E+03  0.98837615685E+03  0.89409215310E+03 0.  0.
        3    1    3    3  502    0 -0.88861390224E+02 -0.36414822446E+03  0.47995428594E+03  0.60897980496E+03  0.10100000352E+00 0.  1.
       -3    1    3    3    0  502  0.88861390224E+02  0.36414822446E+03 -0.58662642077E+02  0.37939635189E+03  0.10100000352E+00 0. -1.
</event>
<event>
 5   0  0.1040163E-02  0.8887069E+03  0.7818609E-02  0.9439809E-01
        3   -1    0    0  501    0  0.00000000000E+00  0.00000000000E+00  0.15467234268E+04  0.15467234301E+04  0.10100000352E+00 0. -1.
       -3   -1    0    0    0  501  0.00000000000E+00  0.00000000000E+00 -0.12765692278E+03  0.12765696273E+03  0.10100000352E+00 0.  1.
    10030    2    1    2    0    0  0.00000000000E+00  0.00000000000E+00  0.14190665040E+04  0.16743803929E+04  0.88870690167E+03 0.  0.
        2    1    3    3  502    0  0.28095071798E+03  0.15474358233E+03  0.12889283457E+04  0.13282376153E+04  0.25500000920E-02 0. -1.
       -2    1    3    3    0  502 -0.28095071798E+03 -0.15474358233E+03  0.13013815830E+03  0.34614277756E+03  0.25500000920E-02 0.  1.
</event>
<event>
 5   0  0.1459111E-02  0.8996137E+03  0.7818609E-02  0.9426065E-01
        1   -1    0    0  501    0  0.00000000000E+00  0.00000000000E+00  0.63493737833E+03  0.63493737835E+03  0.50400001928E-02 0. -1.
       -1   -1    0    0    0  501  0.00000000000E+00  0.00000000000E+00 -0.31865533113E+03  0.31865533116E+03  0.50400001928E-02 0.  1.
    10030    2    1    2    0    0  0.00000000000E+00  0.00000000000E+00  0.31628204720E+03  0.95359270951E+03  0.89961365166E+03 0.  0.
        2    1    3    3  502    0 -0.11357969764E+03  0.32500596682E+03  0.46498740215E+03  0.57856936520E+03  0.25500000920E-02 0. -1.
       -2    1    3    3    0  502  0.11357969764E+03 -0.32500596682E+03 -0.14870535494E+03  0.37502334431E+03  0.25500000920E-02 0.  1.
</event>
<event>
 5   0  0.1040163E-02  0.1069151E+04  0.7818609E-02  0.9235793E-01
        3   -1    0    0  501    0  0.00000000000E+00  0.00000000000E+00  0.16824264861E+04  0.16824264892E+04  0.10100000352E+00 0.  1.
       -3   -1    0    0    0  501  0.00000000000E+00  0.00000000000E+00 -0.16985626127E+03  0.16985629130E+03  0.10100000352E+00 0. -1.
    10030    2    1    2    0    0  0.00000000000E+00  0.00000000000E+00  0.15125702249E+04  0.18522827805E+04  0.10691505103E+04 0.  0.
        4    1    3    3  502    0 -0.35633755627E+03 -0.35254127926E+03  0.10781131108E+04  0.11889454572E+04  0.12699999809E+01 0.  1.
       -4    1    3    3    0  502  0.35633755627E+03  0.35254127926E+03  0.43445711403E+03  0.66333732325E+03  0.12699999809E+01 0. -1.
</event>
<event>
 5   0  0.2705111E-02  0.8981680E+03  0.7818609E-02  0.9427874E-01
       -2   -1    0    0    0  501  0.00000000000E+00  0.00000000000E+00  0.16674773096E+03  0.16674773098E+03  0.25500000920E-02 0.  1.
        2   -1    0    0  501    0  0.00000000000E+00  0.00000000000E+00 -0.12094703619E+04  0.12094703619E+04  0.25500000920E-02 0. -1.
    10030    2    1    2    0    0  0.00000000000E+00  0.00000000000E+00 -0.10427226310E+04  0.13762180929E+04  0.89816799884E+03 0.  0.
        4    1    3    3  502    0  0.31783192066E+02  0.38601056960E+03 -0.86962562134E+03  0.95197934082E+03  0.12699999809E+01 0.  1.
       -4    1    3    3    0  502 -0.31783192066E+02 -0.38601056960E+03 -0.17309700963E+03  0.42423875210E+03  0.12699999809E+01 0. -1.
</event>
<event>
 5   0  0.1559275E-02  0.9106038E+03  0.7818609E-02  0.9412422E-01
        1   -1    0    0  501    0  0.00000000000E+00  0.00000000000E+00  0.53266346206E+03  0.53266346208E+03  0.50400001928E-02 0. -1.
       -1   -1    0    0    0  501  0.00000000000E+00  0.00000000000E+00 -0.38917593157E+03  0.38917593161E+03  0.50400001928E-02 0.  1.
    10030    2    1    2    0    0  0.00000000000E+00  0.00000000000E+00  0.14348753049E+03  0.92183939369E+03  0.91060375376E+03 0.  0.
        1    1    3    3  502    0 -0.14679372127E+03 -0.32551583424E+03  0.35770183492E+03  0.50543007199E+03  0.50400001928E-02 0. -1.
       -1    1    3    3    0  502  0.14679372127E+03  0.32551583424E+03 -0.21421430444E+03  0.41640932170E+03  0.50400001928E-02 0.  1.
</event>
<event>
 5   0  0.1497410E-02  0.9004031E+03  0.7818609E-02  0.9425078E-01
       -1   -1    0    0    0  501  0.00000000000E+00  0.00000000000E+00  0.65940123483E+03  0.65940123485E+03  0.50400001928E-02 0.  1.
        1   -1    0    0  501    0  0.00000000000E+00  0.00000000000E+00 -0.30737192906E+03  0.30737192910E+03  0.50400001928E-02 0. -1.
    10030    2    1    2    0    0  0.00000000000E+00  0.00000000000E+00  0.35202930577E+03  0.96677316394E+03  0.90040308662E+03 0.  0.
        3    1    3    3  502    0 -0.14859855727E+03 -0.10628049383E+03 -0.26578122883E+03  0.32251627306E+03  0.10100000352E+00 0. -1.
       -3    1    3    3    0  502  0.14859855727E+03  0.10628049383E+03  0.61781053460E+03  0.64425689088E+03  0.10100000352E+00 0.  1.
</event>
<event>
 5   0  0.2628383E-02  0.8857094E+03  0.7818609E-02  0.9443624E-01
       -2   -1    0    0    0  501  0.00000000000E+00  0.00000000000E+00  0.28721370930E+03  0.28721370931E+03  0.25500000920E-02 0.  1.
        2   -1    0    0  501    0  0.00000000000E+00  0.00000000000E+00 -0.68283741346E+03  0.68283741347E+03  0.25500000920E-02 0. -1.
    10030    2    1    2    0    0  0.00000000000E+00  0.00000000000E+00 -0.39562370416E+03  0.97005112277E+03  0.88570935724E+03 0.  0.
        2    1    3    3  502    0  0.29631978126E+03  0.39031215539E+02 -0.55571998404E+03  0.63099409602E+03  0.25500000920E-02 0. -1.
       -2    1    3    3    0  502 -0.29631978126E+03 -0.39031215539E+02  0.16009627987E+03  0.33905702675E+03  0.25500000920E-02 0.  1.
</event>
<event>
 5   0  0.2705111E-02  0.9184813E+03  0.7818609E-02  0.9402769E-01
       -2   -1    0    0    0  501  0.00000000000E+00  0.00000000000E+00  0.11154381463E+03  0.11154381466E+03  0.25500000920E-02 0.  1.
        2   -1    0    0  501    0  0.00000000000E+00  0.00000000000E+00 -0.18907547472E+04  0.18907547472E+04  0.25500000920E-02 0. -1.
    10030    2    1    2    0    0  0.00000000000E+00  0.00000000000E+00 -0.17792109326E+04  0.20022985619E+04  0.91848134887E+03 0.  0.
        4    1    3    3  502    0 -0.95389807849E+02 -0.33187562358E+03 -0.22959958996E+03  0.41467846529E+03  0.12699999809E+01 0.  1.
       -4    1    3    3    0  502  0.95389807849E+02  0.33187562358E+03 -0.15496113426E+04  0.15876200966E+04  0.12699999809E+01 0. -1.
</event>
<event>
 5   0  0.1537870E-02  0.8956145E+03  0.7818609E-02  0.9431080E-01
        1   -1    0    0  501    0  0.00000000000E+00  0.00000000000E+00  0.32456901510E+03  0.32456901514E+03  0.50400001928E-02 0.  1.
       -1   -1    0    0    0  501  0.00000000000E+00  0.00000000000E+00 -0.61783883263E+03  0.61783883265E+03  0.50400001928E-02 0. -1.
    10030    2    1    2    0    0  0.00000000000E+00  0.00000000000E+00 -0.29326981753E+03  0.94240784779E+03  0.89561451847E+03 0.  0.
        5    1    3    3  502    0 -0.28753903765E+02 -0.33780296247E+03 -0.45444485809E+03  0.56699192893E+03  0.46999998093E+01 0. -1.
       -5    1    3    3    0  502  0.28753903765E+02  0.33780296247E+03  0.16117504055E+03  0.37541591886E+03  0.46999998093E+01 0.  1.
</event>
<event>
 5   0  0.2705111E-02  0.9061585E+03  0.7818609E-02  0.9417916E-01
        2   -1    0    0  501    0  0.00000000000E+00  0.00000000000E+00  0.13444670360E+04  0.13444670360E+04  0.25500000920E-02 0. -1.
       -2   -1    0    0    0  501  0.00000000000E+00  0.00000000000E+00 -0.15268563028E+03  0.15268563031E+03  0.25500000920E-02 0.  1.
    10030    2    1    2    0    0  0.00000000000E+00  0.00000000000E+00  0.11917814057E+04  0.14971526663E+04  0.90615847798E+03 0.  0.
        4    1    3    3  502    0 -0.31294517347E+03  0.19805698463E+02  0.55563459100E+02  0.31845856587E+03  0.12699999809E+01 0.  1.
       -4    1    3    3    0  502  0.31294517347E+03 -0.19805698463E+02  0.11362179466E+04  0.11786941004E+04  0.12699999809E+01 0. -1.
</event>
<event>
 5   0  0.1459111E-02  0.9487954E+03  0.7818609E-02  0.9366560E-01
       -1   -1    0    0    0  501  0.00000000000E+00  0.00000000000E+00  0.17970030778E+03  0.17970030785E+03  0.50400001928E-02 0.  1.
        1   -1    0    0  501    0  0.00000000000E+00  0.00000000000E+00 -0.12523804614E+04  0.12523804614E+04  0.50400001928E-02 0. -1.
    10030    2    1    2    0    0  0.00000000000E+00  0.00000000000E+00 -0.10726801536E+04  0.14320807693E+04  0.94879535080E+03 0.  0.
        2    1    3    3  502    0 -0.26942620185E+03 -0.27301964721E+03 -0.95767518949E+03  0.10316355823E+04  0.25500000920E-02 0. -1.
       -2    1    3    3    0  502  0.26942620185E+03  0.27301964721E+03 -0.11500496413E+03  0.40044518699E+03  0.25500000920E-02 0.  1.
</event>
<event>
 5   0  0.2803717E-02  0.8863978E+03  0.7818609E-02  0.9442746E-01
       -2   -1    0    0    0  501  0.00000000000E+00  0.00000000000E+00  0.49113264804E+03  0.49113264805E+03  0.25500000920E-02 0.  1.
        2   -1    0    0  501    0  0.00000000000E+00  0.00000000000E+00 -0.39994342511E+03  0.39994342512E+03  0.25500000920E-02 0. -1.
    10030    2    1    2    0    0  0.00000000000E+00  0.00000000000E+00  0.91189222924E+02  0.89107607317E+03  0.88639781915E+03 0.  0.
        5    1    3    3  502    0  0.32829523266E+02  0.35470763668E+03 -0.21944035940E+03  0.41841539939E+03  0.46999998093E+01 0. -1.
       -5    1    3    3    0  502 -0.32829523266E+02 -0.35470763668E+03  0.31062958233E+03  0.47266067377E+03  0.46999998093E+01 0.  1.
</event>
<event>
 5   0  0.1459111E-02  0.8544073E+03  0.7818609E-02  0.9484441E-01
        1   -1    0    0  501    0  0.00000000000E+00  0.00000000000E+00  0.72013649173E+03  0.72013649174E+03  0.50400001928E-02 0. -1.
       -1   -1    0    0    0  501  0.00000000000E+00  0.00000000000E+00 -0.25342827011E+03  0.25342827016E+03  0.50400001928E-02 0.  1.
    10030    2    1    2    0    0  0.00000000000E+00  0.00000000000E+00  0.46670822162E+03  0.97356476190E+03  0.85440726909E+03 0.  0.
        2    1    3    3  502    0 -0.26291510195E+03 -0.93316503003E+02 -0.13529426087E+03  0.31005944203E+03  0.25500000920E-02 0.  1.
       -2    1    3    3    0  502  0.26291510195E+03  0.93316503003E+02  0.60200248249E+03  0.66350531987E+03  0.25500000920E-02 0. -1.
</event>
<event>
 5   0  0.2414128E-02  0.8677976E+03  0.7818609E-02  0.9466756E-01
       -2   -1    0    0    0  501  0.00000000000E+00  0.00000000000E+00  0.28203857581E+03  0.28203857582E+03  0.25500000920E-02 0.  1.
        2   -1    0    0  501    0  0.00000000000E+00  0.00000000000E+00 -0.66752629809E+03  0.66752629809E+03  0.25500000920E-02 0. -1.
    10030    2    1    2    0    0  0.00000000000E+00  0.00000000000E+00 -0.38548772227E+03  0.94956487392E+03  0.86779759492E+03 0.  0.
        3    1    3    3  502    0 -0.13841074218E+03  0.36162645700E+02 -0.64097901222E+03  0.65674909577E+03  0.10100000352E+00 0. -1.
       -3    1    3    3    0  502  0.13841074218E+03 -0.36162645700E+02  0.25549128994E+03  0.29281577815E+03  0.10100000352E+00 0.  1.
</event>
<event>
 5   0  0.1040163E-02  0.9444532E+03  0.7818609E-02  0.9371658E-01
       -4   -1    0    0    0  501  0.00000000000E+00  0.00000000000E+00  0.51271400454E+03  0.51271557744E+03  0.12699999809E+01 0.  1.
        4   -1    0    0  501    0  0.00000000000E+00  0.00000000000E+00 -0.43493316079E+03  0.43493501497E+03  0.12699999809E+01 0. -1.
    10030    2    1    2    0    0  0.00000000000E+00  0.00000000000E+00  0.77780843753E+02  0.94765059242E+03  0.94445316753E+03 0.  0.
        2    1    3    3  502    0  0.13179992660E+03 -0.15947048558E+03 -0.38704156041E+03  0.43886584045E+03  0.25500000920E-02 0. -1.
       -2    1    3    3    0  502 -0.13179992660E+03  0.15947048558E+03  0.46482240416E+03  0.50878475197E+03  0.25500000920E-02 0.  1.
</event>
<event>
 5   0  0.2628383E-02  0.8699417E+03  0.7818609E-02  0.9463956E-01
        2   -1    0    0  501    0  0.00000000000E+00  0.00000000000E+00  0.46261764486E+03  0.46261764487E+03  0.25500000920E-02 0. -1.
       -2   -1    0    0    0  501  0.00000000000E+00  0.00000000000E+00 -0.40897627807E+03  0.40897627808E+03  0.25500000920E-02 0.  1.
    10030    2    1    2    0    0  0.00000000000E+00  0.00000000000E+00  0.53641366795E+02  0.87159392295E+03  0.86994170511E+03 0.  0.
        2    1    3    3  502    0 -0.16956023570E+03 -0.75413324757E+02  0.42096559796E+03  0.46005421175E+03  0.25500000920E-02 0. -1.
       -2    1    3    3    0  502  0.16956023570E+03  0.75413324757E+02 -0.36732423116E+03  0.41153971119E+03  0.25500000920E-02 0.  1.
</event>
<event>
 5   0  0.1537870E-02  0.7021287E+03  0.7818609E-02  0.9713599E-01
       -1   -1    0    0    0  501  0.00000000000E+00  0.00000000000E+00  0.91923581538E+02  0.91923581676E+02  0.50400001928E-02 0.  1.
        1   -1    0    0  501    0  0.00000000000E+00  0.00000000000E+00 -0.13407459933E+04  0.13407459933E+04  0.50400001928E-02 0. -1.
    10030    2    1    2    0    0  0.00000000000E+00  0.00000000000E+00 -0.12488224117E+04  0.14326695750E+04  0.70212868832E+03 0.  0.
        5    1    3    3  502    0 -0.10365138659E+03  0.13838172769E+03 -0.12477759161E+04  0.12597062908E+04  0.46999998093E+01 0. -1.
       -5    1    3    3    0  502  0.10365138659E+03 -0.13838172769E+03 -0.10464956770E+01  0.17296328411E+03  0.46999998093E+01 0.  1.
</event>
<event>
 5   0  0.2705111E-02  0.8934345E+03  0.7818609E-02  0.9433826E-01
        2   -1    0    0  501    0  0.00000000000E+00  0.00000000000E+00  0.54432100662E+03  0.54432100663E+03  0.25500000920E-02 0. -1.
       -2   -1    0    0    0  501  0.00000000000E+00  0.00000000000E+00 -0.36661510164E+03  0.36661510165E+03  0.25500000920E-02 0.  1.
    10030    2    1    2    0    0  0.00000000000E+00  0.00000000000E+00  0.17770590498E+03  0.91093610828E+03  0.89343449939E+03 0.  0.
        4    1    3    3  502    0 -0.25443392791E+03  0.15415273405E+03  0.42863016994E+03  0.52175197611E+03  0.12699999809E+01 0. -1.
       -4    1    3    3    0  502  0.25443392791E+03 -0.15415273405E+03 -0.25092426496E+03  0.38918413217E+03  0.12699999809E+01 0.  1.
</event>
<event>
 5   0  0.2803717E-02  0.8957529E+03  0.7818609E-02  0.9430906E-01
       -2   -1    0    0    0  501  0.00000000000E+00  0.00000000000E+00  0.68234454953E+03  0.68234454953E+03  0.25500000920E-02 0.  1.
        2   -1    0    0  501    0  0.00000000000E+00  0.00000000000E+00 -0.29397659430E+03  0.29397659431E+03  0.25500000920E-02 0. -1.
    10030    2    1    2    0    0  0.00000000000E+00  0.00000000000E+00  0.38836795522E+03  0.97632114384E+03  0.89575292758E+03 0.  0.
        5    1    3    3  502    0 -0.14660887151E+03 -0.24427482893E+03 -0.18244969087E+03  0.33834055766E+03  0.46999998093E+01 0. -1.
       -5    1    3    3    0  502  0.14660887151E+03  0.24427482893E+03  0.57081764610E+03  0.63798058619E+03  0.46999998093E+01 0.  1.
</event>
<event>
 5   0  0.1560728E-02  0.9275265E+03  0.7818609E-02  0.9391811E-01
       -1   -1    0    0    0  501  0.00000000000E+00  0.00000000000E+00  0.14916588092E+03  0.14916588101E+03  0.50400001928E-02 0. -1.
        1   -1    0    0  501    0  0.00000000000E+00  0.00000000000E+00 -0.14418603621E+04  0.14418603621E+04  0.50400001928E-02 0.  1.
    10030    2    1    2    0    0  0.00000000000E+00  0.00000000000E+00 -0.12926944812E+04  0.15910262431E+04  0.92752654120E+03 0.  0.
        4    1    3    3  502    0  0.34214543408E+03 -0.31282115549E+03 -0.62504761958E+03  0.77820737148E+03  0.12699999809E+01 0. -1.
       -4    1    3    3    0  502 -0.34214543408E+03  0.31282115549E+03 -0.66764686162E+03  0.81281887165E+03  0.12699999809E+01 0.  1.
</event>
<event>
 5   0  0.1040163E-02  0.8837371E+03  0.7818609E-02  0.9446142E-01
       -4   -1    0    0    0  501  0.00000000000E+00  0.00000000000E+00  0.65374955261E+03  0.65375078618E+03  0.12699999809E+01 0.  1.
        4   -1    0    0  501    0  0.00000000000E+00  0.00000000000E+00 -0.29865558561E+03  0.29865828586E+03  0.12699999809E+01 0. -1.
    10030    2    1    2    0    0  0.00000000000E+00  0.00000000000E+00  0.35509396700E+03  0.95240907204E+03  0.88373713010E+03 0.  0.
        4    1    3    3  502    0  0.12344733792E+03 -0.41810833622E+03  0.25520460172E+03  0.50515822045E+03  0.12699999809E+01 0. -1.
       -4    1    3    3    0  502 -0.12344733792E+03  0.41810833622E+03  0.99889365279E+02  0.44725085159E+03  0.12699999809E+01 0.  1.
</event>
<event>
 5   0  0.2803717E-02  0.8865129E+03  0.7818609E-02  0.9442600E-01
       -2   -1    0    0    0  501  0.00000000000E+00  0.00000000000E+00  0.15897829246E+03  0.15897829248E+03  0.25500000920E-02 0. -1.
        2   -1    0    0  501    0  0.00000000000E+00  0.00000000000E+00 -0.12358686609E+04  0.12358686609E+04  0.25500000920E-02 0.  1.
    10030    2    1    2    0    0  0.00000000000E+00  0.00000000000E+00 -0.10768903684E+04  0.13948469534E+04  0.88651292020E+03 0.  0.
        5    1    3    3  502    0  0.33407311773E+03 -0.17978419022E+03 -0.89905103803E+03  0.97582891022E+03  0.46999998093E+01 0.  1.
       -5    1    3    3    0  502 -0.33407311773E+03  0.17978419022E+03 -0.17783933038E+03  0.41901804313E+03  0.46999998093E+01 0. -1.
</event>
<event>
 5   0  0.1497410E-02  0.7734330E+03  0.7818609E-02  0.9599288E-01
        1   -1    0    0  501    0  0.00000000000E+00  0.00000000000E+00  0.74652660291E+03  0.74652660292E+03  0.50400001928E-02 0. -1.
       -1   -1    0    0    0  501  0.00000000000E+00  0.00000000000E+00 -0.20032726799E+03  0.20032726805E+03  0.50400001928E-02 0.  1.
    10030    2    1    2    0    0  0.00000000000E+00  0.00000000000E+00  0.54619933492E+03  0.94685387097E+03  0.77343295735E+03 0.  0.
        3    1    3    3  502    0  0.78324690528E+02 -0.62861935018E+02 -0.18408343171E+03  0.20969763959E+03  0.10100000352E+00 0.  1.
       -3    1    3    3    0  502 -0.78324690528E+02  0.62861935018E+02  0.73028276663E+03  0.73715623138E+03  0.10100000352E+00 0. -1.
</event>
<event>
 5   0  0.2679861E-02  0.8876386E+03  0.7818609E-02  0.9441167E-01
        2   -1    0    0  501    0  0.00000000000E+00  0.00000000000E+00  0.11289089199E+04  0.11289089199E+04  0.25500000920E-02 0.  1.
       -2   -1    0    0    0  501  0.00000000000E+00  0.00000000000E+00 -0.17448314994E+03  0.17448314996E+03  0.25500000920E-02 0. -1.
    10030    2    1    2    0    0  0.00000000000E+00  0.00000000000E+00  0.95442576995E+03  0.13033920699E+04  0.88763862997E+03 0.  0.
        1    1    3    3  502    0 -0.43344973587E+03  0.86369229390E+02  0.41779753814E+03  0.60818837560E+03  0.50400001928E-02 0. -1.
       -1    1    3    3    0  502  0.43344973587E+03 -0.86369229390E+02  0.53662823181E+03  0.69520369426E+03  0.50400001928E-02 0.  1.
</event>
<event>
 5   0  0.1559275E-02  0.1118332E+04  0.7818609E-02  0.9187506E-01
        1   -1    0    0  501    0  0.00000000000E+00  0.00000000000E+00  0.50373624409E+03  0.50373624412E+03  0.50400001928E-02 0. -1.
       -1   -1    0    0    0  501  0.00000000000E+00  0.00000000000E+00 -0.62069528407E+03  0.62069528409E+03  0.50400001928E-02 0.  1.
    10030    2    1    2    0    0  0.00000000000E+00  0.00000000000E+00 -0.11695903998E+03  0.11244315282E+04  0.11183321710E+04 0.  0.
        1    1    3    3  502    0  0.46499611407E+03 -0.22894715334E+03 -0.26945368132E+03  0.58416048439E+03  0.50400001928E-02 0.  1.
       -1    1    3    3    0  502 -0.46499611407E+03  0.22894715334E+03  0.15249464134E+03  0.54027104382E+03  0.50400001928E-02 0. -1.
</event>
<event>
 5   0  0.2679861E-02  0.8977313E+03  0.7818609E-02  0.9428422E-01
        2   -1    0    0  501    0  0.00000000000E+00  0.00000000000E+00  0.70728905066E+03  0.70728905067E+03  0.25500000920E-02 0. -1.
       -2   -1    0    0    0  501  0.00000000000E+00  0.00000000000E+00 -0.28486282284E+03  0.28486282285E+03  0.25500000920E-02 0.  1.
    10030    2    1    2    0    0  0.00000000000E+00  0.00000000000E+00  0.42242622782E+03  0.99215187352E+03  0.89773126390E+03 0.  0.
        1    1    3    3  502    0  0.13856049039E+03 -0.17421095316E+03 -0.21956762495E+03  0.31266340951E+03  0.50400001928E-02 0.  1.
       -1    1    3    3    0  502 -0.13856049039E+03  0.17421095316E+03  0.64199385277E+03  0.67948846401E+03  0.50400001928E-02 0. -1.
</event>
<event>
 5   0  0.2679861E-02  0.9082183E+03  0.7818609E-02  0.9415366E-01
       -2   -1    0    0    0  501  0.00000000000E+00  0.00000000000E+00  0.39066088472E+03  0.39066088473E+03  0.25500000920E-02 0. -1.
        2   -1    0    0  501    0  0.00000000000E+00  0.00000000000E+00 -0.52786222478E+03  0.52786222478E+03  0.25500000920E-02 0.  1.
    10030    2    1    2    0    0  0.00000000000E+00  0.00000000000E+00 -0.13720134006E+03  0.91852310951E+03  0.90821830801E+03 0.  0.
        1    1    3    3  502    0  0.10628405684E+03  0.20923815476E+03 -0.46177665480E+03  0.51799091217E+03  0.50400001928E-02 0.  1.
       -1    1    3    3    0  502 -0.10628405684E+03 -0.20923815476E+03  0.32457531474E+03  0.40053219735E+03  0.50400001928E-02 0. -1.
</event>
<event>
 5   0  0.2803717E-02  0.6784457E+03  0.7818609E-02  0.9754820E-01
       -2   -1    0    0    0  501  0.00000000000E+00  0.00000000000E+00  0.53152934327E+03  0.53152934328E+03  0.25500000920E-02 0.  1.
        2   -1    0    0  501    0  0.00000000000E+00  0.00000000000E+00 -0.21649256073E+03  0.21649256074E+03  0.25500000920E-02 0. -1.
    10030    2    1    2    0    0  0.00000000000E+00  0.00000000000E+00  0.31503678255E+03  0.74802190402E+03  0.67844571967E+03 0.  0.
        5    1    3    3  502    0 -0.14544816286E+03 -0.19578571210E+03  0.41740951556E+03  0.48346665534E+03  0.46999998093E+01 0.  1.
       -5    1    3    3    0  502  0.14544816286E+03  0.19578571210E+03 -0.10237273302E+03  0.26455524868E+03  0.46999998093E+01 0. -1.
</event>
<event>
 5   0  0.2414128E-02  0.9201215E+03  0.7818609E-02  0.9400772E-01
        2   -1    0    0  501    0  0.00000000000E+00  0.00000000000E+00  0.72453743586E+03  0.72453743587E+03  0.25500000920E-02 0.  1.
       -2   -1    0    0    0  501  0.00000000000E+00  0.00000000000E+00 -0.29212551839E+03  0.29212551840E+03  0.25500000920E-02 0. -1.
    10030    2    1    2    0    0  0.00000000000E+00  0.00000000000E+00  0.43241191748E+03  0.10166629543E+04  0.92012145731E+03 0.  0.
        3    1    3    3  502    0 -0.43672774788E+03 -0.10050477124E+03  0.10125402447E+03  0.45943957436E+03  0.10100000352E+00 0. -1.
       -3    1    3    3    0  502  0.43672774788E+03  0.10050477124E+03  0.33115789300E+03  0.55722337991E+03  0.10100000352E+00 0.  1.
</event>
<event>
 5   0  0.1459111E-02  0.8845752E+03  0.7818609E-02  0.9445071E-01
       -1   -1    0    0    0  501  0.00000000000E+00  0.00000000000E+00  0.13646198088E+03  0.13646198098E+03  0.50400001928E-02 0.  1.
        1   -1    0    0  501    0  0.00000000000E+00  0.00000000000E+00 -0.14335003821E+04  0.14335003821E+04  0.50400001928E-02 0. -1.
    10030    2    1    2    0    0  0.00000000000E+00  0.00000000000E+00 -0.12970384012E+04  0.15699623631E+04  0.88457515636E+03 0.  0.
        2    1    3    3  502    0  0.32373308468E+03 -0.15158724556E+03 -0.11107790945E+04  0.11668813136E+04  0.25500000920E-02 0. -1.
       -2    1    3    3    0  502 -0.32373308468E+03  0.15158724556E+03 -0.18625930669E+03  0.40308104950E+03  0.25500000920E-02 0.  1.
</event>
<event>
 5   0  0.1497410E-02  0.8681335E+03  0.7818609E-02  0.9466317E-01
        1   -1    0    0  501    0  0.00000000000E+00  0.00000000000E+00  0.61339150673E+03  0.61339150675E+03  0.50400001928E-02 0.  1.
       -1   -1    0    0    0  501  0.00000000000E+00  0.00000000000E+00 -0.30716753630E+03  0.30716753634E+03  0.50400001928E-02 0. -1.
    10030    2    1    2    0    0  0.00000000000E+00  0.00000000000E+00  0.30622397042E+03  0.92055904309E+03  0.86813353337E+03 0.  0.
        3    1    3    3  502    0 -0.83291340340E+02 -0.42296004922E+03  0.20698659223E+03  0.47820090985E+03  0.10100000352E+00 0. -1.
       -3    1    3    3    0  502  0.83291340340E+02  0.42296004922E+03  0.99237378190E+02  0.44235813324E+03  0.10100000352E+00 0.  1.
</event>
<event>
 5   0  0.1537870E-02  0.8691281E+03  0.7818609E-02  0.9465018E-01
       -1   -1    0    0    0  501  0.00000000000E+00  0.00000000000E+00  0.21522405693E+03  0.21522405699E+03  0.50400001928E-02 0. -1.
        1   -1    0    0  501    0  0.00000000000E+00  0.00000000000E+00 -0.87743859715E+03  0.87743859716E+03  0.50400001928E-02 0.  1.
    10030    2    1    2    0    0  0.00000000000E+00  0.00000000000E+00 -0.66221454021E+03  0.10926626542E+04  0.86912805645E+03 0.  0.
        5    1    3    3  502    0 -0.18416207953E+03 -0.38283429800E+02  0.16135751425E+03  0.24787018767E+03  0.46999998093E+01 0. -1.
       -5    1    3    3    0  502  0.18416207953E+03  0.38283429800E+02 -0.82357205446E+03  0.84479246648E+03  0.46999998093E+01 0.  1.
</event>
<event>
 5   0  0.1040163E-02  0.8980286E+03  0.7818609E-02  0.9428049E-01
        3   -1    0    0  501    0  0.00000000000E+00  0.00000000000E+00  0.16612592291E+03  0.16612595361E+03  0.10100000352E+00 0.  1.
       -3   -1    0    0    0  501  0.00000000000E+00  0.00000000000E+00 -0.12136203251E+04  0.12136203293E+04  0.10100000352E+00 0. -1.
    10030    2    1    2    0    0  0.00000000000E+00  0.00000000000E+00 -0.10474944022E+04  0.13797462829E+04  0.89802855334E+03 0.  0.
        1    1    3    3  502    0 -0.40378969497E+03 -0.99904464717E+02 -0.78351891807E+03  0.88709013907E+03  0.50400001928E-02 0. -1.
       -1    1    3    3    0  502  0.40378969497E+03  0.99904464717E+02 -0.26397548413E+03  0.49265614386E+03  0.50400001928E-02 0.  1.
</event>
<event>
 5   0  0.1459111E-02  0.8801797E+03  0.7818609E-02  0.9450703E-01
        1   -1    0    0  501    0  0.00000000000E+00  0.00000000000E+00  0.13850641706E+04  0.13850641706E+04  0.50400001928E-02 0. -1.
       -1   -1    0    0    0  501  0.00000000000E+00  0.00000000000E+00 -0.13983399593E+03  0.13983399602E+03  0.50400001928E-02 0.  1.
    10030    2    1    2    0    0  0.00000000000E+00  0.00000000000E+00  0.12452301747E+04  0.15248981666E+04  0.88017965818E+03 0.  0.
        2    1    3    3  502    0  0.29368020934E+03  0.21339334510E+02  0.11892612230E+04  0.12251716978E+04  0.25500000920E-02 0. -1.
       -2    1    3    3    0  502 -0.29368020934E+03 -0.21339334510E+02  0.55968951671E+02  0.29972646883E+03  0.25500000920E-02 0.  1.
</event>
<event>
 5   0  0.1559275E-02  0.9218354E+03  0.7818609E-02  0.9398690E-01
        1   -1    0    0  501    0  0.00000000000E+00  0.00000000000E+00  0.19014871205E+04  0.19014871205E+04  0.50400001928E-02 0.  1.
       -1   -1    0    0    0  501  0.00000000000E+00  0.00000000000E+00 -0.11172578046E+03  0.11172578058E+03  0.50400001928E-02 0. -1.
    10030    2    1    2    0    0  0.00000000000E+00  0.00000000000E+00  0.17897613401E+04  0.20132129011E+04  0.92183541416E+03 0.  0.
        1    1    3    3  502    0 -0.20150977025E+03  0.17562323873E+03  0.74833519137E+02  0.27757839451E+03  0.50400001928E-02 0. -1.
       -1    1    3    3    0  502  0.20150977025E+03 -0.17562323873E+03  0.17149278209E+04  0.17356345066E+04  0.50400001928E-02 0.  1.
</event>
<event>
 5   0  0.2679861E-02  0.9280837E+03  0.7818609E-02  0.9391141E-01
        2   -1    0    0  501    0  0.00000000000E+00  0.00000000000E+00  0.31502788011E+03  0.31502788012E+03  0.25500000920E-02 0. -1.
       -2   -1    0    0    0  501  0.00000000000E+00  0.00000000000E+00 -0.68354211164E+03  0.68354211164E+03  0.25500000920E-02 0.  1.
    10030    2    1    2    0    0  0.00000000000E+00  0.00000000000E+00 -0.36851423153E+03  0.99856999176E+03  0.92808366520E+03 0.  0.
        1    1    3    3  502    0 -0.16235692158E+03  0.26881107735E+03 -0.55184055904E+03  0.63493871193E+03  0.50400001928E-02 0.  1.
       -1    1    3    3    0  502  0.16235692158E+03 -0.26881107735E+03  0.18332632751E+03  0.36363127983E+03  0.50400001928E-02 0. -1.
</event>
<event>
 5   0  0.1497410E-02  0.8950754E+03  0.7818609E-02  0.9431758E-01
       -1   -1    0    0    0  501  0.00000000000E+00  0.00000000000E+00  0.88328517319E+03  0.88328517320E+03  0.50400001928E-02 0.  1.
        1   -1    0    0  501    0  0.00000000000E+00  0.00000000000E+00 -0.22675574716E+03  0.22675574721E+03  0.50400001928E-02 0. -1.
    10030    2    1    2    0    0  0.00000000000E+00  0.00000000000E+00  0.65652942603E+03  0.11100409204E+04  0.89507539221E+03 0.  0.
        3    1    3    3  502    0 -0.26140409788E+03 -0.25043652428E+03  0.19353937449E+01  0.36201424148E+03  0.10100000352E+00 0. -1.
       -3    1    3    3    0  502  0.26140409788E+03  0.25043652428E+03  0.65459403229E+03  0.74802667893E+03  0.10100000352E+00 0.  1.
</event>
<event>
 5   0  0.2628383E-02  0.8940588E+03  0.7818609E-02  0.9433039E-01
       -2   -1    0    0    0  501  0.00000000000E+00  0.00000000000E+00  0.15996358456E+03  0.15996358458E+03  0.25500000920E-02 0. -1.
        2   -1    0    0  501    0  0.00000000000E+00  0.00000000000E+00 -0.12492548153E+04  0.12492548153E+04  0.25500000920E-02 0.  1.
    10030    2    1    2    0    0  0.00000000000E+00  0.00000000000E+00 -0.10892912308E+04  0.14092183999E+04  0.89405878623E+03 0.  0.
        2    1    3    3  502    0 -0.97514296800E+02  0.30393450540E+03 -0.51341685460E+02  0.32329737136E+03  0.25500000920E-02 0. -1.
       -2    1    3    3    0  502  0.97514296800E+02 -0.30393450540E+03 -0.10379495453E+04  0.10859210286E+04  0.25500000920E-02 0.  1.
</event>
<event>
 5   0  0.1537870E-02  0.9070775E+03  0.7818609E-02  0.9416777E-01
        1   -1    0    0  501    0  0.00000000000E+00  0.00000000000E+00  0.17741065091E+03  0.17741065099E+03  0.50400001928E-02 0. -1.
       -1   -1    0    0    0  501  0.00000000000E+00  0.00000000000E+00 -0.11594420896E+04  0.11594420896E+04  0.50400001928E-02 0.  1.
    10030    2    1    2    0    0  0.00000000000E+00  0.00000000000E+00 -0.98203143865E+03  0.13368527406E+04  0.90707745174E+03 0.  0.
        5    1    3    3  502    0 -0.41443415044E+03 -0.67974483239E+02 -0.74328610349E+03  0.85374031009E+03  0.46999998093E+01 0.  1.
       -5    1    3    3    0  502  0.41443415044E+03  0.67974483239E+02 -0.23874533515E+03  0.48311243047E+03  0.46999998093E+01 0. -1.
</event>
<event>
 5   0  0.2705111E-02  0.9022483E+03  0.7818609E-02  0.9422775E-01
       -2   -1    0    0    0  501  0.00000000000E+00  0.00000000000E+00  0.34912359107E+03  0.34912359108E+03  0.25500000920E-02 0.  1.
        2   -1    0    0  501    0  0.00000000000E+00  0.00000000000E+00 -0.58292531157E+03  0.58292531158E+03  0.25500000920E-02 0. -1.
    10030    2    1    2    0    0  0.00000000000E+00  0.00000000000E+00 -0.23380172050E+03  0.93204890266E+03  0.90224825433E+03 0.  0.
        4    1    3    3  502    0 -0.24338220248E+03  0.10437215942E+03 -0.49417997215E+03  0.56066380471E+03  0.12699999809E+01 0. -1.
       -4    1    3    3    0  502  0.24338220248E+03 -0.10437215942E+03  0.26037825165E+03  0.37138509795E+03  0.12699999809E+01 0.  1.
</event>
<event>
 5   0  0.2679861E-02  0.8608111E+03  0.7818609E-02  0.9475940E-01
       -2   -1    0    0    0  501  0.00000000000E+00  0.00000000000E+00  0.17605735088E+03  0.17605735090E+03  0.25500000920E-02 0. -1.
        2   -1    0    0  501    0  0.00000000000E+00  0.00000000000E+00 -0.10522078853E+04  0.10522078853E+04  0.25500000920E-02 0.  1.
    10030    2    1    2    0    0  0.00000000000E+00  0.00000000000E+00 -0.87615053442E+03  0.12282652362E+04  0.86081108933E+03 0.  0.
        1    1    3    3  502    0 -0.39845750733E+03 -0.15180261028E+03 -0.35442960136E+03  0.55446619372E+03  0.50400001928E-02 0. -1.
       -1    1    3    3    0  502  0.39845750733E+03  0.15180261028E+03 -0.52172093306E+03  0.67379904249E+03  0.50400001928E-02 0.  1.
</event>
<event>
 5   0  0.2679861E-02  0.8949100E+03  0.7818609E-02  0.9431967E-01
        2   -1    0    0  501    0  0.00000000000E+00  0.00000000000E+00  0.34525036798E+03  0.34525036799E+03  0.25500000920E-02 0. -1.
       -2   -1    0    0    0  501  0.00000000000E+00  0.00000000000E+00 -0.57991533852E+03  0.57991533852E+03  0.25500000920E-02 0.  1.
    10030    2    1    2    0    0  0.00000000000E+00  0.00000000000E+00 -0.23466497054E+03  0.92516570651E+03  0.89491001564E+03 0.  0.
        1    1    3    3  502    0  0.11639077566E+03  0.26683536029E+03  0.23396180870E+03  0.37347831278E+03  0.50400001928E-02 0. -1.
       -1    1    3    3    0  502 -0.11639077566E+03 -0.26683536029E+03 -0.46862677923E+03  0.55168739373E+03  0.50400001928E-02 0.  1.
</event>
<event>
 5   0  0.1459111E-02  0.8839705E+03  0.7818609E-02  0.9445844E-01
        1   -1    0    0  501    0  0.00000000000E+00  0.00000000000E+00  0.86691972136E+03  0.86691972138E+03  0.50400001928E-02 0. -1.
       -1   -1    0    0    0  501  0.00000000000E+00  0.00000000000E+00 -0.22533917716E+03  0.22533917722E+03  0.50400001928E-02 0.  1.
    10030    2    1    2    0    0  0.00000000000E+00  0.00000000000E+00  0.64158054420E+03  0.10922588986E+04  0.88397053507E+03 0.  0.
        2    1    3    3  502    0  0.43803517894E+03 -0.50859483257E+02  0.28393888278E+03  0.52448335931E+03  0.25500000920E-02 0.  1.
       -2    1    3    3    0  502 -0.43803517894E+03  0.50859483257E+02  0.35764166142E+03  0.56777553929E+03  0.25500000920E-02 0. -1.
</event>
<event>
 5   0  0.2705111E-02  0.7361817E+03  0.7818609E-02  0.9657282E-01
        2   -1    0    0  501    0  0.00000000000E+00  0.00000000000E+00  0.20723544751E+04  0.20723544751E+04  0.25500000920E-02 0. -1.
       -2   -1    0    0    0  501  0.00000000000E+00  0.00000000000E+00 -0.65380159936E+02  0.65380159986E+02  0.25500000920E-02 0.  1.
    10030    2    1    2    0    0  0.00000000000E+00  0.00000000000E+00  0.20069743152E+04  0.21377346351E+04  0.73618168161E+03 0.  0.
        4    1    3    3  502    0  0.16659488679E+03  0.36357757549E+02  0.56231574018E+02  0.17955318336E+03  0.12699999809E+01 0.  1.
       -4    1    3    3    0  502 -0.16659488679E+03 -0.36357757549E+02  0.19507427412E+04  0.19581814518E+04  0.12699999809E+01 0. -1.
</event>
<event>
 5   0  0.2705111E-02  0.8958845E+03  0.7818609E-02  0.9430741E-01
        2   -1    0    0  501    0  0.00000000000E+00  0.00000000000E+00  0.10628093809E+04  0.10628093809E+04  0.25500000920E-02 0. -1.
       -2   -1    0    0    0  501  0.00000000000E+00  0.00000000000E+00 -0.18879421130E+03  0.18879421131E+03  0.25500000920E-02 0.  1.
    10030    2    1    2    0    0  0.00000000000E+00  0.00000000000E+00  0.87401516960E+03  0.12516035922E+04  0.89588449889E+03 0.  0.
        4    1    3    3  502    0 -0.56585234543E+02  0.81679903082E+02  0.10472156700E+04  0.10519200386E+04  0.12699999809E+01 0. -1.
       -4    1    3    3    0  502  0.56585234543E+02 -0.81679903082E+02 -0.17320050038E+03  0.19968355357E+03  0.12699999809E+01 0.  1.
</event>
<event>
 5   0  0.1040163E-02  0.8858665E+03  0.7818609E-02  0.9443423E-01
       -4   -1    0    0    0  501  0.00000000000E+00  0.00000000000E+00  0.10718283932E+04  0.10718291456E+04  0.12699999809E+01 0. -1.
        4   -1    0    0  501    0  0.00000000000E+00  0.00000000000E+00 -0.18303922033E+03  0.18304362616E+03  0.12699999809E+01 0.  1.
    10030    2    1    2    0    0  0.00000000000E+00  0.00000000000E+00  0.88878917292E+03  0.12548727718E+04  0.88586651338E+03 0.  0.
        1    1    3    3  502    0  0.24973646285E+03 -0.27172125027E+03  0.79134522948E+03  0.87317123806E+03  0.50400001928E-02 0. -1.
       -1    1    3    3    0  502 -0.24973646285E+03  0.27172125027E+03  0.97443943433E+02  0.38170153374E+03  0.50400001928E-02 0.  1.
</event>
<event>
 5   0  0.2679861E-02  0.8782209E+03  0.7818609E-02  0.9453223E-01
        2   -1    0    0  501    0  0.00000000000E+00  0.00000000000E+00  0.22326217297E+03  0.22326217298E+03  0.25500000920E-02 0.  1.
       -2   -1    0    0    0  501  0.00000000000E+00  0.00000000000E+00 -0.86363932670E+03  0.86363932670E+03  0.25500000920E-02 0. -1.
    10030    2    1    2    0    0  0.00000000000E+00  0.00000000000E+00 -0.64037715373E+03  0.10869014997E+04  0.87822091241E+03 0.  0.
        1    1    3    3  502    0  0.23021167057E+02 -0.37120963441E+03 -0.31286609154E+02  0.37323641134E+03  0.50400001928E-02 0.  1.
       -1    1    3    3    0  502 -0.23021167057E+02  0.37120963441E+03 -0.60909054457E+03  0.71366508835E+03  0.50400001928E-02 0. -1.
</event>
<event>
 5   0  0.1497410E-02  0.9093154E+03  0.7818609E-02  0.9414011E-01
        1   -1    0    0  501    0  0.00000000000E+00  0.00000000000E+00  0.63505552606E+03  0.63505552608E+03  0.50400001928E-02 0.  1.
       -1   -1    0    0    0  501  0.00000000000E+00  0.00000000000E+00 -0.32550477796E+03  0.32550477800E+03  0.50400001928E-02 0. -1.
    10030    2    1    2    0    0  0.00000000000E+00  0.00000000000E+00  0.30955074810E+03  0.96056030408E+03  0.90931536450E+03 0.  0.
        3    1    3    3  502    0 -0.18686354633E+03 -0.22617945628E+03  0.52167984985E+03  0.59851901168E+03  0.10100000352E+00 0.  1.
       -3    1    3    3    0  502  0.18686354633E+03  0.22617945628E+03 -0.21212910176E+03  0.36204129240E+03  0.10100000352E+00 0. -1.
</event>
<event>
 5   0  0.1497410E-02  0.8924726E+03  0.7818609E-02  0.9435040E-01
       -1   -1    0    0    0  501  0.00000000000E+00  0.00000000000E+00  0.30358989033E+03  0.30358989038E+03  0.50400001928E-02 0.  1.
        1   -1    0    0  501    0  0.00000000000E+00  0.00000000000E+00 -0.65590726307E+03  0.65590726309E+03  0.50400001928E-02 0. -1.
    10030    2    1    2    0    0  0.00000000000E+00  0.00000000000E+00 -0.35231737274E+03  0.95949715347E+03  0.89247255217E+03 0.  0.
        3    1    3    3  502    0  0.15533887283E+03  0.30590788643E+03 -0.48292409022E+03  0.59238964163E+03  0.10100000352E+00 0. -1.
       -3    1    3    3    0  502 -0.15533887283E+03 -0.30590788643E+03  0.13060671748E+03  0.36710751184E+03  0.10100000352E+00 0.  1.
</event>
<event>
 5   0  0.1497410E-02  0.9237957E+03  0.7818609E-02  0.9396315E-01
        1   -1    0    0  501    0  0.00000000000E+00  0.00000000000E+00  0.64684587754E+03  0.64684587756E+03  0.50400001928E-02 0. -1.
       -1   -1    0    0    0  501  0.00000000000E+00  0.00000000000E+00 -0.32983067315E+03  0.32983067319E+03  0.50400001928E-02 0.  1.
    10030    2    1    2    0    0  0.00000000000E+00  0.00000000000E+00  0.31701520439E+03  0.97667655075E+03  0.92379567274E+03 0.  0.
        3    1    3    3  502    0 -0.19928765876E+03 -0.15135390682E+03 -0.25195062036E+03  0.35510942165E+03  0.10100000352E+00 0.  1.
       -3    1    3    3    0  502  0.19928765876E+03  0.15135390682E+03  0.56896582475E+03  0.62156712910E+03  0.10100000352E+00 0. -1.
</event>
<event>
 5   0  0.1040163E-02  0.8702295E+03  0.7818609E-02  0.9463581E-01
        4   -1    0    0  501    0  0.00000000000E+00  0.00000000000E+00  0.49465659794E+03  0.49465822826E+03  0.12699999809E+01 0.  1.
       -4   -1    0    0    0  501  0.00000000000E+00  0.00000000000E+00 -0.38273666491E+03  0.38273877197E+03  0.12699999809E+01 0. -1.
    10030    2    1    2    0    0  0.00000000000E+00  0.00000000000E+00  0.11191993302E+03  0.87739700023E+03  0.87022952409E+03 0.  0.
        5    1    3    3  502    0 -0.32248369317E+03  0.22815282435E+03 -0.12789690002E+03  0.41524589179E+03  0.46999998093E+01 0. -1.
       -5    1    3    3    0  502  0.32248369317E+03 -0.22815282435E+03  0.23981683305E+03  0.46215110843E+03  0.46999998093E+01 0.  1.
</event>
<event>
 5   0  0.2414128E-02  0.9056460E+03  0.7818609E-02  0.9418551E-01
       -2   -1    0    0    0  501  0.00000000000E+00  0.00000000000E+00  0.42798022119E+03  0.42798022120E+03  0.25500000920E-02 0.  1.
        2   -1    0    0  501    0  0.00000000000E+00  0.00000000000E+00 -0.47910786883E+03  0.47910786884E+03  0.25500000920E-02 0. -1.
    10030    2    1    2    0    0  0.00000000000E+00  0.00000000000E+00 -0.51127647639E+02  0.90708809004E+03  0.90564604937E+03 0.  0.
        3    1    3    3  502    0  0.31579255688E+03  0.32401684293E+03 -0.43945921141E+02  0.45458014439E+03  0.10100000352E+00 0. -1.
       -3    1    3    3    0  502 -0.31579255688E+03 -0.32401684293E+03 -0.71817264982E+01  0.45250794565E+03  0.10100000352E+00 0.  1.
</event>
<event>
 5   0  0.2803717E-02  0.9004482E+03  0.7818609E-02  0.9425021E-01
       -2   -1    0    0    0  501  0.00000000000E+00  0.00000000000E+00  0.12534086956E+03  0.12534086959E+03  0.25500000920E-02 0. -1.
        2   -1    0    0  501    0  0.00000000000E+00  0.00000000000E+00 -0.16172039101E+04  0.16172039101E+04  0.25500000920E-02 0.  1.
    10030    2    1    2    0    0  0.00000000000E+00  0.00000000000E+00 -0.14918630405E+04  0.17425447796E+04  0.90044820922E+03 0.  0.
        5    1    3    3  502    0  0.24814362604E+03  0.26593771732E+02 -0.14710423311E+04  0.14920690727E+04  0.46999998093E+01 0.  1.
       -5    1    3    3    0  502 -0.24814362604E+03 -0.26593771732E+02 -0.20820709409E+02  0.25047570696E+03  0.46999998093E+01 0. -1.
</event>
<event>
 5   0  0.2628383E-02  0.8875882E+03  0.7818609E-02  0.9441231E-01
        2   -1    0    0  501    0  0.00000000000E+00  0.00000000000E+00  0.99096755973E+03  0.99096755973E+03  0.25500000920E-02 0.  1.
       -2   -1    0    0    0  501  0.00000000000E+00  0.00000000000E+00 -0.19874838260E+03  0.19874838261E+03  0.25500000920E-02 0. -1.
    10030    2    1    2    0    0  0.00000000000E+00  0.00000000000E+00  0.79221917713E+03  0.11897159423E+04  0.88758819215E+03 0.  0.
        2    1    3    3  502    0 -0.35915116880E+03  0.17642312392E+03  0.13884332072E+03  0.42354710295E+03  0.25500000920E-02 0. -1.
       -2    1    3    3    0  502  0.35915116880E+03 -0.17642312392E+03  0.65337585641E+03  0.76616883939E+03  0.25500000920E-02 0.  1.
</event>
<event>
 5   0  0.1459111E-02  0.8927107E+03  0.7818609E-02  0.9434740E-01
        1   -1    0    0  501    0  0.00000000000E+00  0.00000000000E+00  0.33108381476E+03  0.33108381479E+03  0.50400001928E-02 0.  1.
       -1   -1    0    0    0  501  0.00000000000E+00  0.00000000000E+00 -0.60176030026E+03  0.60176030028E+03  0.50400001928E-02 0. -1.
    10030    2    1    2    0    0  0.00000000000E+00  0.00000000000E+00 -0.27067648550E+03  0.93284411508E+03  0.89271069403E+03 0.  0.
        2    1    3    3  502    0  0.20924778705E+03  0.39418393258E+03 -0.14392259347E+03  0.46891291517E+03  0.25500000920E-02 0. -1.
       -2    1    3    3    0  502 -0.20924778705E+03 -0.39418393258E+03 -0.12675389203E+03  0.46393119991E+03  0.25500000920E-02 0.  1.
</event>
<event>
 5   0  0.2679861E-02  0.9146177E+03  0.7818609E-02  0.9407491E-01
       -2   -1    0    0    0  501  0.00000000000E+00  0.00000000000E+00  0.47640420682E+03  0.47640420683E+03  0.25500000920E-02 0.  1.
        2   -1    0    0  501    0  0.00000000000E+00  0.00000000000E+00 -0.43897884682E+03  0.43897884683E+03  0.25500000920E-02 0. -1.
    10030    2    1    2    0    0  0.00000000000E+00  0.00000000000E+00  0.37425359997E+02  0.91538305366E+03  0.91461766731E+03 0.  0.
        1    1    3    3  502    0 -0.25292956185E+03 -0.31784491289E+03 -0.19154076698E+03  0.44909533214E+03  0.50400001928E-02 0. -1.
       -1    1    3    3    0  502  0.25292956185E+03  0.31784491289E+03  0.22896612698E+03  0.46628772152E+03  0.50400001928E-02 0.  1.
</event>
<event>
 5   0  0.1537870E-02  0.8724095E+03  0.7818609E-02  0.9460744E-01
        1   -1    0    0  501    0  0.00000000000E+00  0.00000000000E+00  0.34351557169E+03  0.34351557173E+03  0.50400001928E-02 0.  1.
       -1   -1    0    0    0  501  0.00000000000E+00  0.00000000000E+00 -0.55390375853E+03  0.55390375855E+03  0.50400001928E-02 0. -1.
    10030    2    1    2    0    0  0.00000000000E+00  0.00000000000E+00 -0.21038818684E+03  0.89741933028E+03  0.87240945960E+03 0.  0.
        5    1    3    3  502    0 -0.15807596450E+03 -0.40364894546E+03 -0.55518985207E+02  0.43706398781E+03  0.46999998093E+01 0. -1.
       -5    1    3    3    0  502  0.15807596450E+03  0.40364894546E+03 -0.15486920163E+03  0.46035534247E+03  0.46999998093E+01 0.  1.
</event>
<event>
 5   0  0.1040163E-02  0.8804023E+03  0.7818609E-02  0.9450417E-01
       -4   -1    0    0    0  501  0.00000000000E+00  0.00000000000E+00  0.12083587510E+03  0.12084254884E+03  0.12699999809E+01 0. -1.
        4   -1    0    0  501    0  0.00000000000E+00  0.00000000000E+00 -0.16035872883E+04  0.16035877912E+04  0.12699999809E+01 0.  1.
    10030    2    1    2    0    0  0.00000000000E+00  0.00000000000E+00 -0.14827514132E+04  0.17244303400E+04  0.88040231958E+03 0.  0.
        4    1    3    3  502    0  0.13333779530E+03  0.39875237499E+03 -0.99670451134E+03  0.10817596406E+04  0.12699999809E+01 0.  1.
       -4    1    3    3    0  502 -0.13333779530E+03 -0.39875237499E+03 -0.48604690185E+03  0.64267069943E+03  0.12699999809E+01 0. -1.
</event>
<event>
 5   0  0.1559275E-02  0.9064272E+03  0.7818609E-02  0.9417583E-01
        1   -1    0    0  501    0  0.00000000000E+00  0.00000000000E+00  0.11943047689E+04  0.11943047689E+04  0.50400001928E-02 0. -1.
       -1   -1    0    0    0  501  0.00000000000E+00  0.00000000000E+00 -0.17198504995E+03  0.17198505003E+03  0.50400001928E-02 0.  1.
    10030    2    1    2    0    0  0.00000000000E+00  0.00000000000E+00  0.10223197189E+04  0.13662898189E+04  0.90642719594E+03 0.  0.
        1    1    3    3  502    0 -0.40961456423E+03  0.87908353818E+02  0.25055819323E+03  0.48815097882E+03  0.50400001928E-02 0.  1.
       -1    1    3    3    0  502  0.40961456423E+03 -0.87908353818E+02  0.77176152567E+03  0.87813884007E+03  0.50400001928E-02 0. -1.
</event>
<event>
 5   0  0.1040163E-02  0.8608890E+03  0.7818609E-02  0.9475838E-01
       -3   -1    0    0    0  501  0.00000000000E+00  0.00000000000E+00  0.76320963049E+03  0.76320963717E+03  0.10100000352E+00 0. -1.
        3   -1    0    0  501    0  0.00000000000E+00  0.00000000000E+00 -0.24276744424E+03  0.24276746525E+03  0.10100000352E+00 0.  1.
    10030    2    1    2    0    0  0.00000000000E+00  0.00000000000E+00  0.52044218624E+03  0.10059771024E+04  0.86088899480E+03 0.  0.
        1    1    3    3  502    0 -0.40194643466E+03 -0.73528440390E+02  0.41836248477E+03  0.58480298954E+03  0.50400001928E-02 0. -1.
       -1    1    3    3    0  502  0.40194643466E+03  0.73528440390E+02  0.10207970148E+03  0.42117411288E+03  0.50400001928E-02 0.  1.
</event>
<event>
 5   0  0.1497410E-02  0.8053043E+03  0.7818609E-02  0.9552371E-01
        1   -1    0    0  501    0  0.00000000000E+00  0.00000000000E+00  0.63007717777E+03  0.63007717779E+03  0.50400001928E-02 0. -1.
       -1   -1    0    0    0  501  0.00000000000E+00  0.00000000000E+00 -0.25731568428E+03  0.25731568432E+03  0.50400001928E-02 0.  1.
    10030    2    1    2    0    0  0.00000000000E+00  0.00000000000E+00  0.37276149349E+03  0.88739286211E+03  0.80530426591E+03 0.  0.
        3    1    3    3  502    0  0.70723637741E+02  0.33837382920E+03  0.41389774333E+03  0.53926805335E+03  0.10100000352E+00 0. -1.
       -3    1    3    3    0  502 -0.70723637741E+02 -0.33837382920E+03 -0.41136249838E+02  0.34812480877E+03  0.10100000352E+00 0.  1.
</event>
<event>
 5   0  0.1459111E-02  0.8126444E+03  0.7818609E-02  0.9541893E-01
       -1   -1    0    0    0  501  0.00000000000E+00  0.00000000000E+00  0.99888137153E+03  0.99888137154E+03  0.50400001928E-02 0. -1.
        1   -1    0    0  501    0  0.00000000000E+00  0.00000000000E+00 -0.16528262274E+03  0.16528262282E+03  0.50400001928E-02 0.  1.
    10030    2    1    2    0    0  0.00000000000E+00  0.00000000000E+00  0.83359874879E+03  0.11641639944E+04  0.81264440673E+03 0.  0.
        2    1    3    3  502    0 -0.75606439277E+02 -0.32981395462E+03  0.73905959469E+03  0.81283618450E+03  0.25500000920E-02 0. -1.
       -2    1    3    3    0  502  0.75606439277E+02  0.32981395462E+03  0.94539154098E+02  0.35132780986E+03  0.25500000920E-02 0.  1.
</event>
<event>
 5   0  0.1497410E-02  0.8914425E+03  0.7818609E-02  0.9436342E-01
       -1   -1    0    0    0  501  0.00000000000E+00  0.00000000000E+00  0.87382017485E+02  0.87382017631E+02  0.50400001928E-02 0. -1.
        1   -1    0    0  501    0  0.00000000000E+00  0.00000000000E+00 -0.22735505507E+04  0.22735505507E+04  0.50400001928E-02 0.  1.
    10030    2    1    2    0    0  0.00000000000E+00  0.00000000000E+00 -0.21861685332E+04  0.23609325683E+04  0.89144250325E+03 0.  0.
        3    1    3    3  502    0 -0.77360400763E+02 -0.43608810035E+03 -0.12257698503E+04  0.13033300422E+04  0.10100000352E+00 0. -1.
       -3    1    3    3    0  502  0.77360400763E+02  0.43608810035E+03 -0.96039868289E+03  0.10576025261E+04  0.10100000352E+00 0.  1.
</event>
<event>
 5   0  0.1560728E-02  0.8982722E+03  0.7818609E-02  0.9427744E-01
        1   -1    0    0  501    0  0.00000000000E+00  0.00000000000E+00  0.72275116722E+03  0.72275116723E+03  0.50400001928E-02 0.  1.
       -1   -1    0    0    0  501  0.00000000000E+00  0.00000000000E+00 -0.27910471060E+03  0.27910471065E+03  0.50400001928E-02 0. -1.
    10030    2    1    2    0    0  0.00000000000E+00  0.00000000000E+00  0.44364645661E+03  0.10018558779E+04  0.89827224246E+03 0.  0.
        4    1    3    3  502    0 -0.35143279443E+03  0.12396354428E+03  0.50143070654E+03  0.62474501653E+03  0.12699999809E+01 0.  1.
       -4    1    3    3    0  502  0.35143279443E+03 -0.12396354428E+03 -0.57784249933E+02  0.37711086135E+03  0.12699999809E+01 0. -1.
</event>
<event>
 5   0  0.1459111E-02  0.8736352E+03  0.7818609E-02  0.9459152E-01
       -1   -1    0    0    0  501  0.00000000000E+00  0.00000000000E+00  0.38421313320E+03  0.38421313323E+03  0.50400001928E-02 0. -1.
        1   -1    0    0  501    0  0.00000000000E+00  0.00000000000E+00 -0.49662435501E+03  0.49662435503E+03  0.50400001928E-02 0.  1.
    10030    2    1    2    0    0  0.00000000000E+00  0.00000000000E+00 -0.11241122181E+03  0.88083748826E+03  0.87363516295E+03 0.  0.
        2    1    3    3  502    0  0.37671567119E+03  0.21971015595E+03 -0.31053003782E+02  0.43720880435E+03  0.25500000920E-02 0. -1.
       -2    1    3    3    0  502 -0.37671567119E+03 -0.21971015595E+03 -0.81358218025E+02  0.44362868392E+03  0.25500000920E-02 0.  1.
</event>
<event>
 5   0  0.2628383E-02  0.9320248E+03  0.7818609E-02  0.9386411E-01
       -2   -1    0    0    0  501  0.00000000000E+00  0.00000000000E+00  0.19742018004E+03  0.19742018005E+03  0.25500000920E-02 0. -1.
        2   -1    0    0  501    0  0.00000000000E+00  0.00000000000E+00 -0.11000272318E+04  0.11000272318E+04  0.25500000920E-02 0.  1.
    10030    2    1    2    0    0  0.00000000000E+00  0.00000000000E+00 -0.90260705178E+03  0.12974474119E+04  0.93202483693E+03 0.  0.
        2    1    3    3  502    0 -0.35729254999E+03 -0.24613986062E+03 -0.21454954663E+03  0.48401890999E+03  0.25500000920E-02 0. -1.
       -2    1    3    3    0  502  0.35729254999E+03  0.24613986062E+03 -0.68805750515E+03  0.81342850188E+03  0.25500000920E-02 0.  1.
</event>
<event>
 5   0  0.1459111E-02  0.7371409E+03  0.7818609E-02  0.9655743E-01
        1   -1    0    0  501    0  0.00000000000E+00  0.00000000000E+00  0.64590685210E+03  0.64590685212E+03  0.50400001928E-02 0.  1.
       -1   -1    0    0    0  501  0.00000000000E+00  0.00000000000E+00 -0.21031541272E+03  0.21031541278E+03  0.50400001928E-02 0. -1.
    10030    2    1    2    0    0  0.00000000000E+00  0.00000000000E+00  0.43559143938E+03  0.85622226490E+03  0.73714087178E+03 0.  0.
        2    1    3    3  502    0  0.12288608550E+03  0.29806225689E+03  0.42526100509E+03  0.53365627650E+03  0.25500000920E-02 0.  1.
       -2    1    3    3    0  502 -0.12288608550E+03 -0.29806225689E+03  0.10330434289E+02  0.32256598840E+03  0.25500000920E-02 0. -1.
</event>
<event>
 5   0  0.1537870E-02  0.8893689E+03  0.7818609E-02  0.9438969E-01
        1   -1    0    0  501    0  0.00000000000E+00  0.00000000000E+00  0.32342458980E+03  0.32342458984E+03  0.50400001928E-02 0.  1.
       -1   -1    0    0    0  501  0.00000000000E+00  0.00000000000E+00 -0.61140759429E+03  0.61140759431E+03  0.50400001928E-02 0. -1.
    10030    2    1    2    0    0  0.00000000000E+00  0.00000000000E+00 -0.28798300449E+03  0.93483218414E+03  0.88936887827E+03 0.  0.
        5    1    3    3  502    0  0.44424495047E+03 -0.18481914736E+02 -0.13852940384E+03  0.46573344621E+03  0.46999998093E+01 0.  1.
       -5    1    3    3    0  502 -0.44424495047E+03  0.18481914736E+02 -0.14945360065E+03  0.46909873794E+03  0.46999998093E+01 0. -1.
</event>
<event>
 5   0  0.1537870E-02  0.8535669E+03  0.7818609E-02  0.9485562E-01
        1   -1    0    0  501    0  0.00000000000E+00  0.00000000000E+00  0.11590174152E+04  0.11590174152E+04  0.50400001928E-02 0.  1.
       -1   -1    0    0    0  501  0.00000000000E+00  0.00000000000E+00 -0.15715389940E+03  0.15715389949E+03  0.50400001928E-02 0. -1.
    10030    2    1    2    0    0  0.00000000000E+00  0.00000000000E+00  0.10018635158E+04  0.13161713147E+04  0.85356688393E+03 0.  0.
        5    1    3    3  502    0 -0.28190078424E+03  0.25271720242E+03  0.80461682998E+03  0.88924932929E+03  0.46999998093E+01 0.  1.
       -5    1    3    3    0  502  0.28190078424E+03 -0.25271720242E+03  0.19724668580E+03  0.42692198540E+03  0.46999998093E+01 0. -1.
</event>
<event>
 5   0  0.2414128E-02  0.7055456E+03  0.7818609E-02  0.9707795E-01
       -2   -1    0    0    0  501  0.00000000000E+00  0.00000000000E+00  0.15783857223E+03  0.15783857226E+03  0.25500000920E-02 0. -1.
        2   -1    0    0  501    0  0.00000000000E+00  0.00000000000E+00 -0.78845525972E+03  0.78845525972E+03  0.25500000920E-02 0.  1.
    10030    2    1    2    0    0  0.00000000000E+00  0.00000000000E+00 -0.63061668749E+03  0.94629383198E+03  0.70554561150E+03 0.  0.
        3    1    3    3  502    0  0.12113285458E+03 -0.32368531906E+03 -0.41017829284E+03  0.53636889950E+03  0.10100000352E+00 0. -1.
       -3    1    3    3    0  502 -0.12113285458E+03  0.32368531906E+03 -0.22043839465E+03  0.40992493248E+03  0.10100000352E+00 0.  1.
</event>
<event>
 5   0  0.2414128E-02  0.7917342E+03  0.7818609E-02  0.9572059E-01
       -2   -1    0    0    0  501  0.00000000000E+00  0.00000000000E+00  0.15379094015E+03  0.15379094017E+03  0.25500000920E-02 0.  1.
        2   -1    0    0  501    0  0.00000000000E+00  0.00000000000E+00 -0.10189857050E+04  0.10189857050E+04  0.25500000920E-02 0. -1.
    10030    2    1    2    0    0  0.00000000000E+00  0.00000000000E+00 -0.86519476486E+03  0.11727766452E+04  0.79173422203E+03 0.  0.
        3    1    3    3  502    0 -0.69847287459E+02 -0.12916885905E+03 -0.97715010594E+03  0.98812224823E+03  0.10100000352E+00 0. -1.
       -3    1    3    3    0  502  0.69847287459E+02  0.12916885905E+03  0.11195534108E+03  0.18465439695E+03  0.10100000352E+00 0.  1.
</event>
<event>
 5   0  0.2705111E-02  0.8722618E+03  0.7818609E-02  0.9460936E-01
        2   -1    0    0  501    0  0.00000000000E+00  0.00000000000E+00  0.41182071095E+03  0.41182071096E+03  0.25500000920E-02 0. -1.
       -2   -1    0    0    0  501  0.00000000000E+00  0.00000000000E+00 -0.46187617331E+03  0.46187617332E+03  0.25500000920E-02 0.  1.
    10030    2    1    2    0    0  0.00000000000E+00  0.00000000000E+00 -0.50055462357E+02  0.87369688428E+03  0.87226182783E+03 0.  0.
        4    1    3    3  502    0 -0.19961836583E+03  0.29923052445E+02  0.36221623641E+03  0.41466262897E+03  0.12699999809E+01 0. -1.
       -4    1    3    3    0  502  0.19961836583E+03 -0.29923052445E+02 -0.41227169877E+03  0.45903425531E+03  0.12699999809E+01 0.  1.
</event>
<event>
 5   0  0.2414128E-02  0.6925599E+03  0.7818609E-02  0.9730041E-01
        2   -1    0    0  501    0  0.00000000000E+00  0.00000000000E+00  0.79515889243E+03  0.79515889243E+03  0.25500000920E-02 0. -1.
       -2   -1    0    0    0  501  0.00000000000E+00  0.00000000000E+00 -0.15079979713E+03  0.15079979716E+03  0.25500000920E-02 0.  1.
    10030    2    1    2    0    0  0.00000000000E+00  0.00000000000E+00  0.64435909530E+03  0.94595868959E+03  0.69255988818E+03 0.  0.
        3    1    3    3  502    0 -0.34295499320E+03  0.33514502257E+02  0.36886892607E+03  0.50478276916E+03  0.10100000352E+00 0. -1.
       -3    1    3    3    0  502  0.34295499320E+03 -0.33514502257E+02  0.27549016922E+03  0.44117592043E+03  0.10100000352E+00 0.  1.
</event>
<event>
 5   0  0.2679861E-02  0.8835663E+03  0.7818609E-02  0.9446361E-01
        2   -1    0    0  501    0  0.00000000000E+00  0.00000000000E+00  0.63474505627E+03  0.63474505628E+03  0.25500000920E-02 0.  1.
       -2   -1    0    0    0  501  0.00000000000E+00  0.00000000000E+00 -0.30748147235E+03  0.30748147236E+03  0.25500000920E-02 0. -1.
    10030    2    1    2    0    0  0.00000000000E+00  0.00000000000E+00  0.32726358392E+03  0.94222652864E+03  0.88356628383E+03 0.  0.
        1    1    3    3  502    0  0.35962210379E+03 -0.10242118596E+03 -0.87262876808E+02  0.38397000737E+03  0.50400001928E-02 0. -1.
       -1    1    3    3    0  502 -0.35962210379E+03  0.10242118596E+03  0.41452646072E+03  0.55825652127E+03  0.50400001928E-02 0.  1.
</event>
<event>
 5   0  0.2414128E-02  0.8881885E+03  0.7818609E-02  0.9440468E-01
       -2   -1    0    0    0  501  0.00000000000E+00  0.00000000000E+00  0.14006659976E+03  0.14006659978E+03  0.25500000920E-02 0. -1.
        2   -1    0    0  501    0  0.00000000000E+00  0.00000000000E+00 -0.14080421877E+04  0.14080421877E+04  0.25500000920E-02 0.  1.
    10030    2    1    2    0    0  0.00000000000E+00  0.00000000000E+00 -0.12679755880E+04  0.15481087875E+04  0.88818845201E+03 0.  0.
        3    1    3    3  502    0 -0.89028416472E+02  0.14575270500E+03 -0.13485092979E+04  0.13592818864E+04  0.10100000352E+00 0.  1.
       -3    1    3    3    0  502  0.89028416472E+02 -0.14575270500E+03  0.80533709919E+02  0.18882690113E+03  0.10100000352E+00 0. -1.
</event>
<event>
 5   0  0.2803717E-02  0.9271829E+03  0.7818609E-02  0.9392225E-01
        2   -1    0    0  501    0  0.00000000000E+00  0.00000000000E+00  0.66900876378E+03  0.66900876379E+03  0.25500000920E-02 0. -1.
       -2   -1    0    0    0  501  0.00000000000E+00  0.00000000000E+00 -0.32124695562E+03  0.32124695563E+03  0.25500000920E-02 0.  1.
    10030    2    1    2    0    0  0.00000000000E+00  0.00000000000E+00  0.34776180816E+03  0.99025571942E+03  0.92718289168E+03 0.  0.
        5    1    3    3  502    0  0.11559687609E+03  0.44547971448E+03  0.23315516026E+03  0.51594402073E+03  0.46999998093E+01 0. -1.
       -5    1    3    3    0  502 -0.11559687609E+03 -0.44547971448E+03  0.11460664791E+03  0.47431169869E+03  0.46999998093E+01 0.  1.
</event>
<event>
 5   0  0.1497410E-02  0.9082447E+03  0.7818609E-02  0.9415333E-01
        1   -1    0    0  501    0  0.00000000000E+00  0.00000000000E+00  0.72345799971E+03  0.72345799973E+03  0.50400001928E-02 0.  1.
       -1   -1    0    0    0  501  0.00000000000E+00  0.00000000000E+00 -0.28505749020E+03  0.28505749024E+03  0.50400001928E-02 0. -1.
    10030    2    1    2    0    0  0.00000000000E+00  0.00000000000E+00  0.43840050951E+03  0.10085154900E+04  0.90824472846E+03 0.  0.
        3    1    3    3  502    0  0.36310504381E+03  0.11014976281E+03  0.49624212964E+03  0.62468752550E+03  0.10100000352E+00 0.  1.
       -3    1    3    3    0  502 -0.36310504381E+03 -0.11014976281E+03 -0.57841620133E+02  0.38382796447E+03  0.10100000352E+00 0. -1.
</event>
<event>
 5   0  0.1040163E-02  0.8979536E+03  0.7818609E-02  0.9428143E-01
        3   -1    0    0  501    0  0.00000000000E+00  0.00000000000E+00  0.25439690765E+03  0.25439692770E+03  0.10100000352E+00 0. -1.
       -3   -1    0    0    0  501  0.00000000000E+00  0.00000000000E+00 -0.79238449914E+03  0.79238450557E+03  0.10100000352E+00 0.  1.
    10030    2    1    2    0    0  0.00000000000E+00  0.00000000000E+00 -0.53798759149E+03  0.10467814333E+04  0.89795362935E+03 0.  0.
        1    1    3    3  502    0  0.18761423452E+03 -0.31426474419E+03  0.34140915182E+02  0.36759629018E+03  0.50400001928E-02 0. -1.
       -1    1    3    3    0  502 -0.18761423452E+03  0.31426474419E+03 -0.57212850667E+03  0.67918514310E+03  0.50400001928E-02 0.  1.
</event>
<event>
 5   0  0.1559275E-02  0.5070110E+03  0.7818609E-02  0.1011965E+00
        1   -1    0    0  501    0  0.00000000000E+00  0.00000000000E+00  0.69421403469E+03  0.69421403471E+03  0.50400001928E-02 0.  1.
       -1   -1    0    0    0  501  0.00000000000E+00  0.00000000000E+00 -0.92572355140E+02  0.92572355277E+02  0.50400001928E-02 0. -1.
    10030    2    1    2    0    0  0.00000000000E+00  0.00000000000E+00  0.60164167955E+03  0.78678638999E+03  0.50701095934E+03 0.  0.
        1    1    3    3  502    0 -0.22913659667E+03 -0.95356188318E+02  0.22065581257E+03  0.33209241218E+03  0.50400001928E-02 0. -1.
       -1    1    3    3    0  502  0.22913659667E+03  0.95356188318E+02  0.38098586698E+03  0.45469397780E+03  0.50400001928E-02 0.  1.
</event>
<event>
 5   0  0.1497410E-02  0.8635435E+03  0.7818609E-02  0.9472338E-01
        1   -1    0    0  501    0  0.00000000000E+00  0.00000000000E+00  0.47935682916E+03  0.47935682919E+03  0.50400001928E-02 0.  1.
       -1   -1    0    0    0  501  0.00000000000E+00  0.00000000000E+00 -0.38891034790E+03  0.38891034793E+03  0.50400001928E-02 0. -1.
    10030    2    1    2    0    0  0.00000000000E+00  0.00000000000E+00  0.90446481260E+02  0.86826717712E+03  0.86354347018E+03 0.  0.
        3    1    3    3  502    0  0.25652184350E+03 -0.43363610419E+02  0.39169921000E+03  0.47022562693E+03  0.10100000352E+00 0.  1.
       -3    1    3    3    0  502 -0.25652184350E+03  0.43363610419E+02 -0.30125272874E+03  0.39804155019E+03  0.10100000352E+00 0. -1.
</event>
<event>
 5   0  0.1560728E-02  0.8751622E+03  0.7818609E-02  0.9457174E-01
       -1   -1    0    0    0  501  0.00000000000E+00  0.00000000000E+00  0.31844766108E+03  0.31844766112E+03  0.50400001928E-02 0.  1.
        1   -1    0    0  501    0  0.00000000000E+00  0.00000000000E+00 -0.60128316973E+03  0.60128316975E+03  0.50400001928E-02 0. -1.
    10030    2    1    2    0    0  0.00000000000E+00  0.00000000000E+00 -0.28283550864E+03  0.91973083087E+03  0.87516220000E+03 0.  0.
        4    1    3    3  502    0  0.24790760713E+03  0.26889769760E+03  0.11104841874E+03  0.38222704987E+03  0.12699999809E+01 0.  1.
       -4    1    3    3    0  502 -0.24790760713E+03 -0.26889769760E+03 -0.39388392738E+03  0.53750378100E+03  0.12699999809E+01 0. -1.
</event>
<event>
 5   0  0.1560728E-02  0.8657796E+03  0.7818609E-02  0.9469399E-01
       -1   -1    0    0    0  501  0.00000000000E+00  0.00000000000E+00  0.14423299939E+03  0.14423299948E+03  0.50400001928E-02 0. -1.
        1   -1    0    0  501    0  0.00000000000E+00  0.00000000000E+00 -0.12992421650E+04  0.12992421651E+04  0.50400001928E-02 0.  1.
    10030    2    1    2    0    0  0.00000000000E+00  0.00000000000E+00 -0.11550091657E+04  0.14434751645E+04  0.86577963586E+03 0.  0.
        4    1    3    3  502    0 -0.37502126520E+03  0.50811084081E+02 -0.22710624247E+03  0.44136331280E+03  0.12699999809E+01 0. -1.
       -4    1    3    3    0  502  0.37502126520E+03 -0.50811084081E+02 -0.92790292318E+03  0.10021118517E+04  0.12699999809E+01 0.  1.
</event>
<event>
 5   0  0.2705111E-02  0.8044971E+03  0.7818609E-02  0.9553531E-01
        2   -1    0    0  501    0  0.00000000000E+00  0.00000000000E+00  0.46322449061E+03  0.46322449062E+03  0.25500000920E-02 0. -1.
       -2   -1    0    0    0  501  0.00000000000E+00  0.00000000000E+00 -0.34929905703E+03  0.34929905704E+03  0.25500000920E-02 0.  1.
    10030    2    1    2    0    0  0.00000000000E+00  0.00000000000E+00  0.11392543358E+03  0.81252354766E+03  0.80449705474E+03 0.  0.
        4    1    3    3  502    0 -0.29795333598E+03 -0.62011455692E+02 -0.20868361829E+03  0.36901500850E+03  0.12699999809E+01 0.  1.
       -4    1    3    3    0  502  0.29795333598E+03  0.62011455692E+02  0.32260905188E+03  0.44350853916E+03  0.12699999809E+01 0. -1.
</event>
<event>
 5   0  0.2803717E-02  0.8451574E+03  0.7818609E-02  0.9496860E-01
       -2   -1    0    0    0  501  0.00000000000E+00  0.00000000000E+00  0.23907230953E+03  0.23907230955E+03  0.25500000920E-02 0.  1.
        2   -1    0    0  501    0  0.00000000000E+00  0.00000000000E+00 -0.74694030973E+03  0.74694030973E+03  0.25500000920E-02 0. -1.
    10030    2    1    2    0    0  0.00000000000E+00  0.00000000000E+00 -0.50786800019E+03  0.98601261928E+03  0.84515736982E+03 0.  0.
        5    1    3    3  502    0 -0.23775845139E+03 -0.29404338003E+03 -0.47393576238E+03  0.60632317077E+03  0.46999998093E+01 0.  1.
       -5    1    3    3    0  502  0.23775845139E+03  0.29404338003E+03 -0.33932237814E+02  0.37968944851E+03  0.46999998093E+01 0. -1.
</event>
<event>
 5   0  0.1560728E-02  0.9498676E+03  0.7818609E-02  0.9365305E-01
        1   -1    0    0  501    0  0.00000000000E+00  0.00000000000E+00  0.42746109965E+03  0.42746109968E+03  0.50400001928E-02 0. -1.
       -1   -1    0    0    0  501  0.00000000000E+00  0.00000000000E+00 -0.52767871831E+03  0.52767871834E+03  0.50400001928E-02 0.  1.
    10030    2    1    2    0    0  0.00000000000E+00  0.00000000000E+00 -0.10021761866E+03  0.95513981802E+03  0.94986762282E+03 0.  0.
        4    1    3    3  502    0  0.29335449314E+01 -0.10772051069E+03  0.41500387388E+03  0.42876816853E+03  0.12699999809E+01 0. -1.
       -4    1    3    3    0  502 -0.29335449314E+01  0.10772051069E+03 -0.51522149254E+03  0.52637164949E+03  0.12699999809E+01 0.  1.
</event>
<event>
 5   0  0.2414128E-02  0.8444075E+03  0.7818609E-02  0.9497874E-01
       -2   -1    0    0    0  501  0.00000000000E+00  0.00000000000E+00  0.12679900197E+03  0.12679900200E+03  0.25500000920E-02 0.  1.
        2   -1    0    0  501    0  0.00000000000E+00  0.00000000000E+00 -0.14058156129E+04  0.14058156129E+04  0.25500000920E-02 0. -1.
    10030    2    1    2    0    0  0.00000000000E+00  0.00000000000E+00 -0.12790166109E+04  0.15326146149E+04  0.84440752411E+03 0.  0.
        3    1    3    3  502    0 -0.18142284617E+03 -0.21564256939E+03 -0.12101287446E+04  0.12425085736E+04  0.10100000352E+00 0. -1.
       -3    1    3    3    0  502  0.18142284617E+03  0.21564256939E+03 -0.68887866313E+02  0.29010604125E+03  0.10100000352E+00 0.  1.
</event>
<event>
 5   0  0.2679861E-02  0.9087621E+03  0.7818609E-02  0.9414694E-01
        2   -1    0    0  501    0  0.00000000000E+00  0.00000000000E+00  0.68610127764E+03  0.68610127764E+03  0.25500000920E-02 0.  1.
       -2   -1    0    0    0  501  0.00000000000E+00  0.00000000000E+00 -0.30092076671E+03  0.30092076672E+03  0.25500000920E-02 0. -1.
    10030    2    1    2    0    0  0.00000000000E+00  0.00000000000E+00  0.38518051093E+03  0.98702204436E+03  0.90876206460E+03 0.  0.
        1    1    3    3  502    0 -0.47111470436E+02 -0.90728505930E+02  0.67344826221E+03  0.68116350044E+03  0.50400001928E-02 0.  1.
       -1    1    3    3    0  502  0.47111470436E+02  0.90728505930E+02 -0.28826775128E+03  0.30585854392E+03  0.50400001928E-02 0. -1.
</event>
<event>
 5   0  0.1040163E-02  0.8891077E+03  0.7818609E-02  0.9439301E-01
        3   -1    0    0  501    0  0.00000000000E+00  0.00000000000E+00  0.22132610184E+03  0.22132612488E+03  0.10100000352E+00 0.  1.
       -3   -1    0    0    0  501  0.00000000000E+00  0.00000000000E+00 -0.89292733823E+03  0.89292734394E+03  0.10100000352E+00 0. -1.
    10030    2    1    2    0    0  0.00000000000E+00  0.00000000000E+00 -0.67160123639E+03  0.11142534688E+04  0.88910773929E+03 0.  0.
        5    1    3    3  502    0 -0.35059675539E+03 -0.18139045260E+03 -0.59197887104E+03  0.71153471802E+03  0.46999998093E+01 0. -1.
       -5    1    3    3    0  502  0.35059675539E+03  0.18139045260E+03 -0.79622365346E+02  0.40271875080E+03  0.46999998093E+01 0.  1.
</event>
<event>
 5   0  0.2628383E-02  0.8968277E+03  0.7818609E-02  0.9429556E-01
       -2   -1    0    0    0  501  0.00000000000E+00  0.00000000000E+00  0.15621080577E+03  0.15621080580E+03  0.25500000920E-02 0. -1.
        2   -1    0    0  501    0  0.00000000000E+00  0.00000000000E+00 -0.12872028673E+04  0.12872028673E+04  0.25500000920E-02 0.  1.
    10030    2    1    2    0    0  0.00000000000E+00  0.00000000000E+00 -0.11309920615E+04  0.14434136731E+04  0.89682773621E+03 0.  0.
        2    1    3    3  502    0 -0.30207249801E+03 -0.31714207320E+03 -0.72027367800E+03  0.84298342800E+03  0.25500000920E-02 0.  1.
       -2    1    3    3    0  502  0.30207249801E+03  0.31714207320E+03 -0.41071838348E+03  0.60043024506E+03  0.25500000920E-02 0. -1.
</event>
<event>
 5   0  0.1040163E-02  0.8973694E+03  0.7818609E-02  0.9428876E-01
        4   -1    0    0  501    0  0.00000000000E+00  0.00000000000E+00  0.33065925139E+03  0.33066169029E+03  0.12699999809E+01 0.  1.
       -4   -1    0    0    0  501  0.00000000000E+00  0.00000000000E+00 -0.60883275300E+03  0.60883407758E+03  0.12699999809E+01 0. -1.
    10030    2    1    2    0    0  0.00000000000E+00  0.00000000000E+00 -0.27817350161E+03  0.93949576787E+03  0.89736937816E+03 0.  0.
        1    1    3    3  502    0  0.47262805117E+02 -0.36619066127E+03 -0.40598277015E+03  0.54877261487E+03  0.50400001928E-02 0. -1.
       -1    1    3    3    0  502 -0.47262805117E+02  0.36619066127E+03  0.12780926854E+03  0.39072315301E+03  0.50400001928E-02 0.  1.
</event>
<event>
 5   0  0.1560728E-02  0.7645189E+03  0.7818609E-02  0.9612844E-01
       -1   -1    0    0    0  501  0.00000000000E+00  0.00000000000E+00  0.11817365562E+03  0.11817365573E+03  0.50400001928E-02 0. -1.
        1   -1    0    0  501    0  0.00000000000E+00  0.00000000000E+00 -0.12365047669E+04  0.12365047669E+04  0.50400001928E-02 0.  1.
    10030    2    1    2    0    0  0.00000000000E+00  0.00000000000E+00 -0.11183311113E+04  0.13546784227E+04  0.76451890385E+03 0.  0.
        4    1    3    3  502    0 -0.29872578414E+02  0.10441765721E+03 -0.12085873003E+04  0.12134579899E+04  0.12699999809E+01 0.  1.
       -4    1    3    3    0  502  0.29872578414E+02 -0.10441765721E+03  0.90256188953E+02  0.14122043274E+03  0.12699999809E+01 0. -1.
</event>
<event>
 5   0  0.2803717E-02  0.8849868E+03  0.7818609E-02  0.9444546E-01
       -2   -1    0    0    0  501  0.00000000000E+00  0.00000000000E+00  0.24389567596E+03  0.24389567598E+03  0.25500000920E-02 0.  1.
        2   -1    0    0  501    0  0.00000000000E+00  0.00000000000E+00 -0.80280401845E+03  0.80280401846E+03  0.25500000920E-02 0. -1.
    10030    2    1    2    0    0  0.00000000000E+00  0.00000000000E+00 -0.55890834249E+03  0.10466996944E+04  0.88498684455E+03 0.  0.
        5    1    3    3  502    0  0.38561642482E+03 -0.14459818220E+03 -0.88123556551E+02  0.42118465381E+03  0.46999998093E+01 0.  1.
       -5    1    3    3    0  502 -0.38561642482E+03  0.14459818220E+03 -0.47078478594E+03  0.62551504063E+03  0.46999998093E+01 0. -1.
</event>
<event>
 5   0  0.1040163E-02  0.9034669E+03  0.7818609E-02  0.9421258E-01
       -4   -1    0    0    0  501  0.00000000000E+00  0.00000000000E+00  0.44243159678E+03  0.44243341954E+03  0.12699999809E+01 0. -1.
        4   -1    0    0  501    0  0.00000000000E+00  0.00000000000E+00 -0.46122720954E+03  0.46122895802E+03  0.12699999809E+01 0.  1.
    10030    2    1    2    0    0  0.00000000000E+00  0.00000000000E+00 -0.18795612759E+02  0.90366237756E+03  0.90346688792E+03 0.  0.
        2    1    3    3  502    0 -0.38332907292E+03  0.28697503442E+02 -0.24672194241E+03  0.45676738251E+03  0.25500000920E-02 0.  1.
       -2    1    3    3    0  502  0.38332907292E+03 -0.28697503442E+02  0.22792632965E+03  0.44689499505E+03  0.25500000920E-02 0. -1.
</event>
<event>
 5   0  0.1537870E-02  0.8957859E+03  0.7818609E-02  0.9430865E-01
       -1   -1    0    0    0  501  0.00000000000E+00  0.00000000000E+00  0.77070422229E+03  0.77070422231E+03  0.50400001928E-02 0. -1.
        1   -1    0    0  501    0  0.00000000000E+00  0.00000000000E+00 -0.26029191993E+03  0.26029191997E+03  0.50400001928E-02 0.  1.
    10030    2    1    2    0    0  0.00000000000E+00  0.00000000000E+00  0.51041230237E+03  0.10309961423E+04  0.89578587118E+03 0.  0.
        5    1    3    3  502    0  0.29835791263E+03 -0.12714229322E+03 -0.10028985343E+03  0.33950368401E+03  0.46999998093E+01 0.  1.
       -5    1    3    3    0  502 -0.29835791263E+03  0.12714229322E+03  0.61070215580E+03  0.69149245828E+03  0.46999998093E+01 0. -1.
</event>
<event>
 5   0  0.1560728E-02  0.9126515E+03  0.7818609E-02  0.9409903E-01
        1   -1    0    0  501    0  0.00000000000E+00  0.00000000000E+00  0.56844851703E+03  0.56844851705E+03  0.50400001928E-02 0.  1.
       -1   -1    0    0    0  501  0.00000000000E+00  0.00000000000E+00 -0.36631844941E+03  0.36631844944E+03  0.50400001928E-02 0. -1.
    10030    2    1    2    0    0  0.00000000000E+00  0.00000000000E+00  0.20213006762E+03  0.93476696649E+03  0.91265147642E+03 0.  0.
        4    1    3    3  502    0  0.11840305211E+03 -0.43267019170E+03  0.15317845911E+02  0.44884187287E+03  0.12699999809E+01 0. -1.
       -4    1    3    3    0  502 -0.11840305211E+03  0.43267019170E+03  0.18681222171E+03  0.48592509363E+03  0.12699999809E+01 0.  1.
</event>
<event>
 5   0  0.1497410E-02  0.8914169E+03  0.7818609E-02  0.9436375E-01
       -1   -1    0    0    0  501  0.00000000000E+00  0.00000000000E+00  0.27649881031E+03  0.27649881036E+03  0.50400001928E-02 0.  1.
        1   -1    0    0  501    0  0.00000000000E+00  0.00000000000E+00 -0.71846977922E+03  0.71846977924E+03  0.50400001928E-02 0. -1.
    10030    2    1    2    0    0  0.00000000000E+00  0.00000000000E+00 -0.44197096891E+03  0.99496858960E+03  0.89141693776E+03 0.  0.
        3    1    3    3  502    0  0.23236204532E+03 -0.20776787328E+03  0.13460804543E+03  0.33952753256E+03  0.10100000352E+00 0.  1.
       -3    1    3    3    0  502 -0.23236204532E+03  0.20776787328E+03 -0.57657901434E+03  0.65544105704E+03  0.10100000352E+00 0. -1.
</event>
<event>
 5   0  0.1040163E-02  0.8709101E+03  0.7818609E-02  0.9462694E-01
        3   -1    0    0  501    0  0.00000000000E+00  0.00000000000E+00  0.11076328520E+04  0.11076328566E+04  0.10100000352E+00 0. -1.
       -3   -1    0    0    0  501  0.00000000000E+00  0.00000000000E+00 -0.17119489632E+03  0.17119492611E+03  0.10100000352E+00 0.  1.
    10030    2    1    2    0    0  0.00000000000E+00  0.00000000000E+00  0.93643795568E+03  0.12788277827E+04  0.87091012912E+03 0.  0.
        3    1    3    3  502    0  0.27785242743E+03  0.23385441394E+03  0.11540630063E+03  0.38106230825E+03  0.10100000352E+00 0.  1.
       -3    1    3    3    0  502 -0.27785242743E+03 -0.23385441394E+03  0.82103165505E+03  0.89776547447E+03  0.10100000352E+00 0. -1.
</event>
<event>
 5   0  0.1040163E-02  0.8976397E+03  0.7818609E-02  0.9428537E-01
       -3   -1    0    0    0  501  0.00000000000E+00  0.00000000000E+00  0.43529457821E+03  0.43529458993E+03  0.10100000352E+00 0. -1.
        3   -1    0    0  501    0  0.00000000000E+00  0.00000000000E+00 -0.46276539039E+03  0.46276540142E+03  0.10100000352E+00 0.  1.
    10030    2    1    2    0    0  0.00000000000E+00  0.00000000000E+00 -0.27470812180E+02  0.89805999135E+03  0.89763973984E+03 0.  0.
        2    1    3    3  502    0  0.10429023345E+03  0.45765279861E+02  0.42059727199E+03  0.43574416673E+03  0.25500000920E-02 0. -1.
       -2    1    3    3    0  502 -0.10429023345E+03 -0.45765279861E+02 -0.44806808417E+03  0.46231582461E+03  0.25500000920E-02 0.  1.
</event>
<event>
 5   0  0.1537870E-02  0.9033871E+03  0.7818609E-02  0.9421357E-01
       -1   -1    0    0    0  501  0.00000000000E+00  0.00000000000E+00  0.78736180129E+03  0.78736180131E+03  0.50400001928E-02 0.  1.
        1   -1    0    0  501    0  0.00000000000E+00  0.00000000000E+00 -0.25912748112E+03  0.25912748116E+03  0.50400001928E-02 0. -1.
    10030    2    1    2    0    0  0.00000000000E+00  0.00000000000E+00  0.52823432018E+03  0.10464892825E+04  0.90338713812E+03 0.  0.
        5    1    3    3  502    0 -0.12645960844E+03 -0.38404411957E+03  0.30926011031E+02  0.40553720729E+03  0.46999998093E+01 0. -1.
       -5    1    3    3    0  502  0.12645960844E+03  0.38404411957E+03  0.49730830915E+03  0.64095207518E+03  0.46999998093E+01 0.  1.
</event>
<event>
 5   0  0.1560728E-02  0.9175681E+03  0.7818609E-02  0.9403883E-01
        1   -1    0    0  501    0  0.00000000000E+00  0.00000000000E+00  0.58755609122E+03  0.58755609124E+03  0.50400001928E-02 0.  1.
       -1   -1    0    0    0  501  0.00000000000E+00  0.00000000000E+00 -0.35823443526E+03  0.35823443530E+03  0.50400001928E-02 0. -1.
    10030    2    1    2    0    0  0.00000000000E+00  0.00000000000E+00  0.22932165596E+03  0.94579052653E+03  0.91756814362E+03 0.  0.
        4    1    3    3  502    0 -0.45134137784E+02  0.36318221745E+03 -0.17051243163E+03  0.40375056125E+03  0.12699999809E+01 0. -1.
       -4    1    3    3    0  502  0.45134137784E+02 -0.36318221745E+03  0.39983408759E+03  0.54203996528E+03  0.12699999809E+01 0.  1.
</event>
<event>
 5   0  0.1537870E-02  0.8832049E+03  0.7818609E-02  0.9446823E-01
        1   -1    0    0  501    0  0.00000000000E+00  0.00000000000E+00  0.35093281828E+03  0.35093281831E+03  0.50400001928E-02 0.  1.
       -1   -1    0    0    0  501  0.00000000000E+00  0.00000000000E+00 -0.55569821896E+03  0.55569821898E+03  0.50400001928E-02 0. -1.
    10030    2    1    2    0    0  0.00000000000E+00  0.00000000000E+00 -0.20476540068E+03  0.90663103730E+03  0.88320494138E+03 0.  0.
        5    1    3    3  502    0  0.11035459575E+03  0.30341853059E+03  0.20685448855E+03  0.38347335101E+03  0.46999998093E+01 0.  1.
       -5    1    3    3    0  502 -0.11035459575E+03 -0.30341853059E+03 -0.41161988923E+03  0.52315768628E+03  0.46999998093E+01 0. -1.
</event>
<event>
 5   0  0.2679861E-02  0.9073665E+03  0.7818609E-02  0.9416420E-01
        2   -1    0    0  501    0  0.00000000000E+00  0.00000000000E+00  0.19398620689E+04  0.19398620689E+04  0.25500000920E-02 0. -1.
       -2   -1    0    0    0  501  0.00000000000E+00  0.00000000000E+00 -0.10610469571E+03  0.10610469574E+03  0.25500000920E-02 0.  1.
    10030    2    1    2    0    0  0.00000000000E+00  0.00000000000E+00  0.18337573732E+04  0.20459667647E+04  0.90736646309E+03 0.  0.
        1    1    3    3  502    0 -0.62844271701E+02  0.37326252140E+03  0.14808330447E+04  0.15284439207E+04  0.50400001928E-02 0. -1.
       -1    1    3    3    0  502  0.62844271701E+02 -0.37326252140E+03  0.35292432851E+03  0.51752284399E+03  0.50400001928E-02 0.  1.
</event>
<event>
 5   0  0.1559275E-02  0.8934603E+03  0.7818609E-02  0.9433793E-01
        1   -1    0    0  501    0  0.00000000000E+00  0.00000000000E+00  0.28174245946E+03  0.28174245950E+03  0.50400001928E-02 0.  1.
       -1   -1    0    0    0  501  0.00000000000E+00  0.00000000000E+00 -0.70833423724E+03  0.70833423726E+03  0.50400001928E-02 0. -1.
    10030    2    1    2    0    0  0.00000000000E+00  0.00000000000E+00 -0.42659177779E+03  0.99007669676E+03  0.89346030723E+03 0.  0.
        1    1    3    3  502    0  0.11825060479E+03  0.41650453374E+03 -0.91357485221E+02  0.44249906473E+03  0.50400001928E-02 0.  1.
       -1    1    3    3    0  502 -0.11825060479E+03 -0.41650453374E+03 -0.33523429257E+03  0.54757763203E+03  0.50400001928E-02 0. -1.
</event>
<event>
 5   0  0.2705111E-02  0.9213807E+03  0.7818609E-02  0.9399242E-01
       -2   -1    0    0    0  501  0.00000000000E+00  0.00000000000E+00  0.30970588608E+03  0.30970588609E+03  0.25500000920E-02 0.  1.
        2   -1    0    0  501    0  0.00000000000E+00  0.00000000000E+00 -0.68528116318E+03  0.68528116319E+03  0.25500000920E-02 0. -1.
    10030    2    1    2    0    0  0.00000000000E+00  0.00000000000E+00 -0.37557527710E+03  0.99498704928E+03  0.92138072450E+03 0.  0.
        4    1    3    3  502    0  0.69159842997E+02 -0.11589996786E+03 -0.66345071560E+03  0.67704087865E+03  0.12699999809E+01 0. -1.
       -4    1    3    3    0  502 -0.69159842997E+02  0.11589996786E+03  0.28787543850E+03  0.31794617064E+03  0.12699999809E+01 0.  1.
</event>
<event>
 5   0  0.2803717E-02  0.9143546E+03  0.7818609E-02  0.9407813E-01
       -2   -1    0    0    0  501  0.00000000000E+00  0.00000000000E+00  0.71374260166E+03  0.71374260167E+03  0.25500000920E-02 0. -1.
        2   -1    0    0  501    0  0.00000000000E+00  0.00000000000E+00 -0.29283819514E+03  0.29283819515E+03  0.25500000920E-02 0.  1.
    10030    2    1    2    0    0  0.00000000000E+00  0.00000000000E+00  0.42090440652E+03  0.10065807968E+04  0.91435462546E+03 0.  0.
        5    1    3    3  502    0  0.33054119298E+02 -0.47129818109E+02 -0.28880570184E+03  0.29452439283E+03  0.46999998093E+01 0.  1.
       -5    1    3    3    0  502 -0.33054119298E+02  0.47129818109E+02  0.70971010836E+03  0.71205640399E+03  0.46999998093E+01 0. -1.
</event>
<event>
 5   0  0.1040163E-02  0.9043067E+03  0.7818609E-02  0.9420214E-01
       -4   -1    0    0    0  501  0.00000000000E+00  0.00000000000E+00  0.31818016972E+03  0.31818270428E+03  0.12699999809E+01 0. -1.
        4   -1    0    0  501    0  0.00000000000E+00  0.00000000000E+00 -0.64253163560E+03  0.64253289071E+03  0.12699999809E+01 0.  1.
    10030    2    1    2    0    0  0.00000000000E+00  0.00000000000E+00 -0.32435146588E+03  0.96071559499E+03  0.90430668528E+03 0.  0.
        5    1    3    3  502    0  0.19530039492E+03  0.21403830976E+03 -0.53090803707E+03  0.60484715104E+03  0.46999998093E+01 0.  1.
       -5    1    3    3    0  502 -0.19530039492E+03 -0.21403830976E+03  0.20655657118E+03  0.35586844395E+03  0.46999998093E+01 0. -1.
</event>
<event>
 5   0  0.1559275E-02  0.9054803E+03  0.7818609E-02  0.9418757E-01
       -1   -1    0    0    0  501  0.00000000000E+00  0.00000000000E+00  0.12600121529E+03  0.12600121539E+03  0.50400001928E-02 0. -1.
        1   -1    0    0  501    0  0.00000000000E+00  0.00000000000E+00 -0.16267590966E+04  0.16267590966E+04  0.50400001928E-02 0.  1.
    10030    2    1    2    0    0  0.00000000000E+00  0.00000000000E+00 -0.15007578813E+04  0.17527603120E+04  0.90548025545E+03 0.  0.
        1    1    3    3  502    0 -0.13291820584E+03  0.31640495557E+00 -0.15881391097E+04  0.15936916833E+04  0.50400001928E-02 0.  1.
       -1    1    3    3    0  502  0.13291820584E+03 -0.31640495557E+00  0.87381228364E+02  0.15906862875E+03  0.50400001928E-02 0. -1.
</event>
<event>
 5   0  0.2628383E-02  0.7990994E+03  0.7818609E-02  0.9561322E-01
       -2   -1    0    0    0  501  0.00000000000E+00  0.00000000000E+00  0.15466924627E+03  0.15466924629E+03  0.25500000920E-02 0.  1.
        2   -1    0    0  501    0  0.00000000000E+00  0.00000000000E+00 -0.10321375921E+04  0.10321375921E+04  0.25500000920E-02 0. -1.
    10030    2    1    2    0    0  0.00000000000E+00  0.00000000000E+00 -0.87746834582E+03  0.11868068384E+04  0.79909935158E+03 0.  0.
        2    1    3    3  502    0 -0.72500515870E+02 -0.25863675435E+03 -0.87803303484E+03  0.91820003582E+03  0.25500000920E-02 0. -1.
       -2    1    3    3    0  502  0.72500515870E+02  0.25863675435E+03  0.56468902065E+00  0.26860680256E+03  0.25500000920E-02 0.  1.
</event>
<event>
 5   0  0.1497410E-02  0.9034029E+03  0.7818609E-02  0.9421338E-01
       -1   -1    0    0    0  501  0.00000000000E+00  0.00000000000E+00  0.15177579787E+03  0.15177579796E+03  0.50400001928E-02 0.  1.
        1   -1    0    0  501    0  0.00000000000E+00  0.00000000000E+00 -0.13443131577E+04  0.13443131577E+04  0.50400001928E-02 0. -1.
    10030    2    1    2    0    0  0.00000000000E+00  0.00000000000E+00 -0.11925373598E+04  0.14960889556E+04  0.90340290495E+03 0.  0.
        3    1    3    3  502    0 -0.37507755617E+03 -0.92343903223E+02 -0.98402581485E+03  0.10571269480E+04  0.10100000352E+00 0. -1.
       -3    1    3    3    0  502  0.37507755617E+03  0.92343903223E+02 -0.20851154494E+03  0.43896200768E+03  0.10100000352E+00 0.  1.
</event>
<event>
 5   0  0.1497410E-02  0.8968025E+03  0.7818609E-02  0.9429587E-01
       -1   -1    0    0    0  501  0.00000000000E+00  0.00000000000E+00  0.71065107966E+03  0.71065107968E+03  0.50400001928E-02 0. -1.
        1   -1    0    0  501    0  0.00000000000E+00  0.00000000000E+00 -0.28292883863E+03  0.28292883868E+03  0.50400001928E-02 0.  1.
    10030    2    1    2    0    0  0.00000000000E+00  0.00000000000E+00  0.42772224103E+03  0.99357991836E+03  0.89680250819E+03 0.  0.
        3    1    3    3  502    0  0.34520634351E+03 -0.68803478755E+02 -0.93896400435E+02  0.36430465616E+03  0.10100000352E+00 0.  1.
       -3    1    3    3    0  502 -0.34520634351E+03  0.68803478755E+02  0.52161864146E+03  0.62927526219E+03  0.10100000352E+00 0. -1.
</event>
<event>
 5   0  0.2628383E-02  0.8812492E+03  0.7818609E-02  0.9449329E-01
        2   -1    0    0  501    0  0.00000000000E+00  0.00000000000E+00  0.31097548659E+03  0.31097548660E+03  0.25500000920E-02 0. -1.
       -2   -1    0    0    0  501  0.00000000000E+00  0.00000000000E+00 -0.62432588388E+03  0.62432588389E+03  0.25500000920E-02 0.  1.
    10030    2    1    2    0    0  0.00000000000E+00  0.00000000000E+00 -0.31335039729E+03  0.93530137049E+03  0.88124921683E+03 0.  0.
        2    1    3    3  502    0 -0.15336936029E+03 -0.40339878860E+03 -0.62357714943E+02  0.43605186382E+03  0.25500000920E-02 0.  1.
       -2    1    3    3    0  502  0.15336936029E+03  0.40339878860E+03 -0.25099268235E+03  0.49924950668E+03  0.25500000920E-02 0. -1.
</event>
<event>
 5   0  0.1497410E-02  0.9008440E+03  0.7818609E-02  0.9424527E-01
       -1   -1    0    0    0  501  0.00000000000E+00  0.00000000000E+00  0.63917032256E+03  0.63917032258E+03  0.50400001928E-02 0.  1.
        1   -1    0    0  501    0  0.00000000000E+00  0.00000000000E+00 -0.31741142766E+03  0.31741142770E+03  0.50400001928E-02 0. -1.
    10030    2    1    2    0    0  0.00000000000E+00  0.00000000000E+00  0.32175889490E+03  0.95658175028E+03  0.90084397013E+03 0.  0.
        3    1    3    3  502    0 -0.67507505206E+02 -0.15776349381E+03 -0.28134102904E+03  0.32954418226E+03  0.10100000352E+00 0. -1.
       -3    1    3    3    0  502  0.67507505206E+02  0.15776349381E+03  0.60309992395E+03  0.62703756801E+03  0.10100000352E+00 0.  1.
</event>
<event>
 5   0  0.2414128E-02  0.8785522E+03  0.7818609E-02  0.9452797E-01
       -2   -1    0    0    0  501  0.00000000000E+00  0.00000000000E+00  0.47591338707E+03  0.47591338708E+03  0.25500000920E-02 0. -1.
        2   -1    0    0  501    0  0.00000000000E+00  0.00000000000E+00 -0.40545929140E+03  0.40545929141E+03  0.25500000920E-02 0.  1.
    10030    2    1    2    0    0  0.00000000000E+00  0.00000000000E+00  0.70454095676E+02  0.88137267849E+03  0.87855222883E+03 0.  0.
        3    1    3    3  502    0  0.23932734925E+01  0.41614345638E+03 -0.10587437190E+03  0.42940714581E+03  0.10100000352E+00 0. -1.
       -3    1    3    3    0  502 -0.23932734925E+01 -0.41614345638E+03  0.17632846757E+03  0.45196553268E+03  0.10100000352E+00 0.  1.
</event>
<event>
 5   0  0.2414128E-02  0.8947414E+03  0.7818609E-02  0.9432179E-01
        2   -1    0    0  501    0  0.00000000000E+00  0.00000000000E+00  0.44677186559E+03  0.44677186560E+03  0.25500000920E-02 0. -1.
       -2   -1    0    0    0  501  0.00000000000E+00  0.00000000000E+00 -0.44797030956E+03  0.44797030957E+03  0.25500000920E-02 0.  1.
    10030    2    1    2    0    0  0.00000000000E+00  0.00000000000E+00 -0.11984439716E+01  0.89474217517E+03  0.89474137255E+03 0.  0.
        3    1    3    3  502    0 -0.34924188521E+03 -0.62938275974E+02 -0.27301348907E+03  0.44773596726E+03  0.10100000352E+00 0.  1.
       -3    1    3    3    0  502  0.34924188521E+03  0.62938275974E+02  0.27181504510E+03  0.44700620791E+03  0.10100000352E+00 0. -1.
</event>
<event>
 5   0  0.2628383E-02  0.9085369E+03  0.7818609E-02  0.9414972E-01
        2   -1    0    0  501    0  0.00000000000E+00  0.00000000000E+00  0.10264562508E+04  0.10264562508E+04  0.25500000920E-02 0. -1.
       -2   -1    0    0    0  501  0.00000000000E+00  0.00000000000E+00 -0.20104103923E+03  0.20104103925E+03  0.25500000920E-02 0.  1.
    10030    2    1    2    0    0  0.00000000000E+00  0.00000000000E+00  0.82541521152E+03  0.12274972900E+04  0.90853691481E+03 0.  0.
        2    1    3    3  502    0  0.42532794392E+03  0.35093237783E+02  0.62299091498E+03  0.75515102818E+03  0.25500000920E-02 0. -1.
       -2    1    3    3    0  502 -0.42532794392E+03 -0.35093237783E+02  0.20242429654E+03  0.47234626182E+03  0.25500000920E-02 0.  1.
</event>
<event>
 5   0  0.1560728E-02  0.8968452E+03  0.7818609E-02  0.9429534E-01
        1   -1    0    0  501    0  0.00000000000E+00  0.00000000000E+00  0.18010768604E+04  0.18010768604E+04  0.50400001928E-02 0. -1.
       -1   -1    0    0    0  501  0.00000000000E+00  0.00000000000E+00 -0.11164589639E+03  0.11164589650E+03  0.50400001928E-02 0.  1.
    10030    2    1    2    0    0  0.00000000000E+00  0.00000000000E+00  0.16894309640E+04  0.19127227569E+04  0.89684522780E+03 0.  0.
        4    1    3    3  502    0  0.25695507664E+03 -0.14979392750E+02  0.61593715533E+02  0.26466146737E+03  0.12699999809E+01 0.  1.
       -4    1    3    3    0  502 -0.25695507664E+03  0.14979392750E+02  0.16278372485E+04  0.16480612895E+04  0.12699999809E+01 0. -1.
</event>
<event>
 5   0  0.2679861E-02  0.8998787E+03  0.7818609E-02  0.9425733E-01
       -2   -1    0    0    0  501  0.00000000000E+00  0.00000000000E+00  0.15431398217E+03  0.15431398220E+03  0.25500000920E-02 0. -1.
        2   -1    0    0  501    0  0.00000000000E+00  0.00000000000E+00 -0.13119057465E+04  0.13119057465E+04  0.25500000920E-02 0.  1.
    10030    2    1    2    0    0  0.00000000000E+00  0.00000000000E+00 -0.11575917643E+04  0.14662197287E+04  0.89987865848E+03 0.  0.
        1    1    3    3  502    0  0.10994187890E+03  0.30633115796E+03 -0.72595551609E+02  0.33346080611E+03  0.50400001928E-02 0. -1.
       -1    1    3    3    0  502 -0.10994187890E+03 -0.30633115796E+03 -0.10849962127E+04  0.11327589226E+04  0.50400001928E-02 0.  1.
</event>
<event>
 5   0  0.2628383E-02  0.8861844E+03  0.7818609E-02  0.9443018E-01
       -2   -1    0    0    0  501  0.00000000000E+00  0.00000000000E+00  0.84381661343E+02  0.84381661382E+02  0.25500000920E-02 0. -1.
        2   -1    0    0  501    0  0.00000000000E+00  0.00000000000E+00 -0.23266985802E+04  0.23266985802E+04  0.25500000920E-02 0.  1.
    10030    2    1    2    0    0  0.00000000000E+00  0.00000000000E+00 -0.22423169189E+04  0.24110802416E+04  0.88618438644E+03 0.  0.
        2    1    3    3  502    0 -0.19139412982E+03 -0.18300572572E+03 -0.15459402407E+03  0.30663026736E+03  0.25500000920E-02 0. -1.
       -2    1    3    3    0  502  0.19139412982E+03  0.18300572572E+03 -0.20877228948E+04  0.21044499742E+04  0.25500000920E-02 0.  1.
</event>
<event>
 5   0  0.2679861E-02  0.9166313E+03  0.7818609E-02  0.9405027E-01
        2   -1    0    0  501    0  0.00000000000E+00  0.00000000000E+00  0.11888031223E+04  0.11888031223E+04  0.25500000920E-02 0.  1.
       -2   -1    0    0    0  501  0.00000000000E+00  0.00000000000E+00 -0.17669304346E+03  0.17669304348E+03  0.25500000920E-02 0. -1.
    10030    2    1    2    0    0  0.00000000000E+00  0.00000000000E+00  0.10121100789E+04  0.13654961658E+04  0.91663131472E+03 0.  0.
        1    1    3    3  502    0  0.14330898375E+03 -0.39581853394E+03  0.23608207178E+03  0.48264326503E+03  0.50400001928E-02 0. -1.
       -1    1    3    3    0  502 -0.14330898375E+03  0.39581853394E+03  0.77602800709E+03  0.88285290080E+03  0.50400001928E-02 0.  1.
</event>
<event>
 5   0  0.2414128E-02  0.8680107E+03  0.7818609E-02  0.9466477E-01
        2   -1    0    0  501    0  0.00000000000E+00  0.00000000000E+00  0.22578113987E+04  0.22578113987E+04  0.25500000920E-02 0. -1.
       -2   -1    0    0    0  501  0.00000000000E+00  0.00000000000E+00 -0.83426217726E+02  0.83426217765E+02  0.25500000920E-02 0.  1.
    10030    2    1    2    0    0  0.00000000000E+00  0.00000000000E+00  0.21743851809E+04  0.23412376164E+04  0.86801074965E+03 0.  0.
        3    1    3    3  502    0 -0.10572078621E+03 -0.23969676131E+03  0.15389425747E+03  0.30383362997E+03  0.10100000352E+00 0.  1.
       -3    1    3    3    0  502  0.10572078621E+03  0.23969676131E+03  0.20204909235E+04  0.20374039865E+04  0.10100000352E+00 0. -1.
</event>
<event>
 5   0  0.1040163E-02  0.7228385E+03  0.7818609E-02  0.9678953E-01
        4   -1    0    0  501    0  0.00000000000E+00  0.00000000000E+00  0.35136292161E+03  0.35136521680E+03  0.12699999809E+01 0. -1.
       -4   -1    0    0    0  501  0.00000000000E+00  0.00000000000E+00 -0.37175877914E+03  0.37176094841E+03  0.12699999809E+01 0.  1.
    10030    2    1    2    0    0  0.00000000000E+00  0.00000000000E+00 -0.20395857533E+02  0.72312616522E+03  0.72283847422E+03 0.  0.
        3    1    3    3  502    0  0.61632548407E+02  0.22160430864E+03 -0.28908623848E+03  0.36942915980E+03  0.10100000352E+00 0.  1.
       -3    1    3    3    0  502 -0.61632548407E+02 -0.22160430864E+03  0.26869038094E+03  0.35369700542E+03  0.10100000352E+00 0. -1.
</event>
<event>
 5   0  0.2679861E-02  0.9267324E+03  0.7818609E-02  0.9392768E-01
       -2   -1    0    0    0  501  0.00000000000E+00  0.00000000000E+00  0.32337844305E+03  0.32337844306E+03  0.25500000920E-02 0. -1.
        2   -1    0    0  501    0  0.00000000000E+00  0.00000000000E+00 -0.66395339077E+03  0.66395339078E+03  0.25500000920E-02 0.  1.
    10030    2    1    2    0    0  0.00000000000E+00  0.00000000000E+00 -0.34057494772E+03  0.98733183384E+03  0.92673235354E+03 0.  0.
        1    1    3    3  502    0  0.31658877047E+03 -0.27595171379E+03  0.38296328467E+02  0.42171602618E+03  0.50400001928E-02 0. -1.
       -1    1    3    3    0  502 -0.31658877047E+03  0.27595171379E+03 -0.37887127618E+03  0.56561580766E+03  0.50400001928E-02 0.  1.
</event>
<event>
 5   0  0.2705111E-02  0.9021258E+03  0.7818609E-02  0.9422928E-01
       -2   -1    0    0    0  501  0.00000000000E+00  0.00000000000E+00  0.27610133850E+03  0.27610133851E+03  0.25500000920E-02 0. -1.
        2   -1    0    0  501    0  0.00000000000E+00  0.00000000000E+00 -0.73689518308E+03  0.73689518309E+03  0.25500000920E-02 0.  1.
    10030    2    1    2    0    0  0.00000000000E+00  0.00000000000E+00 -0.46079384458E+03  0.10129965216E+04  0.90212581471E+03 0.  0.
        4    1    3    3  502    0 -0.13917379821E+03  0.41081003369E+03 -0.91402553242E+02  0.44327222959E+03  0.12699999809E+01 0.  1.
       -4    1    3    3    0  502  0.13917379821E+03 -0.41081003369E+03 -0.36939129134E+03  0.56972429201E+03  0.12699999809E+01 0. -1.
</event>
<event>
 5   0  0.1559275E-02  0.8915567E+03  0.7818609E-02  0.9436198E-01
       -1   -1    0    0    0  501  0.00000000000E+00  0.00000000000E+00  0.12014441615E+03  0.12014441626E+03  0.50400001928E-02 0. -1.
        1   -1    0    0  501    0  0.00000000000E+00  0.00000000000E+00 -0.16539956402E+04  0.16539956402E+04  0.50400001928E-02 0.  1.
    10030    2    1    2    0    0  0.00000000000E+00  0.00000000000E+00 -0.15338512240E+04  0.17741400564E+04  0.89155670735E+03 0.  0.
        1    1    3    3  502    0  0.13471979398E+03  0.18872803590E+03 -0.15245413849E+04  0.15420746184E+04  0.50400001928E-02 0.  1.
       -1    1    3    3    0  502 -0.13471979398E+03 -0.18872803590E+03 -0.93098391776E+01  0.23206543809E+03  0.50400001928E-02 0. -1.
</event>
<event>
 5   0  0.1459111E-02  0.9085704E+03  0.7818609E-02  0.9414931E-01
       -1   -1    0    0    0  501  0.00000000000E+00  0.00000000000E+00  0.87731368899E+03  0.87731368900E+03  0.50400001928E-02 0. -1.
        1   -1    0    0  501    0  0.00000000000E+00  0.00000000000E+00 -0.23523515876E+03  0.23523515882E+03  0.50400001928E-02 0.  1.
    10030    2    1    2    0    0  0.00000000000E+00  0.00000000000E+00  0.64207853023E+03  0.11125488478E+04  0.90857036040E+03 0.  0.
        2    1    3    3  502    0  0.41473567566E+03  0.18521073924E+03  0.31106677579E+03  0.55051906198E+03  0.25500000920E-02 0. -1.
       -2    1    3    3    0  502 -0.41473567566E+03 -0.18521073924E+03  0.33101175443E+03  0.56202978584E+03  0.25500000920E-02 0.  1.
</event>
<event>
 5   0  0.1537870E-02  0.8931228E+03  0.7818609E-02  0.9434219E-01
        1   -1    0    0  501    0  0.00000000000E+00  0.00000000000E+00  0.14372946091E+04  0.14372946091E+04  0.50400001928E-02 0.  1.
       -1   -1    0    0    0  501  0.00000000000E+00  0.00000000000E+00 -0.13874474615E+03  0.13874474624E+03  0.50400001928E-02 0. -1.
    10030    2    1    2    0    0  0.00000000000E+00  0.00000000000E+00  0.12985498630E+04  0.15760393554E+04  0.89312278162E+03 0.  0.
        5    1    3    3  502    0 -0.67353606312E+02  0.44090828791E+03  0.61149520262E+03  0.75689173562E+03  0.46999998093E+01 0.  1.
       -5    1    3    3    0  502  0.67353606312E+02 -0.44090828791E+03  0.68705466036E+03  0.81914761976E+03  0.46999998093E+01 0. -1.
</event>
<event>
 5   0  0.1537870E-02  0.9001391E+03  0.7818609E-02  0.9425408E-01
       -1   -1    0    0    0  501  0.00000000000E+00  0.00000000000E+00  0.22354440779E+03  0.22354440784E+03  0.50400001928E-02 0. -1.
        1   -1    0    0  501    0  0.00000000000E+00  0.00000000000E+00 -0.90614039219E+03  0.90614039220E+03  0.50400001928E-02 0.  1.
    10030    2    1    2    0    0  0.00000000000E+00  0.00000000000E+00 -0.68259598440E+03  0.11296848000E+04  0.90013913899E+03 0.  0.
        5    1    3    3  502    0 -0.41404124259E+03  0.14002604801E+03 -0.20669498562E+03  0.48351044639E+03  0.46999998093E+01 0.  1.
       -5    1    3    3    0  502  0.41404124259E+03 -0.14002604801E+03 -0.47590099878E+03  0.64617435366E+03  0.46999998093E+01 0. -1.
</event>
<event>
 5   0  0.1559275E-02  0.8695869E+03  0.7818609E-02  0.9464419E-01
       -1   -1    0    0    0  501  0.00000000000E+00  0.00000000000E+00  0.90525686266E+02  0.90525686406E+02  0.50400001928E-02 0. -1.
        1   -1    0    0  501    0  0.00000000000E+00  0.00000000000E+00 -0.20883059157E+04  0.20883059157E+04  0.50400001928E-02 0.  1.
    10030    2    1    2    0    0  0.00000000000E+00  0.00000000000E+00 -0.19977802294E+04  0.21788316021E+04  0.86958685894E+03 0.  0.
        1    1    3    3  502    0  0.12238920403E+03 -0.28369862127E+03 -0.23240233074E+03  0.38661979817E+03  0.50400001928E-02 0. -1.
       -1    1    3    3    0  502 -0.12238920403E+03  0.28369862127E+03 -0.17653778987E+04  0.17922118039E+04  0.50400001928E-02 0.  1.
</event>
<event>
 5   0  0.2705111E-02  0.7783513E+03  0.7818609E-02  0.9591892E-01
        2   -1    0    0  501    0  0.00000000000E+00  0.00000000000E+00  0.13951986870E+04  0.13951986870E+04  0.25500000920E-02 0.  1.
       -2   -1    0    0    0  501  0.00000000000E+00  0.00000000000E+00 -0.10855636840E+03  0.10855636843E+03  0.25500000920E-02 0. -1.
    10030    2    1    2    0    0  0.00000000000E+00  0.00000000000E+00  0.12866423186E+04  0.15037550555E+04  0.77835134145E+03 0.  0.
        4    1    3    3  502    0  0.11060578892E+03  0.12304680221E+03 -0.37222040334E+02  0.16959141860E+03  0.12699999809E+01 0. -1.
       -4    1    3    3    0  502 -0.11060578892E+03 -0.12304680221E+03  0.13238643590E+04  0.13341636369E+04  0.12699999809E+01 0.  1.
</event>
<event>
 5   0  0.1559275E-02  0.8630088E+03  0.7818609E-02  0.9473041E-01
       -1   -1    0    0    0  501  0.00000000000E+00  0.00000000000E+00  0.53357817490E+03  0.53357817492E+03  0.50400001928E-02 0. -1.
        1   -1    0    0  501    0  0.00000000000E+00  0.00000000000E+00 -0.34895735735E+03  0.34895735738E+03  0.50400001928E-02 0.  1.
    10030    2    1    2    0    0  0.00000000000E+00  0.00000000000E+00  0.18462081755E+03  0.88253553230E+03  0.86300875981E+03 0.  0.
        1    1    3    3  502    0 -0.21622445989E+03 -0.62267852383E+01  0.47412716816E+03  0.52114140261E+03  0.50400001928E-02 0. -1.
       -1    1    3    3    0  502  0.21622445989E+03  0.62267852383E+01 -0.28950635060E+03  0.36139412969E+03  0.50400001928E-02 0.  1.
</event>
<event>
 5   0  0.2803717E-02  0.9091125E+03  0.7818609E-02  0.9414262E-01
        2   -1    0    0  501    0  0.00000000000E+00  0.00000000000E+00  0.77411048188E+03  0.77411048188E+03  0.25500000920E-02 0. -1.
       -2   -1    0    0    0  501  0.00000000000E+00  0.00000000000E+00 -0.26691456994E+03  0.26691456995E+03  0.25500000920E-02 0.  1.
    10030    2    1    2    0    0  0.00000000000E+00  0.00000000000E+00  0.50719591194E+03  0.10410250518E+04  0.90911246029E+03 0.  0.
        5    1    3    3  502    0  0.31739842646E+03 -0.22851295736E+03  0.51880514823E+03  0.64972363711E+03  0.46999998093E+01 0. -1.
       -5    1    3    3    0  502 -0.31739842646E+03  0.22851295736E+03 -0.11609236289E+02  0.39130141472E+03  0.46999998093E+01 0.  1.
</event>
<event>
 5   0  0.2803717E-02  0.9269279E+03  0.7818609E-02  0.9392532E-01
       -2   -1    0    0    0  501  0.00000000000E+00  0.00000000000E+00  0.18651180684E+03  0.18651180686E+03  0.25500000920E-02 0.  1.
        2   -1    0    0  501    0  0.00000000000E+00  0.00000000000E+00 -0.11516635140E+04  0.11516635140E+04  0.25500000920E-02 0. -1.
    10030    2    1    2    0    0  0.00000000000E+00  0.00000000000E+00 -0.96515170713E+03  0.13381753208E+04  0.92692792143E+03 0.  0.
        5    1    3    3  502    0 -0.20324225969E+03  0.32379216708E+03 -0.10437924858E+03  0.39631540611E+03  0.46999998093E+01 0.  1.
       -5    1    3    3    0  502  0.20324225969E+03 -0.32379216708E+03 -0.86077245855E+03  0.94185991473E+03  0.46999998093E+01 0. -1.
</event>
<event>
 5   0  0.2803717E-02  0.9073906E+03  0.7818609E-02  0.9416390E-01
        2   -1    0    0  501    0  0.00000000000E+00  0.00000000000E+00  0.14304821293E+04  0.14304821293E+04  0.25500000920E-02 0. -1.
       -2   -1    0    0    0  501  0.00000000000E+00  0.00000000000E+00 -0.14389512453E+03  0.14389512455E+03  0.25500000920E-02 0.  1.
    10030    2    1    2    0    0  0.00000000000E+00  0.00000000000E+00  0.12865870048E+04  0.15743772538E+04  0.90739055350E+03 0.  0.
        5    1    3    3  502    0  0.11328010405E+03 -0.11039699087E+03  0.13810459978E+04  0.13900827370E+04  0.46999998093E+01 0. -1.
       -5    1    3    3    0  502 -0.11328010405E+03  0.11039699087E+03 -0.94458993073E+02  0.18429451684E+03  0.46999998093E+01 0.  1.
</event>
<event>
 5   0  0.2628383E-02  0.9038279E+03  0.7818609E-02  0.9420809E-01
       -2   -1    0    0    0  501  0.00000000000E+00  0.00000000000E+00  0.11721645024E+04  0.11721645024E+04  0.25500000920E-02 0. -1.
        2   -1    0    0  501    0  0.00000000000E+00  0.00000000000E+00 -0.17423000919E+03  0.17423000921E+03  0.25500000920E-02 0.  1.
    10030    2    1    2    0    0  0.00000000000E+00  0.00000000000E+00  0.99793449325E+03  0.13463945116E+04  0.90382793062E+03 0.  0.
        2    1    3    3  502    0  0.44736344979E+03  0.31364670717E+02  0.58202063371E+03  0.73475561709E+03  0.25500000920E-02 0.  1.
       -2    1    3    3    0  502 -0.44736344979E+03 -0.31364670717E+02  0.41591385954E+03  0.61163889456E+03  0.25500000920E-02 0. -1.
</event>
<event>
 5   0  0.1560728E-02  0.8841913E+03  0.7818609E-02  0.9445562E-01
       -1   -1    0    0    0  501  0.00000000000E+00  0.00000000000E+00  0.95826302767E+02  0.95826302900E+02  0.50400001928E-02 0. -1.
        1   -1    0    0  501    0  0.00000000000E+00  0.00000000000E+00 -0.20396127111E+04  0.20396127111E+04  0.50400001928E-02 0.  1.
    10030    2    1    2    0    0  0.00000000000E+00  0.00000000000E+00 -0.19437864084E+04  0.21354390140E+04  0.88419125834E+03 0.  0.
        4    1    3    3  502    0  0.22675628851E+03 -0.35970514468E+03 -0.12641215075E+04  0.13337207369E+04  0.12699999809E+01 0. -1.
       -4    1    3    3    0  502 -0.22675628851E+03  0.35970514468E+03 -0.67966490086E+03  0.80171827710E+03  0.12699999809E+01 0.  1.
</event>
<event>
 5   0  0.2679861E-02  0.8527955E+03  0.7818609E-02  0.9486593E-01
       -2   -1    0    0    0  501  0.00000000000E+00  0.00000000000E+00  0.15412242319E+03  0.15412242321E+03  0.25500000920E-02 0. -1.
        2   -1    0    0  501    0  0.00000000000E+00  0.00000000000E+00 -0.11796793612E+04  0.11796793612E+04  0.25500000920E-02 0.  1.
    10030    2    1    2    0    0  0.00000000000E+00  0.00000000000E+00 -0.10255569380E+04  0.13338017844E+04  0.85279550127E+03 0.  0.
        1    1    3    3  502    0 -0.99680723017E+02 -0.25126460651E+03 -0.10285422345E+04  0.10634703932E+04  0.50400001928E-02 0.  1.
       -1    1    3    3    0  502  0.99680723017E+02  0.25126460651E+03  0.29852965414E+01  0.27033139116E+03  0.50400001928E-02 0. -1.
</event>
<event>
 5   0  0.2803717E-02  0.8960760E+03  0.7818609E-02  0.9430500E-01
       -2   -1    0    0    0  501  0.00000000000E+00  0.00000000000E+00  0.60205400343E+03  0.60205400344E+03  0.25500000920E-02 0.  1.
        2   -1    0    0  501    0  0.00000000000E+00  0.00000000000E+00 -0.33342196354E+03  0.33342196355E+03  0.25500000920E-02 0. -1.
    10030    2    1    2    0    0  0.00000000000E+00  0.00000000000E+00  0.26863203989E+03  0.93547596699E+03  0.89607595211E+03 0.  0.
        5    1    3    3  502    0  0.16827886596E+03 -0.31004612862E+03 -0.15399645289E+03  0.38494593919E+03  0.46999998093E+01 0. -1.
       -5    1    3    3    0  502 -0.16827886596E+03  0.31004612862E+03  0.42262849278E+03  0.55053002780E+03  0.46999998093E+01 0.  1.
</event>
<event>
 5   0  0.2705111E-02  0.9703647E+03  0.7818609E-02  0.9341659E-01
        2   -1    0    0  501    0  0.00000000000E+00  0.00000000000E+00  0.22116940865E+03  0.22116940866E+03  0.25500000920E-02 0. -1.
       -2   -1    0    0    0  501  0.00000000000E+00  0.00000000000E+00 -0.10643510429E+04  0.10643510429E+04  0.25500000920E-02 0.  1.
    10030    2    1    2    0    0  0.00000000000E+00  0.00000000000E+00 -0.84318163422E+03  0.12855204515E+04  0.97036465466E+03 0.  0.
        4    1    3    3  502    0 -0.15884309321E+03 -0.42558302651E+03 -0.19580122871E+03  0.49466329436E+03  0.12699999809E+01 0. -1.
       -4    1    3    3    0  502  0.15884309321E+03  0.42558302651E+03 -0.64738040550E+03  0.79085715717E+03  0.12699999809E+01 0.  1.
</event>
<event>
 5   0  0.2414128E-02  0.6554435E+03  0.7818609E-02  0.9796618E-01
        2   -1    0    0  501    0  0.00000000000E+00  0.00000000000E+00  0.61130582176E+03  0.61130582177E+03  0.25500000920E-02 0.  1.
       -2   -1    0    0    0  501  0.00000000000E+00  0.00000000000E+00 -0.17569202131E+03  0.17569202133E+03  0.25500000920E-02 0. -1.
    10030    2    1    2    0    0  0.00000000000E+00  0.00000000000E+00  0.43561380045E+03  0.78699784310E+03  0.65544353068E+03 0.  0.
        3    1    3    3  502    0  0.64644269437E+02  0.20749394170E+03  0.51233341434E+03  0.55652327450E+03  0.10100000352E+00 0.  1.
       -3    1    3    3    0  502 -0.64644269437E+02 -0.20749394170E+03 -0.76719613890E+02  0.23047456860E+03  0.10100000352E+00 0. -1.
</event>
<event>
 5   0  0.2803717E-02  0.8928638E+03  0.7818609E-02  0.9434546E-01
       -2   -1    0    0    0  501  0.00000000000E+00  0.00000000000E+00  0.36274471311E+03  0.36274471312E+03  0.25500000920E-02 0.  1.
        2   -1    0    0  501    0  0.00000000000E+00  0.00000000000E+00 -0.54942616753E+03  0.54942616754E+03  0.25500000920E-02 0. -1.
    10030    2    1    2    0    0  0.00000000000E+00  0.00000000000E+00 -0.18668145442E+03  0.91217088065E+03  0.89286379145E+03 0.  0.
        5    1    3    3  502    0 -0.28462679079E+03 -0.31781851692E+03  0.40870964159E+02  0.42861818142E+03  0.46999998093E+01 0.  1.
       -5    1    3    3    0  502  0.28462679079E+03  0.31781851692E+03 -0.22755241858E+03  0.48355269923E+03  0.46999998093E+01 0. -1.
</event>
<event>
 5   0  0.1560728E-02  0.9011556E+03  0.7818609E-02  0.9424138E-01
       -1   -1    0    0    0  501  0.00000000000E+00  0.00000000000E+00  0.62382981132E+03  0.62382981134E+03  0.50400001928E-02 0.  1.
        1   -1    0    0  501    0  0.00000000000E+00  0.00000000000E+00 -0.32544188491E+03  0.32544188495E+03  0.50400001928E-02 0. -1.
    10030    2    1    2    0    0  0.00000000000E+00  0.00000000000E+00  0.29838792640E+03  0.94927169629E+03  0.90115559076E+03 0.  0.
        4    1    3    3  502    0 -0.19544989543E+03 -0.79450577287E+02 -0.27019130099E+03  0.34280899622E+03  0.12699999809E+01 0. -1.
       -4    1    3    3    0  502  0.19544989543E+03  0.79450577287E+02  0.56857922739E+03  0.60646270007E+03  0.12699999809E+01 0.  1.
</event>
<event>
 5   0  0.1497410E-02  0.8641806E+03  0.7818609E-02  0.9471499E-01
        1   -1    0    0  501    0  0.00000000000E+00  0.00000000000E+00  0.12203133558E+04  0.12203133558E+04  0.50400001928E-02 0.  1.
       -1   -1    0    0    0  501  0.00000000000E+00  0.00000000000E+00 -0.15299513954E+03  0.15299513962E+03  0.50400001928E-02 0. -1.
    10030    2    1    2    0    0  0.00000000000E+00  0.00000000000E+00  0.10673182162E+04  0.13733084954E+04  0.86418056496E+03 0.  0.
        3    1    3    3  502    0  0.99111712803E+02 -0.33869540650E+03  0.92987702250E+03  0.99458986379E+03  0.10100000352E+00 0.  1.
       -3    1    3    3    0  502 -0.99111712803E+02  0.33869540650E+03  0.13744119374E+03  0.37871863162E+03  0.10100000352E+00 0. -1.
</event>
<event>
 5   0  0.1537870E-02  0.6657190E+03  0.7818609E-02  0.9777723E-01
       -1   -1    0    0    0  501  0.00000000000E+00  0.00000000000E+00  0.22939415815E+03  0.22939415820E+03  0.50400001928E-02 0.  1.
        1   -1    0    0  501    0  0.00000000000E+00  0.00000000000E+00 -0.48299160740E+03  0.48299160742E+03  0.50400001928E-02 0. -1.
    10030    2    1    2    0    0  0.00000000000E+00  0.00000000000E+00 -0.25359744925E+03  0.71238576563E+03  0.66571901941E+03 0.  0.
        5    1    3    3  502    0 -0.23753212472E+03  0.22974503076E+03 -0.84410429494E+02  0.34110335683E+03  0.46999998093E+01 0.  1.
       -5    1    3    3    0  502  0.23753212472E+03 -0.22974503076E+03 -0.16918701976E+03  0.37128240880E+03  0.46999998093E+01 0. -1.
</event>
<event>
 5   0  0.2679861E-02  0.7989829E+03  0.7818609E-02  0.9561490E-01
       -2   -1    0    0    0  501  0.00000000000E+00  0.00000000000E+00  0.20961724674E+03  0.20961724676E+03  0.25500000920E-02 0. -1.
        2   -1    0    0  501    0  0.00000000000E+00  0.00000000000E+00 -0.76135631763E+03  0.76135631764E+03  0.25500000920E-02 0.  1.
    10030    2    1    2    0    0  0.00000000000E+00  0.00000000000E+00 -0.55173907089E+03  0.97097356440E+03  0.79898289119E+03 0.  0.
        1    1    3    3  502    0 -0.13861894913E+03 -0.35024463404E+03 -0.43758113515E+03  0.57737662456E+03  0.50400001928E-02 0.  1.
       -1    1    3    3    0  502  0.13861894913E+03  0.35024463404E+03 -0.11415793575E+03  0.39359693984E+03  0.50400001928E-02 0. -1.
</event>
<event>
 5   0  0.2803717E-02  0.1090309E+04  0.7818609E-02  0.9214689E-01
        2   -1    0    0  501    0  0.00000000000E+00  0.00000000000E+00  0.11860192558E+04  0.11860192558E+04  0.25500000920E-02 0.  1.
       -2   -1    0    0    0  501  0.00000000000E+00  0.00000000000E+00 -0.25058050514E+03  0.25058050515E+03  0.25500000920E-02 0. -1.
    10030    2    1    2    0    0  0.00000000000E+00  0.00000000000E+00  0.93543875068E+03  0.14365997610E+04  0.10903087714E+04 0.  0.
        5    1    3    3  502    0 -0.24651019822E+03  0.27839389152E+03  0.99294909842E+03  0.10603020507E+04  0.46999998093E+01 0.  1.
       -5    1    3    3    0  502  0.24651019822E+03 -0.27839389152E+03 -0.57510347741E+02  0.37629771027E+03  0.46999998093E+01 0. -1.
</event>
<event>
 5   0  0.1537870E-02  0.8568683E+03  0.7818609E-02  0.9481165E-01
        1   -1    0    0  501    0  0.00000000000E+00  0.00000000000E+00  0.10599405123E+04  0.10599405123E+04  0.50400001928E-02 0. -1.
       -1   -1    0    0    0  501  0.00000000000E+00  0.00000000000E+00 -0.17317557886E+03  0.17317557894E+03  0.50400001928E-02 0.  1.
    10030    2    1    2    0    0  0.00000000000E+00  0.00000000000E+00  0.88676493344E+03  0.12331160912E+04  0.85686827886E+03 0.  0.
        5    1    3    3  502    0 -0.17231000712E+03  0.37719948398E+03  0.59813407219E+03  0.72784383461E+03  0.46999998093E+01 0. -1.
       -5    1    3    3    0  502  0.17231000712E+03 -0.37719948398E+03  0.28863086125E+03  0.50527225664E+03  0.46999998093E+01 0.  1.
</event>
<event>
 5   0  0.1559275E-02  0.9547905E+03  0.7818609E-02  0.9359569E-01
        1   -1    0    0  501    0  0.00000000000E+00  0.00000000000E+00  0.65723414895E+03  0.65723414896E+03  0.50400001928E-02 0.  1.
       -1   -1    0    0    0  501  0.00000000000E+00  0.00000000000E+00 -0.34676567168E+03  0.34676567172E+03  0.50400001928E-02 0. -1.
    10030    2    1    2    0    0  0.00000000000E+00  0.00000000000E+00  0.31046847726E+03  0.10039998207E+04  0.95479053439E+03 0.  0.
        1    1    3    3  502    0 -0.15782297959E+03  0.44670556489E+03  0.21701865472E+03  0.52110560457E+03  0.50400001928E-02 0.  1.
       -1    1    3    3    0  502  0.15782297959E+03 -0.44670556489E+03  0.93449822547E+02  0.48289421611E+03  0.50400001928E-02 0. -1.
</event>
<event>
 5   0  0.2628383E-02  0.1009994E+04  0.7818609E-02  0.9297651E-01
       -2   -1    0    0    0  501  0.00000000000E+00  0.00000000000E+00  0.40989902510E+03  0.40989902511E+03  0.25500000920E-02 0. -1.
        2   -1    0    0  501    0  0.00000000000E+00  0.00000000000E+00 -0.62215761979E+03  0.62215761979E+03  0.25500000920E-02 0.  1.
    10030    2    1    2    0    0  0.00000000000E+00  0.00000000000E+00 -0.21225859468E+03  0.10320566449E+04  0.10099936669E+04 0.  0.
        2    1    3    3  502    0  0.35284421898E+03 -0.80201623127E+02  0.25383056626E+03  0.44199694523E+03  0.25500000920E-02 0. -1.
       -2    1    3    3    0  502 -0.35284421898E+03  0.80201623127E+02 -0.46608916094E+03  0.59005969967E+03  0.25500000920E-02 0.  1.
</event>
<event>
 5   0  0.1560728E-02  0.9199384E+03  0.7818609E-02  0.9400995E-01
        1   -1    0    0  501    0  0.00000000000E+00  0.00000000000E+00  0.15086749092E+04  0.15086749092E+04  0.50400001928E-02 0.  1.
       -1   -1    0    0    0  501  0.00000000000E+00  0.00000000000E+00 -0.14023675262E+03  0.14023675271E+03  0.50400001928E-02 0. -1.
    10030    2    1    2    0    0  0.00000000000E+00  0.00000000000E+00  0.13684381565E+04  0.16489116619E+04  0.91993841120E+03 0.  0.
        4    1    3    3  502    0 -0.37289430607E+03 -0.23013539675E+03  0.93488560145E+03  0.10324849466E+04  0.12699999809E+01 0.  1.
       -4    1    3    3    0  502  0.37289430607E+03  0.23013539675E+03  0.43355255510E+03  0.61642671525E+03  0.12699999809E+01 0. -1.
</event>
<event>
 5   0  0.2705111E-02  0.9048242E+03  0.7818609E-02  0.9419571E-01
       -2   -1    0    0    0  501  0.00000000000E+00  0.00000000000E+00  0.60840623733E+03  0.60840623734E+03  0.25500000920E-02 0.  1.
        2   -1    0    0  501    0  0.00000000000E+00  0.00000000000E+00 -0.33641453694E+03  0.33641453695E+03  0.25500000920E-02 0. -1.
    10030    2    1    2    0    0  0.00000000000E+00  0.00000000000E+00  0.27199170039E+03  0.94482077429E+03  0.90482418759E+03 0.  0.
        4    1    3    3  502    0 -0.24266597721E+03  0.12044666645E+03  0.51433913289E+03  0.58132652827E+03  0.12699999809E+01 0.  1.
       -4    1    3    3    0  502  0.24266597721E+03 -0.12044666645E+03 -0.24234743250E+03  0.36349424602E+03  0.12699999809E+01 0. -1.
</event>
<event>
 5   0  0.2679861E-02  0.9110097E+03  0.7818609E-02  0.9411922E-01
        2   -1    0    0  501    0  0.00000000000E+00  0.00000000000E+00  0.98301764502E+03  0.98301764502E+03  0.25500000920E-02 0. -1.
       -2   -1    0    0    0  501  0.00000000000E+00  0.00000000000E+00 -0.21106914217E+03  0.21106914219E+03  0.25500000920E-02 0.  1.
    10030    2    1    2    0    0  0.00000000000E+00  0.00000000000E+00  0.77194850285E+03  0.11940867872E+04  0.91100974985E+03 0.  0.
        1    1    3    3  502    0  0.11207978997E+03  0.43206182549E+03  0.50499385166E+03  0.67398671397E+03  0.50400001928E-02 0. -1.
       -1    1    3    3    0  502 -0.11207978997E+03 -0.43206182549E+03  0.26695465118E+03  0.52010007324E+03  0.50400001928E-02 0.  1.
</event>
<event>
 5   0  0.1040163E-02  0.8986193E+03  0.7818609E-02  0.9427309E-01
       -4   -1    0    0    0  501  0.00000000000E+00  0.00000000000E+00  0.85839723916E+03  0.85839817864E+03  0.12699999809E+01 0.  1.
        4   -1    0    0  501    0  0.00000000000E+00  0.00000000000E+00 -0.23517875376E+03  0.23518218283E+03  0.12699999809E+01 0. -1.
    10030    2    1    2    0    0  0.00000000000E+00  0.00000000000E+00  0.62321848540E+03  0.10935803615E+04  0.89861934458E+03 0.  0.
        2    1    3    3  502    0 -0.32954069358E+03  0.17396939228E+03  0.61150308898E+01  0.37269265056E+03  0.25500000920E-02 0. -1.
       -2    1    3    3    0  502  0.32954069358E+03 -0.17396939228E+03  0.61710345451E+03  0.72088771091E+03  0.25500000920E-02 0.  1.
</event>
<event>
 5   0  0.1559275E-02  0.9101493E+03  0.7818609E-02  0.9412982E-01
        1   -1    0    0  501    0  0.00000000000E+00  0.00000000000E+00  0.36653474169E+03  0.36653474173E+03  0.50400001928E-02 0. -1.
       -1   -1    0    0    0  501  0.00000000000E+00  0.00000000000E+00 -0.56500219912E+03  0.56500219914E+03  0.50400001928E-02 0.  1.
    10030    2    1    2    0    0  0.00000000000E+00  0.00000000000E+00 -0.19846745742E+03  0.93153694087E+03  0.91014929575E+03 0.  0.
        1    1    3    3  502    0  0.23136219900E+03 -0.21328502654E+03  0.23723754171E+03  0.39408199767E+03  0.50400001928E-02 0. -1.
       -1    1    3    3    0  502 -0.23136219900E+03  0.21328502654E+03 -0.43570499913E+03  0.53745494319E+03  0.50400001928E-02 0.  1.
</event>
<event>
 5   0  0.1537870E-02  0.9175929E+03  0.7818609E-02  0.9403853E-01
        1   -1    0    0  501    0  0.00000000000E+00  0.00000000000E+00  0.64102658696E+03  0.64102658698E+03  0.50400001928E-02 0.  1.
       -1   -1    0    0    0  501  0.00000000000E+00  0.00000000000E+00 -0.32837045080E+03  0.32837045084E+03  0.50400001928E-02 0. -1.
    10030    2    1    2    0    0  0.00000000000E+00  0.00000000000E+00  0.31265613616E+03  0.96939703782E+03  0.91759291489E+03 0.  0.
        5    1    3    3  502    0  0.33099294025E+03  0.31128389208E+03  0.22329534252E+03  0.50629723281E+03  0.46999998093E+01 0. -1.
       -5    1    3    3    0  502 -0.33099294025E+03 -0.31128389208E+03  0.89360793641E+02  0.46309980501E+03  0.46999998093E+01 0.  1.
</event>
<event>
 5   0  0.2705111E-02  0.9406218E+03  0.7818609E-02  0.9376180E-01
        2   -1    0    0  501    0  0.00000000000E+00  0.00000000000E+00  0.99189552159E+03  0.99189552159E+03  0.25500000920E-02 0.  1.
       -2   -1    0    0    0  501  0.00000000000E+00  0.00000000000E+00 -0.22299961491E+03  0.22299961492E+03  0.25500000920E-02 0. -1.
    10030    2    1    2    0    0  0.00000000000E+00  0.00000000000E+00  0.76889590668E+03  0.12148951365E+04  0.94062175044E+03 0.  0.
        4    1    3    3  502    0  0.14794372004E+03  0.14066767791E+03  0.93168478203E+03  0.95378870085E+03  0.12699999809E+01 0.  1.
       -4    1    3    3    0  502 -0.14794372004E+03 -0.14066767791E+03 -0.16278887535E+03  0.26110643566E+03  0.12699999809E+01 0. -1.
</event>
<event>
 5   0  0.1040163E-02  0.9051204E+03  0.7818609E-02  0.9419203E-01
        3   -1    0    0  501    0  0.00000000000E+00  0.00000000000E+00  0.14635993944E+04  0.14635993979E+04  0.10100000352E+00 0. -1.
       -3   -1    0    0    0  501  0.00000000000E+00  0.00000000000E+00 -0.13993631871E+03  0.13993635516E+03  0.10100000352E+00 0.  1.
    10030    2    1    2    0    0  0.00000000000E+00  0.00000000000E+00  0.13236630757E+04  0.16035357531E+04  0.90512041928E+03 0.  0.
        1    1    3    3  502    0 -0.25327400732E+03 -0.16398698247E+03  0.12594013178E+04  0.12950409772E+04  0.50400001928E-02 0. -1.
       -1    1    3    3    0  502  0.25327400732E+03  0.16398698247E+03  0.64261757894E+02  0.30849477590E+03  0.50400001928E-02 0.  1.
</event>
<event>
 5   0  0.1560728E-02  0.9273481E+03  0.7818609E-02  0.9392026E-01
       -1   -1    0    0    0  501  0.00000000000E+00  0.00000000000E+00  0.12975804454E+03  0.12975804464E+03  0.50400001928E-02 0.  1.
        1   -1    0    0  501    0  0.00000000000E+00  0.00000000000E+00 -0.16568807913E+04  0.16568807913E+04  0.50400001928E-02 0. -1.
    10030    2    1    2    0    0  0.00000000000E+00  0.00000000000E+00 -0.15271227467E+04  0.17866388359E+04  0.92734807187E+03 0.  0.
        4    1    3    3  502    0 -0.38323430880E+03  0.11574545712E+03 -0.12142666523E+04  0.12785580401E+04  0.12699999809E+01 0. -1.
       -4    1    3    3    0  502  0.38323430880E+03 -0.11574545712E+03 -0.31285609444E+03  0.50808079575E+03  0.12699999809E+01 0.  1.
</event>
<event>
 5   0  0.2705111E-02  0.8962701E+03  0.7818609E-02  0.9430256E-01
        2   -1    0    0  501    0  0.00000000000E+00  0.00000000000E+00  0.84549483725E+03  0.84549483725E+03  0.25500000920E-02 0. -1.
       -2   -1    0    0    0  501  0.00000000000E+00  0.00000000000E+00 -0.23752366363E+03  0.23752366364E+03  0.25500000920E-02 0.  1.
    10030    2    1    2    0    0  0.00000000000E+00  0.00000000000E+00  0.60797117362E+03  0.10830185009E+04  0.89627011850E+03 0.  0.
        4    1    3    3  502    0 -0.12473791334E+03 -0.22024427478E+03  0.75084476074E+03  0.79236137919E+03  0.12699999809E+01 0. -1.
       -4    1    3    3    0  502  0.12473791334E+03  0.22024427478E+03 -0.14287358712E+03  0.29065712170E+03  0.12699999809E+01 0.  1.
</event>
<event>
 5   0  0.1040163E-02  0.9364202E+03  0.7818609E-02  0.9381166E-01
        4   -1    0    0  501    0  0.00000000000E+00  0.00000000000E+00  0.51393116252E+03  0.51393273169E+03  0.12699999809E+01 0. -1.
       -4   -1    0    0    0  501  0.00000000000E+00  0.00000000000E+00 -0.42655337663E+03  0.42655526725E+03  0.12699999809E+01 0.  1.
    10030    2    1    2    0    0  0.00000000000E+00  0.00000000000E+00  0.87377785884E+02  0.94048799894E+03  0.93642020412E+03 0.  0.
        5    1    3    3  502    0 -0.38060364112E+03  0.13026046867E+03  0.28425325939E+03  0.49259407914E+03  0.46999998093E+01 0.  1.
       -5    1    3    3    0  502  0.38060364112E+03 -0.13026046867E+03 -0.19687547350E+03  0.44789391980E+03  0.46999998093E+01 0. -1.
</event>
<event>
 5   0  0.2679861E-02  0.8853062E+03  0.7818609E-02  0.9444138E-01
       -2   -1    0    0    0  501  0.00000000000E+00  0.00000000000E+00  0.17321918555E+03  0.17321918557E+03  0.25500000920E-02 0.  1.
        2   -1    0    0  501    0  0.00000000000E+00  0.00000000000E+00 -0.11311781653E+04  0.11311781653E+04  0.25500000920E-02 0. -1.
    10030    2    1    2    0    0  0.00000000000E+00  0.00000000000E+00 -0.95795897972E+03  0.13043973508E+04  0.88530618549E+03 0.  0.
        1    1    3    3  502    0  0.69130730909E+02 -0.22129242378E+03  0.76610675319E+02  0.24416918392E+03  0.50400001928E-02 0.  1.
       -1    1    3    3    0  502 -0.69130730909E+02  0.22129242378E+03 -0.10345696550E+04  0.10602281669E+04  0.50400001928E-02 0. -1.
</event>
<event>
 5   0  0.1559275E-02  0.9020244E+03  0.7818609E-02  0.9423054E-01
        1   -1    0    0  501    0  0.00000000000E+00  0.00000000000E+00  0.53331880328E+03  0.53331880331E+03  0.50400001928E-02 0. -1.
       -1   -1    0    0    0  501  0.00000000000E+00  0.00000000000E+00 -0.38140790478E+03  0.38140790481E+03  0.50400001928E-02 0.  1.
    10030    2    1    2    0    0  0.00000000000E+00  0.00000000000E+00  0.15191089851E+03  0.91472670812E+03  0.90202440624E+03 0.  0.
        1    1    3    3  502    0  0.21875592164E+03  0.32662642320E+03  0.30014105292E+03  0.49459440480E+03  0.50400001928E-02 0. -1.
       -1    1    3    3    0  502 -0.21875592164E+03 -0.32662642320E+03 -0.14823015441E+03  0.42013230332E+03  0.50400001928E-02 0.  1.
</event>
<event>
 5   0  0.1560728E-02  0.9112925E+03  0.7818609E-02  0.9411574E-01
        1   -1    0    0  501    0  0.00000000000E+00  0.00000000000E+00  0.14461494574E+04  0.14461494574E+04  0.50400001928E-02 0.  1.
       -1   -1    0    0    0  501  0.00000000000E+00  0.00000000000E+00 -0.14356297139E+03  0.14356297148E+03  0.50400001928E-02 0. -1.
    10030    2    1    2    0    0  0.00000000000E+00  0.00000000000E+00  0.13025864860E+04  0.15897124289E+04  0.91129251781E+03 0.  0.
        4    1    3    3  502    0  0.31623320729E+03  0.30404822690E+02  0.12210774692E+04  0.12617288510E+04  0.12699999809E+01 0.  1.
       -4    1    3    3    0  502 -0.31623320729E+03 -0.30404822690E+02  0.81509016734E+02  0.32798357786E+03  0.12699999809E+01 0. -1.
</event>
<event>
 5   0  0.1497410E-02  0.9132030E+03  0.7818609E-02  0.9409226E-01
        1   -1    0    0  501    0  0.00000000000E+00  0.00000000000E+00  0.14529215520E+04  0.14529215520E+04  0.50400001928E-02 0.  1.
       -1   -1    0    0    0  501  0.00000000000E+00  0.00000000000E+00 -0.14349359796E+03  0.14349359805E+03  0.50400001928E-02 0. -1.
    10030    2    1    2    0    0  0.00000000000E+00  0.00000000000E+00  0.13094279540E+04  0.15964151501E+04  0.91320302480E+03 0.  0.
        3    1    3    3  502    0  0.14758147677E+03 -0.20824885496E+03  0.13165611756E+04  0.13410746501E+04  0.10100000352E+00 0.  1.
       -3    1    3    3    0  502 -0.14758147677E+03  0.20824885496E+03 -0.71332215231E+01  0.25534049998E+03  0.10100000352E+00 0. -1.
</event>
<event>
 5   0  0.2414128E-02  0.9509695E+03  0.7818609E-02  0.9364018E-01
       -2   -1    0    0    0  501  0.00000000000E+00  0.00000000000E+00  0.22299117324E+03  0.22299117326E+03  0.25500000920E-02 0. -1.
        2   -1    0    0  501    0  0.00000000000E+00  0.00000000000E+00 -0.10138775110E+04  0.10138775110E+04  0.25500000920E-02 0.  1.
    10030    2    1    2    0    0  0.00000000000E+00  0.00000000000E+00 -0.79088633775E+03  0.12368686842E+04  0.95096947524E+03 0.  0.
        3    1    3    3  502    0  0.44076713068E+03 -0.23626677571E+02 -0.16551359848E+03  0.47141133299E+03  0.10100000352E+00 0. -1.
       -3    1    3    3    0  502 -0.44076713068E+03  0.23626677571E+02 -0.62537273927E+03  0.76545735126E+03  0.10100000352E+00 0.  1.
</event>
<event>
 5   0  0.2628383E-02  0.4960139E+03  0.7818609E-02  0.1014825E+00
        2   -1    0    0  501    0  0.00000000000E+00  0.00000000000E+00  0.96873777075E+03  0.96873777075E+03  0.25500000920E-02 0. -1.
       -2   -1    0    0    0  501  0.00000000000E+00  0.00000000000E+00 -0.63492349940E+02  0.63492349991E+02  0.25500000920E-02 0.  1.
    10030    2    1    2    0    0  0.00000000000E+00  0.00000000000E+00  0.90524542081E+03  0.10322301207E+04  0.49601386097E+03 0.  0.
        2    1    3    3  502    0 -0.18759319605E+03 -0.46132111585E+02  0.77627838159E+03  0.79995468912E+03  0.25500000920E-02 0. -1.
       -2    1    3    3    0  502  0.18759319605E+03  0.46132111585E+02  0.12896703922E+03  0.23227543162E+03  0.25500000920E-02 0.  1.
</event>
<event>
 5   0  0.1459111E-02  0.8772072E+03  0.7818609E-02  0.9454531E-01
        1   -1    0    0  501    0  0.00000000000E+00  0.00000000000E+00  0.11199111576E+04  0.11199111576E+04  0.50400001928E-02 0.  1.
       -1   -1    0    0    0  501  0.00000000000E+00  0.00000000000E+00 -0.17177533437E+03  0.17177533445E+03  0.50400001928E-02 0. -1.
    10030    2    1    2    0    0  0.00000000000E+00  0.00000000000E+00  0.94813582321E+03  0.12916864920E+04  0.87720719016E+03 0.  0.
        2    1    3    3  502    0  0.11978578701E+03 -0.20769850827E+03  0.10148696324E+04  0.10428075930E+04  0.25500000920E-02 0.  1.
       -2    1    3    3    0  502 -0.11978578701E+03  0.20769850827E+03 -0.66733809222E+02  0.24887889908E+03  0.25500000920E-02 0. -1.
</event>
<event>
 5   0  0.2679861E-02  0.9015877E+03  0.7818609E-02  0.9423599E-01
        2   -1    0    0  501    0  0.00000000000E+00  0.00000000000E+00  0.11706033708E+04  0.11706033708E+04  0.25500000920E-02 0. -1.
       -2   -1    0    0    0  501  0.00000000000E+00  0.00000000000E+00 -0.17359859680E+03  0.17359859682E+03  0.25500000920E-02 0.  1.
    10030    2    1    2    0    0  0.00000000000E+00  0.00000000000E+00  0.99700477399E+03  0.13442019676E+04  0.90158771640E+03 0.  0.
        1    1    3    3  502    0  0.41851898420E+03 -0.92149874758E+02  0.28995704415E+03  0.51742132448E+03  0.50400001928E-02 0.  1.
       -1    1    3    3    0  502 -0.41851898420E+03  0.92149874758E+02  0.70704772984E+03  0.82678064312E+03  0.50400001928E-02 0. -1.
</event>
<event>
 5   0  0.2803717E-02  0.9123492E+03  0.7818609E-02  0.9410275E-01
        2   -1    0    0  501    0  0.00000000000E+00  0.00000000000E+00  0.28371936238E+03  0.28371936239E+03  0.25500000920E-02 0.  1.
       -2   -1    0    0    0  501  0.00000000000E+00  0.00000000000E+00 -0.73345456293E+03  0.73345456293E+03  0.25500000920E-02 0. -1.
    10030    2    1    2    0    0  0.00000000000E+00  0.00000000000E+00 -0.44973520055E+03  0.10171739253E+04  0.91234918958E+03 0.  0.
        5    1    3    3  502    0 -0.38553408456E+03 -0.14782089584E+03 -0.87226933145E+01  0.41302024525E+03  0.46999998093E+01 0.  1.
       -5    1    3    3    0  502  0.38553408456E+03  0.14782089584E+03 -0.44101250724E+03  0.60415368007E+03  0.46999998093E+01 0. -1.
</event>
<event>
 5   0  0.1560728E-02  0.1032083E+04  0.7818609E-02  0.9274040E-01
       -1   -1    0    0    0  501  0.00000000000E+00  0.00000000000E+00  0.21644096787E+03  0.21644096793E+03  0.50400001928E-02 0.  1.
        1   -1    0    0  501    0  0.00000000000E+00  0.00000000000E+00 -0.12303543218E+04  0.12303543218E+04  0.50400001928E-02 0. -1.
    10030    2    1    2    0    0  0.00000000000E+00  0.00000000000E+00 -0.10139133539E+04  0.14467952897E+04  0.10320834855E+04 0.  0.
        4    1    3    3  502    0 -0.19904745496E+03  0.47403917078E+03 -0.56908819010E+03  0.76693937555E+03  0.12699999809E+01 0. -1.
       -4    1    3    3    0  502  0.19904745496E+03 -0.47403917078E+03 -0.44482516381E+03  0.67985591416E+03  0.12699999809E+01 0.  1.
</event>
<event>
 5   0  0.2679861E-02  0.9766500E+03  0.7818609E-02  0.9334532E-01
       -2   -1    0    0    0  501  0.00000000000E+00  0.00000000000E+00  0.11213153528E+04  0.11213153528E+04  0.25500000920E-02 0.  1.
        2   -1    0    0  501    0  0.00000000000E+00  0.00000000000E+00 -0.21266211699E+03  0.21266211701E+03  0.25500000920E-02 0. -1.
    10030    2    1    2    0    0  0.00000000000E+00  0.00000000000E+00  0.90865323579E+03  0.13339774698E+04  0.97664998183E+03 0.  0.
        1    1    3    3  502    0  0.25346745120E+03  0.41737277045E+03  0.44894598899E+03  0.66332366110E+03  0.50400001928E-02 0. -1.
       -1    1    3    3    0  502 -0.25346745120E+03 -0.41737277045E+03  0.45970724681E+03  0.67065380870E+03  0.50400001928E-02 0.  1.
</event>
<event>
 5   0  0.1559275E-02  0.7443112E+03  0.7818609E-02  0.9644318E-01
        1   -1    0    0  501    0  0.00000000000E+00  0.00000000000E+00  0.22593489356E+03  0.22593489361E+03  0.50400001928E-02 0.  1.
       -1   -1    0    0    0  501  0.00000000000E+00  0.00000000000E+00 -0.61300749660E+03  0.61300749662E+03  0.50400001928E-02 0. -1.
    10030    2    1    2    0    0  0.00000000000E+00  0.00000000000E+00 -0.38707260305E+03  0.83894239024E+03  0.74431118096E+03 0.  0.
        1    1    3    3  502    0  0.30955721454E+03  0.20237343466E+03 -0.24026988650E+03  0.44103321248E+03  0.50400001928E-02 0. -1.
       -1    1    3    3    0  502 -0.30955721454E+03 -0.20237343466E+03 -0.14680271654E+03  0.39790917775E+03  0.50400001928E-02 0.  1.
</event>
<event>
 5   0  0.2679861E-02  0.9397393E+03  0.7818609E-02  0.9377225E-01
       -2   -1    0    0    0  501  0.00000000000E+00  0.00000000000E+00  0.97661345428E+03  0.97661345429E+03  0.25500000920E-02 0.  1.
        2   -1    0    0  501    0  0.00000000000E+00  0.00000000000E+00 -0.22606434919E+03  0.22606434921E+03  0.25500000920E-02 0. -1.
    10030    2    1    2    0    0  0.00000000000E+00  0.00000000000E+00  0.75054910509E+03  0.12026778035E+04  0.93973929356E+03 0.  0.
        1    1    3    3  502    0 -0.28046001120E+03 -0.28256845262E+03  0.69464730342E+03  0.80064825265E+03  0.50400001928E-02 0. -1.
       -1    1    3    3    0  502  0.28046001120E+03  0.28256845262E+03  0.55901801665E+02  0.40202955084E+03  0.50400001928E-02 0.  1.
</event>
<event>
 5   0  0.1459111E-02  0.8931055E+03  0.7818609E-02  0.9434241E-01
       -1   -1    0    0    0  501  0.00000000000E+00  0.00000000000E+00  0.31797720612E+03  0.31797720616E+03  0.50400001928E-02 0.  1.
        1   -1    0    0  501    0  0.00000000000E+00  0.00000000000E+00 -0.62711841792E+03  0.62711841794E+03  0.50400001928E-02 0. -1.
    10030    2    1    2    0    0  0.00000000000E+00  0.00000000000E+00 -0.30914121180E+03  0.94509562410E+03  0.89310550881E+03 0.  0.
        2    1    3    3  502    0  0.12205319726E+03 -0.13826357610E+03  0.27579237954E+03  0.33177588227E+03  0.25500000920E-02 0.  1.
       -2    1    3    3    0  502 -0.12205319726E+03  0.13826357610E+03 -0.58493359134E+03  0.61331974183E+03  0.25500000920E-02 0. -1.
</event>
<event>
 5   0  0.2628383E-02  0.8927492E+03  0.7818609E-02  0.9434691E-01
       -2   -1    0    0    0  501  0.00000000000E+00  0.00000000000E+00  0.14291701081E+03  0.14291701083E+03  0.25500000920E-02 0.  1.
        2   -1    0    0  501    0  0.00000000000E+00  0.00000000000E+00 -0.13941675783E+04  0.13941675783E+04  0.25500000920E-02 0. -1.
    10030    2    1    2    0    0  0.00000000000E+00  0.00000000000E+00 -0.12512505675E+04  0.15370845892E+04  0.89274915375E+03 0.  0.
        2    1    3    3  502    0 -0.17575521180E+03 -0.22494075357E+03 -0.34783833984E+02  0.28757286417E+03  0.25500000920E-02 0.  1.
       -2    1    3    3    0  502  0.17575521180E+03  0.22494075357E+03 -0.12164667335E+04  0.12495117250E+04  0.25500000920E-02 0. -1.
</event>
<event>
 5   0  0.2628383E-02  0.9595985E+03  0.7818609E-02  0.9354001E-01
       -2   -1    0    0    0  501  0.00000000000E+00  0.00000000000E+00  0.67782300351E+03  0.67782300352E+03  0.25500000920E-02 0. -1.
        2   -1    0    0  501    0  0.00000000000E+00  0.00000000000E+00 -0.33962748501E+03  0.33962748502E+03  0.25500000920E-02 0.  1.
    10030    2    1    2    0    0  0.00000000000E+00  0.00000000000E+00  0.33819551850E+03  0.10174504885E+04  0.95959850349E+03 0.  0.
        2    1    3    3  502    0  0.35574276919E+03  0.48398169223E+02  0.50658255571E+03  0.62090352421E+03  0.25500000920E-02 0. -1.
       -2    1    3    3    0  502 -0.35574276919E+03 -0.48398169223E+02 -0.16838703721E+03  0.39654696433E+03  0.25500000920E-02 0.  1.
</event>
<event>
 5   0  0.1560728E-02  0.9156692E+03  0.7818609E-02  0.9406203E-01
       -1   -1    0    0    0  501  0.00000000000E+00  0.00000000000E+00  0.90284420083E+03  0.90284420084E+03  0.50400001928E-02 0. -1.
        1   -1    0    0  501    0  0.00000000000E+00  0.00000000000E+00 -0.23216907794E+03  0.23216907799E+03  0.50400001928E-02 0.  1.
    10030    2    1    2    0    0  0.00000000000E+00  0.00000000000E+00  0.67067512289E+03  0.11350132788E+04  0.91566916660E+03 0.  0.
        4    1    3    3  502    0  0.22139641536E+02 -0.17083978135E+03 -0.19046121428E+03  0.25681409943E+03  0.12699999809E+01 0.  1.
       -4    1    3    3    0  502 -0.22139641536E+02  0.17083978135E+03  0.86113633717E+03  0.87819917941E+03  0.12699999809E+01 0. -1.
</event>
<event>
 5   0  0.1537870E-02  0.9003662E+03  0.7818609E-02  0.9425124E-01
       -1   -1    0    0    0  501  0.00000000000E+00  0.00000000000E+00  0.16560959944E+03  0.16560959952E+03  0.50400001928E-02 0. -1.
        1   -1    0    0  501    0  0.00000000000E+00  0.00000000000E+00 -0.12237503271E+04  0.12237503272E+04  0.50400001928E-02 0.  1.
    10030    2    1    2    0    0  0.00000000000E+00  0.00000000000E+00 -0.10581407277E+04  0.13893599267E+04  0.90036615120E+03 0.  0.
        5    1    3    3  502    0  0.23770926892E+03  0.34307034981E+03 -0.26883968367E+03  0.49648748923E+03  0.46999998093E+01 0. -1.
       -5    1    3    3    0  502 -0.23770926892E+03 -0.34307034981E+03 -0.78930104403E+03  0.89287243744E+03  0.46999998093E+01 0.  1.
</event>
<event>
 5   0  0.1040163E-02  0.8830609E+03  0.7818609E-02  0.9447007E-01
       -4   -1    0    0    0  501  0.00000000000E+00  0.00000000000E+00  0.53291639984E+03  0.53291791311E+03  0.12699999809E+01 0. -1.
        4   -1    0    0  501    0  0.00000000000E+00  0.00000000000E+00 -0.36581247516E+03  0.36581467970E+03  0.12699999809E+01 0.  1.
    10030    2    1    2    0    0  0.00000000000E+00  0.00000000000E+00  0.16710392468E+03  0.89873259281E+03  0.88306089922E+03 0.  0.
        3    1    3    3  502    0  0.21934545865E+03  0.38258613694E+03  0.10548778287E+03  0.45344488633E+03  0.10100000352E+00 0.  1.
       -3    1    3    3    0  502 -0.21934545865E+03 -0.38258613694E+03  0.61616141804E+02  0.44528770648E+03  0.10100000352E+00 0. -1.
</event>
<event>
 5   0  0.2414128E-02  0.8593425E+03  0.7818609E-02  0.9477883E-01
       -2   -1    0    0    0  501  0.00000000000E+00  0.00000000000E+00  0.61044743158E+02  0.61044743212E+02  0.25500000920E-02 0.  1.
        2   -1    0    0  501    0  0.00000000000E+00  0.00000000000E+00 -0.30242960036E+04  0.30242960036E+04  0.25500000920E-02 0. -1.
    10030    2    1    2    0    0  0.00000000000E+00  0.00000000000E+00 -0.29632512604E+04  0.30853407468E+04  0.85934247622E+03 0.  0.
        3    1    3    3  502    0  0.27584694545E+02  0.30004852355E+03 -0.38185647092E+03  0.48641998976E+03  0.10100000352E+00 0.  1.
       -3    1    3    3    0  502 -0.27584694545E+02 -0.30004852355E+03 -0.25813947895E+04  0.25989207570E+04  0.10100000352E+00 0. -1.
</event>
<event>
 5   0  0.1459111E-02  0.8645592E+03  0.7818609E-02  0.9471002E-01
       -1   -1    0    0    0  501  0.00000000000E+00  0.00000000000E+00  0.12709772242E+03  0.12709772252E+03  0.50400001928E-02 0.  1.
        1   -1    0    0  501    0  0.00000000000E+00  0.00000000000E+00 -0.14702516543E+04  0.14702516543E+04  0.50400001928E-02 0. -1.
    10030    2    1    2    0    0  0.00000000000E+00  0.00000000000E+00 -0.13431539319E+04  0.15973493769E+04  0.86455916338E+03 0.  0.
        2    1    3    3  502    0  0.11147994389E+03  0.41630996437E+03 -0.73351589681E+03  0.85075691898E+03  0.25500000920E-02 0. -1.
       -2    1    3    3    0  502 -0.11147994389E+03 -0.41630996437E+03 -0.60963803510E+03  0.74659245789E+03  0.25500000920E-02 0.  1.
</event>
<event>
 5   0  0.1559275E-02  0.8989542E+03  0.7818609E-02  0.9426890E-01
       -1   -1    0    0    0  501  0.00000000000E+00  0.00000000000E+00  0.33190440110E+03  0.33190440114E+03  0.50400001928E-02 0.  1.
        1   -1    0    0  501    0  0.00000000000E+00  0.00000000000E+00 -0.60869830525E+03  0.60869830527E+03  0.50400001928E-02 0. -1.
    10030    2    1    2    0    0  0.00000000000E+00  0.00000000000E+00 -0.27679390415E+03  0.94060270641E+03  0.89895416231E+03 0.  0.
        1    1    3    3  502    0 -0.29933024466E+02 -0.32650368558E+03  0.18330316352E+03  0.37563372111E+03  0.50400001928E-02 0.  1.
       -1    1    3    3    0  502  0.29933024466E+02  0.32650368558E+03 -0.46009706767E+03  0.56496898530E+03  0.50400001928E-02 0. -1.
</event>
<event>
 5   0  0.2679861E-02  0.8909439E+03  0.7818609E-02  0.9436973E-01
        2   -1    0    0  501    0  0.00000000000E+00  0.00000000000E+00  0.13906401887E+04  0.13906401887E+04  0.25500000920E-02 0. -1.
       -2   -1    0    0    0  501  0.00000000000E+00  0.00000000000E+00 -0.14270063990E+03  0.14270063993E+03  0.25500000920E-02 0.  1.
    10030    2    1    2    0    0  0.00000000000E+00  0.00000000000E+00  0.12479395488E+04  0.15333408287E+04  0.89094386990E+03 0.  0.
        1    1    3    3  502    0  0.78496637747E+02  0.14229385337E+02  0.13782463372E+04  0.13805532092E+04  0.50400001928E-02 0. -1.
       -1    1    3    3    0  502 -0.78496637747E+02 -0.14229385337E+02 -0.13030678833E+03  0.15278761945E+03  0.50400001928E-02 0.  1.
</event>
<event>
 5   0  0.1537870E-02  0.8812758E+03  0.7818609E-02  0.9449295E-01
        1   -1    0    0  501    0  0.00000000000E+00  0.00000000000E+00  0.97923928568E+03  0.97923928569E+03  0.50400001928E-02 0.  1.
       -1   -1    0    0    0  501  0.00000000000E+00  0.00000000000E+00 -0.19827816857E+03  0.19827816863E+03  0.50400001928E-02 0. -1.
    10030    2    1    2    0    0  0.00000000000E+00  0.00000000000E+00  0.78096111711E+03  0.11775174543E+04  0.88127583015E+03 0.  0.
        5    1    3    3  502    0  0.83081884187E+02 -0.56407783088E+02 -0.18275034111E+03  0.20857663974E+03  0.46999998093E+01 0. -1.
       -5    1    3    3    0  502 -0.83081884187E+02  0.56407783088E+02  0.96371145821E+03  0.96894081458E+03  0.46999998093E+01 0.  1.
</event>
<event>
 5   0  0.1537870E-02  0.8989976E+03  0.7818609E-02  0.9426835E-01
       -1   -1    0    0    0  501  0.00000000000E+00  0.00000000000E+00  0.13902992777E+03  0.13902992786E+03  0.50400001928E-02 0. -1.
        1   -1    0    0  501    0  0.00000000000E+00  0.00000000000E+00 -0.14532782241E+04  0.14532782241E+04  0.50400001928E-02 0.  1.
    10030    2    1    2    0    0  0.00000000000E+00  0.00000000000E+00 -0.13142482964E+04  0.15923081520E+04  0.89899758980E+03 0.  0.
        5    1    3    3  502    0  0.43918899353E+03  0.90189689265E+02 -0.60094808643E+03  0.74978786645E+03  0.46999998093E+01 0.  1.
       -5    1    3    3    0  502 -0.43918899353E+03 -0.90189689265E+02 -0.71330020993E+03  0.84252028555E+03  0.46999998093E+01 0. -1.
</event>
<event>
 5   0  0.2628383E-02  0.8952924E+03  0.7818609E-02  0.9431485E-01
       -2   -1    0    0    0  501  0.00000000000E+00  0.00000000000E+00  0.14217348646E+03  0.14217348648E+03  0.25500000920E-02 0.  1.
        2   -1    0    0  501    0  0.00000000000E+00  0.00000000000E+00 -0.14094550616E+04  0.14094550616E+04  0.25500000920E-02 0. -1.
    10030    2    1    2    0    0  0.00000000000E+00  0.00000000000E+00 -0.12672815751E+04  0.15516285480E+04  0.89529244412E+03 0.  0.
        2    1    3    3  502    0  0.59406134430E+02  0.43484240292E+03 -0.48087111398E+03  0.65104073025E+03  0.25500000920E-02 0. -1.
       -2    1    3    3    0  502 -0.59406134430E+02 -0.43484240292E+03 -0.78641046111E+03  0.90058781778E+03  0.25500000920E-02 0.  1.
</event>
<event>
 5   0  0.2628383E-02  0.9740119E+03  0.7818609E-02  0.9337517E-01
       -2   -1    0    0    0  501  0.00000000000E+00  0.00000000000E+00  0.20736866822E+03  0.20736866824E+03  0.25500000920E-02 0. -1.
        2   -1    0    0  501    0  0.00000000000E+00  0.00000000000E+00 -0.11437348647E+04  0.11437348647E+04  0.25500000920E-02 0.  1.
    10030    2    1    2    0    0  0.00000000000E+00  0.00000000000E+00 -0.93636619645E+03  0.13511035329E+04  0.97401185967E+03 0.  0.
        2    1    3    3  502    0 -0.25077855380E+03 -0.51715840705E+02  0.10645728294E+03  0.27730410080E+03  0.25500000920E-02 0. -1.
       -2    1    3    3    0  502  0.25077855380E+03  0.51715840705E+02 -0.10428234794E+04  0.10737994321E+04  0.25500000920E-02 0.  1.
</event>
<event>
 5   0  0.1559275E-02  0.8612544E+03  0.7818609E-02  0.9475355E-01
       -1   -1    0    0    0  501  0.00000000000E+00  0.00000000000E+00  0.33950249566E+03  0.33950249570E+03  0.50400001928E-02 0. -1.
        1   -1    0    0  501    0  0.00000000000E+00  0.00000000000E+00 -0.54621033010E+03  0.54621033012E+03  0.50400001928E-02 0.  1.
    10030    2    1    2    0    0  0.00000000000E+00  0.00000000000E+00 -0.20670783444E+03  0.88571282582E+03  0.86125436487E+03 0.  0.
        1    1    3    3  502    0 -0.26142433702E+03  0.11995773462E+03  0.22622695750E+03  0.36593876319E+03  0.50400001928E-02 0. -1.
       -1    1    3    3    0  502  0.26142433702E+03 -0.11995773462E+03 -0.43293479194E+03  0.51977406263E+03  0.50400001928E-02 0.  1.
</event>
<event>
 5   0  0.2803717E-02  0.8947965E+03  0.7818609E-02  0.9432110E-01
       -2   -1    0    0    0  501  0.00000000000E+00  0.00000000000E+00  0.49328568131E+03  0.49328568132E+03  0.25500000920E-02 0.  1.
        2   -1    0    0  501    0  0.00000000000E+00  0.00000000000E+00 -0.40577946616E+03  0.40577946617E+03  0.25500000920E-02 0. -1.
    10030    2    1    2    0    0  0.00000000000E+00  0.00000000000E+00  0.87506215148E+02  0.89906514749E+03  0.89479651415E+03 0.  0.
        5    1    3    3  502    0 -0.40312716499E+03  0.74234842817E+02  0.22383082218E+03  0.46705957864E+03  0.46999998093E+01 0.  1.
       -5    1    3    3    0  502  0.40312716499E+03 -0.74234842817E+02 -0.13632460703E+03  0.43200556885E+03  0.46999998093E+01 0. -1.
</event>
<event>
 5   0  0.1560728E-02  0.9009911E+03  0.7818609E-02  0.9424343E-01
        1   -1    0    0  501    0  0.00000000000E+00  0.00000000000E+00  0.20645110142E+03  0.20645110148E+03  0.50400001928E-02 0. -1.
       -1   -1    0    0    0  501  0.00000000000E+00  0.00000000000E+00 -0.98302323413E+03  0.98302323414E+03  0.50400001928E-02 0.  1.
    10030    2    1    2    0    0  0.00000000000E+00  0.00000000000E+00 -0.77657213271E+03  0.11894743356E+04  0.90099107531E+03 0.  0.
        4    1    3    3  502    0  0.10579612918E+03 -0.43368917611E+03 -0.46821441696E+03  0.64691999163E+03  0.12699999809E+01 0. -1.
       -4    1    3    3    0  502 -0.10579612918E+03  0.43368917611E+03 -0.30835771575E+03  0.54255434399E+03  0.12699999809E+01 0.  1.
</event>
<event>
 5   0  0.2628383E-02  0.9023702E+03  0.7818609E-02  0.9422623E-01
        2   -1    0    0  501    0  0.00000000000E+00  0.00000000000E+00  0.56308971881E+03  0.56308971882E+03  0.25500000920E-02 0. -1.
       -2   -1    0    0    0  501  0.00000000000E+00  0.00000000000E+00 -0.36151963051E+03  0.36151963052E+03  0.25500000920E-02 0.  1.
    10030    2    1    2    0    0  0.00000000000E+00  0.00000000000E+00  0.20157008830E+03  0.92460934934E+03  0.90237018367E+03 0.  0.
        2    1    3    3  502    0  0.22744544175E+03  0.34718320408E+03  0.28206440246E+03  0.50182460413E+03  0.25500000920E-02 0. -1.
       -2    1    3    3    0  502 -0.22744544175E+03 -0.34718320408E+03 -0.80494314151E+02  0.42278474521E+03  0.25500000920E-02 0.  1.
</event>
<event>
 5   0  0.1497410E-02  0.8193290E+03  0.7818609E-02  0.9532453E-01
       -1   -1    0    0    0  501  0.00000000000E+00  0.00000000000E+00  0.23063253896E+03  0.23063253901E+03  0.50400001928E-02 0.  1.
        1   -1    0    0  501    0  0.00000000000E+00  0.00000000000E+00 -0.72767270517E+03  0.72767270519E+03  0.50400001928E-02 0. -1.
    10030    2    1    2    0    0  0.00000000000E+00  0.00000000000E+00 -0.49704016622E+03  0.95830524421E+03  0.81932900244E+03 0.  0.
        3    1    3    3  502    0  0.17320646808E+03  0.93229780701E+02 -0.66882424198E+03  0.69715001933E+03  0.10100000352E+00 0. -1.
       -3    1    3    3    0  502 -0.17320646808E+03 -0.93229780701E+02  0.17178407576E+03  0.26115522488E+03  0.10100000352E+00 0.  1.
</event>
<event>
 5   0  0.1537870E-02  0.8967529E+03  0.7818609E-02  0.9429650E-01
        1   -1    0    0  501    0  0.00000000000E+00  0.00000000000E+00  0.72885798074E+03  0.72885798076E+03  0.50400001928E-02 0.  1.
       -1   -1    0    0    0  501  0.00000000000E+00  0.00000000000E+00 -0.27583076491E+03  0.27583076496E+03  0.50400001928E-02 0. -1.
    10030    2    1    2    0    0  0.00000000000E+00  0.00000000000E+00  0.45302721583E+03  0.10046887457E+04  0.89675293001E+03 0.  0.
        5    1    3    3  502    0 -0.31921107592E+03  0.66491056425E+02  0.57129170455E+03  0.65780929855E+03  0.46999998093E+01 0.  1.
       -5    1    3    3    0  502  0.31921107592E+03 -0.66491056425E+02 -0.11826448872E+03  0.34687944717E+03  0.46999998093E+01 0. -1.
</event>
<event>
 5   0  0.1459111E-02  0.9119366E+03  0.7818609E-02  0.9410782E-01
       -1   -1    0    0    0  501  0.00000000000E+00  0.00000000000E+00  0.16880072432E+03  0.16880072440E+03  0.50400001928E-02 0.  1.
        1   -1    0    0  501    0  0.00000000000E+00  0.00000000000E+00 -0.12316716818E+04  0.12316716818E+04  0.50400001928E-02 0. -1.
    10030    2    1    2    0    0  0.00000000000E+00  0.00000000000E+00 -0.10628709575E+04  0.14004724062E+04  0.91193655935E+03 0.  0.
        2    1    3    3  502    0  0.22137066000E+03  0.26152258762E+03 -0.69423211113E+02  0.34959779060E+03  0.25500000920E-02 0. -1.
       -2    1    3    3    0  502 -0.22137066000E+03 -0.26152258762E+03 -0.99344774634E+03  0.10508746156E+04  0.25500000920E-02 0.  1.
</event>
<event>
 5   0  0.1537870E-02  0.8465524E+03  0.7818609E-02  0.9494976E-01
        1   -1    0    0  501    0  0.00000000000E+00  0.00000000000E+00  0.62429647394E+03  0.62429647396E+03  0.50400001928E-02 0. -1.
       -1   -1    0    0    0  501  0.00000000000E+00  0.00000000000E+00 -0.28698339694E+03  0.28698339698E+03  0.50400001928E-02 0.  1.
    10030    2    1    2    0    0  0.00000000000E+00  0.00000000000E+00  0.33731307701E+03  0.91127987095E+03  0.84655235590E+03 0.  0.
        5    1    3    3  502    0 -0.31041837836E+03  0.22390960227E+03 -0.25839146609E+02  0.38364675303E+03  0.46999998093E+01 0.  1.
       -5    1    3    3    0  502  0.31041837836E+03 -0.22390960227E+03  0.36315222361E+03  0.52763311792E+03  0.46999998093E+01 0. -1.
</event>
<event>
 5   0  0.2628383E-02  0.8943959E+03  0.7818609E-02  0.9432614E-01
        2   -1    0    0  501    0  0.00000000000E+00  0.00000000000E+00  0.81810598777E+03  0.81810598778E+03  0.25500000920E-02 0.  1.
       -2   -1    0    0    0  501  0.00000000000E+00  0.00000000000E+00 -0.24444998431E+03  0.24444998432E+03  0.25500000920E-02 0. -1.
    10030    2    1    2    0    0  0.00000000000E+00  0.00000000000E+00  0.57365600346E+03  0.10625559721E+04  0.89439587630E+03 0.  0.
        2    1    3    3  502    0  0.34040423200E+03  0.76774263100E+02 -0.45427118145E+02  0.35189906465E+03  0.25500000920E-02 0. -1.
       -2    1    3    3    0  502 -0.34040423200E+03 -0.76774263100E+02  0.61908312161E+03  0.71065690745E+03  0.25500000920E-02 0.  1.
</event>
<event>
 5   0  0.2628383E-02  0.9128235E+03  0.7818609E-02  0.9409692E-01
        2   -1    0    0  501    0  0.00000000000E+00  0.00000000000E+00  0.11001145265E+04  0.11001145265E+04  0.25500000920E-02 0.  1.
       -2   -1    0    0    0  501  0.00000000000E+00  0.00000000000E+00 -0.18935454139E+03  0.18935454141E+03  0.25500000920E-02 0. -1.
    10030    2    1    2    0    0  0.00000000000E+00  0.00000000000E+00  0.91075998508E+03  0.12894690679E+04  0.91282349147E+03 0.  0.
        2    1    3    3  502    0 -0.34225141388E+03 -0.22158016763E+03  0.16561157489E+03  0.44006930674E+03  0.25500000920E-02 0. -1.
       -2    1    3    3    0  502  0.34225141388E+03  0.22158016763E+03  0.74514841020E+03  0.84939976114E+03  0.25500000920E-02 0.  1.
</event>
<event>
 5   0  0.1459111E-02  0.9079554E+03  0.7818609E-02  0.9415691E-01
        1   -1    0    0  501    0  0.00000000000E+00  0.00000000000E+00  0.36940790317E+03  0.36940790321E+03  0.50400001928E-02 0.  1.
       -1   -1    0    0    0  501  0.00000000000E+00  0.00000000000E+00 -0.55790838094E+03  0.55790838097E+03  0.50400001928E-02 0. -1.
    10030    2    1    2    0    0  0.00000000000E+00  0.00000000000E+00 -0.18850047777E+03  0.92731628417E+03  0.90795542885E+03 0.  0.
        2    1    3    3  502    0  0.11970203552E+03  0.24943824002E+03  0.27335212688E+03  0.38893366808E+03  0.25500000920E-02 0.  1.
       -2    1    3    3    0  502 -0.11970203552E+03 -0.24943824002E+03 -0.46185260465E+03  0.53838261610E+03  0.25500000920E-02 0. -1.
</event>
<event>
 5   0  0.2705111E-02  0.7905897E+03  0.7818609E-02  0.9573739E-01
       -2   -1    0    0    0  501  0.00000000000E+00  0.00000000000E+00  0.14451837356E+03  0.14451837358E+03  0.25500000920E-02 0.  1.
        2   -1    0    0  501    0  0.00000000000E+00  0.00000000000E+00 -0.10812329289E+04  0.10812329289E+04  0.25500000920E-02 0. -1.
    10030    2    1    2    0    0  0.00000000000E+00  0.00000000000E+00 -0.93671455536E+03  0.12257513025E+04  0.79058971493E+03 0.  0.
        4    1    3    3  502    0  0.36765846118E+03  0.88802741989E+02 -0.29024207329E+03  0.47676067903E+03  0.12699999809E+01 0.  1.
       -4    1    3    3    0  502 -0.36765846118E+03 -0.88802741989E+02 -0.64647248207E+03  0.74899062346E+03  0.12699999809E+01 0. -1.
</event>
<event>
 5   0  0.1537870E-02  0.8789597E+03  0.7818609E-02  0.9452272E-01
        1   -1    0    0  501    0  0.00000000000E+00  0.00000000000E+00  0.92680215538E+03  0.92680215539E+03  0.50400001928E-02 0.  1.
       -1   -1    0    0    0  501  0.00000000000E+00  0.00000000000E+00 -0.20839672452E+03  0.20839672458E+03  0.50400001928E-02 0. -1.
    10030    2    1    2    0    0  0.00000000000E+00  0.00000000000E+00  0.71840543086E+03  0.11351988800E+04  0.87895968851E+03 0.  0.
        5    1    3    3  502    0  0.97623636606E+02 -0.33294015725E+03  0.70753392949E+03  0.78803925924E+03  0.46999998093E+01 0.  1.
       -5    1    3    3    0  502 -0.97623636606E+02  0.33294015725E+03  0.10871501370E+02  0.34715962074E+03  0.46999998093E+01 0. -1.
</event>
<event>
 5   0  0.1537870E-02  0.8404730E+03  0.7818609E-02  0.9503214E-01
        1   -1    0    0  501    0  0.00000000000E+00  0.00000000000E+00  0.77292775502E+03  0.77292775503E+03  0.50400001928E-02 0. -1.
       -1   -1    0    0    0  501  0.00000000000E+00  0.00000000000E+00 -0.22848021364E+03  0.22848021370E+03  0.50400001928E-02 0.  1.
    10030    2    1    2    0    0  0.00000000000E+00  0.00000000000E+00  0.54444754137E+03  0.10014079687E+04  0.84047295884E+03 0.  0.
        5    1    3    3  502    0  0.87425689537E+02  0.29185852565E+03  0.61703768571E+03  0.68817312195E+03  0.46999998093E+01 0. -1.
       -5    1    3    3    0  502 -0.87425689537E+02 -0.29185852565E+03 -0.72590144338E+02  0.31323484678E+03  0.46999998093E+01 0.  1.
</event>
<event>
 5   0  0.1497410E-02  0.9108301E+03  0.7818609E-02  0.9412144E-01
       -1   -1    0    0    0  501  0.00000000000E+00  0.00000000000E+00  0.24846935235E+03  0.24846935240E+03  0.50400001928E-02 0.  1.
        1   -1    0    0  501    0  0.00000000000E+00  0.00000000000E+00 -0.83472215979E+03  0.83472215981E+03  0.50400001928E-02 0. -1.
    10030    2    1    2    0    0  0.00000000000E+00  0.00000000000E+00 -0.58625280744E+03  0.10831915122E+04  0.91083011473E+03 0.  0.
        3    1    3    3  502    0 -0.69432662503E+02 -0.44920013933E+03 -0.32678837547E+03  0.55981453387E+03  0.10100000352E+00 0. -1.
       -3    1    3    3    0  502  0.69432662503E+02  0.44920013933E+03 -0.25946443197E+03  0.52337697834E+03  0.10100000352E+00 0.  1.
</event>
<event>
 5   0  0.2628383E-02  0.8943545E+03  0.7818609E-02  0.9432666E-01
        2   -1    0    0  501    0  0.00000000000E+00  0.00000000000E+00  0.11583936842E+04  0.11583936842E+04  0.25500000920E-02 0. -1.
       -2   -1    0    0    0  501  0.00000000000E+00  0.00000000000E+00 -0.17262480004E+03  0.17262480006E+03  0.25500000920E-02 0.  1.
    10030    2    1    2    0    0  0.00000000000E+00  0.00000000000E+00  0.98576888415E+03  0.13310184842E+04  0.89435446689E+03 0.  0.
        2    1    3    3  502    0 -0.38898002725E+03 -0.19117561079E+03  0.32908348293E+03  0.54419620957E+03  0.25500000920E-02 0. -1.
       -2    1    3    3    0  502  0.38898002725E+03  0.19117561079E+03  0.65668540121E+03  0.78682227468E+03  0.25500000920E-02 0.  1.
</event>
<event>
 5   0  0.1560728E-02  0.9822550E+03  0.7818609E-02  0.9328224E-01
        1   -1    0    0  501    0  0.00000000000E+00  0.00000000000E+00  0.13337293697E+04  0.13337293697E+04  0.50400001928E-02 0.  1.
       -1   -1    0    0    0  501  0.00000000000E+00  0.00000000000E+00 -0.18085094457E+03  0.18085094464E+03  0.50400001928E-02 0. -1.
    10030    2    1    2    0    0  0.00000000000E+00  0.00000000000E+00  0.11528784251E+04  0.15145803143E+04  0.98225499006E+03 0.  0.
        4    1    3    3  502    0 -0.37819393729E+03  0.22112320194E+03  0.23414724280E+03  0.49674205464E+03  0.12699999809E+01 0. -1.
       -4    1    3    3    0  502  0.37819393729E+03 -0.22112320194E+03  0.91873118231E+03  0.10178382597E+04  0.12699999809E+01 0.  1.
</event>
<event>
 5   0  0.2628383E-02  0.8166153E+03  0.7818609E-02  0.9536274E-01
        2   -1    0    0  501    0  0.00000000000E+00  0.00000000000E+00  0.31321454663E+03  0.31321454664E+03  0.25500000920E-02 0. -1.
       -2   -1    0    0    0  501  0.00000000000E+00  0.00000000000E+00 -0.53227139871E+03  0.53227139872E+03  0.25500000920E-02 0.  1.
    10030    2    1    2    0    0  0.00000000000E+00  0.00000000000E+00 -0.21905685208E+03  0.84548594535E+03  0.81661531907E+03 0.  0.
        2    1    3    3  502    0  0.35718349310E+02 -0.24490921179E+02  0.31082981468E+03  0.31383240655E+03  0.25500000920E-02 0. -1.
       -2    1    3    3    0  502 -0.35718349310E+02  0.24490921179E+02 -0.52988666677E+03  0.53165353880E+03  0.25500000920E-02 0.  1.
</event>
<event>
 5   0  0.2628383E-02  0.8918252E+03  0.7818609E-02  0.9435858E-01
       -2   -1    0    0    0  501  0.00000000000E+00  0.00000000000E+00  0.28007900840E+03  0.28007900841E+03  0.25500000920E-02 0.  1.
        2   -1    0    0  501    0  0.00000000000E+00  0.00000000000E+00 -0.70993552238E+03  0.70993552239E+03  0.25500000920E-02 0. -1.
    10030    2    1    2    0    0  0.00000000000E+00  0.00000000000E+00 -0.42985651399E+03  0.99001453080E+03  0.89182517826E+03 0.  0.
        2    1    3    3  502    0 -0.10585551690E+03 -0.74399981242E+02  0.25878286380E+03  0.28932562671E+03  0.25500000920E-02 0.  1.
       -2    1    3    3    0  502  0.10585551690E+03  0.74399981242E+02 -0.68863937779E+03  0.70068890409E+03  0.25500000920E-02 0. -1.
</event>
<event>
 5   0  0.1497410E-02  0.8623491E+03  0.7818609E-02  0.9473911E-01
        1   -1    0    0  501    0  0.00000000000E+00  0.00000000000E+00  0.19879622901E+03  0.19879622907E+03  0.50400001928E-02 0. -1.
       -1   -1    0    0    0  501  0.00000000000E+00  0.00000000000E+00 -0.93518628533E+03  0.93518628534E+03  0.50400001928E-02 0.  1.
    10030    2    1    2    0    0  0.00000000000E+00  0.00000000000E+00 -0.73639005632E+03  0.11339825144E+04  0.86234913344E+03 0.  0.
        3    1    3    3  502    0 -0.22047347224E+03 -0.16198785725E+03  0.70040607767E+02  0.28240806433E+03  0.10100000352E+00 0. -1.
       -3    1    3    3    0  502  0.22047347224E+03  0.16198785725E+03 -0.80643066409E+03  0.85157445009E+03  0.10100000352E+00 0.  1.
</event>
<event>
 5   0  0.1559275E-02  0.8876014E+03  0.7818609E-02  0.9441214E-01
       -1   -1    0    0    0  501  0.00000000000E+00  0.00000000000E+00  0.24986078674E+03  0.24986078679E+03  0.50400001928E-02 0. -1.
        1   -1    0    0  501    0  0.00000000000E+00  0.00000000000E+00 -0.78827517322E+03  0.78827517323E+03  0.50400001928E-02 0.  1.
    10030    2    1    2    0    0  0.00000000000E+00  0.00000000000E+00 -0.53841438647E+03  0.10381359600E+04  0.88760138572E+03 0.  0.
        1    1    3    3  502    0 -0.73453198354E+02 -0.42217522452E+03 -0.13416171537E+03  0.44902857197E+03  0.50400001928E-02 0. -1.
       -1    1    3    3    0  502  0.73453198354E+02  0.42217522452E+03 -0.40425267110E+03  0.58910738806E+03  0.50400001928E-02 0.  1.
</event>
<event>
 5   0  0.1497410E-02  0.8483988E+03  0.7818609E-02  0.9492489E-01
        1   -1    0    0  501    0  0.00000000000E+00  0.00000000000E+00  0.11781480691E+04  0.11781480691E+04  0.50400001928E-02 0. -1.
       -1   -1    0    0    0  501  0.00000000000E+00  0.00000000000E+00 -0.15273556725E+03  0.15273556734E+03  0.50400001928E-02 0.  1.
    10030    2    1    2    0    0  0.00000000000E+00  0.00000000000E+00  0.10254125019E+04  0.13308836365E+04  0.84839875934E+03 0.  0.
        3    1    3    3  502    0 -0.18127860178E+03 -0.27966983487E+03  0.92437571659E+03  0.98262282878E+03  0.10100000352E+00 0. -1.
       -3    1    3    3    0  502  0.18127860178E+03  0.27966983487E+03  0.10103678528E+03  0.34826080771E+03  0.10100000352E+00 0.  1.
</event>
<event>
 5   0  0.1537870E-02  0.9731387E+03  0.7818609E-02  0.9338507E-01
        1   -1    0    0  501    0  0.00000000000E+00  0.00000000000E+00  0.55098790284E+03  0.55098790286E+03  0.50400001928E-02 0. -1.
       -1   -1    0    0    0  501  0.00000000000E+00  0.00000000000E+00 -0.42968226624E+03  0.42968226627E+03  0.50400001928E-02 0.  1.
    10030    2    1    2    0    0  0.00000000000E+00  0.00000000000E+00  0.12130563660E+03  0.98067016913E+03  0.97313869677E+03 0.  0.
        5    1    3    3  502    0  0.13193491263E+03 -0.41563409112E+02 -0.40942632667E+03  0.43218785859E+03  0.46999998093E+01 0.  1.
       -5    1    3    3    0  502 -0.13193491263E+03  0.41563409112E+02  0.53073196327E+03  0.54848231054E+03  0.46999998093E+01 0. -1.
</event>
<event>
 5   0  0.1560728E-02  0.9087950E+03  0.7818609E-02  0.9414654E-01
       -1   -1    0    0    0  501  0.00000000000E+00  0.00000000000E+00  0.10275710253E+04  0.10275710253E+04  0.50400001928E-02 0.  1.
        1   -1    0    0  501    0  0.00000000000E+00  0.00000000000E+00 -0.20093705590E+03  0.20093705596E+03  0.50400001928E-02 0. -1.
    10030    2    1    2    0    0  0.00000000000E+00  0.00000000000E+00  0.82663396942E+03  0.12285080813E+04  0.90879501892E+03 0.  0.
        4    1    3    3  502    0 -0.42197198394E+03 -0.15936293316E+03  0.33904693524E+03  0.56427948474E+03  0.12699999809E+01 0. -1.
       -4    1    3    3    0  502  0.42197198394E+03  0.15936293316E+03  0.48758703418E+03  0.66422859657E+03  0.12699999809E+01 0.  1.
</event>
<event>
 5   0  0.1560728E-02  0.9125607E+03  0.7818609E-02  0.9410015E-01
        1   -1    0    0  501    0  0.00000000000E+00  0.00000000000E+00  0.14916388298E+04  0.14916388299E+04  0.50400001928E-02 0. -1.
       -1   -1    0    0    0  501  0.00000000000E+00  0.00000000000E+00 -0.13957251045E+03  0.13957251054E+03  0.50400001928E-02 0.  1.
    10030    2    1    2    0    0  0.00000000000E+00  0.00000000000E+00  0.13520663194E+04  0.16312113404E+04  0.91256074043E+03 0.  0.
        4    1    3    3  502    0 -0.90031142520E+02  0.35140177796E+03  0.11707613467E+04  0.12256722890E+04  0.12699999809E+01 0. -1.
       -4    1    3    3    0  502  0.90031142520E+02 -0.35140177796E+03  0.18130497268E+03  0.40553905138E+03  0.12699999809E+01 0.  1.
</event>
<event>
 5   0  0.2679861E-02  0.8650386E+03  0.7818609E-02  0.9470372E-01
        2   -1    0    0  501    0  0.00000000000E+00  0.00000000000E+00  0.24084887357E+03  0.24084887359E+03  0.25500000920E-02 0.  1.
       -2   -1    0    0    0  501  0.00000000000E+00  0.00000000000E+00 -0.77672338962E+03  0.77672338963E+03  0.25500000920E-02 0. -1.
    10030    2    1    2    0    0  0.00000000000E+00  0.00000000000E+00 -0.53587451605E+03  0.10175722632E+04  0.86503861990E+03 0.  0.
        1    1    3    3  502    0 -0.27012136368E+02 -0.11125093489E+03 -0.75857687283E+03  0.76716706006E+03  0.50400001928E-02 0. -1.
       -1    1    3    3    0  502  0.27012136368E+02  0.11125093489E+03  0.22270235678E+03  0.25040520315E+03  0.50400001928E-02 0.  1.
</event>
<event>
 5   0  0.2414128E-02  0.8236269E+03  0.7818609E-02  0.9526434E-01
        2   -1    0    0  501    0  0.00000000000E+00  0.00000000000E+00  0.15717484200E+04  0.15717484200E+04  0.25500000920E-02 0. -1.
       -2   -1    0    0    0  501  0.00000000000E+00  0.00000000000E+00 -0.10789915048E+03  0.10789915051E+03  0.25500000920E-02 0.  1.
    10030    2    1    2    0    0  0.00000000000E+00  0.00000000000E+00  0.14638492695E+04  0.16796475705E+04  0.82362690418E+03 0.  0.
        3    1    3    3  502    0  0.17600859284E+03  0.33316239481E+03  0.10708102325E+04  0.11351699301E+04  0.10100000352E+00 0. -1.
       -3    1    3    3    0  502 -0.17600859284E+03 -0.33316239481E+03  0.39303903709E+03  0.54447764045E+03  0.10100000352E+00 0.  1.
</event>
<event>
 5   0  0.1537870E-02  0.1057329E+04  0.7818609E-02  0.9247810E-01
        1   -1    0    0  501    0  0.00000000000E+00  0.00000000000E+00  0.96170677920E+03  0.96170677922E+03  0.50400001928E-02 0.  1.
       -1   -1    0    0    0  501  0.00000000000E+00  0.00000000000E+00 -0.29061456950E+03  0.29061456954E+03  0.50400001928E-02 0. -1.
    10030    2    1    2    0    0  0.00000000000E+00  0.00000000000E+00  0.67109220970E+03  0.12523213488E+04  0.10573287127E+04 0.  0.
        5    1    3    3  502    0 -0.36616334702E+03 -0.32828991440E+02 -0.11439413208E+03  0.38504733064E+03  0.46999998093E+01 0. -1.
       -5    1    3    3    0  502  0.36616334702E+03  0.32828991440E+02  0.78548634179E+03  0.86727401812E+03  0.46999998093E+01 0.  1.
</event>
<event>
 5   0  0.2628383E-02  0.8690371E+03  0.7818609E-02  0.9465136E-01
        2   -1    0    0  501    0  0.00000000000E+00  0.00000000000E+00  0.40657521893E+03  0.40657521894E+03  0.25500000920E-02 0.  1.
       -2   -1    0    0    0  501  0.00000000000E+00  0.00000000000E+00 -0.46438234748E+03  0.46438234749E+03  0.25500000920E-02 0. -1.
    10030    2    1    2    0    0  0.00000000000E+00  0.00000000000E+00 -0.57807128548E+02  0.87095756643E+03  0.86903706389E+03 0.  0.
        2    1    3    3  502    0 -0.62996856531E+01 -0.20720162829E+03  0.35382274745E+03  0.41007650192E+03  0.25500000920E-02 0.  1.
       -2    1    3    3    0  502  0.62996856531E+01  0.20720162829E+03 -0.41162987600E+03  0.46088106451E+03  0.25500000920E-02 0. -1.
</event>
<event>
 5   0  0.2705111E-02  0.8988943E+03  0.7818609E-02  0.9426965E-01
       -2   -1    0    0    0  501  0.00000000000E+00  0.00000000000E+00  0.12961995359E+03  0.12961995362E+03  0.25500000920E-02 0. -1.
        2   -1    0    0  501    0  0.00000000000E+00  0.00000000000E+00 -0.15584231343E+04  0.15584231343E+04  0.25500000920E-02 0.  1.
    10030    2    1    2    0    0  0.00000000000E+00  0.00000000000E+00 -0.14288031807E+04  0.16880430879E+04  0.89889428605E+03 0.  0.
        4    1    3    3  502    0 -0.19440649570E+03  0.14227410315E+03 -0.14269327231E+04  0.14471262610E+04  0.12699999809E+01 0.  1.
       -4    1    3    3    0  502  0.19440649570E+03 -0.14227410315E+03 -0.18704575906E+01  0.24091682695E+03  0.12699999809E+01 0. -1.
</event>
<event>
 5   0  0.1560728E-02  0.8885034E+03  0.7818609E-02  0.9440068E-01
        1   -1    0    0  501    0  0.00000000000E+00  0.00000000000E+00  0.10752903148E+04  0.10752903148E+04  0.50400001928E-02 0.  1.
       -1   -1    0    0    0  501  0.00000000000E+00  0.00000000000E+00 -0.18354072894E+03  0.18354072901E+03  0.50400001928E-02 0. -1.
    10030    2    1    2    0    0  0.00000000000E+00  0.00000000000E+00  0.89174958589E+03  0.12588310439E+04  0.88850338944E+03 0.  0.
        4    1    3    3  502    0  0.21890782211E+02  0.24942461927E+03  0.96579597391E+03  0.99772507394E+03  0.12699999809E+01 0.  1.
       -4    1    3    3    0  502 -0.21890782211E+02 -0.24942461927E+03 -0.74046388026E+02  0.26110596991E+03  0.12699999809E+01 0. -1.
</event>
<event>
 5   0  0.2803717E-02  0.8848137E+03  0.7818609E-02  0.9444767E-01
        2   -1    0    0  501    0  0.00000000000E+00  0.00000000000E+00  0.26670892069E+03  0.26670892070E+03  0.25500000920E-02 0.  1.
       -2   -1    0    0    0  501  0.00000000000E+00  0.00000000000E+00 -0.73384808567E+03  0.73384808568E+03  0.25500000920E-02 0. -1.
    10030    2    1    2    0    0  0.00000000000E+00  0.00000000000E+00 -0.46713916499E+03  0.10005570064E+04  0.88481372251E+03 0.  0.
        5    1    3    3  502    0  0.24516787315E+03 -0.58731735351E+01 -0.64991683696E+03  0.69466233895E+03  0.46999998093E+01 0.  1.
       -5    1    3    3    0  502 -0.24516787315E+03  0.58731735351E+01  0.18277767197E+03  0.30589466743E+03  0.46999998093E+01 0. -1.
</event>
<event>
 5   0  0.2414128E-02  0.9194319E+03  0.7818609E-02  0.9401611E-01
        2   -1    0    0  501    0  0.00000000000E+00  0.00000000000E+00  0.13509208963E+04  0.13509208963E+04  0.25500000920E-02 0.  1.
       -2   -1    0    0    0  501  0.00000000000E+00  0.00000000000E+00 -0.15644049543E+03  0.15644049545E+03  0.25500000920E-02 0. -1.
    10030    2    1    2    0    0  0.00000000000E+00  0.00000000000E+00  0.11944804009E+04  0.15073613918E+04  0.91943185572E+03 0.  0.
        3    1    3    3  502    0 -0.75949947824E+02 -0.44445658619E+03  0.45034090483E+03  0.63727309087E+03  0.10100000352E+00 0.  1.
       -3    1    3    3    0  502  0.75949947824E+02  0.44445658619E+03  0.74413949606E+03  0.87008830091E+03  0.10100000352E+00 0. -1.
</event>
<event>
 5   0  0.1560728E-02  0.9011338E+03  0.7818609E-02  0.9424165E-01
        1   -1    0    0  501    0  0.00000000000E+00  0.00000000000E+00  0.39930419079E+03  0.39930419082E+03  0.50400001928E-02 0.  1.
       -1   -1    0    0    0  501  0.00000000000E+00  0.00000000000E+00 -0.50841073640E+03  0.50841073643E+03  0.50400001928E-02 0. -1.
    10030    2    1    2    0    0  0.00000000000E+00  0.00000000000E+00 -0.10910654562E+03  0.90771492724E+03  0.90113381406E+03 0.  0.
        4    1    3    3  502    0  0.20138084420E+03  0.78921787623E+01 -0.46047568718E+03  0.50264898516E+03  0.12699999809E+01 0. -1.
       -4    1    3    3    0  502 -0.20138084420E+03 -0.78921787623E+01  0.35136914157E+03  0.40506594209E+03  0.12699999809E+01 0.  1.
</event>
<event>
 5   0  0.1040163E-02  0.9027790E+03  0.7818609E-02  0.9422114E-01
        3   -1    0    0  501    0  0.00000000000E+00  0.00000000000E+00  0.60402277387E+03  0.60402278231E+03  0.10100000352E+00 0.  1.
       -3   -1    0    0    0  501  0.00000000000E+00  0.00000000000E+00 -0.33732578040E+03  0.33732579552E+03  0.10100000352E+00 0. -1.
    10030    2    1    2    0    0  0.00000000000E+00  0.00000000000E+00  0.26669699347E+03  0.94134857783E+03  0.90277896445E+03 0.  0.
        4    1    3    3  502    0  0.30081154317E+03 -0.33040903647E+03  0.20005944602E+03  0.48957441797E+03  0.12699999809E+01 0.  1.
       -4    1    3    3    0  502 -0.30081154317E+03  0.33040903647E+03  0.66637547444E+02  0.45177415986E+03  0.12699999809E+01 0. -1.
</event>
<event>
 5   0  0.1559275E-02  0.8722807E+03  0.7818609E-02  0.9460911E-01
       -1   -1    0    0    0  501  0.00000000000E+00  0.00000000000E+00  0.27482750237E+03  0.27482750241E+03  0.50400001928E-02 0. -1.
        1   -1    0    0  501    0  0.00000000000E+00  0.00000000000E+00 -0.69213744907E+03  0.69213744909E+03  0.50400001928E-02 0.  1.
    10030    2    1    2    0    0  0.00000000000E+00  0.00000000000E+00 -0.41730994670E+03  0.96696495150E+03  0.87228070356E+03 0.  0.
        1    1    3    3  502    0 -0.12573378447E+02  0.37038086661E+03 -0.46356876579E+03  0.59349479933E+03  0.50400001928E-02 0.  1.
       -1    1    3    3    0  502  0.12573378447E+02 -0.37038086661E+03  0.46258819084E+02  0.37347015217E+03  0.50400001928E-02 0. -1.
</event>
<event>
 5   0  0.2705111E-02  0.9388071E+03  0.7818609E-02  0.9378330E-01
       -2   -1    0    0    0  501  0.00000000000E+00  0.00000000000E+00  0.12391571030E+03  0.12391571032E+03  0.25500000920E-02 0.  1.
        2   -1    0    0  501    0  0.00000000000E+00  0.00000000000E+00 -0.17781418828E+04  0.17781418829E+04  0.25500000920E-02 0. -1.
    10030    2    1    2    0    0  0.00000000000E+00  0.00000000000E+00 -0.16542261726E+04  0.19020575932E+04  0.93880714622E+03 0.  0.
        4    1    3    3  502    0  0.46269464975E+03  0.22370428339E+02 -0.67346353699E+03  0.81739924365E+03  0.12699999809E+01 0.  1.
       -4    1    3    3    0  502 -0.46269464975E+03 -0.22370428339E+02 -0.98076263557E+03  0.10846583495E+04  0.12699999809E+01 0. -1.
</event>
<event>
 5   0  0.2414128E-02  0.1215029E+04  0.7818609E-02  0.9099802E-01
        2   -1    0    0  501    0  0.00000000000E+00  0.00000000000E+00  0.14605792103E+04  0.14605792103E+04  0.25500000920E-02 0.  1.
       -2   -1    0    0    0  501  0.00000000000E+00  0.00000000000E+00 -0.25269026503E+03  0.25269026504E+03  0.25500000920E-02 0. -1.
    10030    2    1    2    0    0  0.00000000000E+00  0.00000000000E+00  0.12078889452E+04  0.17132694753E+04  0.12150294610E+04 0.  0.
        3    1    3    3  502    0  0.46234124369E+03 -0.95091901481E+02  0.64657625545E+02  0.47642681924E+03  0.10100000352E+00 0. -1.
       -3    1    3    3    0  502 -0.46234124369E+03  0.95091901481E+02  0.11432313197E+04  0.12368426561E+04  0.10100000352E+00 0.  1.
</event>
<event>
 5   0  0.2628383E-02  0.8855759E+03  0.7818609E-02  0.9443794E-01
       -2   -1    0    0    0  501  0.00000000000E+00  0.00000000000E+00  0.78303846788E+03  0.78303846789E+03  0.25500000920E-02 0. -1.
        2   -1    0    0  501    0  0.00000000000E+00  0.00000000000E+00 -0.25038510580E+03  0.25038510581E+03  0.25500000920E-02 0.  1.
    10030    2    1    2    0    0  0.00000000000E+00  0.00000000000E+00  0.53265336209E+03  0.10334235737E+04  0.88557590219E+03 0.  0.
        2    1    3    3  502    0  0.39748927108E+03 -0.87049607777E+02  0.47007849193E+03  0.62173076441E+03  0.25500000920E-02 0. -1.
       -2    1    3    3    0  502 -0.39748927108E+03  0.87049607777E+02  0.62574870156E+02  0.41169280928E+03  0.25500000920E-02 0.  1.
</event>
<event>
 5   0  0.2628383E-02  0.9641698E+03  0.7818609E-02  0.9348740E-01
       -2   -1    0    0    0  501  0.00000000000E+00  0.00000000000E+00  0.23926737333E+03  0.23926737335E+03  0.25500000920E-02 0.  1.
        2   -1    0    0  501    0  0.00000000000E+00  0.00000000000E+00 -0.97132269118E+03  0.97132269119E+03  0.25500000920E-02 0. -1.
    10030    2    1    2    0    0  0.00000000000E+00  0.00000000000E+00 -0.73205531785E+03  0.12105900645E+04  0.96416975474E+03 0.  0.
        2    1    3    3  502    0  0.37016761090E+03  0.16927456220E+03 -0.41690056396E+02  0.40916500141E+03  0.25500000920E-02 0.  1.
       -2    1    3    3    0  502 -0.37016761090E+03 -0.16927456220E+03 -0.69036526146E+03  0.80142506312E+03  0.25500000920E-02 0. -1.
</event>
<event>
 5   0  0.2705111E-02  0.8903084E+03  0.7818609E-02  0.9437778E-01
       -2   -1    0    0    0  501  0.00000000000E+00  0.00000000000E+00  0.72332158833E+03  0.72332158833E+03  0.25500000920E-02 0. -1.
        2   -1    0    0  501    0  0.00000000000E+00  0.00000000000E+00 -0.27396147432E+03  0.27396147433E+03  0.25500000920E-02 0.  1.
    10030    2    1    2    0    0  0.00000000000E+00  0.00000000000E+00  0.44936011401E+03  0.99728306266E+03  0.89030837074E+03 0.  0.
        4    1    3    3  502    0  0.32003728181E+03  0.19736851697E+03 -0.42242343505E+02  0.37837048210E+03  0.12699999809E+01 0.  1.
       -4    1    3    3    0  502 -0.32003728181E+03 -0.19736851697E+03  0.49160245752E+03  0.61891258056E+03  0.12699999809E+01 0. -1.
</event>
<event>
 5   0  0.2803717E-02  0.9069326E+03  0.7818609E-02  0.9416957E-01
       -2   -1    0    0    0  501  0.00000000000E+00  0.00000000000E+00  0.20015200313E+03  0.20015200315E+03  0.25500000920E-02 0. -1.
        2   -1    0    0  501    0  0.00000000000E+00  0.00000000000E+00 -0.10273776419E+04  0.10273776419E+04  0.25500000920E-02 0.  1.
    10030    2    1    2    0    0  0.00000000000E+00  0.00000000000E+00 -0.82722563877E+03  0.12275296451E+04  0.90693261715E+03 0.  0.
        5    1    3    3  502    0 -0.20689523610E+03  0.26182225674E+03 -0.82914505523E+03  0.89378976580E+03  0.46999998093E+01 0.  1.
       -5    1    3    3    0  502  0.20689523610E+03 -0.26182225674E+03  0.19194164632E+01  0.33373987925E+03  0.46999998093E+01 0. -1.
</event>
<event>
 5   0  0.2803717E-02  0.9033115E+03  0.7818609E-02  0.9421451E-01
       -2   -1    0    0    0  501  0.00000000000E+00  0.00000000000E+00  0.23030503407E+03  0.23030503408E+03  0.25500000920E-02 0. -1.
        2   -1    0    0  501    0  0.00000000000E+00  0.00000000000E+00 -0.88575100715E+03  0.88575100715E+03  0.25500000920E-02 0.  1.
    10030    2    1    2    0    0  0.00000000000E+00  0.00000000000E+00 -0.65544597308E+03  0.11160560412E+04  0.90331149862E+03 0.  0.
        5    1    3    3  502    0  0.35693653588E+03 -0.27028377769E+03 -0.40096122591E+03  0.60103993695E+03  0.46999998093E+01 0. -1.
       -5    1    3    3    0  502 -0.35693653588E+03  0.27028377769E+03 -0.25448474717E+03  0.51501610428E+03  0.46999998093E+01 0.  1.
</event>
<event>
 5   0  0.2414128E-02  0.9076398E+03  0.7818609E-02  0.9416081E-01
       -2   -1    0    0    0  501  0.00000000000E+00  0.00000000000E+00  0.70716415135E+02  0.70716415181E+02  0.25500000920E-02 0. -1.
        2   -1    0    0  501    0  0.00000000000E+00  0.00000000000E+00 -0.29123716146E+04  0.29123716146E+04  0.25500000920E-02 0.  1.
    10030    2    1    2    0    0  0.00000000000E+00  0.00000000000E+00 -0.28416551995E+04  0.29830880298E+04  0.90763975276E+03 0.  0.
        3    1    3    3  502    0 -0.24384537416E+03  0.28121272922E+03 -0.22741613564E+04  0.23044198946E+04  0.10100000352E+00 0.  1.
       -3    1    3    3    0  502  0.24384537416E+03 -0.28121272922E+03 -0.56749384312E+03  0.67866813522E+03  0.10100000352E+00 0. -1.
</event>
<event>
 5   0  0.1560728E-02  0.8955532E+03  0.7818609E-02  0.9431157E-01
        1   -1    0    0  501    0  0.00000000000E+00  0.00000000000E+00  0.69938579818E+03  0.69938579820E+03  0.50400001928E-02 0. -1.
       -1   -1    0    0    0  501  0.00000000000E+00  0.00000000000E+00 -0.28668568546E+03  0.28668568550E+03  0.50400001928E-02 0.  1.
    10030    2    1    2    0    0  0.00000000000E+00  0.00000000000E+00  0.41270011273E+03  0.98607148370E+03  0.89555323009E+03 0.  0.
        4    1    3    3  502    0 -0.22308978079E+03  0.38696397917E+03  0.24103152501E+03  0.50755096337E+03  0.12699999809E+01 0. -1.
       -4    1    3    3    0  502  0.22308978079E+03 -0.38696397917E+03  0.17166858772E+03  0.47852052033E+03  0.12699999809E+01 0.  1.
</event>
<event>
 5   0  0.1559275E-02  0.9296161E+03  0.7818609E-02  0.9389299E-01
       -1   -1    0    0    0  501  0.00000000000E+00  0.00000000000E+00  0.19460878967E+03  0.19460878974E+03  0.50400001928E-02 0. -1.
        1   -1    0    0  501    0  0.00000000000E+00  0.00000000000E+00 -0.11101580339E+04  0.11101580339E+04  0.50400001928E-02 0.  1.
    10030    2    1    2    0    0  0.00000000000E+00  0.00000000000E+00 -0.91554924422E+03  0.13047668236E+04  0.92961607424E+03 0.  0.
        1    1    3    3  502    0  0.17187129451E+03 -0.28739456419E+03 -0.53353210511E+01  0.33490870857E+03  0.50400001928E-02 0. -1.
       -1    1    3    3    0  502 -0.17187129451E+03  0.28739456419E+03 -0.91021392317E+03  0.96985811507E+03  0.50400001928E-02 0.  1.
</event>
<event>
 5   0  0.2628383E-02  0.9098582E+03  0.7818609E-02  0.9413341E-01
       -2   -1    0    0    0  501  0.00000000000E+00  0.00000000000E+00  0.12444742008E+03  0.12444742011E+03  0.25500000920E-02 0. -1.
        2   -1    0    0  501    0  0.00000000000E+00  0.00000000000E+00 -0.16630356541E+04  0.16630356541E+04  0.25500000920E-02 0.  1.
    10030    2    1    2    0    0  0.00000000000E+00  0.00000000000E+00 -0.15385882340E+04  0.17874830742E+04  0.90985822342E+03 0.  0.
        2    1    3    3  502    0  0.27947254350E+03  0.32433176666E+03 -0.46707852076E+03  0.63360740367E+03  0.25500000920E-02 0. -1.
       -2    1    3    3    0  502 -0.27947254350E+03 -0.32433176666E+03 -0.10715097133E+04  0.11538756706E+04  0.25500000920E-02 0.  1.
</event>
<event>
 5   0  0.2705111E-02  0.8125971E+03  0.7818609E-02  0.9541960E-01
        2   -1    0    0  501    0  0.00000000000E+00  0.00000000000E+00  0.50928942866E+03  0.50928942866E+03  0.25500000920E-02 0.  1.
       -2   -1    0    0    0  501  0.00000000000E+00  0.00000000000E+00 -0.32413497592E+03  0.32413497593E+03  0.25500000920E-02 0. -1.
    10030    2    1    2    0    0  0.00000000000E+00  0.00000000000E+00  0.18515445273E+03  0.83342440459E+03  0.81259711223E+03 0.  0.
        4    1    3    3  502    0  0.13162192609E+02  0.33627949351E+03  0.32605129355E+03  0.46858104955E+03  0.12699999809E+01 0.  1.
       -4    1    3    3    0  502 -0.13162192609E+02 -0.33627949351E+03 -0.14089684081E+03  0.36484335505E+03  0.12699999809E+01 0. -1.
</event>
<event>
 5   0  0.1537870E-02  0.9039878E+03  0.7818609E-02  0.9420610E-01
       -1   -1    0    0    0  501  0.00000000000E+00  0.00000000000E+00  0.26990076403E+03  0.26990076408E+03  0.50400001928E-02 0. -1.
        1   -1    0    0  501    0  0.00000000000E+00  0.00000000000E+00 -0.75693932854E+03  0.75693932856E+03  0.50400001928E-02 0.  1.
    10030    2    1    2    0    0  0.00000000000E+00  0.00000000000E+00 -0.48703856451E+03  0.10268400926E+04  0.90398783871E+03 0.  0.
        5    1    3    3  502    0 -0.30401395933E+03  0.31254748020E+03 -0.10832328872E+03  0.44929549266E+03  0.46999998093E+01 0. -1.
       -5    1    3    3    0  502  0.30401395933E+03 -0.31254748020E+03 -0.37871527579E+03  0.57754459998E+03  0.46999998093E+01 0.  1.
</event>
<event>
 5   0  0.1537870E-02  0.8237096E+03  0.7818609E-02  0.9526319E-01
        1   -1    0    0  501    0  0.00000000000E+00  0.00000000000E+00  0.69653037214E+03  0.69653037216E+03  0.50400001928E-02 0. -1.
       -1   -1    0    0    0  501  0.00000000000E+00  0.00000000000E+00 -0.24352760229E+03  0.24352760235E+03  0.50400001928E-02 0.  1.
    10030    2    1    2    0    0  0.00000000000E+00  0.00000000000E+00  0.45300276985E+03  0.94005797450E+03  0.82370958835E+03 0.  0.
        5    1    3    3  502    0 -0.14798564112E+03  0.15230528280E+03  0.62919525217E+03  0.66408237780E+03  0.46999998093E+01 0. -1.
       -5    1    3    3    0  502  0.14798564112E+03 -0.15230528280E+03 -0.17619248233E+03  0.27597559670E+03  0.46999998093E+01 0.  1.
</event>
<event>
 5   0  0.2679861E-02  0.7095067E+03  0.7818609E-02  0.9701111E-01
       -2   -1    0    0    0  501  0.00000000000E+00  0.00000000000E+00  0.10060566146E+03  0.10060566150E+03  0.25500000920E-02 0.  1.
        2   -1    0    0  501    0  0.00000000000E+00  0.00000000000E+00 -0.12509230033E+04  0.12509230033E+04  0.25500000920E-02 0. -1.
    10030    2    1    2    0    0  0.00000000000E+00  0.00000000000E+00 -0.11503173419E+04  0.13515286648E+04  0.70950669120E+03 0.  0.
        1    1    3    3  502    0 -0.15429796595E+03  0.29873238400E+03 -0.79068053566E+03  0.85919998198E+03  0.50400001928E-02 0. -1.
       -1    1    3    3    0  502  0.15429796595E+03 -0.29873238400E+03 -0.35963680621E+03  0.49232868285E+03  0.50400001928E-02 0.  1.
</event>
<event>
 5   0  0.1537870E-02  0.8895276E+03  0.7818609E-02  0.9438768E-01
        1   -1    0    0  501    0  0.00000000000E+00  0.00000000000E+00  0.83366486299E+03  0.83366486300E+03  0.50400001928E-02 0.  1.
       -1   -1    0    0    0  501  0.00000000000E+00  0.00000000000E+00 -0.23728342846E+03  0.23728342851E+03  0.50400001928E-02 0. -1.
    10030    2    1    2    0    0  0.00000000000E+00  0.00000000000E+00  0.59638143453E+03  0.10709482915E+04  0.88952764299E+03 0.  0.
        5    1    3    3  502    0 -0.27557371538E+02 -0.40618892486E+03  0.82673563680E+02  0.41545861350E+03  0.46999998093E+01 0.  1.
       -5    1    3    3    0  502  0.27557371538E+02  0.40618892486E+03  0.51370787085E+03  0.65548967801E+03  0.46999998093E+01 0. -1.
</event>
<event>
 5   0  0.1560728E-02  0.8734230E+03  0.7818609E-02  0.9459428E-01
        1   -1    0    0  501    0  0.00000000000E+00  0.00000000000E+00  0.72394589071E+03  0.72394589073E+03  0.50400001928E-02 0. -1.
       -1   -1    0    0    0  501  0.00000000000E+00  0.00000000000E+00 -0.26344085620E+03  0.26344085625E+03  0.50400001928E-02 0.  1.
    10030    2    1    2    0    0  0.00000000000E+00  0.00000000000E+00  0.46050503451E+03  0.98738674698E+03  0.87342297960E+03 0.  0.
        4    1    3    3  502    0 -0.20808870321E+03 -0.42485183421E+01 -0.20376379284E+03  0.29127350461E+03  0.12699999809E+01 0.  1.
       -4    1    3    3    0  502  0.20808870321E+03  0.42485183421E+01  0.66426882735E+03  0.69611324237E+03  0.12699999809E+01 0. -1.
</event>
<event>
 5   0  0.1560728E-02  0.8445906E+03  0.7818609E-02  0.9497626E-01
        1   -1    0    0  501    0  0.00000000000E+00  0.00000000000E+00  0.68053014122E+03  0.68053014124E+03  0.50400001928E-02 0.  1.
       -1   -1    0    0    0  501  0.00000000000E+00  0.00000000000E+00 -0.26205058260E+03  0.26205058265E+03  0.50400001928E-02 0. -1.
    10030    2    1    2    0    0  0.00000000000E+00  0.00000000000E+00  0.41847955862E+03  0.94258072389E+03  0.84459059908E+03 0.  0.
        4    1    3    3  502    0  0.40967320410E+03  0.48836630880E+01  0.95013952657E+02  0.42057727997E+03  0.12699999809E+01 0. -1.
       -4    1    3    3    0  502 -0.40967320410E+03 -0.48836630880E+01  0.32346560596E+03  0.52200344392E+03  0.12699999809E+01 0.  1.
</event>
<event>
 5   0  0.1559275E-02  0.9279188E+03  0.7818609E-02  0.9391339E-01
       -1   -1    0    0    0  501  0.00000000000E+00  0.00000000000E+00  0.46573991702E+03  0.46573991704E+03  0.50400001928E-02 0. -1.
        1   -1    0    0  501    0  0.00000000000E+00  0.00000000000E+00 -0.46218564920E+03  0.46218564922E+03  0.50400001928E-02 0.  1.
    10030    2    1    2    0    0  0.00000000000E+00  0.00000000000E+00  0.35542678212E+01  0.92792556627E+03  0.92791875922E+03 0.  0.
        1    1    3    3  502    0 -0.25194674381E+03  0.29070660609E+03 -0.25759094496E+03  0.46296931593E+03  0.50400001928E-02 0.  1.
       -1    1    3    3    0  502  0.25194674381E+03 -0.29070660609E+03  0.26114521278E+03  0.46495625034E+03  0.50400001928E-02 0. -1.
</event>
<event>
 5   0  0.1559275E-02  0.9108021E+03  0.7818609E-02  0.9412178E-01
        1   -1    0    0  501    0  0.00000000000E+00  0.00000000000E+00  0.20898650880E+03  0.20898650887E+03  0.50400001928E-02 0. -1.
       -1   -1    0    0    0  501  0.00000000000E+00  0.00000000000E+00 -0.99236137160E+03  0.99236137161E+03  0.50400001928E-02 0.  1.
    10030    2    1    2    0    0  0.00000000000E+00  0.00000000000E+00 -0.78337486279E+03  0.12013478805E+04  0.91080214880E+03 0.  0.
        1    1    3    3  502    0  0.76529863236E+02 -0.10025194511E+03 -0.96886533921E+03  0.97704008005E+03  0.50400001928E-02 0.  1.
       -1    1    3    3    0  502 -0.76529863236E+02  0.10025194511E+03  0.18549047642E+03  0.22430780043E+03  0.50400001928E-02 0. -1.
</event>
<event>
 5   0  0.1040163E-02  0.8641642E+03  0.7818609E-02  0.9471521E-01
        4   -1    0    0  501    0  0.00000000000E+00  0.00000000000E+00  0.51031231918E+03  0.51031389948E+03  0.12699999809E+01 0. -1.
       -4   -1    0    0    0  501  0.00000000000E+00  0.00000000000E+00 -0.36584126316E+03  0.36584346752E+03  0.12699999809E+01 0.  1.
    10030    2    1    2    0    0  0.00000000000E+00  0.00000000000E+00  0.14447105602E+03  0.87615736701E+03  0.86416424696E+03 0.  0.
        1    1    3    3  502    0 -0.36264686744E+03 -0.10366161554E+03 -0.14148963123E+03  0.40283718395E+03  0.50400001928E-02 0.  1.
       -1    1    3    3    0  502  0.36264686744E+03  0.10366161554E+03  0.28596068726E+03  0.47332018305E+03  0.50400001928E-02 0. -1.
</event>
<event>
 5   0  0.1537870E-02  0.8860776E+03  0.7818609E-02  0.9443154E-01
        1   -1    0    0  501    0  0.00000000000E+00  0.00000000000E+00  0.90700301757E+03  0.90700301759E+03  0.50400001928E-02 0. -1.
       -1   -1    0    0    0  501  0.00000000000E+00  0.00000000000E+00 -0.21640876167E+03  0.21640876173E+03  0.50400001928E-02 0.  1.
    10030    2    1    2    0    0  0.00000000000E+00  0.00000000000E+00  0.69059425590E+03  0.11234117793E+04  0.88607764875E+03 0.  0.
        5    1    3    3  502    0 -0.15695596712E+03 -0.34217502126E+03  0.64139430733E+03  0.74372553289E+03  0.46999998093E+01 0. -1.
       -5    1    3    3    0  502  0.15695596712E+03  0.34217502126E+03  0.49199948568E+02  0.37968624643E+03  0.46999998093E+01 0.  1.
</event>
<event>
 5   0  0.2414128E-02  0.6989367E+03  0.7818609E-02  0.9719052E-01
       -2   -1    0    0    0  501  0.00000000000E+00  0.00000000000E+00  0.49319062130E+03  0.49319062131E+03  0.25500000920E-02 0. -1.
        2   -1    0    0  501    0  0.00000000000E+00  0.00000000000E+00 -0.24762861633E+03  0.24762861634E+03  0.25500000920E-02 0.  1.
    10030    2    1    2    0    0  0.00000000000E+00  0.00000000000E+00  0.24556200497E+03  0.74081923765E+03  0.69893665277E+03 0.  0.
        3    1    3    3  502    0 -0.12531385677E+03  0.35174130906E+02  0.46654162594E+03  0.48435718341E+03  0.10100000352E+00 0. -1.
       -3    1    3    3    0  502  0.12531385677E+03 -0.35174130906E+02 -0.22097962097E+03  0.25646205425E+03  0.10100000352E+00 0.  1.
</event>
<event>
 5   0  0.1497410E-02  0.9105177E+03  0.7818609E-02  0.9412528E-01
       -1   -1    0    0    0  501  0.00000000000E+00  0.00000000000E+00  0.11656972309E+03  0.11656972320E+03  0.50400001928E-02 0. -1.
        1   -1    0    0  501    0  0.00000000000E+00  0.00000000000E+00 -0.17779972086E+04  0.17779972086E+04  0.50400001928E-02 0.  1.
    10030    2    1    2    0    0  0.00000000000E+00  0.00000000000E+00 -0.16614274855E+04  0.18945669318E+04  0.91051774805E+03 0.  0.
        3    1    3    3  502    0  0.18983611499E+03 -0.41311103363E+03 -0.78137935129E+03  0.90402000945E+03  0.10100000352E+00 0. -1.
       -3    1    3    3    0  502 -0.18983611499E+03  0.41311103363E+03 -0.88004813424E+03  0.99054692239E+03  0.10100000352E+00 0.  1.
</event>
<event>
 5   0  0.1040163E-02  0.9114001E+03  0.7818609E-02  0.9411442E-01
       -3   -1    0    0    0  501  0.00000000000E+00  0.00000000000E+00  0.33193418385E+03  0.33193419922E+03  0.10100000352E+00 0.  1.
        3   -1    0    0  501    0  0.00000000000E+00  0.00000000000E+00 -0.62561355888E+03  0.62561356703E+03  0.10100000352E+00 0. -1.
    10030    2    1    2    0    0  0.00000000000E+00  0.00000000000E+00 -0.29367937503E+03  0.95754776625E+03  0.91140010387E+03 0.  0.
        3    1    3    3  502    0 -0.64213958482E+02  0.44680408238E+02  0.32482674555E+03  0.33411404665E+03  0.10100000352E+00 0.  1.
       -3    1    3    3    0  502  0.64213958482E+02 -0.44680408238E+02 -0.61850612058E+03  0.62343371960E+03  0.10100000352E+00 0. -1.
</event>
<event>
 5   0  0.1459111E-02  0.9049664E+03  0.7818609E-02  0.9419394E-01
       -1   -1    0    0    0  501  0.00000000000E+00  0.00000000000E+00  0.23727159964E+03  0.23727159969E+03  0.50400001928E-02 0. -1.
        1   -1    0    0  501    0  0.00000000000E+00  0.00000000000E+00 -0.86289747375E+03  0.86289747376E+03  0.50400001928E-02 0.  1.
    10030    2    1    2    0    0  0.00000000000E+00  0.00000000000E+00 -0.62562587411E+03  0.11001690735E+04  0.90496643906E+03 0.  0.
        2    1    3    3  502    0 -0.36243348225E+03 -0.22534793558E+03 -0.13004749536E+03  0.44615252121E+03  0.25500000920E-02 0. -1.
       -2    1    3    3    0  502  0.36243348225E+03  0.22534793558E+03 -0.49557837875E+03  0.65401655225E+03  0.25500000920E-02 0.  1.
</event>
<event>
 5   0  0.2803717E-02  0.9464498E+03  0.7818609E-02  0.9369310E-01
       -2   -1    0    0    0  501  0.00000000000E+00  0.00000000000E+00  0.10939364565E+03  0.10939364568E+03  0.25500000920E-02 0.  1.
        2   -1    0    0  501    0  0.00000000000E+00  0.00000000000E+00 -0.20471188745E+04  0.20471188745E+04  0.25500000920E-02 0. -1.
    10030    2    1    2    0    0  0.00000000000E+00  0.00000000000E+00 -0.19377252288E+04  0.21565125202E+04  0.94644978058E+03 0.  0.
        5    1    3    3  502    0 -0.35528942070E+03 -0.14037461130E+03 -0.16051560592E+04  0.16499950510E+04  0.46999998093E+01 0. -1.
       -5    1    3    3    0  502  0.35528942070E+03  0.14037461130E+03 -0.33256916962E+03  0.50651746914E+03  0.46999998093E+01 0.  1.
</event>
<event>
 5   0  0.2414128E-02  0.9259452E+03  0.7818609E-02  0.9393718E-01
       -2   -1    0    0    0  501  0.00000000000E+00  0.00000000000E+00  0.12502857089E+04  0.12502857089E+04  0.25500000920E-02 0. -1.
        2   -1    0    0  501    0  0.00000000000E+00  0.00000000000E+00 -0.17143570059E+03  0.17143570061E+03  0.25500000920E-02 0.  1.
    10030    2    1    2    0    0  0.00000000000E+00  0.00000000000E+00  0.10788500083E+04  0.14217214095E+04  0.92594515271E+03 0.  0.
        3    1    3    3  502    0  0.38157557364E+03 -0.39148408685E+02  0.14136396005E+03  0.40879860042E+03  0.10100000352E+00 0.  1.
       -3    1    3    3    0  502 -0.38157557364E+03  0.39148408685E+02  0.93748604826E+03  0.10129228091E+04  0.10100000352E+00 0. -1.
</event>
<event>
 5   0  0.1559275E-02  0.9675246E+03  0.7818609E-02  0.9344898E-01
        1   -1    0    0  501    0  0.00000000000E+00  0.00000000000E+00  0.38211207253E+03  0.38211207256E+03  0.50400001928E-02 0. -1.
       -1   -1    0    0    0  501  0.00000000000E+00  0.00000000000E+00 -0.61245376647E+03  0.61245376649E+03  0.50400001928E-02 0.  1.
    10030    2    1    2    0    0  0.00000000000E+00  0.00000000000E+00 -0.23034169394E+03  0.99456583905E+03  0.96752463133E+03 0.  0.
        1    1    3    3  502    0 -0.26426756728E+03 -0.10691366718E+03 -0.51693726231E+03  0.59033212054E+03  0.50400001928E-02 0.  1.
       -1    1    3    3    0  502  0.26426756728E+03  0.10691366718E+03  0.28659556838E+03  0.40423371851E+03  0.50400001928E-02 0. -1.
</event>
<event>
 5   0  0.2705111E-02  0.8443729E+03  0.7818609E-02  0.9497921E-01
       -2   -1    0    0    0  501  0.00000000000E+00  0.00000000000E+00  0.96589187595E+02  0.96589187628E+02  0.25500000920E-02 0.  1.
        2   -1    0    0  501    0  0.00000000000E+00  0.00000000000E+00 -0.18453554145E+04  0.18453554145E+04  0.25500000920E-02 0. -1.
    10030    2    1    2    0    0  0.00000000000E+00  0.00000000000E+00 -0.17487662269E+04  0.19419446021E+04  0.84437285684E+03 0.  0.
        4    1    3    3  502    0  0.35541745944E+03  0.10686317055E+03 -0.13372134589E+04  0.13877617790E+04  0.12699999809E+01 0. -1.
       -4    1    3    3    0  502 -0.35541745944E+03 -0.10686317055E+03 -0.41155276799E+03  0.55418282311E+03  0.12699999809E+01 0.  1.
</event>
<event>
 5   0  0.2679861E-02  0.9104257E+03  0.7818609E-02  0.9412642E-01
        2   -1    0    0  501    0  0.00000000000E+00  0.00000000000E+00  0.74797597295E+03  0.74797597296E+03  0.25500000920E-02 0.  1.
       -2   -1    0    0    0  501  0.00000000000E+00  0.00000000000E+00 -0.27703927838E+03  0.27703927839E+03  0.25500000920E-02 0. -1.
    10030    2    1    2    0    0  0.00000000000E+00  0.00000000000E+00  0.47093669457E+03  0.10250152514E+04  0.91042566704E+03 0.  0.
        1    1    3    3  502    0  0.19186665014E+03  0.60367116047E+02  0.69523135160E+03  0.72374279438E+03  0.50400001928E-02 0.  1.
       -1    1    3    3    0  502 -0.19186665014E+03 -0.60367116047E+02 -0.22429465703E+03  0.30127245698E+03  0.50400001928E-02 0. -1.
</event>
<event>
 5   0  0.2414128E-02  0.8133042E+03  0.7818609E-02  0.9540957E-01
        2   -1    0    0  501    0  0.00000000000E+00  0.00000000000E+00  0.21448177360E+04  0.21448177360E+04  0.25500000920E-02 0.  1.
       -2   -1    0    0    0  501  0.00000000000E+00  0.00000000000E+00 -0.77100227448E+02  0.77100227490E+02  0.25500000920E-02 0. -1.
    10030    2    1    2    0    0  0.00000000000E+00  0.00000000000E+00  0.20677175085E+04  0.22219179635E+04  0.81330421203E+03 0.  0.
        3    1    3    3  502    0  0.26029624516E+03 -0.13329336849E+03  0.18058243717E+04  0.18293504118E+04  0.10100000352E+00 0.  1.
       -3    1    3    3    0  502 -0.26029624516E+03  0.13329336849E+03  0.26189313677E+03  0.39256755166E+03  0.10100000352E+00 0. -1.
</event>
<event>
 5   0  0.1537870E-02  0.8923304E+03  0.7818609E-02  0.9435220E-01
       -1   -1    0    0    0  501  0.00000000000E+00  0.00000000000E+00  0.17575130469E+03  0.17575130477E+03  0.50400001928E-02 0. -1.
        1   -1    0    0  501    0  0.00000000000E+00  0.00000000000E+00 -0.11326423875E+04  0.11326423876E+04  0.50400001928E-02 0.  1.
    10030    2    1    2    0    0  0.00000000000E+00  0.00000000000E+00 -0.95689108285E+03  0.13083936923E+04  0.89233038146E+03 0.  0.
        5    1    3    3  502    0 -0.36690311309E+03 -0.15833646855E+03 -0.76931722228E+03  0.86692526215E+03  0.46999998093E+01 0.  1.
       -5    1    3    3    0  502  0.36690311309E+03  0.15833646855E+03 -0.18757386058E+03  0.44146843017E+03  0.46999998093E+01 0. -1.
</event>
<event>
 5   0  0.1459111E-02  0.9130927E+03  0.7818609E-02  0.9409361E-01
       -1   -1    0    0    0  501  0.00000000000E+00  0.00000000000E+00  0.48232650498E+03  0.48232650501E+03  0.50400001928E-02 0. -1.
        1   -1    0    0  501    0  0.00000000000E+00  0.00000000000E+00 -0.43214409287E+03  0.43214409290E+03  0.50400001928E-02 0.  1.
    10030    2    1    2    0    0  0.00000000000E+00  0.00000000000E+00  0.50182412113E+02  0.91447059790E+03  0.91309265682E+03 0.  0.
        2    1    3    3  502    0 -0.30974265868E+02  0.18733074154E+03  0.44090728607E+03  0.48005358741E+03  0.25500000920E-02 0. -1.
       -2    1    3    3    0  502  0.30974265868E+02 -0.18733074154E+03 -0.39072487396E+03  0.43441701049E+03  0.25500000920E-02 0.  1.
</event>
<event>
 5   0  0.1559275E-02  0.9557943E+03  0.7818609E-02  0.9358403E-01
        1   -1    0    0  501    0  0.00000000000E+00  0.00000000000E+00  0.83530301090E+03  0.83530301091E+03  0.50400001928E-02 0.  1.
       -1   -1    0    0    0  501  0.00000000000E+00  0.00000000000E+00 -0.27341659123E+03  0.27341659127E+03  0.50400001928E-02 0. -1.
    10030    2    1    2    0    0  0.00000000000E+00  0.00000000000E+00  0.56188641967E+03  0.11087196022E+04  0.95579433335E+03 0.  0.
        1    1    3    3  502    0  0.21025470002E+02 -0.26612709346E+03  0.74074749251E+03  0.78738335514E+03  0.50400001928E-02 0.  1.
       -1    1    3    3    0  502 -0.21025470002E+02  0.26612709346E+03 -0.17886107285E+03  0.32133624704E+03  0.50400001928E-02 0. -1.
</event>
<event>
 5   0  0.2628383E-02  0.8643379E+03  0.7818609E-02  0.9471293E-01
        2   -1    0    0  501    0  0.00000000000E+00  0.00000000000E+00  0.83810999837E+03  0.83810999837E+03  0.25500000920E-02 0.  1.
       -2   -1    0    0    0  501  0.00000000000E+00  0.00000000000E+00 -0.22284663794E+03  0.22284663796E+03  0.25500000920E-02 0. -1.
    10030    2    1    2    0    0  0.00000000000E+00  0.00000000000E+00  0.61526336043E+03  0.10609566363E+04  0.86433788618E+03 0.  0.
        2    1    3    3  502    0 -0.15732660821E+03 -0.23937275297E+03 -0.89584441016E+02  0.30012722068E+03  0.25500000920E-02 0. -1.
       -2    1    3    3    0  502  0.15732660821E+03  0.23937275297E+03  0.70484780144E+03  0.76082941565E+03  0.25500000920E-02 0.  1.
</event>
<event>
 5   0  0.2705111E-02  0.8474031E+03  0.7818609E-02  0.9493829E-01
       -2   -1    0    0    0  501  0.00000000000E+00  0.00000000000E+00  0.17402154231E+03  0.17402154232E+03  0.25500000920E-02 0.  1.
        2   -1    0    0  501    0  0.00000000000E+00  0.00000000000E+00 -0.10316136852E+04  0.10316136852E+04  0.25500000920E-02 0. -1.
    10030    2    1    2    0    0  0.00000000000E+00  0.00000000000E+00 -0.85759214287E+03  0.12056352275E+04  0.84740310259E+03 0.  0.
        4    1    3    3  502    0 -0.18685221178E+03  0.20386655964E+03 -0.88550719866E+03  0.92768525642E+03  0.12699999809E+01 0. -1.
       -4    1    3    3    0  502  0.18685221178E+03 -0.20386655964E+03  0.27915055792E+02  0.27794997109E+03  0.12699999809E+01 0.  1.
</event>
<event>
 5   0  0.1459111E-02  0.9369503E+03  0.7818609E-02  0.9380535E-01
        1   -1    0    0  501    0  0.00000000000E+00  0.00000000000E+00  0.12606408053E+04  0.12606408053E+04  0.50400001928E-02 0. -1.
       -1   -1    0    0    0  501  0.00000000000E+00  0.00000000000E+00 -0.17409317462E+03  0.17409317469E+03  0.50400001928E-02 0.  1.
    10030    2    1    2    0    0  0.00000000000E+00  0.00000000000E+00  0.10865476307E+04  0.14347339800E+04  0.93695028664E+03 0.  0.
        2    1    3    3  502    0 -0.85101279602E+02 -0.28917053688E+03 -0.58716019224E+01  0.30149013733E+03  0.25500000920E-02 0.  1.
       -2    1    3    3    0  502  0.85101279602E+02  0.28917053688E+03  0.10924192326E+04  0.11332438427E+04  0.25500000920E-02 0. -1.
</event>
<event>
 5   0  0.1040163E-02  0.8897837E+03  0.7818609E-02  0.9438443E-01
        3   -1    0    0  501    0  0.00000000000E+00  0.00000000000E+00  0.69098149610E+03  0.69098150348E+03  0.10100000352E+00 0. -1.
       -3   -1    0    0    0  501  0.00000000000E+00  0.00000000000E+00 -0.28644579923E+03  0.28644581703E+03  0.10100000352E+00 0.  1.
    10030    2    1    2    0    0  0.00000000000E+00  0.00000000000E+00  0.40453569687E+03  0.97742732051E+03  0.88978370228E+03 0.  0.
        1    1    3    3  502    0  0.31850797861E+03 -0.30446444107E+03  0.26983078063E+03  0.51667647374E+03  0.50400001928E-02 0.  1.
       -1    1    3    3    0  502 -0.31850797861E+03  0.30446444107E+03  0.13470491624E+03  0.46075084677E+03  0.50400001928E-02 0. -1.
</event>
<event>
 5   0  0.1497410E-02  0.4680460E+03  0.7818609E-02  0.1022473E+00
        1   -1    0    0  501    0  0.00000000000E+00  0.00000000000E+00  0.13483520308E+04  0.13483520308E+04  0.50400001928E-02 0. -1.
       -1   -1    0    0    0  501  0.00000000000E+00  0.00000000000E+00 -0.40617563183E+02  0.40617563495E+02  0.50400001928E-02 0.  1.
    10030    2    1    2    0    0  0.00000000000E+00  0.00000000000E+00  0.13077344676E+04  0.13889695943E+04  0.46804604059E+03 0.  0.
        3    1    3    3  502    0 -0.22107485707E+03 -0.57366328902E+02  0.80523698260E+03  0.83700155105E+03  0.10100000352E+00 0. -1.
       -3    1    3    3    0  502  0.22107485707E+03  0.57366328902E+02  0.50249748503E+03  0.55196804326E+03  0.10100000352E+00 0.  1.
</event>
<event>
 5   0  0.1459111E-02  0.9147937E+03  0.7818609E-02  0.9407275E-01
        1   -1    0    0  501    0  0.00000000000E+00  0.00000000000E+00  0.17332153512E+04  0.17332153512E+04  0.50400001928E-02 0. -1.
       -1   -1    0    0    0  501  0.00000000000E+00  0.00000000000E+00 -0.12070736603E+03  0.12070736613E+03  0.50400001928E-02 0.  1.
    10030    2    1    2    0    0  0.00000000000E+00  0.00000000000E+00  0.16125079852E+04  0.18539227174E+04  0.91479365959E+03 0.  0.
        2    1    3    3  502    0 -0.34367453635E+03 -0.30166183130E+03  0.78600698037E+03  0.90935087870E+03  0.25500000920E-02 0.  1.
       -2    1    3    3    0  502  0.34367453635E+03  0.30166183130E+03  0.82650100483E+03  0.94457183866E+03  0.25500000920E-02 0. -1.
</event>
<event>
 5   0  0.1537870E-02  0.9022454E+03  0.7818609E-02  0.9422779E-01
        1   -1    0    0  501    0  0.00000000000E+00  0.00000000000E+00  0.17235792982E+04  0.17235792982E+04  0.50400001928E-02 0.  1.
       -1   -1    0    0    0  501  0.00000000000E+00  0.00000000000E+00 -0.11807504503E+03  0.11807504514E+03  0.50400001928E-02 0. -1.
    10030    2    1    2    0    0  0.00000000000E+00  0.00000000000E+00  0.16055042531E+04  0.18416543433E+04  0.90224542859E+03 0.  0.
        5    1    3    3  502    0  0.56863893330E+02  0.44493980895E+03  0.90031753664E+03  0.10058820471E+04  0.46999998093E+01 0.  1.
       -5    1    3    3    0  502 -0.56863893330E+02 -0.44493980895E+03  0.70518671649E+03  0.83577229618E+03  0.46999998093E+01 0. -1.
</event>
<event>
 5   0  0.2628383E-02  0.9059352E+03  0.7818609E-02  0.9418192E-01
        2   -1    0    0  501    0  0.00000000000E+00  0.00000000000E+00  0.14266987136E+04  0.14266987136E+04  0.25500000920E-02 0.  1.
       -2   -1    0    0    0  501  0.00000000000E+00  0.00000000000E+00 -0.14381427504E+03  0.14381427506E+03  0.25500000920E-02 0. -1.
    10030    2    1    2    0    0  0.00000000000E+00  0.00000000000E+00  0.12828844385E+04  0.15705129886E+04  0.90593518800E+03 0.  0.
        2    1    3    3  502    0 -0.69600343479E+02  0.12288645344E+03  0.13875561866E+04  0.13947248687E+04  0.25500000920E-02 0.  1.
       -2    1    3    3    0  502  0.69600343479E+02 -0.12288645344E+03 -0.10467174812E+03  0.17578811994E+03  0.25500000920E-02 0. -1.
</event>
<event>
 5   0  0.2414128E-02  0.8903304E+03  0.7818609E-02  0.9437750E-01
       -2   -1    0    0    0  501  0.00000000000E+00  0.00000000000E+00  0.19077441259E+03  0.19077441261E+03  0.25500000920E-02 0.  1.
        2   -1    0    0  501    0  0.00000000000E+00  0.00000000000E+00 -0.10387769364E+04  0.10387769364E+04  0.25500000920E-02 0. -1.
    10030    2    1    2    0    0  0.00000000000E+00  0.00000000000E+00 -0.84800252384E+03  0.12295513490E+04  0.89033041030E+03 0.  0.
        3    1    3    3  502    0 -0.27517877435E+03  0.25728105613E+03 -0.96452013990E+02  0.38887003086E+03  0.10100000352E+00 0.  1.
       -3    1    3    3    0  502  0.27517877435E+03 -0.25728105613E+03 -0.75155050985E+03  0.84068131819E+03  0.10100000352E+00 0. -1.
</event>
<event>
 5   0  0.2628383E-02  0.8350432E+03  0.7818609E-02  0.9510634E-01
       -2   -1    0    0    0  501  0.00000000000E+00  0.00000000000E+00  0.24850261931E+03  0.24850261932E+03  0.25500000920E-02 0.  1.
        2   -1    0    0  501    0  0.00000000000E+00  0.00000000000E+00 -0.70149886765E+03  0.70149886765E+03  0.25500000920E-02 0. -1.
    10030    2    1    2    0    0  0.00000000000E+00  0.00000000000E+00 -0.45299624834E+03  0.95000148698E+03  0.83504324693E+03 0.  0.
        2    1    3    3  502    0  0.30343426214E+03 -0.27510342496E+03 -0.13428345958E+03  0.43102934168E+03  0.25500000920E-02 0. -1.
       -2    1    3    3    0  502 -0.30343426214E+03  0.27510342496E+03 -0.31871278876E+03  0.51897214529E+03  0.25500000920E-02 0.  1.
</event>
<event>
 5   0  0.1497410E-02  0.9105800E+03  0.7818609E-02  0.9412452E-01
        1   -1    0    0  501    0  0.00000000000E+00  0.00000000000E+00  0.46295000110E+03  0.46295000113E+03  0.50400001928E-02 0. -1.
       -1   -1    0    0    0  501  0.00000000000E+00  0.00000000000E+00 -0.44775675204E+03  0.44775675207E+03  0.50400001928E-02 0.  1.
    10030    2    1    2    0    0  0.00000000000E+00  0.00000000000E+00  0.15193249057E+02  0.91070675320E+03  0.91058001049E+03 0.  0.
        3    1    3    3  502    0 -0.13384479407E+03  0.26184162501E+03 -0.34003413842E+03  0.44955387995E+03  0.10100000352E+00 0.  1.
       -3    1    3    3    0  502  0.13384479407E+03 -0.26184162501E+03  0.35522738748E+03  0.46115287325E+03  0.10100000352E+00 0. -1.
</event>
<event>
 5   0  0.1497410E-02  0.8505486E+03  0.7818609E-02  0.9489601E-01
        1   -1    0    0  501    0  0.00000000000E+00  0.00000000000E+00  0.14423209539E+04  0.14423209540E+04  0.50400001928E-02 0.  1.
       -1   -1    0    0    0  501  0.00000000000E+00  0.00000000000E+00 -0.12539389926E+03  0.12539389936E+03  0.50400001928E-02 0. -1.
    10030    2    1    2    0    0  0.00000000000E+00  0.00000000000E+00  0.13169270547E+04  0.15677148533E+04  0.85054864291E+03 0.  0.
        3    1    3    3  502    0  0.40655542210E+03  0.51218289378E+02  0.86819460429E+03  0.96003776255E+03  0.10100000352E+00 0.  1.
       -3    1    3    3    0  502 -0.40655542210E+03 -0.51218289378E+02  0.44873245039E+03  0.60767709076E+03  0.10100000352E+00 0. -1.
</event>
<event>
 5   0  0.2414128E-02  0.7910090E+03  0.7818609E-02  0.9573123E-01
        2   -1    0    0  501    0  0.00000000000E+00  0.00000000000E+00  0.34460990743E+03  0.34460990744E+03  0.25500000920E-02 0. -1.
       -2   -1    0    0    0  501  0.00000000000E+00  0.00000000000E+00 -0.45391564650E+03  0.45391564651E+03  0.25500000920E-02 0.  1.
    10030    2    1    2    0    0  0.00000000000E+00  0.00000000000E+00 -0.10930573907E+03  0.79852555394E+03  0.79100904907E+03 0.  0.
        3    1    3    3  502    0  0.37022455033E+03 -0.23227330421E+02 -0.19313545485E+03  0.41821889085E+03  0.10100000352E+00 0. -1.
       -3    1    3    3    0  502 -0.37022455033E+03  0.23227330421E+02  0.83829715781E+02  0.38030666309E+03  0.10100000352E+00 0.  1.
</event>
<event>
 5   0  0.1497410E-02  0.9994587E+03  0.7818609E-02  0.9309139E-01
       -1   -1    0    0    0  501  0.00000000000E+00  0.00000000000E+00  0.27773545839E+03  0.27773545843E+03  0.50400001928E-02 0.  1.
        1   -1    0    0  501    0  0.00000000000E+00  0.00000000000E+00 -0.89916289443E+03  0.89916289444E+03  0.50400001928E-02 0. -1.
    10030    2    1    2    0    0  0.00000000000E+00  0.00000000000E+00 -0.62142743604E+03  0.11768983529E+04  0.99945869086E+03 0.  0.
        3    1    3    3  502    0  0.13881986141E+03  0.45160933931E+03 -0.11899780723E+03  0.48721908584E+03  0.10100000352E+00 0. -1.
       -3    1    3    3    0  502 -0.13881986141E+03 -0.45160933931E+03 -0.50242962881E+03  0.68967926704E+03  0.10100000352E+00 0.  1.
</event>
<event>
 5   0  0.1459111E-02  0.8866285E+03  0.7818609E-02  0.9442453E-01
        1   -1    0    0  501    0  0.00000000000E+00  0.00000000000E+00  0.27275881263E+03  0.27275881268E+03  0.50400001928E-02 0. -1.
       -1   -1    0    0    0  501  0.00000000000E+00  0.00000000000E+00 -0.72051759840E+03  0.72051759841E+03  0.50400001928E-02 0.  1.
    10030    2    1    2    0    0  0.00000000000E+00  0.00000000000E+00 -0.44775878576E+03  0.99327641109E+03  0.88662850090E+03 0.  0.
        2    1    3    3  502    0  0.32931425759E+03 -0.60817719382E+02 -0.54930399342E+03  0.64333626700E+03  0.25500000920E-02 0.  1.
       -2    1    3    3    0  502 -0.32931425759E+03  0.60817719382E+02  0.10154520765E+03  0.34994014409E+03  0.25500000920E-02 0. -1.
</event>
<event>
 5   0  0.2803717E-02  0.1051426E+04  0.7818609E-02  0.9253873E-01
       -2   -1    0    0    0  501  0.00000000000E+00  0.00000000000E+00  0.67547605924E+03  0.67547605925E+03  0.25500000920E-02 0.  1.
        2   -1    0    0  501    0  0.00000000000E+00  0.00000000000E+00 -0.40915481324E+03  0.40915481325E+03  0.25500000920E-02 0. -1.
    10030    2    1    2    0    0  0.00000000000E+00  0.00000000000E+00  0.26632124600E+03  0.10846308725E+04  0.10514262330E+04 0.  0.
        5    1    3    3  502    0  0.17702416422E+03 -0.47866700244E+03  0.31137936891E+01  0.51038362009E+03  0.46999998093E+01 0.  1.
       -5    1    3    3    0  502 -0.17702416422E+03  0.47866700244E+03  0.26320745231E+03  0.57424725241E+03  0.46999998093E+01 0. -1.
</event>
<event>
 5   0  0.1559275E-02  0.8894503E+03  0.7818609E-02  0.9438866E-01
        1   -1    0    0  501    0  0.00000000000E+00  0.00000000000E+00  0.48199393431E+03  0.48199393434E+03  0.50400001928E-02 0. -1.
       -1   -1    0    0    0  501  0.00000000000E+00  0.00000000000E+00 -0.41033803704E+03  0.41033803707E+03  0.50400001928E-02 0.  1.
    10030    2    1    2    0    0  0.00000000000E+00  0.00000000000E+00  0.71655897270E+02  0.89233197141E+03  0.88945026820E+03 0.  0.
        1    1    3    3  502    0 -0.73123838204E+02  0.12155651207E+03  0.45868773849E+03  0.48012240398E+03  0.50400001928E-02 0. -1.
       -1    1    3    3    0  502  0.73123838204E+02 -0.12155651207E+03 -0.38703184122E+03  0.41220956743E+03  0.50400001928E-02 0.  1.
</event>
<event>
 5   0  0.2414128E-02  0.9094979E+03  0.7818609E-02  0.9413786E-01
       -2   -1    0    0    0  501  0.00000000000E+00  0.00000000000E+00  0.12418453909E+03  0.12418453911E+03  0.25500000920E-02 0. -1.
        2   -1    0    0  501    0  0.00000000000E+00  0.00000000000E+00 -0.16652364842E+04  0.16652364842E+04  0.25500000920E-02 0.  1.
    10030    2    1    2    0    0  0.00000000000E+00  0.00000000000E+00 -0.15410519452E+04  0.17894210234E+04  0.90949793906E+03 0.  0.
        3    1    3    3  502    0 -0.39240252859E+03 -0.21873953536E+03 -0.63182355094E+03  0.77525978774E+03  0.10100000352E+00 0.  1.
       -3    1    3    3    0  502  0.39240252859E+03  0.21873953536E+03 -0.90922839422E+03  0.10141612356E+04  0.10100000352E+00 0. -1.
</event>
<event>
 5   0  0.2679861E-02  0.9073119E+03  0.7818609E-02  0.9416487E-01
        2   -1    0    0  501    0  0.00000000000E+00  0.00000000000E+00  0.92510078198E+03  0.92510078199E+03  0.25500000920E-02 0. -1.
       -2   -1    0    0    0  501  0.00000000000E+00  0.00000000000E+00 -0.22246625626E+03  0.22246625628E+03  0.25500000920E-02 0.  1.
    10030    2    1    2    0    0  0.00000000000E+00  0.00000000000E+00  0.70263452572E+03  0.11475670383E+04  0.90731187062E+03 0.  0.
        1    1    3    3  502    0  0.79221901960E+02  0.11022991371E+03 -0.19617699861E+03  0.23856269288E+03  0.50400001928E-02 0.  1.
       -1    1    3    3    0  502 -0.79221901960E+02 -0.11022991371E+03  0.89881152433E+03  0.90900434538E+03  0.50400001928E-02 0. -1.
</event>
<event>
 5   0  0.2414128E-02  0.9029717E+03  0.7818609E-02  0.9421874E-01
       -2   -1    0    0    0  501  0.00000000000E+00  0.00000000000E+00  0.35819899037E+03  0.35819899037E+03  0.25500000920E-02 0.  1.
        2   -1    0    0  501    0  0.00000000000E+00  0.00000000000E+00 -0.56906773884E+03  0.56906773884E+03  0.25500000920E-02 0. -1.
    10030    2    1    2    0    0  0.00000000000E+00  0.00000000000E+00 -0.21086874847E+03  0.92726672922E+03  0.90297173712E+03 0.  0.
        3    1    3    3  502    0 -0.42806082952E+03 -0.12637829171E+03 -0.17532382873E+03  0.47952685171E+03  0.10100000352E+00 0.  1.
       -3    1    3    3    0  502  0.42806082952E+03  0.12637829171E+03 -0.35544919743E+02  0.44773987751E+03  0.10100000352E+00 0. -1.
</event>
<event>
 5   0  0.1040163E-02  0.8828599E+03  0.7818609E-02  0.9447265E-01
       -4   -1    0    0    0  501  0.00000000000E+00  0.00000000000E+00  0.16352643496E+03  0.16353136650E+03  0.12699999809E+01 0. -1.
        4   -1    0    0  501    0  0.00000000000E+00  0.00000000000E+00 -0.11915908937E+04  0.11915915705E+04  0.12699999809E+01 0.  1.
    10030    2    1    2    0    0  0.00000000000E+00  0.00000000000E+00 -0.10280644588E+04  0.13551229370E+04  0.88285992267E+03 0.  0.
        1    1    3    3  502    0  0.36863374359E+03 -0.24184581731E+03 -0.54766684176E+03  0.70307837818E+03  0.50400001928E-02 0. -1.
       -1    1    3    3    0  502 -0.36863374359E+03  0.24184581731E+03 -0.48039761703E+03  0.65204455886E+03  0.50400001928E-02 0.  1.
</event>
<event>
 5   0  0.2705111E-02  0.9470321E+03  0.7818609E-02  0.9368626E-01
        2   -1    0    0  501    0  0.00000000000E+00  0.00000000000E+00  0.71812673116E+03  0.71812673117E+03  0.25500000920E-02 0. -1.
       -2   -1    0    0    0  501  0.00000000000E+00  0.00000000000E+00 -0.31222544449E+03  0.31222544450E+03  0.25500000920E-02 0.  1.
    10030    2    1    2    0    0  0.00000000000E+00  0.00000000000E+00  0.40590128667E+03  0.10303521757E+04  0.94703207516E+03 0.  0.
        4    1    3    3  502    0 -0.22434968907E+02  0.14726862313E+03 -0.28606524564E+03  0.32253110370E+03  0.12699999809E+01 0.  1.
       -4    1    3    3    0  502  0.22434968907E+02 -0.14726862313E+03  0.69196653231E+03  0.70782107197E+03  0.12699999809E+01 0. -1.
</event>
<event>
 5   0  0.1497410E-02  0.9022720E+03  0.7818609E-02  0.9422746E-01
       -1   -1    0    0    0  501  0.00000000000E+00  0.00000000000E+00  0.10957237965E+03  0.10957237976E+03  0.50400001928E-02 0.  1.
        1   -1    0    0  501    0  0.00000000000E+00  0.00000000000E+00 -0.18574361059E+04  0.18574361059E+04  0.50400001928E-02 0. -1.
    10030    2    1    2    0    0  0.00000000000E+00  0.00000000000E+00 -0.17478637262E+04  0.19670084856E+04  0.90227200839E+03 0.  0.
        3    1    3    3  502    0  0.84856209952E+02  0.20674146256E+03 -0.19578366315E+02  0.22433441853E+03  0.10100000352E+00 0.  1.
       -3    1    3    3    0  502 -0.84856209952E+02 -0.20674146256E+03 -0.17282853599E+04  0.17426740671E+04  0.10100000352E+00 0. -1.
</event>
<event>
 5   0  0.1040163E-02  0.9162054E+03  0.7818609E-02  0.9405548E-01
       -4   -1    0    0    0  501  0.00000000000E+00  0.00000000000E+00  0.12293277000E+04  0.12293283561E+04  0.12699999809E+01 0.  1.
        4   -1    0    0  501    0  0.00000000000E+00  0.00000000000E+00 -0.17070657391E+03  0.17071129803E+03  0.12699999809E+01 0. -1.
    10030    2    1    2    0    0  0.00000000000E+00  0.00000000000E+00  0.10586211261E+04  0.14000396541E+04  0.91620540509E+03 0.  0.
        4    1    3    3  502    0  0.25175665889E+03  0.27165779193E+03  0.11735887414E+03  0.38852810638E+03  0.12699999809E+01 0. -1.
       -4    1    3    3    0  502 -0.25175665889E+03 -0.27165779193E+03  0.94126225199E+03  0.10115115477E+04  0.12699999809E+01 0.  1.
</event>
<event>
 5   0  0.1040163E-02  0.8926725E+03  0.7818609E-02  0.9434788E-01
        3   -1    0    0  501    0  0.00000000000E+00  0.00000000000E+00  0.33194949025E+03  0.33194950562E+03  0.10100000352E+00 0.  1.
       -3   -1    0    0    0  501  0.00000000000E+00  0.00000000000E+00 -0.60013966660E+03  0.60013967510E+03  0.10100000352E+00 0. -1.
    10030    2    1    2    0    0  0.00000000000E+00  0.00000000000E+00 -0.26819017635E+03  0.93208918072E+03  0.89267254362E+03 0.  0.
        4    1    3    3  502    0  0.32171640735E+03  0.16532742396E+03  0.13894685374E+03  0.38748218660E+03  0.12699999809E+01 0.  1.
       -4    1    3    3    0  502 -0.32171640735E+03 -0.16532742396E+03 -0.40713703009E+03  0.54460699412E+03  0.12699999809E+01 0. -1.
</event>
<event>
 5   0  0.1040163E-02  0.8989864E+03  0.7818609E-02  0.9426849E-01
        3   -1    0    0  501    0  0.00000000000E+00  0.00000000000E+00  0.88949211796E+03  0.88949212370E+03  0.10100000352E+00 0.  1.
       -3   -1    0    0    0  501  0.00000000000E+00  0.00000000000E+00 -0.22714549999E+03  0.22714552245E+03  0.10100000352E+00 0. -1.
    10030    2    1    2    0    0  0.00000000000E+00  0.00000000000E+00  0.66234661797E+03  0.11166376461E+04  0.89898642396E+03 0.  0.
        4    1    3    3  502    0 -0.19040551348E+03  0.40399872677E+03  0.26816400636E+03  0.52094412176E+03  0.12699999809E+01 0. -1.
       -4    1    3    3    0  502  0.19040551348E+03 -0.40399872677E+03  0.39418261161E+03  0.59569352438E+03  0.12699999809E+01 0.  1.
</event>
<event>
 5   0  0.1537870E-02  0.9113234E+03  0.7818609E-02  0.9411536E-01
        1   -1    0    0  501    0  0.00000000000E+00  0.00000000000E+00  0.22623100868E+04  0.22623100868E+04  0.50400001928E-02 0.  1.
       -1   -1    0    0    0  501  0.00000000000E+00  0.00000000000E+00 -0.91776803156E+02  0.91776803294E+02  0.50400001928E-02 0. -1.
    10030    2    1    2    0    0  0.00000000000E+00  0.00000000000E+00  0.21705332836E+04  0.23540868901E+04  0.91132340622E+03 0.  0.
        5    1    3    3  502    0 -0.49558530629E+02  0.45269290223E+03  0.11234576511E+04  0.12122566129E+04  0.46999998093E+01 0.  1.
       -5    1    3    3    0  502  0.49558530629E+02 -0.45269290223E+03  0.10470756326E+04  0.11418302772E+04  0.46999998093E+01 0. -1.
</event>
<event>
 5   0  0.1040163E-02  0.8706243E+03  0.7818609E-02  0.9463066E-01
       -4   -1    0    0    0  501  0.00000000000E+00  0.00000000000E+00  0.20481778061E+03  0.20482171798E+03  0.12699999809E+01 0.  1.
        4   -1    0    0  501    0  0.00000000000E+00  0.00000000000E+00 -0.92518315724E+03  0.92518402890E+03  0.12699999809E+01 0. -1.
    10030    2    1    2    0    0  0.00000000000E+00  0.00000000000E+00 -0.72036537663E+03  0.11300057469E+04  0.87062432320E+03 0.  0.
        5    1    3    3  502    0  0.32578651364E+03  0.11959052192E+03 -0.19156939597E+02  0.34760296854E+03  0.46999998093E+01 0.  1.
       -5    1    3    3    0  502 -0.32578651364E+03 -0.11959052192E+03 -0.70120843703E+03  0.78240277834E+03  0.46999998093E+01 0. -1.
</event>
<event>
 5   0  0.1497410E-02  0.9097684E+03  0.7818609E-02  0.9413452E-01
        1   -1    0    0  501    0  0.00000000000E+00  0.00000000000E+00  0.59921391303E+03  0.59921391306E+03  0.50400001928E-02 0. -1.
       -1   -1    0    0    0  501  0.00000000000E+00  0.00000000000E+00 -0.34531845420E+03  0.34531845423E+03  0.50400001928E-02 0.  1.
    10030    2    1    2    0    0  0.00000000000E+00  0.00000000000E+00  0.25389545884E+03  0.94453236729E+03  0.90976837098E+03 0.  0.
        3    1    3    3  502    0 -0.19893906386E+03  0.25322602896E+03 -0.20660673542E+03  0.38260492181E+03  0.10100000352E+00 0.  1.
       -3    1    3    3    0  502  0.19893906386E+03 -0.25322602896E+03  0.46050219425E+03  0.56192744548E+03  0.10100000352E+00 0. -1.
</event>
<event>
 5   0  0.1497410E-02  0.9168966E+03  0.7818609E-02  0.9404703E-01
        1   -1    0    0  501    0  0.00000000000E+00  0.00000000000E+00  0.93843844483E+03  0.93843844484E+03  0.50400001928E-02 0.  1.
       -1   -1    0    0    0  501  0.00000000000E+00  0.00000000000E+00 -0.22396228928E+03  0.22396228934E+03  0.50400001928E-02 0. -1.
    10030    2    1    2    0    0  0.00000000000E+00  0.00000000000E+00  0.71447615555E+03  0.11624007342E+04  0.91689655358E+03 0.  0.
        3    1    3    3  502    0 -0.24386407000E+02  0.56114445245E+02  0.93323915115E+03  0.93524266971E+03  0.10100000352E+00 0.  1.
       -3    1    3    3    0  502  0.24386407000E+02 -0.56114445245E+02 -0.21876299559E+03  0.22715806447E+03  0.10100000352E+00 0. -1.
</event>
<event>
 5   0  0.2803717E-02  0.9060836E+03  0.7818609E-02  0.9418008E-01
        2   -1    0    0  501    0  0.00000000000E+00  0.00000000000E+00  0.86008230948E+03  0.86008230949E+03  0.25500000920E-02 0. -1.
       -2   -1    0    0    0  501  0.00000000000E+00  0.00000000000E+00 -0.23863630891E+03  0.23863630892E+03  0.25500000920E-02 0.  1.
    10030    2    1    2    0    0  0.00000000000E+00  0.00000000000E+00  0.62144600057E+03  0.10987186184E+04  0.90608358930E+03 0.  0.
        5    1    3    3  502    0 -0.26675343013E+03 -0.10227626910E+03 -0.11560088427E+03  0.30822634889E+03  0.46999998093E+01 0.  1.
       -5    1    3    3    0  502  0.26675343013E+03  0.10227626910E+03  0.73704688485E+03  0.79049226952E+03  0.46999998093E+01 0. -1.
</event>
<event>
 5   0  0.1559275E-02  0.9383675E+03  0.7818609E-02  0.9378851E-01
        1   -1    0    0  501    0  0.00000000000E+00  0.00000000000E+00  0.78421025478E+03  0.78421025479E+03  0.50400001928E-02 0. -1.
       -1   -1    0    0    0  501  0.00000000000E+00  0.00000000000E+00 -0.28070712691E+03  0.28070712696E+03  0.50400001928E-02 0.  1.
    10030    2    1    2    0    0  0.00000000000E+00  0.00000000000E+00  0.50350312787E+03  0.10649173817E+04  0.93836753470E+03 0.  0.
        1    1    3    3  502    0  0.11470940804E+03 -0.10575400239E+03 -0.25040550614E+03  0.29503402320E+03  0.50400001928E-02 0.  1.
       -1    1    3    3    0  502 -0.11470940804E+03  0.10575400239E+03  0.75390863401E+03  0.76988335855E+03  0.50400001928E-02 0. -1.
</event>
<event>
 5   0  0.1537870E-02  0.8931445E+03  0.7818609E-02  0.9434192E-01
       -1   -1    0    0    0  501  0.00000000000E+00  0.00000000000E+00  0.22938922999E+03  0.22938923004E+03  0.50400001928E-02 0. -1.
        1   -1    0    0  501    0  0.00000000000E+00  0.00000000000E+00 -0.86938154926E+03  0.86938154927E+03  0.50400001928E-02 0.  1.
    10030    2    1    2    0    0  0.00000000000E+00  0.00000000000E+00 -0.63999231927E+03  0.10987707793E+04  0.89314447698E+03 0.  0.
        5    1    3    3  502    0  0.33216051368E+02 -0.27100329758E+03  0.11470878627E+03  0.29618624042E+03  0.46999998093E+01 0. -1.
       -5    1    3    3    0  502 -0.33216051368E+02  0.27100329758E+03 -0.75470110554E+03  0.80258453889E+03  0.46999998093E+01 0.  1.
</event>
<event>
 5   0  0.1560728E-02  0.1005710E+04  0.7818609E-02  0.9302304E-01
       -1   -1    0    0    0  501  0.00000000000E+00  0.00000000000E+00  0.23486688918E+03  0.23486688923E+03  0.50400001928E-02 0. -1.
        1   -1    0    0  501    0  0.00000000000E+00  0.00000000000E+00 -0.10766237943E+04  0.10766237943E+04  0.50400001928E-02 0.  1.
    10030    2    1    2    0    0  0.00000000000E+00  0.00000000000E+00 -0.84175690511E+03  0.13114906835E+04  0.10057102593E+04 0.  0.
        4    1    3    3  502    0 -0.24894645716E+02 -0.44223065621E+03 -0.73132308438E+03  0.85499869200E+03  0.12699999809E+01 0.  1.
       -4    1    3    3    0  502  0.24894645716E+02  0.44223065621E+03 -0.11043382073E+03  0.45649199153E+03  0.12699999809E+01 0. -1.
</event>
<event>
 5   0  0.1459111E-02  0.8628034E+03  0.7818609E-02  0.9473312E-01
        1   -1    0    0  501    0  0.00000000000E+00  0.00000000000E+00  0.71460956278E+03  0.71460956279E+03  0.50400001928E-02 0. -1.
       -1   -1    0    0    0  501  0.00000000000E+00  0.00000000000E+00 -0.26043230250E+03  0.26043230254E+03  0.50400001928E-02 0.  1.
    10030    2    1    2    0    0  0.00000000000E+00  0.00000000000E+00  0.45417726028E+03  0.97504186534E+03  0.86280337007E+03 0.  0.
        2    1    3    3  502    0 -0.37359899866E+03  0.42294594322E+02 -0.11951556838E+02  0.37617533708E+03  0.25500000920E-02 0.  1.
       -2    1    3    3    0  502  0.37359899866E+03 -0.42294594322E+02  0.46612881712E+03  0.59886652826E+03  0.25500000920E-02 0. -1.
</event>
<event>
 5   0  0.2628383E-02  0.8425745E+03  0.7818609E-02  0.9500358E-01
       -2   -1    0    0    0  501  0.00000000000E+00  0.00000000000E+00  0.11470489477E+03  0.11470489480E+03  0.25500000920E-02 0. -1.
        2   -1    0    0  501    0  0.00000000000E+00  0.00000000000E+00 -0.15473004779E+04  0.15473004779E+04  0.25500000920E-02 0.  1.
    10030    2    1    2    0    0  0.00000000000E+00  0.00000000000E+00 -0.14325955832E+04  0.16620053728E+04  0.84257447987E+03 0.  0.
        2    1    3    3  502    0  0.34873834896E+03 -0.22239010332E+03 -0.87418842956E+03  0.96709937674E+03  0.25500000920E-02 0.  1.
       -2    1    3    3    0  502 -0.34873834896E+03  0.22239010332E+03 -0.55840715361E+03  0.69490599602E+03  0.25500000920E-02 0. -1.
</event>
<event>
 5   0  0.2414128E-02  0.8873679E+03  0.7818609E-02  0.9441511E-01
       -2   -1    0    0    0  501  0.00000000000E+00  0.00000000000E+00  0.25536630976E+03  0.25536630977E+03  0.25500000920E-02 0. -1.
        2   -1    0    0  501    0  0.00000000000E+00  0.00000000000E+00 -0.77087472808E+03  0.77087472808E+03  0.25500000920E-02 0.  1.
    10030    2    1    2    0    0  0.00000000000E+00  0.00000000000E+00 -0.51550841832E+03  0.10262410379E+04  0.88736787096E+03 0.  0.
        3    1    3    3  502    0  0.35023265967E+03 -0.26327345347E+03 -0.17696791919E+03  0.47253939712E+03  0.10100000352E+00 0.  1.
       -3    1    3    3    0  502 -0.35023265967E+03  0.26327345347E+03 -0.33854049913E+03  0.55370164074E+03  0.10100000352E+00 0. -1.
</event>
<event>
 5   0  0.2705111E-02  0.9002484E+03  0.7818609E-02  0.9425271E-01
       -2   -1    0    0    0  501  0.00000000000E+00  0.00000000000E+00  0.40913133862E+03  0.40913133863E+03  0.25500000920E-02 0.  1.
        2   -1    0    0  501    0  0.00000000000E+00  0.00000000000E+00 -0.49522435869E+03  0.49522435869E+03  0.25500000920E-02 0. -1.
    10030    2    1    2    0    0  0.00000000000E+00  0.00000000000E+00 -0.86093020069E+02  0.90435569732E+03  0.90024842081E+03 0.  0.
        4    1    3    3  502    0  0.14670337555E+02  0.26161835840E+03 -0.41070921575E+03  0.48717867057E+03  0.12699999809E+01 0. -1.
       -4    1    3    3    0  502 -0.14670337555E+02 -0.26161835840E+03  0.32461619568E+03  0.41717702675E+03  0.12699999809E+01 0.  1.
</event>
<event>
 5   0  0.1497410E-02  0.9153423E+03  0.7818609E-02  0.9406603E-01
       -1   -1    0    0    0  501  0.00000000000E+00  0.00000000000E+00  0.25773245555E+03  0.25773245560E+03  0.50400001928E-02 0. -1.
        1   -1    0    0  501    0  0.00000000000E+00  0.00000000000E+00 -0.81271447108E+03  0.81271447110E+03  0.50400001928E-02 0.  1.
    10030    2    1    2    0    0  0.00000000000E+00  0.00000000000E+00 -0.55498201553E+03  0.10704469267E+04  0.91534233231E+03 0.  0.
        3    1    3    3  502    0  0.16216442512E+03 -0.29982863360E+03  0.79657466182E+02  0.35005689884E+03  0.10100000352E+00 0. -1.
       -3    1    3    3    0  502 -0.16216442512E+03  0.29982863360E+03 -0.63463948171E+03  0.72039002787E+03  0.10100000352E+00 0.  1.
</event>
<event>
 5   0  0.2679861E-02  0.9034893E+03  0.7818609E-02  0.9421230E-01
        2   -1    0    0  501    0  0.00000000000E+00  0.00000000000E+00  0.61301027602E+03  0.61301027603E+03  0.25500000920E-02 0.  1.
       -2   -1    0    0    0  501  0.00000000000E+00  0.00000000000E+00 -0.33290345487E+03  0.33290345488E+03  0.25500000920E-02 0. -1.
    10030    2    1    2    0    0  0.00000000000E+00  0.00000000000E+00  0.28010682115E+03  0.94591373091E+03  0.90348932205E+03 0.  0.
        1    1    3    3  502    0 -0.77238411854E+02 -0.32378574607E+03 -0.17968888787E+03  0.37827381363E+03  0.50400001928E-02 0. -1.
       -1    1    3    3    0  502  0.77238411854E+02  0.32378574607E+03  0.45979570902E+03  0.56763991728E+03  0.50400001928E-02 0.  1.
</event>
<event>
 5   0  0.2803717E-02  0.8872756E+03  0.7818609E-02  0.9441629E-01
       -2   -1    0    0    0  501  0.00000000000E+00  0.00000000000E+00  0.14738161210E+03  0.14738161212E+03  0.25500000920E-02 0. -1.
        2   -1    0    0  501    0  0.00000000000E+00  0.00000000000E+00 -0.13354073506E+04  0.13354073506E+04  0.25500000920E-02 0.  1.
    10030    2    1    2    0    0  0.00000000000E+00  0.00000000000E+00 -0.11880257385E+04  0.14827889628E+04  0.88727557875E+03 0.  0.
        5    1    3    3  502    0  0.70836061125E+02  0.43473800608E+03 -0.68208715991E+03  0.81196050716E+03  0.46999998093E+01 0. -1.
       -5    1    3    3    0  502 -0.70836061125E+02 -0.43473800608E+03 -0.50593857864E+03  0.67082845560E+03  0.46999998093E+01 0.  1.
</event>
<event>
 5   0  0.1560728E-02  0.8997429E+03  0.7818609E-02  0.9425903E-01
        1   -1    0    0  501    0  0.00000000000E+00  0.00000000000E+00  0.12296111325E+04  0.12296111326E+04  0.50400001928E-02 0.  1.
       -1   -1    0    0    0  501  0.00000000000E+00  0.00000000000E+00 -0.16459212920E+03  0.16459212927E+03  0.50400001928E-02 0. -1.
    10030    2    1    2    0    0  0.00000000000E+00  0.00000000000E+00  0.10650190034E+04  0.13942032618E+04  0.89974288427E+03 0.  0.
        4    1    3    3  502    0  0.10617996089E+03  0.41016088195E+03  0.29813891192E+03  0.51806810062E+03  0.12699999809E+01 0. -1.
       -4    1    3    3    0  502 -0.10617996089E+03 -0.41016088195E+03  0.76688009143E+03  0.87613516121E+03  0.12699999809E+01 0.  1.
</event>
<event>
 5   0  0.1459111E-02  0.8959042E+03  0.7818609E-02  0.9430716E-01
        1   -1    0    0  501    0  0.00000000000E+00  0.00000000000E+00  0.16253786204E+04  0.16253786204E+04  0.50400001928E-02 0.  1.
       -1   -1    0    0    0  501  0.00000000000E+00  0.00000000000E+00 -0.12345498142E+03  0.12345498153E+03  0.50400001928E-02 0. -1.
    10030    2    1    2    0    0  0.00000000000E+00  0.00000000000E+00  0.15019236390E+04  0.17488336020E+04  0.89590420802E+03 0.  0.
        2    1    3    3  502    0 -0.23339008025E+03  0.63461769656E+02  0.14958389032E+02  0.24232638977E+03  0.25500000920E-02 0. -1.
       -2    1    3    3    0  502  0.23339008025E+03 -0.63461769656E+02  0.14869652500E+04  0.15065072122E+04  0.25500000920E-02 0.  1.
</event>
<event>
 5   0  0.1459111E-02  0.9011217E+03  0.7818609E-02  0.9424180E-01
        1   -1    0    0  501    0  0.00000000000E+00  0.00000000000E+00  0.13219259447E+04  0.13219259447E+04  0.50400001928E-02 0. -1.
       -1   -1    0    0    0  501  0.00000000000E+00  0.00000000000E+00 -0.15356766410E+03  0.15356766418E+03  0.50400001928E-02 0.  1.
    10030    2    1    2    0    0  0.00000000000E+00  0.00000000000E+00  0.11683582806E+04  0.14754936089E+04  0.90112169989E+03 0.  0.
        2    1    3    3  502    0  0.79042770687E+02  0.44348653754E+03  0.56981002492E+03  0.72636873080E+03  0.25500000920E-02 0.  1.
       -2    1    3    3    0  502 -0.79042770687E+02 -0.44348653754E+03  0.59854825567E+03  0.74912487807E+03  0.25500000920E-02 0. -1.
</event>
<event>
 5   0  0.1497410E-02  0.8794543E+03  0.7818609E-02  0.9451635E-01
        1   -1    0    0  501    0  0.00000000000E+00  0.00000000000E+00  0.25002642280E+03  0.25002642285E+03  0.50400001928E-02 0.  1.
       -1   -1    0    0    0  501  0.00000000000E+00  0.00000000000E+00 -0.77335820797E+03  0.77335820798E+03  0.50400001928E-02 0. -1.
    10030    2    1    2    0    0  0.00000000000E+00  0.00000000000E+00 -0.52333178517E+03  0.10233846308E+04  0.87945434518E+03 0.  0.
        3    1    3    3  502    0  0.19347924982E+03  0.38286217019E+03 -0.14919171238E+03  0.45417599971E+03  0.10100000352E+00 0.  1.
       -3    1    3    3    0  502 -0.19347924982E+03 -0.38286217019E+03 -0.37414007279E+03  0.56920863112E+03  0.10100000352E+00 0. -1.
</event>
<event>
 5   0  0.1459111E-02  0.8542655E+03  0.7818609E-02  0.9484630E-01
       -1   -1    0    0    0  501  0.00000000000E+00  0.00000000000E+00  0.27947635585E+03  0.27947635590E+03  0.50400001928E-02 0.  1.
        1   -1    0    0  501    0  0.00000000000E+00  0.00000000000E+00 -0.65280085494E+03  0.65280085496E+03  0.50400001928E-02 0. -1.
    10030    2    1    2    0    0  0.00000000000E+00  0.00000000000E+00 -0.37332449909E+03  0.93227721086E+03  0.85426554201E+03 0.  0.
        2    1    3    3  502    0 -0.39928677797E+03  0.13252746798E+03 -0.26722018375E+03  0.49839751950E+03  0.25500000920E-02 0. -1.
       -2    1    3    3    0  502  0.39928677797E+03 -0.13252746798E+03 -0.10610431534E+03  0.43387969136E+03  0.25500000920E-02 0.  1.
</event>
<event>
 5   0  0.2628383E-02  0.8948084E+03  0.7818609E-02  0.9432095E-01
        2   -1    0    0  501    0  0.00000000000E+00  0.00000000000E+00  0.51416482430E+03  0.51416482431E+03  0.25500000920E-02 0.  1.
       -2   -1    0    0    0  501  0.00000000000E+00  0.00000000000E+00 -0.38931198204E+03  0.38931198205E+03  0.25500000920E-02 0. -1.
    10030    2    1    2    0    0  0.00000000000E+00  0.00000000000E+00  0.12485284227E+03  0.90347680636E+03  0.89480841939E+03 0.  0.
        2    1    3    3  502    0 -0.44212536877E+03 -0.28623801626E+02  0.12529001022E+03  0.46042561874E+03  0.25500000920E-02 0. -1.
       -2    1    3    3    0  502  0.44212536877E+03  0.28623801626E+02 -0.43716795485E+00  0.44305118762E+03  0.25500000920E-02 0.  1.
</event>
<event>
 5   0  0.2628383E-02  0.9105382E+03  0.7818609E-02  0.9412503E-01
        2   -1    0    0  501    0  0.00000000000E+00  0.00000000000E+00  0.55396757985E+03  0.55396757986E+03  0.25500000920E-02 0.  1.
       -2   -1    0    0    0  501  0.00000000000E+00  0.00000000000E+00 -0.37415539938E+03  0.37415539939E+03  0.25500000920E-02 0. -1.
    10030    2    1    2    0    0  0.00000000000E+00  0.00000000000E+00  0.17981218047E+03  0.92812297925E+03  0.91053821686E+03 0.  0.
        2    1    3    3  502    0 -0.32832184863E+02  0.65271625090E+02 -0.36814035336E+03  0.37532073908E+03  0.25500000920E-02 0. -1.
       -2    1    3    3    0  502  0.32832184863E+02 -0.65271625090E+02  0.54795253383E+03  0.55280224017E+03  0.25500000920E-02 0.  1.
</event>
<event>
 5   0  0.2414128E-02  0.5555948E+03  0.7818609E-02  0.1000207E+00
        2   -1    0    0  501    0  0.00000000000E+00  0.00000000000E+00  0.10566498974E+04  0.10566498974E+04  0.25500000920E-02 0. -1.
       -2   -1    0    0    0  501  0.00000000000E+00  0.00000000000E+00 -0.73034038353E+02  0.73034038397E+02  0.25500000920E-02 0.  1.
    10030    2    1    2    0    0  0.00000000000E+00  0.00000000000E+00  0.98361585900E+03  0.11296839358E+04  0.55559484935E+03 0.  0.
        3    1    3    3  502    0  0.26531052767E+03 -0.39059356888E+01  0.65906316113E+03  0.71047110637E+03  0.10100000352E+00 0. -1.
       -3    1    3    3    0  502 -0.26531052767E+03  0.39059356888E+01  0.32455269788E+03  0.41921282939E+03  0.10100000352E+00 0.  1.
</event>
<event>
 5   0  0.1040163E-02  0.6817472E+03  0.7818609E-02  0.9748966E-01
       -3   -1    0    0    0  501  0.00000000000E+00  0.00000000000E+00  0.90478684880E+02  0.90478741253E+02  0.10100000352E+00 0.  1.
        3   -1    0    0  501    0  0.00000000000E+00  0.00000000000E+00 -0.12842225143E+04  0.12842225183E+04  0.10100000352E+00 0. -1.
    10030    2    1    2    0    0  0.00000000000E+00  0.00000000000E+00 -0.11937438294E+04  0.13747012595E+04  0.68174718383E+03 0.  0.
        4    1    3    3  502    0 -0.23881976023E+03 -0.59901286615E+02 -0.10722134510E+04  0.11001210567E+04  0.12699999809E+01 0. -1.
       -4    1    3    3    0  502  0.23881976023E+03  0.59901286615E+02 -0.12153037847E+03  0.27458020286E+03  0.12699999809E+01 0.  1.
</event>
<event>
 5   0  0.1560728E-02  0.8736072E+03  0.7818609E-02  0.9459189E-01
        1   -1    0    0  501    0  0.00000000000E+00  0.00000000000E+00  0.37944230124E+03  0.37944230127E+03  0.50400001928E-02 0. -1.
       -1   -1    0    0    0  501  0.00000000000E+00  0.00000000000E+00 -0.50283630566E+03  0.50283630569E+03  0.50400001928E-02 0.  1.
    10030    2    1    2    0    0  0.00000000000E+00  0.00000000000E+00 -0.12339400443E+03  0.88227860696E+03  0.87360715426E+03 0.  0.
        4    1    3    3  502    0 -0.95568794293E+02 -0.42618156495E+03 -0.56017001407E+02  0.44034490810E+03  0.12699999809E+01 0.  1.
       -4    1    3    3    0  502  0.95568794293E+02  0.42618156495E+03 -0.67377003020E+02  0.44193369885E+03  0.12699999809E+01 0. -1.
</event>
<event>
 5   0  0.1459111E-02  0.8799474E+03  0.7818609E-02  0.9451001E-01
       -1   -1    0    0    0  501  0.00000000000E+00  0.00000000000E+00  0.44941968214E+03  0.44941968217E+03  0.50400001928E-02 0.  1.
        1   -1    0    0  501    0  0.00000000000E+00  0.00000000000E+00 -0.43072629283E+03  0.43072629286E+03  0.50400001928E-02 0. -1.
    10030    2    1    2    0    0  0.00000000000E+00  0.00000000000E+00  0.18693389312E+02  0.88014597503E+03  0.87994743852E+03 0.  0.
        2    1    3    3  502    0  0.29670021920E+03 -0.69700013419E+02 -0.30803824795E+03  0.43333205991E+03  0.25500000920E-02 0. -1.
       -2    1    3    3    0  502 -0.29670021920E+03  0.69700013419E+02  0.32673163726E+03  0.44681391511E+03  0.25500000920E-02 0.  1.
</event>
<event>
 5   0  0.1040163E-02  0.8988424E+03  0.7818609E-02  0.9427030E-01
       -3   -1    0    0    0  501  0.00000000000E+00  0.00000000000E+00  0.33007012023E+03  0.33007013568E+03  0.10100000352E+00 0.  1.
        3   -1    0    0  501    0  0.00000000000E+00  0.00000000000E+00 -0.61192875841E+03  0.61192876674E+03  0.10100000352E+00 0. -1.
    10030    2    1    2    0    0  0.00000000000E+00  0.00000000000E+00 -0.28185863818E+03  0.94199890242E+03  0.89884238899E+03 0.  0.
        3    1    3    3  502    0 -0.33610683529E+03  0.74160234953E+02 -0.44378862022E+03  0.56161899435E+03  0.10100000352E+00 0. -1.
       -3    1    3    3    0  502  0.33610683529E+03 -0.74160234953E+02  0.16192998204E+03  0.38037990807E+03  0.10100000352E+00 0.  1.
</event>
<event>
 5   0  0.1459111E-02  0.9319056E+03  0.7818609E-02  0.9386554E-01
        1   -1    0    0  501    0  0.00000000000E+00  0.00000000000E+00  0.12345579036E+03  0.12345579046E+03  0.50400001928E-02 0. -1.
       -1   -1    0    0    0  501  0.00000000000E+00  0.00000000000E+00 -0.17586215056E+04  0.17586215056E+04  0.50400001928E-02 0.  1.
    10030    2    1    2    0    0  0.00000000000E+00  0.00000000000E+00 -0.16351657153E+04  0.18820772961E+04  0.93190559182E+03 0.  0.
        2    1    3    3  502    0 -0.25985706396E+03 -0.10129349145E+03 -0.63738769182E+02  0.28609211070E+03  0.25500000920E-02 0. -1.
       -2    1    3    3    0  502  0.25985706396E+03  0.10129349145E+03 -0.15714269461E+04  0.15959851854E+04  0.25500000920E-02 0.  1.
</event>
<event>
 5   0  0.2414128E-02  0.9870302E+03  0.7818609E-02  0.9322885E-01
       -2   -1    0    0    0  501  0.00000000000E+00  0.00000000000E+00  0.23630668286E+03  0.23630668288E+03  0.25500000920E-02 0. -1.
        2   -1    0    0  501    0  0.00000000000E+00  0.00000000000E+00 -0.10306824242E+04  0.10306824243E+04  0.25500000920E-02 0.  1.
    10030    2    1    2    0    0  0.00000000000E+00  0.00000000000E+00 -0.79437574139E+03  0.12669891071E+04  0.98703018144E+03 0.  0.
        3    1    3    3  502    0 -0.72580368555E+02 -0.15061424817E+03  0.19884667560E+03  0.25979332603E+03  0.10100000352E+00 0. -1.
       -3    1    3    3    0  502  0.72580368555E+02  0.15061424817E+03 -0.99322241699E+03  0.10071957811E+04  0.10100000352E+00 0.  1.
</event>
<event>
 5   0  0.2628383E-02  0.8536768E+03  0.7818609E-02  0.9485415E-01
       -2   -1    0    0    0  501  0.00000000000E+00  0.00000000000E+00  0.11479236815E+03  0.11479236818E+03  0.25500000920E-02 0. -1.
        2   -1    0    0  501    0  0.00000000000E+00  0.00000000000E+00 -0.15871354529E+04  0.15871354529E+04  0.25500000920E-02 0.  1.
    10030    2    1    2    0    0  0.00000000000E+00  0.00000000000E+00 -0.14723430847E+04  0.17019278211E+04  0.85367684106E+03 0.  0.
        2    1    3    3  502    0 -0.25667911281E+03  0.87392611371E+02 -0.78965911247E+02  0.28241326212E+03  0.25500000920E-02 0. -1.
       -2    1    3    3    0  502  0.25667911281E+03 -0.87392611371E+02 -0.13933771735E+04  0.14195145589E+04  0.25500000920E-02 0.  1.
</event>
<event>
 5   0  0.2628383E-02  0.9019329E+03  0.7818609E-02  0.9423168E-01
       -2   -1    0    0    0  501  0.00000000000E+00  0.00000000000E+00  0.17916570757E+03  0.17916570759E+03  0.25500000920E-02 0. -1.
        2   -1    0    0  501    0  0.00000000000E+00  0.00000000000E+00 -0.11350985846E+04  0.11350985846E+04  0.25500000920E-02 0.  1.
    10030    2    1    2    0    0  0.00000000000E+00  0.00000000000E+00 -0.95593287701E+03  0.13142642922E+04  0.90193290456E+03 0.  0.
        2    1    3    3  502    0 -0.85490750758E+01 -0.33958541562E+03 -0.91018058255E+03  0.97150400619E+03  0.25500000920E-02 0.  1.
       -2    1    3    3    0  502  0.85490750758E+01  0.33958541562E+03 -0.45752294457E+02  0.34276028598E+03  0.25500000920E-02 0. -1.
</event>
<event>
 5   0  0.1459111E-02  0.9123320E+03  0.7818609E-02  0.9410296E-01
       -1   -1    0    0    0  501  0.00000000000E+00  0.00000000000E+00  0.84147530072E+03  0.84147530073E+03  0.50400001928E-02 0.  1.
        1   -1    0    0  501    0  0.00000000000E+00  0.00000000000E+00 -0.24728880689E+03  0.24728880694E+03  0.50400001928E-02 0. -1.
    10030    2    1    2    0    0  0.00000000000E+00  0.00000000000E+00  0.59418649383E+03  0.10887641077E+04  0.91233200794E+03 0.  0.
        2    1    3    3  502    0  0.33173208756E+03 -0.31296841769E+03  0.28564577214E+03  0.53813466301E+03  0.25500000920E-02 0.  1.
       -2    1    3    3    0  502 -0.33173208756E+03  0.31296841769E+03  0.30854072169E+03  0.55062944467E+03  0.25500000920E-02 0. -1.
</event>
<event>
 5   0  0.1537870E-02  0.8990755E+03  0.7818609E-02  0.9426738E-01
       -1   -1    0    0    0  501  0.00000000000E+00  0.00000000000E+00  0.35451303963E+03  0.35451303966E+03  0.50400001928E-02 0.  1.
        1   -1    0    0  501    0  0.00000000000E+00  0.00000000000E+00 -0.57003315159E+03  0.57003315161E+03  0.50400001928E-02 0. -1.
    10030    2    1    2    0    0  0.00000000000E+00  0.00000000000E+00 -0.21552011196E+03  0.92454619128E+03  0.89907549246E+03 0.  0.
        5    1    3    3  502    0 -0.44039337813E+03 -0.19867378844E+02 -0.19811892336E+03  0.48333656807E+03  0.46999998093E+01 0. -1.
       -5    1    3    3    0  502  0.44039337813E+03  0.19867378844E+02 -0.17401188599E+02  0.44120962320E+03  0.46999998093E+01 0.  1.
</event>
<event>
 5   0  0.2679861E-02  0.8976308E+03  0.7818609E-02  0.9428548E-01
        2   -1    0    0  501    0  0.00000000000E+00  0.00000000000E+00  0.28589271171E+03  0.28589271172E+03  0.25500000920E-02 0. -1.
       -2   -1    0    0    0  501  0.00000000000E+00  0.00000000000E+00 -0.70458347434E+03  0.70458347435E+03  0.25500000920E-02 0.  1.
    10030    2    1    2    0    0  0.00000000000E+00  0.00000000000E+00 -0.41869076263E+03  0.99047618607E+03  0.89763083752E+03 0.  0.
        1    1    3    3  502    0  0.21200695268E+03  0.14336942896E+03  0.19748144810E+03  0.32326562377E+03  0.50400001928E-02 0. -1.
       -1    1    3    3    0  502 -0.21200695268E+03 -0.14336942896E+03 -0.61617221073E+03  0.66721056230E+03  0.50400001928E-02 0.  1.
</event>
<event>
 5   0  0.2414128E-02  0.8815918E+03  0.7818609E-02  0.9448890E-01
        2   -1    0    0  501    0  0.00000000000E+00  0.00000000000E+00  0.24816451366E+04  0.24816451366E+04  0.25500000920E-02 0. -1.
       -2   -1    0    0    0  501  0.00000000000E+00  0.00000000000E+00 -0.78295246006E+02  0.78295246048E+02  0.25500000920E-02 0.  1.
    10030    2    1    2    0    0  0.00000000000E+00  0.00000000000E+00  0.24033498906E+04  0.25599403826E+04  0.88159177974E+03 0.  0.
        3    1    3    3  502    0  0.43587049082E+02 -0.31928851481E+03  0.32833956122E+03  0.46005637068E+03  0.10100000352E+00 0.  1.
       -3    1    3    3    0  502 -0.43587049082E+02  0.31928851481E+03  0.20750103294E+04  0.20998840120E+04  0.10100000352E+00 0. -1.
</event>
<event>
 5   0  0.1040163E-02  0.9093915E+03  0.7818609E-02  0.9413917E-01
       -4   -1    0    0    0  501  0.00000000000E+00  0.00000000000E+00  0.15073611501E+04  0.15073616851E+04  0.12699999809E+01 0.  1.
        4   -1    0    0  501    0  0.00000000000E+00  0.00000000000E+00 -0.13715553968E+03  0.13716141938E+03  0.12699999809E+01 0. -1.
    10030    2    1    2    0    0  0.00000000000E+00  0.00000000000E+00  0.13702056104E+04  0.16445231044E+04  0.90939145936E+03 0.  0.
        1    1    3    3  502    0  0.20410758272E+02 -0.32929379492E+03  0.12509175395E+04  0.12936945903E+04  0.50400001928E-02 0.  1.
       -1    1    3    3    0  502 -0.20410758272E+02  0.32929379492E+03  0.11928807087E+03  0.35082851409E+03  0.50400001928E-02 0. -1.
</event>
<event>
 5   0  0.2414128E-02  0.9437961E+03  0.7818609E-02  0.9372432E-01
       -2   -1    0    0    0  501  0.00000000000E+00  0.00000000000E+00  0.30299018600E+03  0.30299018601E+03  0.25500000920E-02 0. -1.
        2   -1    0    0  501    0  0.00000000000E+00  0.00000000000E+00 -0.73496693458E+03  0.73496693458E+03  0.25500000920E-02 0.  1.
    10030    2    1    2    0    0  0.00000000000E+00  0.00000000000E+00 -0.43197674858E+03  0.10379571206E+04  0.94379609708E+03 0.  0.
        3    1    3    3  502    0  0.18985039221E+03  0.13129190582E+03 -0.66864297586E+03  0.70736424515E+03  0.10100000352E+00 0.  1.
       -3    1    3    3    0  502 -0.18985039221E+03 -0.13129190582E+03  0.23666622728E+03  0.33059287544E+03  0.10100000352E+00 0. -1.
</event>
<event>
 5   0  0.2628383E-02  0.9097893E+03  0.7818609E-02  0.9413426E-01
       -2   -1    0    0    0  501  0.00000000000E+00  0.00000000000E+00  0.78075953039E+03  0.78075953040E+03  0.25500000920E-02 0.  1.
        2   -1    0    0  501    0  0.00000000000E+00  0.00000000000E+00 -0.26503571411E+03  0.26503571412E+03  0.25500000920E-02 0. -1.
    10030    2    1    2    0    0  0.00000000000E+00  0.00000000000E+00  0.51572381628E+03  0.10457952445E+04  0.90978933758E+03 0.  0.
        2    1    3    3  502    0  0.14146243254E+03  0.39912771652E+03  0.44888032605E+03  0.61709650868E+03  0.25500000920E-02 0.  1.
       -2    1    3    3    0  502 -0.14146243254E+03 -0.39912771652E+03  0.66843490237E+02  0.42869873583E+03  0.25500000920E-02 0. -1.
</event>
<event>
 5   0  0.2414128E-02  0.8655758E+03  0.7818609E-02  0.9469667E-01
        2   -1    0    0  501    0  0.00000000000E+00  0.00000000000E+00  0.23460464679E+03  0.23460464681E+03  0.25500000920E-02 0. -1.
       -2   -1    0    0    0  501  0.00000000000E+00  0.00000000000E+00 -0.79838730962E+03  0.79838730962E+03  0.25500000920E-02 0.  1.
    10030    2    1    2    0    0  0.00000000000E+00  0.00000000000E+00 -0.56378266283E+03  0.10329919564E+04  0.86557581479E+03 0.  0.
        3    1    3    3  502    0 -0.94404748875E+02  0.28513679715E+03  0.89968552698E+02  0.31354361798E+03  0.10100000352E+00 0. -1.
       -3    1    3    3    0  502  0.94404748875E+02 -0.28513679715E+03 -0.65375121552E+03  0.71944833845E+03  0.10100000352E+00 0.  1.
</event>
<event>
 5   0  0.1497410E-02  0.9023783E+03  0.7818609E-02  0.9422613E-01
       -1   -1    0    0    0  501  0.00000000000E+00  0.00000000000E+00  0.33050159062E+03  0.33050159066E+03  0.50400001928E-02 0.  1.
        1   -1    0    0  501    0  0.00000000000E+00  0.00000000000E+00 -0.61594755572E+03  0.61594755575E+03  0.50400001928E-02 0. -1.
    10030    2    1    2    0    0  0.00000000000E+00  0.00000000000E+00 -0.28544596510E+03  0.94644914640E+03  0.90237829525E+03 0.  0.
        3    1    3    3  502    0 -0.40689382669E+03 -0.11886645527E+03 -0.30480100695E+03  0.52210677493E+03  0.10100000352E+00 0. -1.
       -3    1    3    3    0  502  0.40689382669E+03  0.11886645527E+03  0.19355041846E+02  0.42434237148E+03  0.10100000352E+00 0.  1.
</event>
<event>
 5   0  0.1537870E-02  0.5601443E+03  0.7818609E-02  0.9991728E-01
        1   -1    0    0  501    0  0.00000000000E+00  0.00000000000E+00  0.12115371764E+03  0.12115371774E+03  0.50400001928E-02 0.  1.
       -1   -1    0    0    0  501  0.00000000000E+00  0.00000000000E+00 -0.64744527347E+03  0.64744527349E+03  0.50400001928E-02 0. -1.
    10030    2    1    2    0    0  0.00000000000E+00  0.00000000000E+00 -0.52629155583E+03  0.76859899123E+03  0.56014427390E+03 0.  0.
        5    1    3    3  502    0 -0.69847763210E+02  0.21081253459E+03 -0.29084770614E+02  0.22402823180E+03  0.46999998093E+01 0.  1.
       -5    1    3    3    0  502  0.69847763210E+02 -0.21081253459E+03 -0.49720678522E+03  0.54457075943E+03  0.46999998093E+01 0. -1.
</event>
<event>
 5   0  0.2679861E-02  0.8779354E+03  0.7818609E-02  0.9453592E-01
       -2   -1    0    0    0  501  0.00000000000E+00  0.00000000000E+00  0.10280910454E+03  0.10280910457E+03  0.25500000920E-02 0.  1.
        2   -1    0    0  501    0  0.00000000000E+00  0.00000000000E+00 -0.18742758785E+04  0.18742758785E+04  0.25500000920E-02 0. -1.
    10030    2    1    2    0    0  0.00000000000E+00  0.00000000000E+00 -0.17714667740E+04  0.19770849831E+04  0.87793536154E+03 0.  0.
        1    1    3    3  502    0 -0.35372262766E+03 -0.61790805912E-01 -0.30033819621E+03  0.46402880650E+03  0.50400001928E-02 0.  1.
       -1    1    3    3    0  502  0.35372262766E+03  0.61790805912E-01 -0.14711285778E+04  0.15130561766E+04  0.50400001928E-02 0. -1.
</event>
<event>
 5   0  0.1459111E-02  0.8908502E+03  0.7818609E-02  0.9437092E-01
       -1   -1    0    0    0  501  0.00000000000E+00  0.00000000000E+00  0.52529389904E+03  0.52529389906E+03  0.50400001928E-02 0.  1.
        1   -1    0    0  501    0  0.00000000000E+00  0.00000000000E+00 -0.37770000124E+03  0.37770000128E+03  0.50400001928E-02 0. -1.
    10030    2    1    2    0    0  0.00000000000E+00  0.00000000000E+00  0.14759389779E+03  0.90299390034E+03  0.89085016999E+03 0.  0.
        2    1    3    3  502    0  0.10906581621E+03  0.43034910717E+03  0.37140463663E+02  0.44550546614E+03  0.25500000920E-02 0. -1.
       -2    1    3    3    0  502 -0.10906581621E+03 -0.43034910717E+03  0.11045343413E+03  0.45748843420E+03  0.25500000920E-02 0.  1.
</event>
<event>
 5   0  0.2628383E-02  0.9082483E+03  0.7818609E-02  0.9415329E-01
       -2   -1    0    0    0  501  0.00000000000E+00  0.00000000000E+00  0.18642667727E+03  0.18642667729E+03  0.25500000920E-02 0. -1.
        2   -1    0    0  501    0  0.00000000000E+00  0.00000000000E+00 -0.11062189552E+04  0.11062189552E+04  0.25500000920E-02 0.  1.
    10030    2    1    2    0    0  0.00000000000E+00  0.00000000000E+00 -0.91979227797E+03  0.12926456325E+04  0.90824825719E+03 0.  0.
        2    1    3    3  502    0  0.18053981253E+02  0.35214133795E+03 -0.86719658749E+03  0.93614068895E+03  0.25500000920E-02 0.  1.
       -2    1    3    3    0  502 -0.18053981253E+02 -0.35214133795E+03 -0.52595690477E+02  0.35650494358E+03  0.25500000920E-02 0. -1.
</event>
<event>
 5   0  0.1559275E-02  0.8996632E+03  0.7818609E-02  0.9426003E-01
        1   -1    0    0  501    0  0.00000000000E+00  0.00000000000E+00  0.84343667780E+03  0.84343667782E+03  0.50400001928E-02 0. -1.
       -1   -1    0    0    0  501  0.00000000000E+00  0.00000000000E+00 -0.23990949649E+03  0.23990949654E+03  0.50400001928E-02 0.  1.
    10030    2    1    2    0    0  0.00000000000E+00  0.00000000000E+00  0.60352718132E+03  0.10833461744E+04  0.89966320082E+03 0.  0.
        1    1    3    3  502    0 -0.25985497362E+03 -0.94416011981E+02 -0.12552028978E+03  0.30363519856E+03  0.50400001928E-02 0.  1.
       -1    1    3    3    0  502  0.25985497362E+03  0.94416011981E+02  0.72904747110E+03  0.77971097580E+03  0.50400001928E-02 0. -1.
</event>
<event>
 5   0  0.2705111E-02  0.9576390E+03  0.7818609E-02  0.9356266E-01
       -2   -1    0    0    0  501  0.00000000000E+00  0.00000000000E+00  0.36842936183E+03  0.36842936184E+03  0.25500000920E-02 0. -1.
        2   -1    0    0  501    0  0.00000000000E+00  0.00000000000E+00 -0.62228511001E+03  0.62228511002E+03  0.25500000920E-02 0.  1.
    10030    2    1    2    0    0  0.00000000000E+00  0.00000000000E+00 -0.25385574818E+03  0.99071447186E+03  0.95763898409E+03 0.  0.
        4    1    3    3  502    0 -0.10926095904E+03 -0.18846640039E+03 -0.56804540842E+03  0.60838699868E+03  0.12699999809E+01 0.  1.
       -4    1    3    3    0  502  0.10926095904E+03  0.18846640039E+03  0.31418966023E+03  0.38232747317E+03  0.12699999809E+01 0. -1.
</event>
<event>
 5   0  0.1560728E-02  0.8581253E+03  0.7818609E-02  0.9479496E-01
       -1   -1    0    0    0  501  0.00000000000E+00  0.00000000000E+00  0.11042683662E+03  0.11042683673E+03  0.50400001928E-02 0.  1.
        1   -1    0    0  501    0  0.00000000000E+00  0.00000000000E+00 -0.16671198821E+04  0.16671198821E+04  0.50400001928E-02 0. -1.
    10030    2    1    2    0    0  0.00000000000E+00  0.00000000000E+00 -0.15566930455E+04  0.17775467188E+04  0.85812534037E+03 0.  0.
        4    1    3    3  502    0  0.16768264377E+03  0.30386866032E+03 -0.25578939014E+03  0.43114203779E+03  0.12699999809E+01 0. -1.
       -4    1    3    3    0  502 -0.16768264377E+03 -0.30386866032E+03 -0.13009036553E+04  0.13464046810E+04  0.12699999809E+01 0.  1.
</event>
<event>
 5   0  0.2803717E-02  0.9096726E+03  0.7818609E-02  0.9413570E-01
       -2   -1    0    0    0  501  0.00000000000E+00  0.00000000000E+00  0.52528224719E+03  0.52528224720E+03  0.25500000920E-02 0.  1.
        2   -1    0    0  501    0  0.00000000000E+00  0.00000000000E+00 -0.39383794508E+03  0.39383794509E+03  0.25500000920E-02 0. -1.
    10030    2    1    2    0    0  0.00000000000E+00  0.00000000000E+00  0.13144430211E+03  0.91912019229E+03  0.90967264624E+03 0.  0.
        5    1    3    3  502    0  0.16949082069E+03 -0.39939219133E+03 -0.72123227607E+02  0.43984669005E+03  0.46999998093E+01 0. -1.
       -5    1    3    3    0  502 -0.16949082069E+03  0.39939219133E+03  0.20356752972E+03  0.47927350224E+03  0.46999998093E+01 0.  1.
</event>
<event>
 5   0  0.1459111E-02  0.9051486E+03  0.7818609E-02  0.9419168E-01
       -1   -1    0    0    0  501  0.00000000000E+00  0.00000000000E+00  0.28279274242E+03  0.28279274247E+03  0.50400001928E-02 0.  1.
        1   -1    0    0  501    0  0.00000000000E+00  0.00000000000E+00 -0.72428834859E+03  0.72428834861E+03  0.50400001928E-02 0. -1.
    10030    2    1    2    0    0  0.00000000000E+00  0.00000000000E+00 -0.44149560617E+03  0.10070810911E+04  0.90514858102E+03 0.  0.
        2    1    3    3  502    0  0.31911547566E+03  0.27944170073E+03 -0.45176246261E+02  0.42657149946E+03  0.25500000920E-02 0.  1.
       -2    1    3    3    0  502 -0.31911547566E+03 -0.27944170073E+03 -0.39631935991E+03  0.58050959162E+03  0.25500000920E-02 0. -1.
</event>
<event>
 5   0  0.1497410E-02  0.1002056E+04  0.7818609E-02  0.9306292E-01
        1   -1    0    0  501    0  0.00000000000E+00  0.00000000000E+00  0.63011164706E+03  0.63011164708E+03  0.50400001928E-02 0.  1.
       -1   -1    0    0    0  501  0.00000000000E+00  0.00000000000E+00 -0.39838839871E+03  0.39838839875E+03  0.50400001928E-02 0. -1.
    10030    2    1    2    0    0  0.00000000000E+00  0.00000000000E+00  0.23172324835E+03  0.10285000458E+04  0.10020562262E+04 0.  0.
        3    1    3    3  502    0  0.34560134687E+03  0.26353594576E+03 -0.13999090918E+03  0.45660590285E+03  0.10100000352E+00 0. -1.
       -3    1    3    3    0  502 -0.34560134687E+03 -0.26353594576E+03  0.37171415753E+03  0.57189414298E+03  0.10100000352E+00 0.  1.
</event>
<event>
 5   0  0.2679861E-02  0.8319780E+03  0.7818609E-02  0.9514850E-01
        2   -1    0    0  501    0  0.00000000000E+00  0.00000000000E+00  0.13089892496E+04  0.13089892496E+04  0.25500000920E-02 0.  1.
       -2   -1    0    0    0  501  0.00000000000E+00  0.00000000000E+00 -0.13219882946E+03  0.13219882949E+03  0.25500000920E-02 0. -1.
    10030    2    1    2    0    0  0.00000000000E+00  0.00000000000E+00  0.11767904201E+04  0.14411880791E+04  0.83197799632E+03 0.  0.
        1    1    3    3  502    0 -0.35968433210E+03 -0.18753040100E+03  0.74816001787E+03  0.85104869569E+03  0.50400001928E-02 0. -1.
       -1    1    3    3    0  502  0.35968433210E+03  0.18753040100E+03  0.42863040223E+03  0.59013938337E+03  0.50400001928E-02 0.  1.
</event>
<event>
 5   0  0.1497410E-02  0.8620326E+03  0.7818609E-02  0.9474328E-01
       -1   -1    0    0    0  501  0.00000000000E+00  0.00000000000E+00  0.31816620529E+03  0.31816620533E+03  0.50400001928E-02 0. -1.
        1   -1    0    0  501    0  0.00000000000E+00  0.00000000000E+00 -0.58389306020E+03  0.58389306023E+03  0.50400001928E-02 0.  1.
    10030    2    1    2    0    0  0.00000000000E+00  0.00000000000E+00 -0.26572685491E+03  0.90205926556E+03  0.86203257314E+03 0.  0.
        3    1    3    3  502    0  0.63326525876E+02 -0.28167245084E+03 -0.46776350807E+03  0.54968384379E+03  0.10100000352E+00 0.  1.
       -3    1    3    3    0  502 -0.63326525876E+02  0.28167245084E+03  0.20203665316E+03  0.35237542176E+03  0.10100000352E+00 0. -1.
</event>
<event>
 5   0  0.2679861E-02  0.8802301E+03  0.7818609E-02  0.9450638E-01
       -2   -1    0    0    0  501  0.00000000000E+00  0.00000000000E+00  0.15945502970E+03  0.15945502972E+03  0.25500000920E-02 0.  1.
        2   -1    0    0  501    0  0.00000000000E+00  0.00000000000E+00 -0.12147705125E+04  0.12147705125E+04  0.25500000920E-02 0. -1.
    10030    2    1    2    0    0  0.00000000000E+00  0.00000000000E+00 -0.10553154828E+04  0.13742255422E+04  0.88023012483E+03 0.  0.
        1    1    3    3  502    0 -0.14714148913E+03  0.23114165463E+03 -0.10653681099E+04  0.11000392229E+04  0.50400001928E-02 0. -1.
       -1    1    3    3    0  502  0.14714148913E+03 -0.23114165463E+03  0.10052627155E+02  0.27418631926E+03  0.50400001928E-02 0.  1.
</event>
<event>
 5   0  0.1497410E-02  0.8980586E+03  0.7818609E-02  0.9428012E-01
        1   -1    0    0  501    0  0.00000000000E+00  0.00000000000E+00  0.91617835358E+03  0.91617835359E+03  0.50400001928E-02 0.  1.
       -1   -1    0    0    0  501  0.00000000000E+00  0.00000000000E+00 -0.22007430332E+03  0.22007430337E+03  0.50400001928E-02 0. -1.
    10030    2    1    2    0    0  0.00000000000E+00  0.00000000000E+00  0.69610405026E+03  0.11362526570E+04  0.89805860147E+03 0.  0.
        3    1    3    3  502    0 -0.39938815817E+02  0.30773597143E+02 -0.21648145131E+03  0.22227539731E+03  0.10100000352E+00 0. -1.
       -3    1    3    3    0  502  0.39938815817E+02 -0.30773597143E+02  0.91258550157E+03  0.91397725965E+03  0.10100000352E+00 0.  1.
</event>
<event>
 5   0  0.1537870E-02  0.9173746E+03  0.7818609E-02  0.9404119E-01
        1   -1    0    0  501    0  0.00000000000E+00  0.00000000000E+00  0.13715868090E+04  0.13715868090E+04  0.50400001928E-02 0.  1.
       -1   -1    0    0    0  501  0.00000000000E+00  0.00000000000E+00 -0.15339460657E+03  0.15339460665E+03  0.50400001928E-02 0. -1.
    10030    2    1    2    0    0  0.00000000000E+00  0.00000000000E+00  0.12181922025E+04  0.15249814157E+04  0.91737455603E+03 0.  0.
        5    1    3    3  502    0  0.78724596821E+02  0.39588595977E+03  0.97119724736E+03  0.10517459002E+04  0.46999998093E+01 0.  1.
       -5    1    3    3    0  502 -0.78724596821E+02 -0.39588595977E+03  0.24699495510E+03  0.47323551550E+03  0.46999998093E+01 0. -1.
</event>
<event>
 5   0  0.2705111E-02  0.9060782E+03  0.7818609E-02  0.9418015E-01
        2   -1    0    0  501    0  0.00000000000E+00  0.00000000000E+00  0.63801694824E+03  0.63801694824E+03  0.25500000920E-02 0. -1.
       -2   -1    0    0    0  501  0.00000000000E+00  0.00000000000E+00 -0.32169119013E+03  0.32169119014E+03  0.25500000920E-02 0.  1.
    10030    2    1    2    0    0  0.00000000000E+00  0.00000000000E+00  0.31632575811E+03  0.95970813838E+03  0.90607821165E+03 0.  0.
        4    1    3    3  502    0  0.37373940341E+02 -0.33103981065E+03  0.48335057147E+03  0.58703795064E+03  0.12699999809E+01 0. -1.
       -4    1    3    3    0  502 -0.37373940341E+02  0.33103981065E+03 -0.16702481336E+03  0.37267018774E+03  0.12699999809E+01 0.  1.
</event>
<event>
 5   0  0.2628383E-02  0.8443099E+03  0.7818609E-02  0.9498006E-01
       -2   -1    0    0    0  501  0.00000000000E+00  0.00000000000E+00  0.18321397916E+03  0.18321397918E+03  0.25500000920E-02 0. -1.
        2   -1    0    0  501    0  0.00000000000E+00  0.00000000000E+00 -0.97271392884E+03  0.97271392884E+03  0.25500000920E-02 0.  1.
    10030    2    1    2    0    0  0.00000000000E+00  0.00000000000E+00 -0.78949994967E+03  0.11559279080E+04  0.84430987085E+03 0.  0.
        2    1    3    3  502    0 -0.15521700556E+03  0.21970110717E+03  0.50682936624E+02  0.27373281750E+03  0.25500000920E-02 0. -1.
       -2    1    3    3    0  502  0.15521700556E+03 -0.21970110717E+03 -0.84018288630E+03  0.88219509052E+03  0.25500000920E-02 0.  1.
</event>
<event>
 5   0  0.1560728E-02  0.8955869E+03  0.7818609E-02  0.9431115E-01
        1   -1    0    0  501    0  0.00000000000E+00  0.00000000000E+00  0.50508123583E+03  0.50508123586E+03  0.50400001928E-02 0. -1.
       -1   -1    0    0    0  501  0.00000000000E+00  0.00000000000E+00 -0.39700340530E+03  0.39700340534E+03  0.50400001928E-02 0.  1.
    10030    2    1    2    0    0  0.00000000000E+00  0.00000000000E+00  0.10807783053E+03  0.90208464119E+03  0.89558689273E+03 0.  0.
        4    1    3    3  502    0 -0.18386376862E+03 -0.40774315341E+03  0.32506418067E+02  0.44846253431E+03  0.12699999809E+01 0. -1.
       -4    1    3    3    0  502  0.18386376862E+03  0.40774315341E+03  0.75571412461E+02  0.45362210688E+03  0.12699999809E+01 0.  1.
</event>
<event>
 5   0  0.1040163E-02  0.8895425E+03  0.7818609E-02  0.9438749E-01
        3   -1    0    0  501    0  0.00000000000E+00  0.00000000000E+00  0.32433838438E+03  0.32433840011E+03  0.10100000352E+00 0.  1.
       -3   -1    0    0    0  501  0.00000000000E+00  0.00000000000E+00 -0.60992307979E+03  0.60992308816E+03  0.10100000352E+00 0. -1.
    10030    2    1    2    0    0  0.00000000000E+00  0.00000000000E+00 -0.28558469541E+03  0.93426148827E+03  0.88954252861E+03 0.  0.
        2    1    3    3  502    0  0.24374122531E+03  0.25245752967E+03  0.14421620407E+03  0.37939807949E+03  0.25500000920E-02 0.  1.
       -2    1    3    3    0  502 -0.24374122531E+03 -0.25245752967E+03 -0.42980089947E+03  0.55486340877E+03  0.25500000920E-02 0. -1.
</event>
<event>
 5   0  0.2803717E-02  0.9040185E+03  0.7818609E-02  0.9420572E-01
       -2   -1    0    0    0  501  0.00000000000E+00  0.00000000000E+00  0.15019731636E+03  0.15019731638E+03  0.25500000920E-02 0.  1.
        2   -1    0    0  501    0  0.00000000000E+00  0.00000000000E+00 -0.13602931677E+04  0.13602931677E+04  0.25500000920E-02 0. -1.
    10030    2    1    2    0    0  0.00000000000E+00  0.00000000000E+00 -0.12100958513E+04  0.15104904841E+04  0.90401854686E+03 0.  0.
        5    1    3    3  502    0  0.35134672422E+03 -0.15726609020E+03 -0.10008453610E+04  0.10723295531E+04  0.46999998093E+01 0. -1.
       -5    1    3    3    0  502 -0.35134672422E+03  0.15726609020E+03 -0.20925049030E+03  0.43816093098E+03  0.46999998093E+01 0.  1.
</event>
<event>
 5   0  0.1560728E-02  0.6014144E+03  0.7818609E-02  0.9902476E-01
        1   -1    0    0  501    0  0.00000000000E+00  0.00000000000E+00  0.17135616305E+04  0.17135616305E+04  0.50400001928E-02 0. -1.
       -1   -1    0    0    0  501  0.00000000000E+00  0.00000000000E+00 -0.52770103974E+02  0.52770104215E+02  0.50400001928E-02 0.  1.
    10030    2    1    2    0    0  0.00000000000E+00  0.00000000000E+00  0.16607915265E+04  0.17663317347E+04  0.60141441827E+03 0.  0.
        4    1    3    3  502    0 -0.21388766193E+03  0.36507467550E+02  0.14418378700E+04  0.14580736550E+04  0.12699999809E+01 0. -1.
       -4    1    3    3    0  502  0.21388766193E+03 -0.36507467550E+02  0.21895365652E+03  0.30825807973E+03  0.12699999809E+01 0.  1.
</event>
<event>
 5   0  0.2705111E-02  0.6436823E+03  0.7818609E-02  0.9818707E-01
       -2   -1    0    0    0  501  0.00000000000E+00  0.00000000000E+00  0.44081650201E+03  0.44081650202E+03  0.25500000920E-02 0. -1.
        2   -1    0    0  501    0  0.00000000000E+00  0.00000000000E+00 -0.23497697167E+03  0.23497697169E+03  0.25500000920E-02 0.  1.
    10030    2    1    2    0    0  0.00000000000E+00  0.00000000000E+00  0.20583953033E+03  0.67579347370E+03  0.64368230273E+03 0.  0.
        4    1    3    3  502    0 -0.29394592677E+02 -0.16953640510E+03  0.38846863579E+03  0.42487189673E+03  0.12699999809E+01 0. -1.
       -4    1    3    3    0  502  0.29394592677E+02  0.16953640510E+03 -0.18262910546E+03  0.25092157698E+03  0.12699999809E+01 0.  1.
</event>
<event>
 5   0  0.1459111E-02  0.9298596E+03  0.7818609E-02  0.9389006E-01
       -1   -1    0    0    0  501  0.00000000000E+00  0.00000000000E+00  0.41289574431E+03  0.41289574434E+03  0.50400001928E-02 0.  1.
        1   -1    0    0  501    0  0.00000000000E+00  0.00000000000E+00 -0.52352133196E+03  0.52352133199E+03  0.50400001928E-02 0. -1.
    10030    2    1    2    0    0  0.00000000000E+00  0.00000000000E+00 -0.11062558765E+03  0.93641707632E+03  0.92985962392E+03 0.  0.
        2    1    3    3  502    0  0.17395037224E+03  0.15445527856E+03  0.35007360086E+03  0.42031736950E+03  0.25500000920E-02 0.  1.
       -2    1    3    3    0  502 -0.17395037224E+03 -0.15445527856E+03 -0.46069918852E+03  0.51609970682E+03  0.25500000920E-02 0. -1.
</event>
<event>
 5   0  0.1459111E-02  0.8750922E+03  0.7818609E-02  0.9457264E-01
        1   -1    0    0  501    0  0.00000000000E+00  0.00000000000E+00  0.10259856142E+04  0.10259856142E+04  0.50400001928E-02 0.  1.
       -1   -1    0    0    0  501  0.00000000000E+00  0.00000000000E+00 -0.18659772735E+03  0.18659772742E+03  0.50400001928E-02 0. -1.
    10030    2    1    2    0    0  0.00000000000E+00  0.00000000000E+00  0.83938788682E+03  0.12125833416E+04  0.87509218703E+03 0.  0.
        2    1    3    3  502    0 -0.34960953682E+03  0.21281432457E+03  0.63404592255E+03  0.75467277471E+03  0.25500000920E-02 0.  1.
       -2    1    3    3    0  502  0.34960953682E+03 -0.21281432457E+03  0.20534196427E+03  0.45791056689E+03  0.25500000920E-02 0. -1.
</event>
<event>
 5   0  0.2628383E-02  0.8680363E+03  0.7818609E-02  0.9466444E-01
        2   -1    0    0  501    0  0.00000000000E+00  0.00000000000E+00  0.40871007997E+03  0.40871007998E+03  0.25500000920E-02 0.  1.
       -2   -1    0    0    0  501  0.00000000000E+00  0.00000000000E+00 -0.46089333309E+03  0.46089333309E+03  0.25500000920E-02 0. -1.
    10030    2    1    2    0    0  0.00000000000E+00  0.00000000000E+00 -0.52183253114E+02  0.86960341307E+03  0.86803629194E+03 0.  0.
        2    1    3    3  502    0 -0.14727360903E+03  0.37367909592E+03 -0.19084572474E+03  0.44468828780E+03  0.25500000920E-02 0. -1.
       -2    1    3    3    0  502  0.14727360903E+03 -0.37367909592E+03  0.13866247163E+03  0.42491512528E+03  0.25500000920E-02 0.  1.
</event>
<event>
 5   0  0.1537870E-02  0.9043753E+03  0.7818609E-02  0.9420129E-01
       -1   -1    0    0    0  501  0.00000000000E+00  0.00000000000E+00  0.48039713103E+03  0.48039713106E+03  0.50400001928E-02 0.  1.
        1   -1    0    0  501    0  0.00000000000E+00  0.00000000000E+00 -0.42563470302E+03  0.42563470305E+03  0.50400001928E-02 0. -1.
    10030    2    1    2    0    0  0.00000000000E+00  0.00000000000E+00  0.54762428012E+02  0.90603183411E+03  0.90437534293E+03 0.  0.
        5    1    3    3  502    0 -0.72867434474E+02 -0.44554342667E+03  0.52586632651E+02  0.45453938441E+03  0.46999998093E+01 0. -1.
       -5    1    3    3    0  502  0.72867434474E+02  0.44554342667E+03  0.21757953608E+01  0.45149244970E+03  0.46999998093E+01 0.  1.
</event>
<event>
 5   0  0.1560728E-02  0.9236709E+03  0.7818609E-02  0.9396466E-01
       -1   -1    0    0    0  501  0.00000000000E+00  0.00000000000E+00  0.11215667064E+04  0.11215667064E+04  0.50400001928E-02 0. -1.
        1   -1    0    0  501    0  0.00000000000E+00  0.00000000000E+00 -0.19017323180E+03  0.19017323186E+03  0.50400001928E-02 0.  1.
    10030    2    1    2    0    0  0.00000000000E+00  0.00000000000E+00  0.93139347462E+03  0.13117399383E+04  0.92367086191E+03 0.  0.
        4    1    3    3  502    0 -0.17297045347E+03 -0.10279035077E+03  0.10560467174E+04  0.10750446113E+04  0.12699999809E+01 0. -1.
       -4    1    3    3    0  502  0.17297045347E+03  0.10279035077E+03 -0.12465324280E+03  0.23669532701E+03  0.12699999809E+01 0.  1.
</event>
<event>
 5   0  0.1537870E-02  0.9269866E+03  0.7818609E-02  0.9392462E-01
       -1   -1    0    0    0  501  0.00000000000E+00  0.00000000000E+00  0.17563605465E+03  0.17563605472E+03  0.50400001928E-02 0.  1.
        1   -1    0    0  501    0  0.00000000000E+00  0.00000000000E+00 -0.12231319055E+04  0.12231319055E+04  0.50400001928E-02 0. -1.
    10030    2    1    2    0    0  0.00000000000E+00  0.00000000000E+00 -0.10474958508E+04  0.13987679602E+04  0.92698664985E+03 0.  0.
        5    1    3    3  502    0  0.10749758504E+01  0.14799690494E+03  0.13898417888E+03  0.20308355773E+03  0.46999998093E+01 0.  1.
       -5    1    3    3    0  502 -0.10749758504E+01 -0.14799690494E+03 -0.11864800297E+04  0.11956844025E+04  0.46999998093E+01 0. -1.
</event>
<event>
 5   0  0.2628383E-02  0.8845955E+03  0.7818609E-02  0.9445045E-01
        2   -1    0    0  501    0  0.00000000000E+00  0.00000000000E+00  0.68209742555E+03  0.68209742556E+03  0.25500000920E-02 0.  1.
       -2   -1    0    0    0  501  0.00000000000E+00  0.00000000000E+00 -0.28680257773E+03  0.28680257775E+03  0.25500000920E-02 0. -1.
    10030    2    1    2    0    0  0.00000000000E+00  0.00000000000E+00  0.39529484782E+03  0.96890000330E+03  0.88459550061E+03 0.  0.
        2    1    3    3  502    0  0.36343442797E+03  0.10461723668E+03 -0.53552001356E+02  0.38196487600E+03  0.25500000920E-02 0. -1.
       -2    1    3    3    0  502 -0.36343442797E+03 -0.10461723668E+03  0.44884684917E+03  0.58693512730E+03  0.25500000920E-02 0.  1.
</event>
<event>
 5   0  0.2628383E-02  0.8111027E+03  0.7818609E-02  0.9544084E-01
       -2   -1    0    0    0  501  0.00000000000E+00  0.00000000000E+00  0.14814249317E+03  0.14814249320E+03  0.25500000920E-02 0. -1.
        2   -1    0    0  501    0  0.00000000000E+00  0.00000000000E+00 -0.11102278215E+04  0.11102278215E+04  0.25500000920E-02 0.  1.
    10030    2    1    2    0    0  0.00000000000E+00  0.00000000000E+00 -0.96208532833E+03  0.12583703147E+04  0.81110274931E+03 0.  0.
        2    1    3    3  502    0  0.13305826031E+03  0.36405322646E+03 -0.66612957501E+03  0.77069310561E+03  0.25500000920E-02 0. -1.
       -2    1    3    3    0  502 -0.13305826031E+03 -0.36405322646E+03 -0.29595575332E+03  0.48767720909E+03  0.25500000920E-02 0.  1.
</event>
<event>
 5   0  0.1560728E-02  0.8800098E+03  0.7818609E-02  0.9450921E-01
       -1   -1    0    0    0  501  0.00000000000E+00  0.00000000000E+00  0.20640743667E+03  0.20640743673E+03  0.50400001928E-02 0.  1.
        1   -1    0    0  501    0  0.00000000000E+00  0.00000000000E+00 -0.93797167457E+03  0.93797167458E+03  0.50400001928E-02 0. -1.
    10030    2    1    2    0    0  0.00000000000E+00  0.00000000000E+00 -0.73156423790E+03  0.11443791113E+04  0.88000983872E+03 0.  0.
        4    1    3    3  502    0 -0.39587604037E+03  0.17870277908E+03 -0.45727630227E+03  0.63067880265E+03  0.12699999809E+01 0. -1.
       -4    1    3    3    0  502  0.39587604037E+03 -0.17870277908E+03 -0.27428793563E+03  0.51370030866E+03  0.12699999809E+01 0.  1.
</event>
<event>
 5   0  0.2414128E-02  0.9306775E+03  0.7818609E-02  0.9388025E-01
       -2   -1    0    0    0  501  0.00000000000E+00  0.00000000000E+00  0.86895624643E+03  0.86895624644E+03  0.25500000920E-02 0. -1.
        2   -1    0    0  501    0  0.00000000000E+00  0.00000000000E+00 -0.24919569959E+03  0.24919569961E+03  0.25500000920E-02 0.  1.
    10030    2    1    2    0    0  0.00000000000E+00  0.00000000000E+00  0.61976054684E+03  0.11181519460E+04  0.93067751612E+03 0.  0.
        3    1    3    3  502    0 -0.15724198454E+03  0.26652026822E+03  0.72742481262E+03  0.79050930627E+03  0.10100000352E+00 0. -1.
       -3    1    3    3    0  502  0.15724198454E+03 -0.26652026822E+03 -0.10766426578E+03  0.32764263978E+03  0.10100000352E+00 0.  1.
</event>
<event>
 5   0  0.2414128E-02  0.8962380E+03  0.7818609E-02  0.9430296E-01
        2   -1    0    0  501    0  0.00000000000E+00  0.00000000000E+00  0.37703642579E+03  0.37703642580E+03  0.25500000920E-02 0. -1.
       -2   -1    0    0    0  501  0.00000000000E+00  0.00000000000E+00 -0.53260271178E+03  0.53260271179E+03  0.25500000920E-02 0.  1.
    10030    2    1    2    0    0  0.00000000000E+00  0.00000000000E+00 -0.15556628599E+03  0.90963913759E+03  0.89623796578E+03 0.  0.
        3    1    3    3  502    0  0.26557834741E+03  0.21587631166E+03  0.21581053711E+03  0.40460924196E+03  0.10100000352E+00 0. -1.
       -3    1    3    3    0  502 -0.26557834741E+03 -0.21587631166E+03 -0.37137682310E+03  0.50502989563E+03  0.10100000352E+00 0.  1.
</event>
<event>
 5   0  0.2705111E-02  0.9141806E+03  0.7818609E-02  0.9408027E-01
        2   -1    0    0  501    0  0.00000000000E+00  0.00000000000E+00  0.61089276585E+03  0.61089276585E+03  0.25500000920E-02 0.  1.
       -2   -1    0    0    0  501  0.00000000000E+00  0.00000000000E+00 -0.34201017949E+03  0.34201017949E+03  0.25500000920E-02 0. -1.
    10030    2    1    2    0    0  0.00000000000E+00  0.00000000000E+00  0.26888258636E+03  0.95290294535E+03  0.91418060470E+03 0.  0.
        4    1    3    3  502    0 -0.32293714759E+03  0.12561034514E+02  0.47137234944E+03  0.57152400265E+03  0.12699999809E+01 0.  1.
       -4    1    3    3    0  502  0.32293714759E+03 -0.12561034514E+02 -0.20248976308E+03  0.38137894270E+03  0.12699999809E+01 0. -1.
</event>
<event>
 5   0  0.1560728E-02  0.8339883E+03  0.7818609E-02  0.9512083E-01
       -1   -1    0    0    0  501  0.00000000000E+00  0.00000000000E+00  0.21974611780E+03  0.21974611786E+03  0.50400001928E-02 0. -1.
        1   -1    0    0  501    0  0.00000000000E+00  0.00000000000E+00 -0.79129546300E+03  0.79129546302E+03  0.50400001928E-02 0.  1.
    10030    2    1    2    0    0  0.00000000000E+00  0.00000000000E+00 -0.57154934520E+03  0.10110415809E+04  0.83398826386E+03 0.  0.
        4    1    3    3  502    0  0.22228914154E+03 -0.16727859745E+03  0.90795145529E+02  0.29264306409E+03  0.12699999809E+01 0. -1.
       -4    1    3    3    0  502 -0.22228914154E+03  0.16727859745E+03 -0.66234449073E+03  0.71839851678E+03  0.12699999809E+01 0.  1.
</event>
<event>
 5   0  0.1560728E-02  0.1050946E+04  0.7818609E-02  0.9254367E-01
        1   -1    0    0  501    0  0.00000000000E+00  0.00000000000E+00  0.25730686654E+03  0.25730686659E+03  0.50400001928E-02 0. -1.
       -1   -1    0    0    0  501  0.00000000000E+00  0.00000000000E+00 -0.10731237922E+04  0.10731237922E+04  0.50400001928E-02 0.  1.
    10030    2    1    2    0    0  0.00000000000E+00  0.00000000000E+00 -0.81581692562E+03  0.13304306588E+04  0.10509464695E+04 0.  0.
        4    1    3    3  502    0 -0.44776619208E+03 -0.26190795047E+03 -0.30176467803E+03  0.60012821221E+03  0.12699999809E+01 0.  1.
       -4    1    3    3    0  502  0.44776619208E+03  0.26190795047E+03 -0.51405224759E+03  0.73030244655E+03  0.12699999809E+01 0. -1.
</event>
<event>
 5   0  0.2803717E-02  0.8637280E+03  0.7818609E-02  0.9472095E-01
       -2   -1    0    0    0  501  0.00000000000E+00  0.00000000000E+00  0.89860570700E+03  0.89860570700E+03  0.25500000920E-02 0. -1.
        2   -1    0    0  501    0  0.00000000000E+00  0.00000000000E+00 -0.20755101849E+03  0.20755101850E+03  0.25500000920E-02 0.  1.
    10030    2    1    2    0    0  0.00000000000E+00  0.00000000000E+00  0.69105468851E+03  0.11061567255E+04  0.86372803525E+03 0.  0.
        5    1    3    3  502    0  0.41427994909E+03  0.12084409334E+03  0.36590857136E+03  0.56581122621E+03  0.46999998093E+01 0.  1.
       -5    1    3    3    0  502 -0.41427994909E+03 -0.12084409334E+03  0.32514611715E+03  0.54034549929E+03  0.46999998093E+01 0. -1.
</event>
<event>
 5   0  0.1560728E-02  0.8976364E+03  0.7818609E-02  0.9428541E-01
       -1   -1    0    0    0  501  0.00000000000E+00  0.00000000000E+00  0.37379991049E+03  0.37379991053E+03  0.50400001928E-02 0. -1.
        1   -1    0    0  501    0  0.00000000000E+00  0.00000000000E+00 -0.53889195509E+03  0.53889195511E+03  0.50400001928E-02 0.  1.
    10030    2    1    2    0    0  0.00000000000E+00  0.00000000000E+00 -0.16509204459E+03  0.91269186564E+03  0.89763637316E+03 0.  0.
        4    1    3    3  502    0  0.43163356299E+03 -0.11478463324E+03 -0.37610814656E+02  0.44821783879E+03  0.12699999809E+01 0. -1.
       -4    1    3    3    0  502 -0.43163356299E+03  0.11478463324E+03 -0.12748122994E+03  0.46447402685E+03  0.12699999809E+01 0.  1.
</event>
<event>
 5   0  0.2414128E-02  0.8857867E+03  0.7818609E-02  0.9443525E-01
        2   -1    0    0  501    0  0.00000000000E+00  0.00000000000E+00  0.47482765665E+03  0.47482765665E+03  0.25500000920E-02 0. -1.
       -2   -1    0    0    0  501  0.00000000000E+00  0.00000000000E+00 -0.41310672579E+03  0.41310672580E+03  0.25500000920E-02 0.  1.
    10030    2    1    2    0    0  0.00000000000E+00  0.00000000000E+00  0.61720930858E+02  0.88793438245E+03  0.88578665277E+03 0.  0.
        3    1    3    3  502    0  0.15241333463E+03  0.11837259398E+03  0.43046545087E+03  0.47174400916E+03  0.10100000352E+00 0. -1.
       -3    1    3    3    0  502 -0.15241333463E+03 -0.11837259398E+03 -0.36874452002E+03  0.41619037329E+03  0.10100000352E+00 0.  1.
</event>
<event>
 5   0  0.2414128E-02  0.9284640E+03  0.7818609E-02  0.9390683E-01
        2   -1    0    0  501    0  0.00000000000E+00  0.00000000000E+00  0.16813532551E+04  0.16813532551E+04  0.25500000920E-02 0. -1.
       -2   -1    0    0    0  501  0.00000000000E+00  0.00000000000E+00 -0.12817733098E+03  0.12817733101E+03  0.25500000920E-02 0.  1.
    10030    2    1    2    0    0  0.00000000000E+00  0.00000000000E+00  0.15531759241E+04  0.18095305861E+04  0.92846404928E+03 0.  0.
        3    1    3    3  502    0 -0.34535224065E+03 -0.24946138045E+03  0.11360212330E+04  0.12132779576E+04  0.10100000352E+00 0. -1.
       -3    1    3    3    0  502  0.34535224065E+03  0.24946138045E+03  0.41715469118E+03  0.59625262853E+03  0.10100000352E+00 0.  1.
</event>
<event>
 5   0  0.1560728E-02  0.9074477E+03  0.7818609E-02  0.9416319E-01
        1   -1    0    0  501    0  0.00000000000E+00  0.00000000000E+00  0.21742035562E+04  0.21742035562E+04  0.50400001928E-02 0. -1.
       -1   -1    0    0    0  501  0.00000000000E+00  0.00000000000E+00 -0.94685397937E+02  0.94685398071E+02  0.50400001928E-02 0.  1.
    10030    2    1    2    0    0  0.00000000000E+00  0.00000000000E+00  0.20795181582E+04  0.22688889543E+04  0.90744769342E+03 0.  0.
        4    1    3    3  502    0  0.24550402006E+03 -0.19451146451E+02  0.86974749418E+02  0.26118344300E+03  0.12699999809E+01 0.  1.
       -4    1    3    3    0  502 -0.24550402006E+03  0.19451146451E+02  0.19925434088E+04  0.20077055113E+04  0.12699999809E+01 0. -1.
</event>
<event>
 5   0  0.1497410E-02  0.8868202E+03  0.7818609E-02  0.9442208E-01
        1   -1    0    0  501    0  0.00000000000E+00  0.00000000000E+00  0.11607988117E+04  0.11607988117E+04  0.50400001928E-02 0.  1.
       -1   -1    0    0    0  501  0.00000000000E+00  0.00000000000E+00 -0.16937691144E+03  0.16937691152E+03  0.50400001928E-02 0. -1.
    10030    2    1    2    0    0  0.00000000000E+00  0.00000000000E+00  0.99142190028E+03  0.13301757233E+04  0.88682020183E+03 0.  0.
        3    1    3    3  502    0  0.69111591930E+02 -0.29913059284E+03  0.97559042973E+03  0.10227571659E+04  0.10100000352E+00 0.  1.
       -3    1    3    3    0  502 -0.69111591930E+02  0.29913059284E+03  0.15831470546E+02  0.30741855730E+03  0.10100000352E+00 0. -1.
</event>
<event>
 5   0  0.1560728E-02  0.8453398E+03  0.7818609E-02  0.9496613E-01
       -1   -1    0    0    0  501  0.00000000000E+00  0.00000000000E+00  0.69368753559E+03  0.69368753561E+03  0.50400001928E-02 0.  1.
        1   -1    0    0  501    0  0.00000000000E+00  0.00000000000E+00 -0.25753645962E+03  0.25753645967E+03  0.50400001928E-02 0. -1.
    10030    2    1    2    0    0  0.00000000000E+00  0.00000000000E+00  0.43615107597E+03  0.95122399528E+03  0.84533977082E+03 0.  0.
        4    1    3    3  502    0  0.41340498260E+03  0.29934370575E+02  0.31119669595E+03  0.51830950469E+03  0.12699999809E+01 0.  1.
       -4    1    3    3    0  502 -0.41340498260E+03 -0.29934370575E+02  0.12495438001E+03  0.43291449059E+03  0.12699999809E+01 0. -1.
</event>
<event>
 5   0  0.2803717E-02  0.6938264E+03  0.7818609E-02  0.9727848E-01
        2   -1    0    0  501    0  0.00000000000E+00  0.00000000000E+00  0.57825431474E+03  0.57825431475E+03  0.25500000920E-02 0.  1.
       -2   -1    0    0    0  501  0.00000000000E+00  0.00000000000E+00 -0.20812430174E+03  0.20812430175E+03  0.25500000920E-02 0. -1.
    10030    2    1    2    0    0  0.00000000000E+00  0.00000000000E+00  0.37013001301E+03  0.78637861650E+03  0.69382642063E+03 0.  0.
        5    1    3    3  502    0  0.13908922721E+03 -0.18148165570E+03 -0.11058634450E+03  0.25403313577E+03  0.46999998093E+01 0. -1.
       -5    1    3    3    0  502 -0.13908922721E+03  0.18148165570E+03  0.48071635751E+03  0.53234548073E+03  0.46999998093E+01 0.  1.
</event>
<event>
 5   0  0.1560728E-02  0.1013506E+04  0.7818609E-02  0.9293855E-01
       -1   -1    0    0    0  501  0.00000000000E+00  0.00000000000E+00  0.63472975868E+03  0.63472975870E+03  0.50400001928E-02 0. -1.
        1   -1    0    0  501    0  0.00000000000E+00  0.00000000000E+00 -0.40457914752E+03  0.40457914756E+03  0.50400001928E-02 0.  1.
    10030    2    1    2    0    0  0.00000000000E+00  0.00000000000E+00  0.23015061116E+03  0.10393089063E+04  0.10135056481E+04 0.  0.
        4    1    3    3  502    0  0.44538364295E+03  0.18406691249E+02  0.36223318332E+03  0.57438653160E+03  0.12699999809E+01 0. -1.
       -4    1    3    3    0  502 -0.44538364295E+03 -0.18406691249E+02 -0.13208257216E+03  0.46492237466E+03  0.12699999809E+01 0.  1.
</event>
<event>
 5   0  0.1537870E-02  0.9060345E+03  0.7818609E-02  0.9418069E-01
       -1   -1    0    0    0  501  0.00000000000E+00  0.00000000000E+00  0.80887089178E+03  0.80887089180E+03  0.50400001928E-02 0. -1.
        1   -1    0    0  501    0  0.00000000000E+00  0.00000000000E+00 -0.25371739052E+03  0.25371739057E+03  0.50400001928E-02 0.  1.
    10030    2    1    2    0    0  0.00000000000E+00  0.00000000000E+00  0.55515350126E+03  0.10625882824E+04  0.90603446285E+03 0.  0.
        5    1    3    3  502    0 -0.29768637752E+02 -0.41683739810E+03  0.48260694574E+03  0.63841298728E+03  0.46999998093E+01 0. -1.
       -5    1    3    3    0  502  0.29768637752E+02  0.41683739810E+03  0.72546555514E+02  0.42417529509E+03  0.46999998093E+01 0.  1.
</event>
<event>
 5   0  0.1459111E-02  0.8534228E+03  0.7818609E-02  0.9485755E-01
       -1   -1    0    0    0  501  0.00000000000E+00  0.00000000000E+00  0.55742580912E+03  0.55742580915E+03  0.50400001928E-02 0.  1.
        1   -1    0    0  501    0  0.00000000000E+00  0.00000000000E+00 -0.32664904466E+03  0.32664904470E+03  0.50400001928E-02 0. -1.
    10030    2    1    2    0    0  0.00000000000E+00  0.00000000000E+00  0.23077676446E+03  0.88407485385E+03  0.85342277459E+03 0.  0.
        2    1    3    3  502    0 -0.29266457997E+03  0.50854437253E+02  0.43273054878E+03  0.52487565957E+03  0.25500000920E-02 0.  1.
       -2    1    3    3    0  502  0.29266457997E+03 -0.50854437253E+02 -0.20195378433E+03  0.35919919427E+03  0.25500000920E-02 0. -1.
</event>
<event>
 5   0  0.1537870E-02  0.8988528E+03  0.7818609E-02  0.9427017E-01
       -1   -1    0    0    0  501  0.00000000000E+00  0.00000000000E+00  0.76710890145E+03  0.76710890147E+03  0.50400001928E-02 0. -1.
        1   -1    0    0  501    0  0.00000000000E+00  0.00000000000E+00 -0.26330563586E+03  0.26330563590E+03  0.50400001928E-02 0.  1.
    10030    2    1    2    0    0  0.00000000000E+00  0.00000000000E+00  0.50380326559E+03  0.10304145374E+04  0.89885281799E+03 0.  0.
        5    1    3    3  502    0 -0.32519202240E+03 -0.68200023433E+02 -0.94977718976E+02  0.34560664306E+03  0.46999998093E+01 0.  1.
       -5    1    3    3    0  502  0.32519202240E+03  0.68200023433E+02  0.59878098457E+03  0.68480789431E+03  0.46999998093E+01 0. -1.
</event>
<event>
 5   0  0.2628383E-02  0.9370709E+03  0.7818609E-02  0.9380392E-01
        2   -1    0    0  501    0  0.00000000000E+00  0.00000000000E+00  0.13456098188E+04  0.13456098188E+04  0.25500000920E-02 0. -1.
       -2   -1    0    0    0  501  0.00000000000E+00  0.00000000000E+00 -0.16314200394E+03  0.16314200396E+03  0.25500000920E-02 0.  1.
    10030    2    1    2    0    0  0.00000000000E+00  0.00000000000E+00  0.11824678149E+04  0.15087518228E+04  0.93707093090E+03 0.  0.
        2    1    3    3  502    0 -0.13430178387E+03 -0.35466931838E+03  0.14824986345E+03  0.40719198981E+03  0.25500000920E-02 0.  1.
       -2    1    3    3    0  502  0.13430178387E+03  0.35466931838E+03  0.10342179514E+04  0.11015598330E+04  0.25500000920E-02 0. -1.
</event>
<event>
 5   0  0.2705111E-02  0.8813017E+03  0.7818609E-02  0.9449262E-01
       -2   -1    0    0    0  501  0.00000000000E+00  0.00000000000E+00  0.56113768784E+03  0.56113768785E+03  0.25500000920E-02 0.  1.
        2   -1    0    0  501    0  0.00000000000E+00  0.00000000000E+00 -0.34603484434E+03  0.34603484435E+03  0.25500000920E-02 0. -1.
    10030    2    1    2    0    0  0.00000000000E+00  0.00000000000E+00  0.21510284351E+03  0.90717253220E+03  0.88130174735E+03 0.  0.
        4    1    3    3  502    0  0.31247994399E+03  0.28573910688E+03 -0.18017369228E+02  0.42381221206E+03  0.12699999809E+01 0. -1.
       -4    1    3    3    0  502 -0.31247994399E+03 -0.28573910688E+03  0.23312021273E+03  0.48336032014E+03  0.12699999809E+01 0.  1.
</event>
<event>
 5   0  0.2414128E-02  0.8829008E+03  0.7818609E-02  0.9447212E-01
        2   -1    0    0  501    0  0.00000000000E+00  0.00000000000E+00  0.42455266138E+03  0.42455266139E+03  0.25500000920E-02 0.  1.
       -2   -1    0    0    0  501  0.00000000000E+00  0.00000000000E+00 -0.45902067841E+03  0.45902067842E+03  0.25500000920E-02 0. -1.
    10030    2    1    2    0    0  0.00000000000E+00  0.00000000000E+00 -0.34468017027E+02  0.88357333981E+03  0.88290078866E+03 0.  0.
        3    1    3    3  502    0  0.36096555049E+03  0.24837499915E+03  0.36585871883E+02  0.43968716727E+03  0.10100000352E+00 0.  1.
       -3    1    3    3    0  502 -0.36096555049E+03 -0.24837499915E+03 -0.71053888910E+02  0.44388617254E+03  0.10100000352E+00 0. -1.
</event>
<event>
 5   0  0.1560728E-02  0.8930031E+03  0.7818609E-02  0.9434370E-01
        1   -1    0    0  501    0  0.00000000000E+00  0.00000000000E+00  0.14554620271E+04  0.14554620272E+04  0.50400001928E-02 0. -1.
       -1   -1    0    0    0  501  0.00000000000E+00  0.00000000000E+00 -0.13697618009E+03  0.13697618018E+03  0.50400001928E-02 0.  1.
    10030    2    1    2    0    0  0.00000000000E+00  0.00000000000E+00  0.13184858471E+04  0.15924382073E+04  0.89300308806E+03 0.  0.
        4    1    3    3  502    0 -0.44418636546E+02  0.21436521941E+03  0.13531878209E+04  0.13707823875E+04  0.12699999809E+01 0. -1.
       -4    1    3    3    0  502  0.44418636546E+02 -0.21436521941E+03 -0.34701973792E+02  0.22165581980E+03  0.12699999809E+01 0.  1.
</event>
<event>
 5   0  0.1497410E-02  0.8982138E+03  0.7818609E-02  0.9427817E-01
       -1   -1    0    0    0  501  0.00000000000E+00  0.00000000000E+00  0.30573090297E+03  0.30573090301E+03  0.50400001928E-02 0. -1.
        1   -1    0    0  501    0  0.00000000000E+00  0.00000000000E+00 -0.65972068539E+03  0.65972068541E+03  0.50400001928E-02 0.  1.
    10030    2    1    2    0    0  0.00000000000E+00  0.00000000000E+00 -0.35398978242E+03  0.96545158842E+03  0.89821378498E+03 0.  0.
        3    1    3    3  502    0 -0.23494431760E+03 -0.10065231122E+03 -0.57391752044E+03  0.62826033664E+03  0.10100000352E+00 0.  1.
       -3    1    3    3    0  502  0.23494431760E+03  0.10065231122E+03  0.21992773802E+03  0.33719125178E+03  0.10100000352E+00 0. -1.
</event>
<event>
 5   0  0.1537870E-02  0.8964366E+03  0.7818609E-02  0.9430047E-01
       -1   -1    0    0    0  501  0.00000000000E+00  0.00000000000E+00  0.35723714944E+03  0.35723714947E+03  0.50400001928E-02 0. -1.
        1   -1    0    0  501    0  0.00000000000E+00  0.00000000000E+00 -0.56237049291E+03  0.56237049293E+03  0.50400001928E-02 0.  1.
    10030    2    1    2    0    0  0.00000000000E+00  0.00000000000E+00 -0.20513334347E+03  0.91960764240E+03  0.89643657186E+03 0.  0.
        5    1    3    3  502    0  0.34831716483E+03  0.44216468152E+02 -0.38833042811E+03  0.52354804437E+03  0.46999998093E+01 0.  1.
       -5    1    3    3    0  502 -0.34831716483E+03 -0.44216468152E+02  0.18319708464E+03  0.39605959803E+03  0.46999998093E+01 0. -1.
</event>
<event>
 5   0  0.1537870E-02  0.8397864E+03  0.7818609E-02  0.9504149E-01
       -1   -1    0    0    0  501  0.00000000000E+00  0.00000000000E+00  0.15102334317E+03  0.15102334325E+03  0.50400001928E-02 0.  1.
        1   -1    0    0  501    0  0.00000000000E+00  0.00000000000E+00 -0.11674373621E+04  0.11674373621E+04  0.50400001928E-02 0. -1.
    10030    2    1    2    0    0  0.00000000000E+00  0.00000000000E+00 -0.10164140189E+04  0.13184607054E+04  0.83978638576E+03 0.  0.
        5    1    3    3  502    0  0.17019658515E+03  0.26114827969E+02  0.92999414022E+02  0.19575454744E+03  0.46999998093E+01 0.  1.
       -5    1    3    3    0  502 -0.17019658515E+03 -0.26114827969E+02 -0.11094134330E+04  0.11227061579E+04  0.46999998093E+01 0. -1.
</event>
<event>
 5   0  0.2628383E-02  0.8453031E+03  0.7818609E-02  0.9496663E-01
        2   -1    0    0  501    0  0.00000000000E+00  0.00000000000E+00  0.53549222187E+03  0.53549222187E+03  0.25500000920E-02 0.  1.
       -2   -1    0    0    0  501  0.00000000000E+00  0.00000000000E+00 -0.33358903330E+03  0.33358903331E+03  0.25500000920E-02 0. -1.
    10030    2    1    2    0    0  0.00000000000E+00  0.00000000000E+00  0.20190318857E+03  0.86908125518E+03  0.84530309981E+03 0.  0.
        2    1    3    3  502    0 -0.15862445989E+03  0.26839709696E+03  0.39434821187E+03  0.50270193271E+03  0.25500000920E-02 0.  1.
       -2    1    3    3    0  502  0.15862445989E+03 -0.26839709696E+03 -0.19244502330E+03  0.36637932247E+03  0.25500000920E-02 0. -1.
</event>
<event>
 5   0  0.2628383E-02  0.9660563E+03  0.7818609E-02  0.9346578E-01
        2   -1    0    0  501    0  0.00000000000E+00  0.00000000000E+00  0.68216343625E+03  0.68216343626E+03  0.25500000920E-02 0.  1.
       -2   -1    0    0    0  501  0.00000000000E+00  0.00000000000E+00 -0.34202389744E+03  0.34202389745E+03  0.25500000920E-02 0. -1.
    10030    2    1    2    0    0  0.00000000000E+00  0.00000000000E+00  0.34013953881E+03  0.10241873337E+04  0.96605630719E+03 0.  0.
        2    1    3    3  502    0 -0.24119398171E+03  0.75005683679E+02  0.60656757225E+03  0.65705753867E+03  0.25500000920E-02 0.  1.
       -2    1    3    3    0  502  0.24119398171E+03 -0.75005683679E+02 -0.26642803344E+03  0.36712979504E+03  0.25500000920E-02 0. -1.
</event>
<event>
 5   0  0.1559275E-02  0.9046626E+03  0.7818609E-02  0.9419772E-01
       -1   -1    0    0    0  501  0.00000000000E+00  0.00000000000E+00  0.12292405433E+03  0.12292405443E+03  0.50400001928E-02 0.  1.
        1   -1    0    0  501    0  0.00000000000E+00  0.00000000000E+00 -0.16644718351E+04  0.16644718351E+04  0.50400001928E-02 0. -1.
    10030    2    1    2    0    0  0.00000000000E+00  0.00000000000E+00 -0.15415477808E+04  0.17873958895E+04  0.90466264736E+03 0.  0.
        1    1    3    3  502    0 -0.76558073469E+02 -0.28668657749E+03 -0.96251497839E+02  0.31195301439E+03  0.50400001928E-02 0.  1.
       -1    1    3    3    0  502  0.76558073469E+02  0.28668657749E+03 -0.14452962829E+04  0.14754428751E+04  0.50400001928E-02 0. -1.
</event>
<event>
 5   0  0.1560728E-02  0.8894600E+03  0.7818609E-02  0.9438854E-01
       -1   -1    0    0    0  501  0.00000000000E+00  0.00000000000E+00  0.54247479513E+03  0.54247479515E+03  0.50400001928E-02 0. -1.
        1   -1    0    0  501    0  0.00000000000E+00  0.00000000000E+00 -0.36459712790E+03  0.36459712793E+03  0.50400001928E-02 0.  1.
    10030    2    1    2    0    0  0.00000000000E+00  0.00000000000E+00  0.17787766723E+03  0.90707192308E+03  0.88945995365E+03 0.  0.
        4    1    3    3  502    0 -0.32266043689E+03  0.26663065205E+03  0.24218566351E+03  0.48358781070E+03  0.12699999809E+01 0. -1.
       -4    1    3    3    0  502  0.32266043689E+03 -0.26663065205E+03 -0.64307996284E+02  0.42348411238E+03  0.12699999809E+01 0.  1.
</event>
<event>
 5   0  0.2679861E-02  0.9265699E+03  0.7818609E-02  0.9392964E-01
       -2   -1    0    0    0  501  0.00000000000E+00  0.00000000000E+00  0.32089287366E+03  0.32089287367E+03  0.25500000920E-02 0. -1.
        2   -1    0    0  501    0  0.00000000000E+00  0.00000000000E+00 -0.66886172657E+03  0.66886172657E+03  0.25500000920E-02 0.  1.
    10030    2    1    2    0    0  0.00000000000E+00  0.00000000000E+00 -0.34796885290E+03  0.98975460025E+03  0.92656993590E+03 0.  0.
        1    1    3    3  502    0 -0.34820260371E+02  0.73543239926E+02 -0.66116887611E+03  0.66615714470E+03  0.50400001928E-02 0.  1.
       -1    1    3    3    0  502  0.34820260371E+02 -0.73543239926E+02  0.31320002321E+03  0.32359745554E+03  0.50400001928E-02 0. -1.
</event>
<event>
 5   0  0.2803717E-02  0.8380591E+03  0.7818609E-02  0.9506505E-01
        2   -1    0    0  501    0  0.00000000000E+00  0.00000000000E+00  0.23392980842E+03  0.23392980844E+03  0.25500000920E-02 0. -1.
       -2   -1    0    0    0  501  0.00000000000E+00  0.00000000000E+00 -0.75059170543E+03  0.75059170543E+03  0.25500000920E-02 0.  1.
    10030    2    1    2    0    0  0.00000000000E+00  0.00000000000E+00 -0.51666189700E+03  0.98452151387E+03  0.83805912408E+03 0.  0.
        5    1    3    3  502    0  0.32417201223E+03  0.33165950692E+02 -0.56775626066E+03  0.65464244846E+03  0.46999998093E+01 0.  1.
       -5    1    3    3    0  502 -0.32417201223E+03 -0.33165950692E+02  0.51094363659E+02  0.32987906541E+03  0.46999998093E+01 0. -1.
</event>
<event>
 5   0  0.1459111E-02  0.8478186E+03  0.7818609E-02  0.9493269E-01
        1   -1    0    0  501    0  0.00000000000E+00  0.00000000000E+00  0.12513250643E+04  0.12513250643E+04  0.50400001928E-02 0.  1.
       -1   -1    0    0    0  501  0.00000000000E+00  0.00000000000E+00 -0.14360705373E+03  0.14360705382E+03  0.50400001928E-02 0. -1.
    10030    2    1    2    0    0  0.00000000000E+00  0.00000000000E+00  0.11077180106E+04  0.13949321182E+04  0.84781862640E+03 0.  0.
        2    1    3    3  502    0 -0.20958707778E+03  0.24914747319E+03  0.10005196357E+04  0.10521600391E+04  0.25500000920E-02 0.  1.
       -2    1    3    3    0  502  0.20958707778E+03 -0.24914747319E+03  0.10719837493E+03  0.34277207903E+03  0.25500000920E-02 0. -1.
</event>
<event>
 5   0  0.1459111E-02  0.9458257E+03  0.7818609E-02  0.9370043E-01
        1   -1    0    0  501    0  0.00000000000E+00  0.00000000000E+00  0.28048716994E+04  0.28048716994E+04  0.50400001928E-02 0. -1.
       -1   -1    0    0    0  501  0.00000000000E+00  0.00000000000E+00 -0.79735049151E+02  0.79735049310E+02  0.50400001928E-02 0.  1.
    10030    2    1    2    0    0  0.00000000000E+00  0.00000000000E+00  0.27251366503E+04  0.28846067488E+04  0.94582574093E+03 0.  0.
        2    1    3    3  502    0  0.41582461171E+02  0.32215939799E+03  0.24107994871E+04  0.24325850336E+04  0.25500000920E-02 0. -1.
       -2    1    3    3    0  502 -0.41582461171E+02 -0.32215939799E+03  0.31433716322E+03  0.45202171516E+03  0.25500000920E-02 0.  1.
</event>
<event>
 5   0  0.1497410E-02  0.6760326E+03  0.7818609E-02  0.9759121E-01
       -1   -1    0    0    0  501  0.00000000000E+00  0.00000000000E+00  0.81542563122E+02  0.81542563278E+02  0.50400001928E-02 0.  1.
        1   -1    0    0  501    0  0.00000000000E+00  0.00000000000E+00 -0.14011704878E+04  0.14011704878E+04  0.50400001928E-02 0. -1.
    10030    2    1    2    0    0  0.00000000000E+00  0.00000000000E+00 -0.13196279246E+04  0.14827130510E+04  0.67603264141E+03 0.  0.
        3    1    3    3  502    0 -0.23105027891E+02  0.16302734032E+03 -0.13072641527E+04  0.13175930066E+04  0.10100000352E+00 0. -1.
       -3    1    3    3    0  502  0.23105027891E+02 -0.16302734032E+03 -0.12363771925E+02  0.16512004440E+03  0.10100000352E+00 0.  1.
</event>
<event>
 5   0  0.2414128E-02  0.9017905E+03  0.7818609E-02  0.9423346E-01
        2   -1    0    0  501    0  0.00000000000E+00  0.00000000000E+00  0.41468623109E+03  0.41468623110E+03  0.25500000920E-02 0.  1.
       -2   -1    0    0    0  501  0.00000000000E+00  0.00000000000E+00 -0.49026591200E+03  0.49026591201E+03  0.25500000920E-02 0. -1.
    10030    2    1    2    0    0  0.00000000000E+00  0.00000000000E+00 -0.75579680911E+02  0.90495214310E+03  0.90179049293E+03 0.  0.
        3    1    3    3  502    0  0.11595850206E+03  0.68063342102E+02  0.39409973026E+03  0.41640557192E+03  0.10100000352E+00 0.  1.
       -3    1    3    3    0  502 -0.11595850206E+03 -0.68063342102E+02 -0.46967941117E+03  0.48854657118E+03  0.10100000352E+00 0. -1.
</event>
<event>
 5   0  0.1497410E-02  0.9291900E+03  0.7818609E-02  0.9389811E-01
        1   -1    0    0  501    0  0.00000000000E+00  0.00000000000E+00  0.12856370914E+04  0.12856370915E+04  0.50400001928E-02 0.  1.
       -1   -1    0    0    0  501  0.00000000000E+00  0.00000000000E+00 -0.16789226253E+03  0.16789226261E+03  0.50400001928E-02 0. -1.
    10030    2    1    2    0    0  0.00000000000E+00  0.00000000000E+00  0.11177448289E+04  0.14535293541E+04  0.92919001315E+03 0.  0.
        3    1    3    3  502    0 -0.38232157091E+03  0.22214792161E+03  0.78190975226E+03  0.89827743684E+03  0.10100000352E+00 0.  1.
       -3    1    3    3    0  502  0.38232157091E+03 -0.22214792161E+03  0.33583507666E+03  0.55525191722E+03  0.10100000352E+00 0. -1.
</event>
<event>
 5   0  0.1459111E-02  0.9138955E+03  0.7818609E-02  0.9408376E-01
       -1   -1    0    0    0  501  0.00000000000E+00  0.00000000000E+00  0.30815841009E+03  0.30815841013E+03  0.50400001928E-02 0.  1.
        1   -1    0    0  501    0  0.00000000000E+00  0.00000000000E+00 -0.67757765168E+03  0.67757765170E+03  0.50400001928E-02 0. -1.
    10030    2    1    2    0    0  0.00000000000E+00  0.00000000000E+00 -0.36941924160E+03  0.98573606183E+03  0.91389551237E+03 0.  0.
        2    1    3    3  502    0  0.26857783071E+03 -0.19412873120E+03  0.15463466262E+03  0.36569371654E+03  0.25500000920E-02 0.  1.
       -2    1    3    3    0  502 -0.26857783071E+03  0.19412873120E+03 -0.52405390421E+03  0.62004234529E+03  0.25500000920E-02 0. -1.
</event>
<event>
 5   0  0.2414128E-02  0.8856969E+03  0.7818609E-02  0.9443640E-01
        2   -1    0    0  501    0  0.00000000000E+00  0.00000000000E+00  0.12838647763E+04  0.12838647763E+04  0.25500000920E-02 0. -1.
       -2   -1    0    0    0  501  0.00000000000E+00  0.00000000000E+00 -0.15275342749E+03  0.15275342751E+03  0.25500000920E-02 0.  1.
    10030    2    1    2    0    0  0.00000000000E+00  0.00000000000E+00  0.11311113488E+04  0.14366182038E+04  0.88569688952E+03 0.  0.
        3    1    3    3  502    0 -0.58060748920E+02  0.43855766776E+03  0.59843335895E+03  0.74419511811E+03  0.10100000352E+00 0.  1.
       -3    1    3    3    0  502  0.58060748920E+02 -0.43855766776E+03  0.53267798983E+03  0.69242308567E+03  0.10100000352E+00 0. -1.
</event>
<event>
 5   0  0.2803717E-02  0.9037416E+03  0.7818609E-02  0.9420916E-01
       -2   -1    0    0    0  501  0.00000000000E+00  0.00000000000E+00  0.13122051414E+03  0.13122051416E+03  0.25500000920E-02 0. -1.
        2   -1    0    0  501    0  0.00000000000E+00  0.00000000000E+00 -0.15560618767E+04  0.15560618767E+04  0.25500000920E-02 0.  1.
    10030    2    1    2    0    0  0.00000000000E+00  0.00000000000E+00 -0.14248413626E+04  0.16872823909E+04  0.90374164343E+03 0.  0.
        5    1    3    3  502    0 -0.37268128243E+03  0.13678734363E+03 -0.11152899260E+04  0.11838478891E+04  0.46999998093E+01 0.  1.
       -5    1    3    3    0  502  0.37268128243E+03 -0.13678734363E+03 -0.30955143663E+03  0.50343450176E+03  0.46999998093E+01 0. -1.
</event>
<event>
 5   0  0.2803717E-02  0.9062094E+03  0.7818609E-02  0.9417852E-01
       -2   -1    0    0    0  501  0.00000000000E+00  0.00000000000E+00  0.19011209538E+03  0.19011209539E+03  0.25500000920E-02 0. -1.
        2   -1    0    0  501    0  0.00000000000E+00  0.00000000000E+00 -0.10799095683E+04  0.10799095683E+04  0.25500000920E-02 0.  1.
    10030    2    1    2    0    0  0.00000000000E+00  0.00000000000E+00 -0.88979747295E+03  0.12700216637E+04  0.90620940375E+03 0.  0.
        5    1    3    3  502    0 -0.15410355398E+03  0.40138793680E+03 -0.24462341196E+03  0.49469473904E+03  0.46999998093E+01 0. -1.
       -5    1    3    3    0  502  0.15410355398E+03 -0.40138793680E+03 -0.64517406098E+03  0.77532692467E+03  0.46999998093E+01 0.  1.
</event>
<event>
 5   0  0.2803717E-02  0.8645822E+03  0.7818609E-02  0.9470972E-01
       -2   -1    0    0    0  501  0.00000000000E+00  0.00000000000E+00  0.13181548748E+03  0.13181548751E+03  0.25500000920E-02 0. -1.
        2   -1    0    0  501    0  0.00000000000E+00  0.00000000000E+00 -0.14177058699E+04  0.14177058699E+04  0.25500000920E-02 0.  1.
    10030    2    1    2    0    0  0.00000000000E+00  0.00000000000E+00 -0.12858903824E+04  0.15495213574E+04  0.86458218896E+03 0.  0.
        5    1    3    3  502    0  0.53369206514E+01 -0.32678307938E+03 -0.13590900764E+03  0.35399012987E+03  0.46999998093E+01 0. -1.
       -5    1    3    3    0  502 -0.53369206514E+01  0.32678307938E+03 -0.11499813748E+04  0.11955312275E+04  0.46999998093E+01 0.  1.
</event>
<event>
 5   0  0.2628383E-02  0.9089491E+03  0.7818609E-02  0.9414463E-01
       -2   -1    0    0    0  501  0.00000000000E+00  0.00000000000E+00  0.56780446420E+03  0.56780446421E+03  0.25500000920E-02 0.  1.
        2   -1    0    0  501    0  0.00000000000E+00  0.00000000000E+00 -0.36376455379E+03  0.36376455380E+03  0.25500000920E-02 0. -1.
    10030    2    1    2    0    0  0.00000000000E+00  0.00000000000E+00  0.20403991041E+03  0.93156901801E+03  0.90894914614E+03 0.  0.
        2    1    3    3  502    0 -0.12527470407E+03 -0.21043096368E+03 -0.29035497110E+03  0.37984332455E+03  0.25500000920E-02 0. -1.
       -2    1    3    3    0  502  0.12527470407E+03  0.21043096368E+03  0.49439488151E+03  0.55172569346E+03  0.25500000920E-02 0.  1.
</event>
<event>
 5   0  0.2705111E-02  0.7650795E+03  0.7818609E-02  0.9611986E-01
        2   -1    0    0  501    0  0.00000000000E+00  0.00000000000E+00  0.98846483462E+03  0.98846483462E+03  0.25500000920E-02 0.  1.
       -2   -1    0    0    0  501  0.00000000000E+00  0.00000000000E+00 -0.14804438965E+03  0.14804438967E+03  0.25500000920E-02 0. -1.
    10030    2    1    2    0    0  0.00000000000E+00  0.00000000000E+00  0.84042044497E+03  0.11365092243E+04  0.76507953350E+03 0.  0.
        4    1    3    3  502    0  0.11732980777E+03 -0.13818835220E+02  0.96068320223E+03  0.96792100501E+03  0.12699999809E+01 0.  1.
       -4    1    3    3    0  502 -0.11732980777E+03  0.13818835220E+02 -0.12026275726E+03  0.16858821928E+03  0.12699999809E+01 0. -1.
</event>
<event>
 5   0  0.2414128E-02  0.9374412E+03  0.7818609E-02  0.9379952E-01
       -2   -1    0    0    0  501  0.00000000000E+00  0.00000000000E+00  0.14011430809E+03  0.14011430811E+03  0.25500000920E-02 0.  1.
        2   -1    0    0  501    0  0.00000000000E+00  0.00000000000E+00 -0.15679983770E+04  0.15679983770E+04  0.25500000920E-02 0. -1.
    10030    2    1    2    0    0  0.00000000000E+00  0.00000000000E+00 -0.14278840690E+04  0.17081126852E+04  0.93744121460E+03 0.  0.
        3    1    3    3  502    0  0.36043801812E+03  0.29817191019E+03 -0.76790037037E+03  0.89916241133E+03  0.10100000352E+00 0.  1.
       -3    1    3    3    0  502 -0.36043801812E+03 -0.29817191019E+03 -0.65998369859E+03  0.80895027384E+03  0.10100000352E+00 0. -1.
</event>
<event>
 5   0  0.2803717E-02  0.9081136E+03  0.7818609E-02  0.9415496E-01
        2   -1    0    0  501    0  0.00000000000E+00  0.00000000000E+00  0.10166274736E+04  0.10166274736E+04  0.25500000920E-02 0. -1.
       -2   -1    0    0    0  501  0.00000000000E+00  0.00000000000E+00 -0.20279558381E+03  0.20279558383E+03  0.25500000920E-02 0.  1.
    10030    2    1    2    0    0  0.00000000000E+00  0.00000000000E+00  0.81383188981E+03  0.12194230575E+04  0.90811356569E+03 0.  0.
        5    1    3    3  502    0  0.52767525292E+02  0.45087477947E+03  0.41838840412E+03  0.61736814397E+03  0.46999998093E+01 0. -1.
       -5    1    3    3    0  502 -0.52767525292E+02 -0.45087477947E+03  0.39544348569E+03  0.60205491349E+03  0.46999998093E+01 0.  1.
</event>
<event>
 5   0  0.2679861E-02  0.8447848E+03  0.7818609E-02  0.9497363E-01
        2   -1    0    0  501    0  0.00000000000E+00  0.00000000000E+00  0.84736813085E+03  0.84736813086E+03  0.25500000920E-02 0.  1.
       -2   -1    0    0    0  501  0.00000000000E+00  0.00000000000E+00 -0.21055232431E+03  0.21055232432E+03  0.25500000920E-02 0. -1.
    10030    2    1    2    0    0  0.00000000000E+00  0.00000000000E+00  0.63681580654E+03  0.10579204552E+04  0.84478477616E+03 0.  0.
        1    1    3    3  502    0  0.35945320729E+01  0.23300461510E+03 -0.12276875288E+03  0.26339369398E+03  0.50400001928E-02 0. -1.
       -1    1    3    3    0  502 -0.35945320729E+01 -0.23300461510E+03  0.75958455942E+03  0.79452676120E+03  0.50400001928E-02 0.  1.
</event>
<event>
 5   0  0.1537870E-02  0.8922125E+03  0.7818609E-02  0.9435369E-01
       -1   -1    0    0    0  501  0.00000000000E+00  0.00000000000E+00  0.33024957722E+03  0.33024957726E+03  0.50400001928E-02 0. -1.
        1   -1    0    0  501    0  0.00000000000E+00  0.00000000000E+00 -0.60260724023E+03  0.60260724025E+03  0.50400001928E-02 0.  1.
    10030    2    1    2    0    0  0.00000000000E+00  0.00000000000E+00 -0.27235766301E+03  0.93285681751E+03  0.89221250012E+03 0.  0.
        5    1    3    3  502    0 -0.15769793804E+03 -0.40530154152E+03 -0.23995093266E+03  0.49672579891E+03  0.46999998093E+01 0.  1.
       -5    1    3    3    0  502  0.15769793804E+03  0.40530154152E+03 -0.32406730348E+02  0.43613101860E+03  0.46999998093E+01 0. -1.
</event>
<event>
 5   0  0.2679861E-02  0.9116276E+03  0.7818609E-02  0.9411162E-01
       -2   -1    0    0    0  501  0.00000000000E+00  0.00000000000E+00  0.95154189064E+02  0.95154189098E+02  0.25500000920E-02 0.  1.
        2   -1    0    0  501    0  0.00000000000E+00  0.00000000000E+00 -0.21834688641E+04  0.21834688641E+04  0.25500000920E-02 0. -1.
    10030    2    1    2    0    0  0.00000000000E+00  0.00000000000E+00 -0.20883146751E+04  0.22786230532E+04  0.91162757561E+03 0.  0.
        1    1    3    3  502    0 -0.24432218119E+03  0.16160506394E+03 -0.19170439594E+04  0.19392955079E+04  0.50400001928E-02 0. -1.
       -1    1    3    3    0  502  0.24432218119E+03 -0.16160506394E+03 -0.17127071569E+03  0.33932754529E+03  0.50400001928E-02 0.  1.
</event>
<event>
 5   0  0.1459111E-02  0.8703920E+03  0.7818609E-02  0.9463369E-01
        1   -1    0    0  501    0  0.00000000000E+00  0.00000000000E+00  0.37873460553E+03  0.37873460556E+03  0.50400001928E-02 0. -1.
       -1   -1    0    0    0  501  0.00000000000E+00  0.00000000000E+00 -0.50007455381E+03  0.50007455384E+03  0.50400001928E-02 0.  1.
    10030    2    1    2    0    0  0.00000000000E+00  0.00000000000E+00 -0.12133994828E+03  0.87880915940E+03  0.87039195515E+03 0.  0.
        2    1    3    3  502    0 -0.72289004578E+02  0.32123179483E+02 -0.49275465478E+03  0.49906387232E+03  0.25500000920E-02 0.  1.
       -2    1    3    3    0  502  0.72289004578E+02 -0.32123179483E+02  0.37141470650E+03  0.37974528707E+03  0.25500000920E-02 0. -1.
</event>
<event>
 5   0  0.2414128E-02  0.9063699E+03  0.7818609E-02  0.9417654E-01
       -2   -1    0    0    0  501  0.00000000000E+00  0.00000000000E+00  0.41672095156E+03  0.41672095157E+03  0.25500000920E-02 0.  1.
        2   -1    0    0  501    0  0.00000000000E+00  0.00000000000E+00 -0.49283964183E+03  0.49283964184E+03  0.25500000920E-02 0. -1.
    10030    2    1    2    0    0  0.00000000000E+00  0.00000000000E+00 -0.76118690268E+02  0.90956059341E+03  0.90636991238E+03 0.  0.
        3    1    3    3  502    0  0.40152340145E+02  0.36546110740E+03  0.22783104395E+03  0.43252864209E+03  0.10100000352E+00 0.  1.
       -3    1    3    3    0  502 -0.40152340145E+02 -0.36546110740E+03 -0.30394973422E+03  0.47703195131E+03  0.10100000352E+00 0. -1.
</event>
<event>
 5   0  0.1560728E-02  0.8438087E+03  0.7818609E-02  0.9498685E-01
       -1   -1    0    0    0  501  0.00000000000E+00  0.00000000000E+00  0.18844747002E+03  0.18844747009E+03  0.50400001928E-02 0.  1.
        1   -1    0    0  501    0  0.00000000000E+00  0.00000000000E+00 -0.94457776336E+03  0.94457776337E+03  0.50400001928E-02 0. -1.
    10030    2    1    2    0    0  0.00000000000E+00  0.00000000000E+00 -0.75613029334E+03  0.11330252335E+04  0.84380872190E+03 0.  0.
        4    1    3    3  502    0 -0.36037624269E+03  0.39222640029E+02 -0.88229166448E+02  0.37308906510E+03  0.12699999809E+01 0.  1.
       -4    1    3    3    0  502  0.36037624269E+03 -0.39222640029E+02 -0.66790112689E+03  0.75993616836E+03  0.12699999809E+01 0. -1.
</event>
<event>
 5   0  0.1559275E-02  0.8651085E+03  0.7818609E-02  0.9470280E-01
        1   -1    0    0  501    0  0.00000000000E+00  0.00000000000E+00  0.28921576697E+03  0.28921576701E+03  0.50400001928E-02 0. -1.
       -1   -1    0    0    0  501  0.00000000000E+00  0.00000000000E+00 -0.64693285506E+03  0.64693285508E+03  0.50400001928E-02 0.  1.
    10030    2    1    2    0    0  0.00000000000E+00  0.00000000000E+00 -0.35771708809E+03  0.93614862209E+03  0.86510850622E+03 0.  0.
        1    1    3    3  502    0 -0.20271040982E+03  0.34478433859E+03 -0.35711389924E+03  0.53618848127E+03  0.50400001928E-02 0.  1.
       -1    1    3    3    0  502  0.20271040982E+03 -0.34478433859E+03 -0.60318885258E+00  0.39996014082E+03  0.50400001928E-02 0. -1.
</event>
<event>
 5   0  0.1537870E-02  0.9254201E+03  0.7818609E-02  0.9394351E-01
        1   -1    0    0  501    0  0.00000000000E+00  0.00000000000E+00  0.44538401081E+03  0.44538401084E+03  0.50400001928E-02 0.  1.
       -1   -1    0    0    0  501  0.00000000000E+00  0.00000000000E+00 -0.48071011510E+03  0.48071011513E+03  0.50400001928E-02 0. -1.
    10030    2    1    2    0    0  0.00000000000E+00  0.00000000000E+00 -0.35326104290E+02  0.92609412596E+03  0.92542011892E+03 0.  0.
        5    1    3    3  502    0  0.51680370145E+02  0.33843439937E+03  0.29380277691E+03  0.45116611692E+03  0.46999998093E+01 0.  1.
       -5    1    3    3    0  502 -0.51680370145E+02 -0.33843439937E+03 -0.32912888120E+03  0.47492800905E+03  0.46999998093E+01 0. -1.
</event>
<event>
 5   0  0.2705111E-02  0.8250597E+03  0.7818609E-02  0.9524436E-01
       -2   -1    0    0    0  501  0.00000000000E+00  0.00000000000E+00  0.12503828076E+03  0.12503828078E+03  0.25500000920E-02 0.  1.
        2   -1    0    0  501    0  0.00000000000E+00  0.00000000000E+00 -0.13610301677E+04  0.13610301677E+04  0.25500000920E-02 0. -1.
    10030    2    1    2    0    0  0.00000000000E+00  0.00000000000E+00 -0.12359918869E+04  0.14860684484E+04  0.82505968813E+03 0.  0.
        4    1    3    3  502    0 -0.10439634888E+02  0.35770786765E+03 -0.98763144567E+03  0.10504672246E+04  0.12699999809E+01 0. -1.
       -4    1    3    3    0  502  0.10439634888E+02 -0.35770786765E+03 -0.24836044123E+03  0.43560122386E+03  0.12699999809E+01 0.  1.
</event>
<event>
 5   0  0.1459111E-02  0.9110176E+03  0.7818609E-02  0.9411913E-01
       -1   -1    0    0    0  501  0.00000000000E+00  0.00000000000E+00  0.35009451997E+03  0.35009452001E+03  0.50400001928E-02 0. -1.
        1   -1    0    0  501    0  0.00000000000E+00  0.00000000000E+00 -0.59266351379E+03  0.59266351382E+03  0.50400001928E-02 0.  1.
    10030    2    1    2    0    0  0.00000000000E+00  0.00000000000E+00 -0.24256899382E+03  0.94275803383E+03  0.91101755942E+03 0.  0.
        2    1    3    3  502    0 -0.44016882022E+02 -0.10656496536E+03 -0.57731316755E+03  0.58871391285E+03  0.25500000920E-02 0.  1.
       -2    1    3    3    0  502  0.44016882022E+02  0.10656496536E+03  0.33474417373E+03  0.35404412098E+03  0.25500000920E-02 0. -1.
</event>
<event>
 5   0  0.2628383E-02  0.9036312E+03  0.7818609E-02  0.9421054E-01
        2   -1    0    0  501    0  0.00000000000E+00  0.00000000000E+00  0.14239229614E+04  0.14239229615E+04  0.25500000920E-02 0.  1.
       -2   -1    0    0    0  501  0.00000000000E+00  0.00000000000E+00 -0.14336262174E+03  0.14336262176E+03  0.25500000920E-02 0. -1.
    10030    2    1    2    0    0  0.00000000000E+00  0.00000000000E+00  0.12805603397E+04  0.15672855832E+04  0.90363118346E+03 0.  0.
        2    1    3    3  502    0 -0.59098040711E+02 -0.17167679065E+03 -0.77304374426E+02  0.19733591963E+03  0.25500000920E-02 0. -1.
       -2    1    3    3    0  502  0.59098040711E+02  0.17167679065E+03  0.13578647141E+04  0.13699496636E+04  0.25500000920E-02 0.  1.
</event>
<event>
 5   0  0.1040163E-02  0.9222353E+03  0.7818609E-02  0.9398205E-01
        3   -1    0    0  501    0  0.00000000000E+00  0.00000000000E+00  0.90497768661E+03  0.90497769225E+03  0.10100000352E+00 0.  1.
       -3   -1    0    0    0  501  0.00000000000E+00  0.00000000000E+00 -0.23495546759E+03  0.23495548930E+03  0.10100000352E+00 0. -1.
    10030    2    1    2    0    0  0.00000000000E+00  0.00000000000E+00  0.67002221902E+03  0.11399331815E+04  0.92223526521E+03 0.  0.
        1    1    3    3  502    0  0.21571566211E+03  0.40475795869E+03  0.27615596728E+03  0.53537311315E+03  0.50400001928E-02 0.  1.
       -1    1    3    3    0  502 -0.21571566211E+03 -0.40475795869E+03  0.39386625174E+03  0.60456006839E+03  0.50400001928E-02 0. -1.
</event>
<event>
 5   0  0.2679861E-02  0.8868726E+03  0.7818609E-02  0.9442142E-01
       -2   -1    0    0    0  501  0.00000000000E+00  0.00000000000E+00  0.18999182864E+03  0.18999182866E+03  0.25500000920E-02 0. -1.
        2   -1    0    0  501    0  0.00000000000E+00  0.00000000000E+00 -0.10349694955E+04  0.10349694955E+04  0.25500000920E-02 0.  1.
    10030    2    1    2    0    0  0.00000000000E+00  0.00000000000E+00 -0.84497766686E+03  0.12249613242E+04  0.88687258847E+03 0.  0.
        1    1    3    3  502    0 -0.25146979201E+03 -0.34691547585E+03 -0.58026406742E+03  0.72131393418E+03  0.50400001928E-02 0. -1.
       -1    1    3    3    0  502  0.25146979201E+03  0.34691547585E+03 -0.26471359944E+03  0.50364738998E+03  0.50400001928E-02 0.  1.
</event>
<event>
 5   0  0.2803717E-02  0.9166382E+03  0.7818609E-02  0.9405019E-01
       -2   -1    0    0    0  501  0.00000000000E+00  0.00000000000E+00  0.20443748831E+03  0.20443748832E+03  0.25500000920E-02 0.  1.
        2   -1    0    0  501    0  0.00000000000E+00  0.00000000000E+00 -0.10274847274E+04  0.10274847274E+04  0.25500000920E-02 0. -1.
    10030    2    1    2    0    0  0.00000000000E+00  0.00000000000E+00 -0.82304723907E+03  0.12319222157E+04  0.91663819896E+03 0.  0.
        5    1    3    3  502    0  0.99221880252E+02 -0.13770968466E+03  0.16060652537E+03  0.23372095490E+03  0.46999998093E+01 0.  1.
       -5    1    3    3    0  502 -0.99221880252E+02  0.13770968466E+03 -0.98365376444E+03  0.99820126080E+03  0.46999998093E+01 0. -1.
</event>
<event>
 5   0  0.1459111E-02  0.1020522E+04  0.7818609E-02  0.9286319E-01
       -1   -1    0    0    0  501  0.00000000000E+00  0.00000000000E+00  0.28863658642E+03  0.28863658646E+03  0.50400001928E-02 0. -1.
        1   -1    0    0  501    0  0.00000000000E+00  0.00000000000E+00 -0.90205590218E+03  0.90205590219E+03  0.50400001928E-02 0.  1.
    10030    2    1    2    0    0  0.00000000000E+00  0.00000000000E+00 -0.61341931575E+03  0.11906924887E+04  0.10205220946E+04 0.  0.
        2    1    3    3  502    0 -0.27199390519E+03 -0.32338859647E+03  0.26999686615E+02  0.42342632402E+03  0.25500000920E-02 0. -1.
       -2    1    3    3    0  502  0.27199390519E+03  0.32338859647E+03 -0.64041900237E+03  0.76726616463E+03  0.25500000920E-02 0.  1.
</event>
<event>
 5   0  0.1560728E-02  0.8923900E+03  0.7818609E-02  0.9435145E-01
       -1   -1    0    0    0  501  0.00000000000E+00  0.00000000000E+00  0.38567657518E+03  0.38567657521E+03  0.50400001928E-02 0.  1.
        1   -1    0    0  501    0  0.00000000000E+00  0.00000000000E+00 -0.51620971879E+03  0.51620971882E+03  0.50400001928E-02 0. -1.
    10030    2    1    2    0    0  0.00000000000E+00  0.00000000000E+00 -0.13053314361E+03  0.90188629403E+03  0.89239004128E+03 0.  0.
        4    1    3    3  502    0 -0.57191772956E+02 -0.19168664224E+03 -0.46835124496E+03  0.50928299526E+03  0.12699999809E+01 0. -1.
       -4    1    3    3    0  502  0.57191772956E+02  0.19168664224E+03  0.33781810135E+03  0.39260329877E+03  0.12699999809E+01 0.  1.
</event>
<event>
 5   0  0.2705111E-02  0.9010013E+03  0.7818609E-02  0.9424331E-01
        2   -1    0    0  501    0  0.00000000000E+00  0.00000000000E+00  0.54261328646E+03  0.54261328647E+03  0.25500000920E-02 0.  1.
       -2   -1    0    0    0  501  0.00000000000E+00  0.00000000000E+00 -0.37402485050E+03  0.37402485051E+03  0.25500000920E-02 0. -1.
    10030    2    1    2    0    0  0.00000000000E+00  0.00000000000E+00  0.16858843596E+03  0.91663813698E+03  0.90100133931E+03 0.  0.
        4    1    3    3  502    0  0.23683562385E+03 -0.15724339781E+03 -0.27124569429E+03  0.39292803215E+03  0.12699999809E+01 0. -1.
       -4    1    3    3    0  502 -0.23683562385E+03  0.15724339781E+03  0.43983413025E+03  0.52371010484E+03  0.12699999809E+01 0.  1.
</event>
<event>
 5   0  0.2414128E-02  0.8908023E+03  0.7818609E-02  0.9437153E-01
       -2   -1    0    0    0  501  0.00000000000E+00  0.00000000000E+00  0.19341994174E+03  0.19341994176E+03  0.25500000920E-02 0. -1.
        2   -1    0    0  501    0  0.00000000000E+00  0.00000000000E+00 -0.10256551784E+04  0.10256551784E+04  0.25500000920E-02 0.  1.
    10030    2    1    2    0    0  0.00000000000E+00  0.00000000000E+00 -0.83223523662E+03  0.12190751201E+04  0.89080225609E+03 0.  0.
        3    1    3    3  502    0  0.29602471489E+03  0.33199826835E+03 -0.44758369382E+03  0.63101874393E+03  0.10100000352E+00 0.  1.
       -3    1    3    3    0  502 -0.29602471489E+03 -0.33199826835E+03 -0.38465154280E+03  0.58805637620E+03  0.10100000352E+00 0. -1.
</event>
<event>
 5   0  0.1559275E-02  0.8853622E+03  0.7818609E-02  0.9444067E-01
        1   -1    0    0  501    0  0.00000000000E+00  0.00000000000E+00  0.21028171923E+03  0.21028171929E+03  0.50400001928E-02 0.  1.
       -1   -1    0    0    0  501  0.00000000000E+00  0.00000000000E+00 -0.93192382276E+03  0.93192382277E+03  0.50400001928E-02 0. -1.
    10030    2    1    2    0    0  0.00000000000E+00  0.00000000000E+00 -0.72164210352E+03  0.11422055421E+04  0.88536217151E+03 0.  0.
        1    1    3    3  502    0 -0.27646945216E+03 -0.18568817809E+03  0.15417447260E+02  0.33339639345E+03  0.50400001928E-02 0.  1.
       -1    1    3    3    0  502  0.27646945216E+03  0.18568817809E+03 -0.73705955078E+03  0.80880914862E+03  0.50400001928E-02 0. -1.
</event>
<event>
 5   0  0.1559275E-02  0.9074147E+03  0.7818609E-02  0.9416360E-01
       -1   -1    0    0    0  501  0.00000000000E+00  0.00000000000E+00  0.45386862320E+03  0.45386862322E+03  0.50400001928E-02 0.  1.
        1   -1    0    0  501    0  0.00000000000E+00  0.00000000000E+00 -0.45354616395E+03  0.45354616398E+03  0.50400001928E-02 0. -1.
    10030    2    1    2    0    0  0.00000000000E+00  0.00000000000E+00  0.32245924794E+00  0.90741478720E+03  0.90741472991E+03 0.  0.
        1    1    3    3  502    0  0.10692062525E+03  0.13654950846E+03  0.41941366768E+03  0.45385637930E+03  0.50400001928E-02 0.  1.
       -1    1    3    3    0  502 -0.10692062525E+03 -0.13654950846E+03 -0.41909120843E+03  0.45355840790E+03  0.50400001928E-02 0. -1.
</event>
<event>
 5   0  0.1459111E-02  0.9036386E+03  0.7818609E-02  0.9421044E-01
        1   -1    0    0  501    0  0.00000000000E+00  0.00000000000E+00  0.66367610431E+03  0.66367610432E+03  0.50400001928E-02 0.  1.
       -1   -1    0    0    0  501  0.00000000000E+00  0.00000000000E+00 -0.30759084066E+03  0.30759084070E+03  0.50400001928E-02 0. -1.
    10030    2    1    2    0    0  0.00000000000E+00  0.00000000000E+00  0.35608526364E+03  0.97126694503E+03  0.90363862441E+03 0.  0.
        2    1    3    3  502    0 -0.44736957020E+03 -0.45685802353E+02  0.13101956693E+03  0.46839390666E+03  0.25500000920E-02 0. -1.
       -2    1    3    3    0  502  0.44736957020E+03  0.45685802353E+02  0.22506569671E+03  0.50287303837E+03  0.25500000920E-02 0.  1.
</event>
<event>
 5   0  0.1459111E-02  0.8945690E+03  0.7818609E-02  0.9432396E-01
        1   -1    0    0  501    0  0.00000000000E+00  0.00000000000E+00  0.90179298352E+03  0.90179298353E+03  0.50400001928E-02 0. -1.
       -1   -1    0    0    0  501  0.00000000000E+00  0.00000000000E+00 -0.22185072673E+03  0.22185072678E+03  0.50400001928E-02 0.  1.
    10030    2    1    2    0    0  0.00000000000E+00  0.00000000000E+00  0.67994225679E+03  0.11236437103E+04  0.89456901084E+03 0.  0.
        2    1    3    3  502    0 -0.11557431157E+03 -0.38957688504E+03  0.57474538930E+03  0.70388907747E+03  0.25500000920E-02 0. -1.
       -2    1    3    3    0  502  0.11557431157E+03  0.38957688504E+03  0.10519686749E+03  0.41975463284E+03  0.25500000920E-02 0.  1.
</event>
<event>
 5   0  0.2803717E-02  0.9009491E+03  0.7818609E-02  0.9424396E-01
       -2   -1    0    0    0  501  0.00000000000E+00  0.00000000000E+00  0.31782327171E+03  0.31782327172E+03  0.25500000920E-02 0.  1.
        2   -1    0    0  501    0  0.00000000000E+00  0.00000000000E+00 -0.63849104317E+03  0.63849104318E+03  0.25500000920E-02 0. -1.
    10030    2    1    2    0    0  0.00000000000E+00  0.00000000000E+00 -0.32066777147E+03  0.95631431489E+03  0.90094908247E+03 0.  0.
        5    1    3    3  502    0  0.16977424254E+03  0.17427499132E+03 -0.56272106989E+03  0.61308413658E+03  0.46999998093E+01 0. -1.
       -5    1    3    3    0  502 -0.16977424254E+03 -0.17427499132E+03  0.24205329842E+03  0.34323017831E+03  0.46999998093E+01 0.  1.
</event>
<event>
 5   0  0.1537870E-02  0.8837647E+03  0.7818609E-02  0.9446107E-01
       -1   -1    0    0    0  501  0.00000000000E+00  0.00000000000E+00  0.17530957616E+03  0.17530957623E+03  0.50400001928E-02 0.  1.
        1   -1    0    0  501    0  0.00000000000E+00  0.00000000000E+00 -0.11138012543E+04  0.11138012543E+04  0.50400001928E-02 0. -1.
    10030    2    1    2    0    0  0.00000000000E+00  0.00000000000E+00 -0.93849167814E+03  0.12891108305E+04  0.88376473311E+03 0.  0.
        5    1    3    3  502    0 -0.98867827415E+02 -0.17811060670E+03  0.10268907012E+03  0.22817837461E+03  0.46999998093E+01 0.  1.
       -5    1    3    3    0  502  0.98867827415E+02  0.17811060670E+03 -0.10411807483E+04  0.10609324559E+04  0.46999998093E+01 0. -1.
</event>
<event>
 5   0  0.1497410E-02  0.8746774E+03  0.7818609E-02  0.9457801E-01
       -1   -1    0    0    0  501  0.00000000000E+00  0.00000000000E+00  0.37125352435E+03  0.37125352438E+03  0.50400001928E-02 0. -1.
        1   -1    0    0  501    0  0.00000000000E+00  0.00000000000E+00 -0.51518745666E+03  0.51518745669E+03  0.50400001928E-02 0.  1.
    10030    2    1    2    0    0  0.00000000000E+00  0.00000000000E+00 -0.14393393231E+03  0.88644098107E+03  0.87467744686E+03 0.  0.
        3    1    3    3  502    0 -0.51914461489E+02  0.26010306051E+03  0.28044006520E+03  0.38599916291E+03  0.10100000352E+00 0. -1.
       -3    1    3    3    0  502  0.51914461489E+02 -0.26010306051E+03 -0.42437399751E+03  0.50044181816E+03  0.10100000352E+00 0.  1.
</event>
<event>
 5   0  0.1497410E-02  0.8915815E+03  0.7818609E-02  0.9436167E-01
        1   -1    0    0  501    0  0.00000000000E+00  0.00000000000E+00  0.55265319791E+03  0.55265319793E+03  0.50400001928E-02 0.  1.
       -1   -1    0    0    0  501  0.00000000000E+00  0.00000000000E+00 -0.35959150387E+03  0.35959150390E+03  0.50400001928E-02 0. -1.
    10030    2    1    2    0    0  0.00000000000E+00  0.00000000000E+00  0.19306169404E+03  0.91224470183E+03  0.89158150402E+03 0.  0.
        3    1    3    3  502    0 -0.23742520957E+03 -0.16735964328E+03 -0.24946210493E+03  0.38289859276E+03  0.10100000352E+00 0. -1.
       -3    1    3    3    0  502  0.23742520957E+03  0.16735964328E+03  0.44252379896E+03  0.52934610907E+03  0.10100000352E+00 0.  1.
</event>
<event>
 5   0  0.1560728E-02  0.1131699E+04  0.7818609E-02  0.9174835E-01
       -1   -1    0    0    0  501  0.00000000000E+00  0.00000000000E+00  0.70453988812E+03  0.70453988814E+03  0.50400001928E-02 0. -1.
        1   -1    0    0  501    0  0.00000000000E+00  0.00000000000E+00 -0.45446095891E+03  0.45446095894E+03  0.50400001928E-02 0.  1.
    10030    2    1    2    0    0  0.00000000000E+00  0.00000000000E+00  0.25007892921E+03  0.11590008471E+04  0.11316993826E+04 0.  0.
        4    1    3    3  502    0 -0.37539076567E+03  0.13428812531E+03 -0.28618532004E+03  0.49076998467E+03  0.12699999809E+01 0.  1.
       -4    1    3    3    0  502  0.37539076567E+03 -0.13428812531E+03  0.53626424924E+03  0.66823086240E+03  0.12699999809E+01 0. -1.
</event>
<event>
 5   0  0.2628383E-02  0.9020738E+03  0.7818609E-02  0.9422993E-01
        2   -1    0    0  501    0  0.00000000000E+00  0.00000000000E+00  0.64301610991E+03  0.64301610991E+03  0.25500000920E-02 0.  1.
       -2   -1    0    0    0  501  0.00000000000E+00  0.00000000000E+00 -0.31637508610E+03  0.31637508611E+03  0.25500000920E-02 0. -1.
    10030    2    1    2    0    0  0.00000000000E+00  0.00000000000E+00  0.32664102381E+03  0.95939119602E+03  0.90207378222E+03 0.  0.
        2    1    3    3  502    0  0.29855934887E+03 -0.92306730192E+02 -0.18257693857E+03  0.36192893742E+03  0.25500000920E-02 0. -1.
       -2    1    3    3    0  502 -0.29855934887E+03  0.92306730192E+02  0.50921796238E+03  0.59746225860E+03  0.25500000920E-02 0.  1.
</event>
<event>
 5   0  0.2679861E-02  0.9077917E+03  0.7818609E-02  0.9415893E-01
       -2   -1    0    0    0  501  0.00000000000E+00  0.00000000000E+00  0.46459246782E+03  0.46459246782E+03  0.25500000920E-02 0. -1.
        2   -1    0    0  501    0  0.00000000000E+00  0.00000000000E+00 -0.44344552559E+03  0.44344552559E+03  0.25500000920E-02 0.  1.
    10030    2    1    2    0    0  0.00000000000E+00  0.00000000000E+00  0.21146942228E+02  0.90803799342E+03  0.90779171858E+03 0.  0.
        1    1    3    3  502    0  0.31595789823E+03 -0.22663138740E+03 -0.22364870053E+03  0.44856428802E+03  0.50400001928E-02 0.  1.
       -1    1    3    3    0  502 -0.31595789823E+03  0.22663138740E+03  0.24479564276E+03  0.45947370540E+03  0.50400001928E-02 0. -1.
</event>
<event>
 5   0  0.1537870E-02  0.1056446E+04  0.7818609E-02  0.9248715E-01
       -1   -1    0    0    0  501  0.00000000000E+00  0.00000000000E+00  0.26612015541E+03  0.26612015546E+03  0.50400001928E-02 0.  1.
        1   -1    0    0  501    0  0.00000000000E+00  0.00000000000E+00 -0.10484711237E+04  0.10484711237E+04  0.50400001928E-02 0. -1.
    10030    2    1    2    0    0  0.00000000000E+00  0.00000000000E+00 -0.78235096827E+03  0.13145912792E+04  0.10564455470E+04 0.  0.
        5    1    3    3  502    0  0.24145805701E+03  0.11799705302E+03  0.17465898554E+03  0.32055132045E+03  0.46999998093E+01 0.  1.
       -5    1    3    3    0  502 -0.24145805701E+03 -0.11799705302E+03 -0.95700995380E+03  0.99403995870E+03  0.46999998093E+01 0. -1.
</event>
<event>
 5   0  0.1459111E-02  0.8914075E+03  0.7818609E-02  0.9436387E-01
        1   -1    0    0  501    0  0.00000000000E+00  0.00000000000E+00  0.82601237193E+03  0.82601237194E+03  0.50400001928E-02 0. -1.
       -1   -1    0    0    0  501  0.00000000000E+00  0.00000000000E+00 -0.24049496266E+03  0.24049496271E+03  0.50400001928E-02 0.  1.
    10030    2    1    2    0    0  0.00000000000E+00  0.00000000000E+00  0.58551740927E+03  0.10665073347E+04  0.89140745920E+03 0.  0.
        2    1    3    3  502    0  0.13326889468E+03  0.42209932809E+03  0.23032182546E+03  0.49897553482E+03  0.25500000920E-02 0.  1.
       -2    1    3    3    0  502 -0.13326889468E+03 -0.42209932809E+03  0.35519558381E+03  0.56753179984E+03  0.25500000920E-02 0. -1.
</event>
<event>
 5   0  0.1497410E-02  0.9892043E+03  0.7818609E-02  0.9320465E-01
        1   -1    0    0  501    0  0.00000000000E+00  0.00000000000E+00  0.76533320525E+03  0.76533320526E+03  0.50400001928E-02 0.  1.
       -1   -1    0    0    0  501  0.00000000000E+00  0.00000000000E+00 -0.31964021921E+03  0.31964021925E+03  0.50400001928E-02 0. -1.
    10030    2    1    2    0    0  0.00000000000E+00  0.00000000000E+00  0.44569298604E+03  0.10849734245E+04  0.98920427319E+03 0.  0.
        3    1    3    3  502    0 -0.20336234171E+03 -0.36571802479E+03  0.51205076339E+03  0.66128806897E+03  0.10100000352E+00 0.  1.
       -3    1    3    3    0  502  0.20336234171E+03  0.36571802479E+03 -0.66357777350E+02  0.42368535554E+03  0.10100000352E+00 0. -1.
</event>
<event>
 5   0  0.2628383E-02  0.5114645E+03  0.7818609E-02  0.1010829E+00
        2   -1    0    0  501    0  0.00000000000E+00  0.00000000000E+00  0.19617838542E+04  0.19617838542E+04  0.25500000920E-02 0. -1.
       -2   -1    0    0    0  501  0.00000000000E+00  0.00000000000E+00 -0.33336493042E+02  0.33336493139E+02  0.25500000920E-02 0.  1.
    10030    2    1    2    0    0  0.00000000000E+00  0.00000000000E+00  0.19284473612E+04  0.19951203474E+04  0.51146453994E+03 0.  0.
        2    1    3    3  502    0  0.25366810721E+03 -0.25727304186E+02  0.10412178935E+04  0.10719813919E+04  0.25500000920E-02 0.  1.
       -2    1    3    3    0  502 -0.25366810721E+03  0.25727304186E+02  0.88722946767E+03  0.92313895547E+03  0.25500000920E-02 0. -1.
</event>
<event>
 5   0  0.2679861E-02  0.8792424E+03  0.7818609E-02  0.9451908E-01
        2   -1    0    0  501    0  0.00000000000E+00  0.00000000000E+00  0.14201519663E+04  0.14201519663E+04  0.25500000920E-02 0. -1.
       -2   -1    0    0    0  501  0.00000000000E+00  0.00000000000E+00 -0.13608880681E+03  0.13608880684E+03  0.25500000920E-02 0.  1.
    10030    2    1    2    0    0  0.00000000000E+00  0.00000000000E+00  0.12840631595E+04  0.15562407732E+04  0.87924237070E+03 0.  0.
        1    1    3    3  502    0  0.23282429760E+03 -0.20658235977E+03  0.11915335017E+04  0.12315175641E+04  0.50400001928E-02 0. -1.
       -1    1    3    3    0  502 -0.23282429760E+03  0.20658235977E+03  0.92529657815E+02  0.32472320909E+03  0.50400001928E-02 0.  1.
</event>
<event>
 5   0  0.1559275E-02  0.8328436E+03  0.7818609E-02  0.9513657E-01
       -1   -1    0    0    0  501  0.00000000000E+00  0.00000000000E+00  0.37357632420E+03  0.37357632424E+03  0.50400001928E-02 0. -1.
        1   -1    0    0  501    0  0.00000000000E+00  0.00000000000E+00 -0.46418120436E+03  0.46418120439E+03  0.50400001928E-02 0.  1.
    10030    2    1    2    0    0  0.00000000000E+00  0.00000000000E+00 -0.90604880158E+02  0.83775752863E+03  0.83284358223E+03 0.  0.
        1    1    3    3  502    0 -0.19723119658E+03 -0.20446236493E+02 -0.41364451784E+03  0.45871557708E+03  0.50400001928E-02 0.  1.
       -1    1    3    3    0  502  0.19723119658E+03  0.20446236493E+02  0.32303963768E+03  0.37904195155E+03  0.50400001928E-02 0. -1.
</event>
<event>
 5   0  0.2628383E-02  0.9178625E+03  0.7818609E-02  0.9403524E-01
       -2   -1    0    0    0  501  0.00000000000E+00  0.00000000000E+00  0.22507389997E+03  0.22507389998E+03  0.25500000920E-02 0. -1.
        2   -1    0    0  501    0  0.00000000000E+00  0.00000000000E+00 -0.93577214274E+03  0.93577214275E+03  0.25500000920E-02 0.  1.
    10030    2    1    2    0    0  0.00000000000E+00  0.00000000000E+00 -0.71069824278E+03  0.11608460427E+04  0.91786248568E+03 0.  0.
        2    1    3    3  502    0 -0.17693263783E+03 -0.42241929814E+03 -0.31794515992E+03  0.55752340444E+03  0.25500000920E-02 0. -1.
       -2    1    3    3    0  502  0.17693263783E+03  0.42241929814E+03 -0.39275308285E+03  0.60332263829E+03  0.25500000920E-02 0.  1.
</event>
<event>
 5   0  0.1459111E-02  0.9271391E+03  0.7818609E-02  0.9392278E-01
       -1   -1    0    0    0  501  0.00000000000E+00  0.00000000000E+00  0.27761414096E+03  0.27761414100E+03  0.50400001928E-02 0.  1.
        1   -1    0    0  501    0  0.00000000000E+00  0.00000000000E+00 -0.77408415986E+03  0.77408415988E+03  0.50400001928E-02 0. -1.
    10030    2    1    2    0    0  0.00000000000E+00  0.00000000000E+00 -0.49647001891E+03  0.10516983009E+04  0.92713905991E+03 0.  0.
        2    1    3    3  502    0 -0.30210747624E+03 -0.17751039832E+03 -0.59252006223E+03  0.68837409369E+03  0.25500000920E-02 0. -1.
       -2    1    3    3    0  502  0.30210747624E+03  0.17751039832E+03  0.96050043321E+02  0.36332420720E+03  0.25500000920E-02 0.  1.
</event>
<event>
 5   0  0.1040163E-02  0.4489872E+03  0.7818609E-02  0.1028024E+00
       -3   -1    0    0    0  501  0.00000000000E+00  0.00000000000E+00  0.44321689165E+03  0.44321690315E+03  0.10100000352E+00 0.  1.
        3   -1    0    0  501    0  0.00000000000E+00  0.00000000000E+00 -0.11370814273E+03  0.11370818759E+03  0.10100000352E+00 0. -1.
    10030    2    1    2    0    0  0.00000000000E+00  0.00000000000E+00  0.32950874892E+03  0.55692509074E+03  0.44898723933E+03 0.  0.
        2    1    3    3  502    0 -0.40308226204E+02 -0.14735875150E+03 -0.39283540718E+02  0.15774204044E+03  0.25500000920E-02 0. -1.
       -2    1    3    3    0  502  0.40308226204E+02  0.14735875150E+03  0.36879228963E+03  0.39918305030E+03  0.25500000920E-02 0.  1.
</event>
<event>
 5   0  0.1497410E-02  0.9046143E+03  0.7818609E-02  0.9419832E-01
       -1   -1    0    0    0  501  0.00000000000E+00  0.00000000000E+00  0.54138778069E+03  0.54138778072E+03  0.50400001928E-02 0. -1.
        1   -1    0    0  501    0  0.00000000000E+00  0.00000000000E+00 -0.37788399014E+03  0.37788399017E+03  0.50400001928E-02 0.  1.
    10030    2    1    2    0    0  0.00000000000E+00  0.00000000000E+00  0.16350379055E+03  0.91927177089E+03  0.90461433729E+03 0.  0.
        3    1    3    3  502    0 -0.10701009886E+03  0.34331843492E+03 -0.19703437417E+03  0.41005031864E+03  0.10100000352E+00 0.  1.
       -3    1    3    3    0  502  0.10701009886E+03 -0.34331843492E+03  0.36053816472E+03  0.50922145225E+03  0.10100000352E+00 0. -1.
</event>
<event>
 5   0  0.2803717E-02  0.9315539E+03  0.7818609E-02  0.9386975E-01
       -2   -1    0    0    0  501  0.00000000000E+00  0.00000000000E+00  0.18503111632E+03  0.18503111633E+03  0.25500000920E-02 0.  1.
        2   -1    0    0  501    0  0.00000000000E+00  0.00000000000E+00 -0.11724956154E+04  0.11724956154E+04  0.25500000920E-02 0. -1.
    10030    2    1    2    0    0  0.00000000000E+00  0.00000000000E+00 -0.98746449912E+03  0.13575267318E+04  0.93155391173E+03 0.  0.
        5    1    3    3  502    0 -0.70161521627E+02 -0.45507317878E+03 -0.59586446279E+03  0.75305430426E+03  0.46999998093E+01 0.  1.
       -5    1    3    3    0  502  0.70161521627E+02  0.45507317878E+03 -0.39160003633E+03  0.60447242751E+03  0.46999998093E+01 0. -1.
</event>
<event>
 5   0  0.2628383E-02  0.9292014E+03  0.7818609E-02  0.9389797E-01
        2   -1    0    0  501    0  0.00000000000E+00  0.00000000000E+00  0.15235388132E+04  0.15235388132E+04  0.25500000920E-02 0.  1.
       -2   -1    0    0    0  501  0.00000000000E+00  0.00000000000E+00 -0.14167923622E+03  0.14167923624E+03  0.25500000920E-02 0. -1.
    10030    2    1    2    0    0  0.00000000000E+00  0.00000000000E+00  0.13818595770E+04  0.16652180494E+04  0.92920141072E+03 0.  0.
        2    1    3    3  502    0  0.20075812442E+03  0.86517845136E+01  0.14416343328E+04  0.14555714436E+04  0.25500000920E-02 0.  1.
       -2    1    3    3    0  502 -0.20075812442E+03 -0.86517845136E+01 -0.59774755831E+02  0.20964660583E+03  0.25500000920E-02 0. -1.
</event>
<event>
 5   0  0.1537870E-02  0.6557684E+03  0.7818609E-02  0.9796015E-01
        1   -1    0    0  501    0  0.00000000000E+00  0.00000000000E+00  0.39233143775E+03  0.39233143778E+03  0.50400001928E-02 0.  1.
       -1   -1    0    0    0  501  0.00000000000E+00  0.00000000000E+00 -0.27402356822E+03  0.27402356827E+03  0.50400001928E-02 0. -1.
    10030    2    1    2    0    0  0.00000000000E+00  0.00000000000E+00  0.11830786952E+03  0.66635500605E+03  0.65576843634E+03 0.  0.
        5    1    3    3  502    0 -0.25557368985E+03  0.17355370943E+03  0.17068546642E+03  0.35297934705E+03  0.46999998093E+01 0.  1.
       -5    1    3    3    0  502  0.25557368985E+03 -0.17355370943E+03 -0.52377596902E+02  0.31337565900E+03  0.46999998093E+01 0. -1.
</event>
<event>
 5   0  0.1537870E-02  0.8936035E+03  0.7818609E-02  0.9433613E-01
        1   -1    0    0  501    0  0.00000000000E+00  0.00000000000E+00  0.32332163924E+03  0.32332163928E+03  0.50400001928E-02 0. -1.
       -1   -1    0    0    0  501  0.00000000000E+00  0.00000000000E+00 -0.61744026669E+03  0.61744026671E+03  0.50400001928E-02 0.  1.
    10030    2    1    2    0    0  0.00000000000E+00  0.00000000000E+00 -0.29411862746E+03  0.94076190599E+03  0.89360348967E+03 0.  0.
        5    1    3    3  502    0 -0.68316822419E+00 -0.29218215690E+03  0.20877001378E+03  0.35913491640E+03  0.46999998093E+01 0. -1.
       -5    1    3    3    0  502  0.68316822419E+00  0.29218215690E+03 -0.50288864124E+03  0.58162698958E+03  0.46999998093E+01 0.  1.
</event>
<event>
 5   0  0.1459111E-02  0.8933401E+03  0.7818609E-02  0.9433945E-01
        1   -1    0    0  501    0  0.00000000000E+00  0.00000000000E+00  0.10609158336E+04  0.10609158336E+04  0.50400001928E-02 0. -1.
       -1   -1    0    0    0  501  0.00000000000E+00  0.00000000000E+00 -0.18805839882E+03  0.18805839889E+03  0.50400001928E-02 0.  1.
    10030    2    1    2    0    0  0.00000000000E+00  0.00000000000E+00  0.87285743476E+03  0.12489742325E+04  0.89334009873E+03 0.  0.
        2    1    3    3  502    0 -0.13549383402E+03  0.35280960679E+03  0.10357366440E+03  0.39186821977E+03  0.25500000920E-02 0.  1.
       -2    1    3    3    0  502  0.13549383402E+03 -0.35280960679E+03  0.76928377035E+03  0.85710601272E+03  0.25500000920E-02 0. -1.
</event>
<event>
 5   0  0.1559275E-02  0.8976329E+03  0.7818609E-02  0.9428545E-01
       -1   -1    0    0    0  501  0.00000000000E+00  0.00000000000E+00  0.22097472147E+03  0.22097472153E+03  0.50400001928E-02 0. -1.
        1   -1    0    0  501    0  0.00000000000E+00  0.00000000000E+00 -0.91158022212E+03  0.91158022213E+03  0.50400001928E-02 0.  1.
    10030    2    1    2    0    0  0.00000000000E+00  0.00000000000E+00 -0.69060550065E+03  0.11325549437E+04  0.89763285529E+03 0.  0.
        1    1    3    3  502    0  0.11795366173E+03 -0.86546738398E+02 -0.88065093635E+03  0.89272026748E+03  0.50400001928E-02 0.  1.
       -1    1    3    3    0  502 -0.11795366173E+03  0.86546738398E+02  0.19004543571E+03  0.23983467619E+03  0.50400001928E-02 0. -1.
</event>
<event>
 5   0  0.2628383E-02  0.8755096E+03  0.7818609E-02  0.9456724E-01
        2   -1    0    0  501    0  0.00000000000E+00  0.00000000000E+00  0.14727185755E+04  0.14727185755E+04  0.25500000920E-02 0. -1.
       -2   -1    0    0    0  501  0.00000000000E+00  0.00000000000E+00 -0.13011941755E+03  0.13011941757E+03  0.25500000920E-02 0.  1.
    10030    2    1    2    0    0  0.00000000000E+00  0.00000000000E+00  0.13425991580E+04  0.16028379931E+04  0.87550964193E+03 0.  0.
        2    1    3    3  502    0 -0.31622512566E+03 -0.18996717345E+03  0.23983511963E+03  0.44000766096E+03  0.25500000920E-02 0.  1.
       -2    1    3    3    0  502  0.31622512566E+03  0.18996717345E+03  0.11027640383E+04  0.11628303321E+04  0.25500000920E-02 0. -1.
</event>
<event>
 5   0  0.1559275E-02  0.9093720E+03  0.7818609E-02  0.9413941E-01
        1   -1    0    0  501    0  0.00000000000E+00  0.00000000000E+00  0.24487860414E+03  0.24487860419E+03  0.50400001928E-02 0.  1.
       -1   -1    0    0    0  501  0.00000000000E+00  0.00000000000E+00 -0.84425248483E+03  0.84425248485E+03  0.50400001928E-02 0. -1.
    10030    2    1    2    0    0  0.00000000000E+00  0.00000000000E+00 -0.59937388069E+03  0.10891310890E+04  0.90937202522E+03 0.  0.
        1    1    3    3  502    0  0.19289830631E+03 -0.23947430741E+03 -0.70083021426E+03  0.76532391165E+03  0.50400001928E-02 0. -1.
       -1    1    3    3    0  502 -0.19289830631E+03  0.23947430741E+03  0.10145633357E+03  0.32380717740E+03  0.50400001928E-02 0.  1.
</event>
<event>
 5   0  0.1040163E-02  0.8717839E+03  0.7818609E-02  0.9461557E-01
       -3   -1    0    0    0  501  0.00000000000E+00  0.00000000000E+00  0.33285411466E+03  0.33285412998E+03  0.10100000352E+00 0.  1.
        3   -1    0    0  501    0  0.00000000000E+00  0.00000000000E+00 -0.57082600521E+03  0.57082601415E+03  0.10100000352E+00 0. -1.
    10030    2    1    2    0    0  0.00000000000E+00  0.00000000000E+00 -0.23797189055E+03  0.90368014413E+03  0.87178390798E+03 0.  0.
        1    1    3    3  502    0 -0.32842206746E+03  0.14008510117E+03  0.14019593035E+03  0.38358804579E+03  0.50400001928E-02 0.  1.
       -1    1    3    3    0  502  0.32842206746E+03 -0.14008510117E+03 -0.37816782090E+03  0.52009209834E+03  0.50400001928E-02 0. -1.
</event>
<event>
 5   0  0.2803717E-02  0.8713363E+03  0.7818609E-02  0.9462139E-01
       -2   -1    0    0    0  501  0.00000000000E+00  0.00000000000E+00  0.13747143384E+03  0.13747143386E+03  0.25500000920E-02 0. -1.
        2   -1    0    0  501    0  0.00000000000E+00  0.00000000000E+00 -0.13806995019E+04  0.13806995019E+04  0.25500000920E-02 0.  1.
    10030    2    1    2    0    0  0.00000000000E+00  0.00000000000E+00 -0.12432280681E+04  0.15181709358E+04  0.87133630761E+03 0.  0.
        5    1    3    3  502    0 -0.83012918712E+02  0.23649055517E+03 -0.12424517704E+04  0.12674886269E+04  0.46999998093E+01 0.  1.
       -5    1    3    3    0  502  0.83012918712E+02 -0.23649055517E+03 -0.77629762760E+00  0.25068230890E+03  0.46999998093E+01 0. -1.
</event>
<event>
 5   0  0.1497410E-02  0.8686574E+03  0.7818609E-02  0.9465632E-01
        1   -1    0    0  501    0  0.00000000000E+00  0.00000000000E+00  0.10791072506E+04  0.10791072506E+04  0.50400001928E-02 0. -1.
       -1   -1    0    0    0  501  0.00000000000E+00  0.00000000000E+00 -0.17481248739E+03  0.17481248746E+03  0.50400001928E-02 0.  1.
    10030    2    1    2    0    0  0.00000000000E+00  0.00000000000E+00  0.90429476323E+03  0.12539197381E+04  0.86865740702E+03 0.  0.
        3    1    3    3  502    0 -0.94311772872E+02 -0.76703898894E+02  0.10540483793E+04  0.10610354351E+04  0.10100000352E+00 0. -1.
       -3    1    3    3    0  502  0.94311772872E+02  0.76703898894E+02 -0.14975361603E+03  0.19288430295E+03  0.10100000352E+00 0.  1.
</event>
<event>
 5   0  0.1537870E-02  0.7179518E+03  0.7818609E-02  0.9687015E-01
       -1   -1    0    0    0  501  0.00000000000E+00  0.00000000000E+00  0.26344059251E+03  0.26344059255E+03  0.50400001928E-02 0.  1.
        1   -1    0    0  501    0  0.00000000000E+00  0.00000000000E+00 -0.48915662765E+03  0.48915662767E+03  0.50400001928E-02 0. -1.
    10030    2    1    2    0    0  0.00000000000E+00  0.00000000000E+00 -0.22571603514E+03  0.75259722023E+03  0.71795184196E+03 0.  0.
        5    1    3    3  502    0 -0.16998511835E+03 -0.49530814927E+02 -0.44016469003E+03  0.47446315603E+03  0.46999998093E+01 0. -1.
       -5    1    3    3    0  502  0.16998511835E+03  0.49530814927E+02  0.21444865489E+03  0.27813406420E+03  0.46999998093E+01 0.  1.
</event>
<event>
 5   0  0.1537870E-02  0.9000371E+03  0.7818609E-02  0.9425535E-01
       -1   -1    0    0    0  501  0.00000000000E+00  0.00000000000E+00  0.15983416837E+03  0.15983416845E+03  0.50400001928E-02 0. -1.
        1   -1    0    0  501    0  0.00000000000E+00  0.00000000000E+00 -0.12670425790E+04  0.12670425791E+04  0.50400001928E-02 0.  1.
    10030    2    1    2    0    0  0.00000000000E+00  0.00000000000E+00 -0.11072084107E+04  0.14268767475E+04  0.90003710362E+03 0.  0.
        5    1    3    3  502    0 -0.28472932210E+03 -0.13884259535E+03 -0.10602890413E+04  0.11066087810E+04  0.46999998093E+01 0.  1.
       -5    1    3    3    0  502  0.28472932210E+03  0.13884259535E+03 -0.46919369411E+02  0.32026796651E+03  0.46999998093E+01 0. -1.
</event>
<event>
 5   0  0.2628383E-02  0.9027350E+03  0.7818609E-02  0.9422169E-01
        2   -1    0    0  501    0  0.00000000000E+00  0.00000000000E+00  0.19456361053E+04  0.19456361053E+04  0.25500000920E-02 0. -1.
       -2   -1    0    0    0  501  0.00000000000E+00  0.00000000000E+00 -0.10471259362E+03  0.10471259365E+03  0.25500000920E-02 0.  1.
    10030    2    1    2    0    0  0.00000000000E+00  0.00000000000E+00  0.18409235117E+04  0.20503486990E+04  0.90273496189E+03 0.  0.
        2    1    3    3  502    0  0.22457593877E+03 -0.15464925574E+03  0.10349542850E+03  0.29165398729E+03  0.25500000920E-02 0.  1.
       -2    1    3    3    0  502 -0.22457593877E+03  0.15464925574E+03  0.17374280832E+04  0.17586947117E+04  0.25500000920E-02 0. -1.
</event>
<event>
 5   0  0.1537870E-02  0.9080226E+03  0.7818609E-02  0.9415608E-01
       -1   -1    0    0    0  501  0.00000000000E+00  0.00000000000E+00  0.33444749756E+03  0.33444749760E+03  0.50400001928E-02 0.  1.
        1   -1    0    0  501    0  0.00000000000E+00  0.00000000000E+00 -0.61631874163E+03  0.61631874165E+03  0.50400001928E-02 0. -1.
    10030    2    1    2    0    0  0.00000000000E+00  0.00000000000E+00 -0.28187124407E+03  0.95076623925E+03  0.90802260074E+03 0.  0.
        5    1    3    3  502    0 -0.95324891947E+02  0.76389849404E+02 -0.59876168327E+03  0.61111364530E+03  0.46999998093E+01 0. -1.
       -5    1    3    3    0  502  0.95324891947E+02 -0.76389849404E+02  0.31689043920E+03  0.33965259395E+03  0.46999998093E+01 0.  1.
</event>
<event>
 5   0  0.1559275E-02  0.8996071E+03  0.7818609E-02  0.9426073E-01
       -1   -1    0    0    0  501  0.00000000000E+00  0.00000000000E+00  0.10322960501E+04  0.10322960501E+04  0.50400001928E-02 0.  1.
        1   -1    0    0  501    0  0.00000000000E+00  0.00000000000E+00 -0.19599343281E+03  0.19599343288E+03  0.50400001928E-02 0. -1.
    10030    2    1    2    0    0  0.00000000000E+00  0.00000000000E+00  0.83630261730E+03  0.12282894830E+04  0.89960712889E+03 0.  0.
        1    1    3    3  502    0  0.16702729408E+03 -0.36215037056E+02  0.98623646258E+03  0.10009355654E+04  0.50400001928E-02 0.  1.
       -1    1    3    3    0  502 -0.16702729408E+03  0.36215037056E+02 -0.14993384528E+03  0.22735391763E+03  0.50400001928E-02 0. -1.
</event>
<event>
 5   0  0.2628383E-02  0.8788667E+03  0.7818609E-02  0.9452392E-01
       -2   -1    0    0    0  501  0.00000000000E+00  0.00000000000E+00  0.39636263641E+03  0.39636263642E+03  0.25500000920E-02 0.  1.
        2   -1    0    0  501    0  0.00000000000E+00  0.00000000000E+00 -0.48718430272E+03  0.48718430273E+03  0.25500000920E-02 0. -1.
    10030    2    1    2    0    0  0.00000000000E+00  0.00000000000E+00 -0.90821666309E+02  0.88354693915E+03  0.87886666714E+03 0.  0.
        2    1    3    3  502    0 -0.31321336233E+03 -0.15298519478E+03 -0.31440737048E+03  0.46942419493E+03  0.25500000920E-02 0. -1.
       -2    1    3    3    0  502  0.31321336233E+03  0.15298519478E+03  0.22358570417E+03  0.41412274422E+03  0.25500000920E-02 0.  1.
</event>
<event>
 5   0  0.1040163E-02  0.8599279E+03  0.7818609E-02  0.9477108E-01
       -4   -1    0    0    0  501  0.00000000000E+00  0.00000000000E+00  0.79359271901E+03  0.79359373521E+03  0.12699999809E+01 0.  1.
        4   -1    0    0  501    0  0.00000000000E+00  0.00000000000E+00 -0.23294908754E+03  0.23295254943E+03  0.12699999809E+01 0. -1.
    10030    2    1    2    0    0  0.00000000000E+00  0.00000000000E+00  0.56064363147E+03  0.10265462846E+04  0.85992789989E+03 0.  0.
        3    1    3    3  502    0 -0.40504480713E+03 -0.14421135796E+03  0.27640299441E+03  0.51113289570E+03  0.10100000352E+00 0.  1.
       -3    1    3    3    0  502  0.40504480713E+03  0.14421135796E+03  0.28424063705E+03  0.51541338894E+03  0.10100000352E+00 0. -1.
</event>
<event>
 5   0  0.1459111E-02  0.8661734E+03  0.7818609E-02  0.9468883E-01
       -1   -1    0    0    0  501  0.00000000000E+00  0.00000000000E+00  0.38812000636E+03  0.38812000639E+03  0.50400001928E-02 0. -1.
        1   -1    0    0  501    0  0.00000000000E+00  0.00000000000E+00 -0.48326314356E+03  0.48326314358E+03  0.50400001928E-02 0.  1.
    10030    2    1    2    0    0  0.00000000000E+00  0.00000000000E+00 -0.95143137197E+02  0.87138314998E+03  0.86617341076E+03 0.  0.
        2    1    3    3  502    0 -0.11941731122E+03  0.35548407401E+03 -0.26551872611E+03  0.45948842751E+03  0.25500000920E-02 0.  1.
       -2    1    3    3    0  502  0.11941731122E+03 -0.35548407401E+03  0.17037558892E+03  0.41189472247E+03  0.25500000920E-02 0. -1.
</event>
<event>
 5   0  0.1459111E-02  0.8962400E+03  0.7818609E-02  0.9430294E-01
        1   -1    0    0  501    0  0.00000000000E+00  0.00000000000E+00  0.12707077172E+04  0.12707077172E+04  0.50400001928E-02 0.  1.
       -1   -1    0    0    0  501  0.00000000000E+00  0.00000000000E+00 -0.15803125779E+03  0.15803125787E+03  0.50400001928E-02 0. -1.
    10030    2    1    2    0    0  0.00000000000E+00  0.00000000000E+00  0.11126764594E+04  0.14287389751E+04  0.89624001003E+03 0.  0.
        2    1    3    3  502    0 -0.18430327201E+03  0.23821581693E+03  0.10852904444E+04  0.11263080485E+04  0.25500000920E-02 0.  1.
       -2    1    3    3    0  502  0.18430327201E+03 -0.23821581693E+03  0.27386015029E+02  0.30243092655E+03  0.25500000920E-02 0. -1.
</event>
<event>
 5   0  0.1560728E-02  0.8919546E+03  0.7818609E-02  0.9435695E-01
        1   -1    0    0  501    0  0.00000000000E+00  0.00000000000E+00  0.44039047183E+03  0.44039047186E+03  0.50400001928E-02 0. -1.
       -1   -1    0    0    0  501  0.00000000000E+00  0.00000000000E+00 -0.45163500252E+03  0.45163500255E+03  0.50400001928E-02 0.  1.
    10030    2    1    2    0    0  0.00000000000E+00  0.00000000000E+00 -0.11244530689E+02  0.89202547440E+03  0.89195459947E+03 0.  0.
        4    1    3    3  502    0 -0.11641637510E+03 -0.30351882054E+03 -0.31096225119E+03  0.44986173585E+03  0.12699999809E+01 0.  1.
       -4    1    3    3    0  502  0.11641637510E+03  0.30351882054E+03  0.29971772050E+03  0.44216373856E+03  0.12699999809E+01 0. -1.
</event>
<event>
 5   0  0.1537870E-02  0.9894436E+03  0.7818609E-02  0.9320199E-01
        1   -1    0    0  501    0  0.00000000000E+00  0.00000000000E+00  0.55965720636E+03  0.55965720638E+03  0.50400001928E-02 0.  1.
       -1   -1    0    0    0  501  0.00000000000E+00  0.00000000000E+00 -0.43732064597E+03  0.43732064600E+03  0.50400001928E-02 0. -1.
    10030    2    1    2    0    0  0.00000000000E+00  0.00000000000E+00  0.12233656039E+03  0.99697785239E+03  0.98944358310E+03 0.  0.
        5    1    3    3  502    0  0.21162111849E+03  0.24021895943E+03 -0.31884930110E+03  0.45185795674E+03  0.46999998093E+01 0. -1.
       -5    1    3    3    0  502 -0.21162111849E+03 -0.24021895943E+03  0.44118586148E+03  0.54511989565E+03  0.46999998093E+01 0.  1.
</event>
<event>
 5   0  0.1497410E-02  0.9351454E+03  0.7818609E-02  0.9382684E-01
        1   -1    0    0  501    0  0.00000000000E+00  0.00000000000E+00  0.13022428043E+04  0.13022428043E+04  0.50400001928E-02 0. -1.
       -1   -1    0    0    0  501  0.00000000000E+00  0.00000000000E+00 -0.16788284001E+03  0.16788284008E+03  0.50400001928E-02 0.  1.
    10030    2    1    2    0    0  0.00000000000E+00  0.00000000000E+00  0.11343599643E+04  0.14701256444E+04  0.93514537997E+03 0.  0.
        3    1    3    3  502    0 -0.18830296684E+03  0.23673855550E+03  0.11276908946E+04  0.11675572427E+04  0.10100000352E+00 0. -1.
       -3    1    3    3    0  502  0.18830296684E+03 -0.23673855550E+03  0.66690696277E+01  0.30256840164E+03  0.10100000352E+00 0.  1.
</event>
<event>
 5   0  0.2803717E-02  0.8990327E+03  0.7818609E-02  0.9426791E-01
       -2   -1    0    0    0  501  0.00000000000E+00  0.00000000000E+00  0.27725014449E+03  0.27725014451E+03  0.25500000920E-02 0. -1.
        2   -1    0    0  501    0  0.00000000000E+00  0.00000000000E+00 -0.72881824953E+03  0.72881824953E+03  0.25500000920E-02 0.  1.
    10030    2    1    2    0    0  0.00000000000E+00  0.00000000000E+00 -0.45156810503E+03  0.10060683940E+04  0.89903273578E+03 0.  0.
        5    1    3    3  502    0  0.69747367014E+02  0.44402955105E+03 -0.22131656491E+03  0.50102899049E+03  0.46999998093E+01 0.  1.
       -5    1    3    3    0  502 -0.69747367014E+02 -0.44402955105E+03 -0.23025154012E+03  0.50503940355E+03  0.46999998093E+01 0. -1.
</event>
<event>
 5   0  0.1537870E-02  0.8994252E+03  0.7818609E-02  0.9426300E-01
       -1   -1    0    0    0  501  0.00000000000E+00  0.00000000000E+00  0.29318563060E+03  0.29318563065E+03  0.50400001928E-02 0. -1.
        1   -1    0    0  501    0  0.00000000000E+00  0.00000000000E+00 -0.68980666650E+03  0.68980666652E+03  0.50400001928E-02 0.  1.
    10030    2    1    2    0    0  0.00000000000E+00  0.00000000000E+00 -0.39662103590E+03  0.98299229717E+03  0.89942515540E+03 0.  0.
        5    1    3    3  502    0  0.33237099704E+02  0.18606986915E+03  0.24763578472E+03  0.31156423555E+03  0.46999998093E+01 0. -1.
       -5    1    3    3    0  502 -0.33237099704E+02 -0.18606986915E+03 -0.64425682062E+03  0.67142806161E+03  0.46999998093E+01 0.  1.
</event>
<event>
 5   0  0.2679861E-02  0.8987609E+03  0.7818609E-02  0.9427132E-01
        2   -1    0    0  501    0  0.00000000000E+00  0.00000000000E+00  0.64796497191E+03  0.64796497192E+03  0.25500000920E-02 0. -1.
       -2   -1    0    0    0  501  0.00000000000E+00  0.00000000000E+00 -0.31165694873E+03  0.31165694874E+03  0.25500000920E-02 0.  1.
    10030    2    1    2    0    0  0.00000000000E+00  0.00000000000E+00  0.33630802319E+03  0.95962192066E+03  0.89876089376E+03 0.  0.
        1    1    3    3  502    0  0.13181496725E+02 -0.16820262734E+03  0.61286394658E+03  0.63566350590E+03  0.50400001928E-02 0. -1.
       -1    1    3    3    0  502 -0.13181496725E+02  0.16820262734E+03 -0.27655592339E+03  0.32395841475E+03  0.50400001928E-02 0.  1.
</event>
<event>
 5   0  0.1497410E-02  0.9014264E+03  0.7818609E-02  0.9423800E-01
        1   -1    0    0  501    0  0.00000000000E+00  0.00000000000E+00  0.62972062417E+03  0.62972062419E+03  0.50400001928E-02 0. -1.
       -1   -1    0    0    0  501  0.00000000000E+00  0.00000000000E+00 -0.32259129653E+03  0.32259129657E+03  0.50400001928E-02 0.  1.
    10030    2    1    2    0    0  0.00000000000E+00  0.00000000000E+00  0.30712932764E+03  0.95231192076E+03  0.90142640882E+03 0.  0.
        3    1    3    3  502    0 -0.38698783195E+03 -0.18671870254E+03  0.29733088150E+03  0.52252188399E+03  0.10100000352E+00 0. -1.
       -3    1    3    3    0  502  0.38698783195E+03  0.18671870254E+03  0.97984461488E+01  0.42979003677E+03  0.10100000352E+00 0.  1.
</event>
<event>
 5   0  0.1459111E-02  0.9453638E+03  0.7818609E-02  0.9370586E-01
        1   -1    0    0  501    0  0.00000000000E+00  0.00000000000E+00  0.49390290559E+03  0.49390290561E+03  0.50400001928E-02 0. -1.
       -1   -1    0    0    0  501  0.00000000000E+00  0.00000000000E+00 -0.45237268549E+03  0.45237268552E+03  0.50400001928E-02 0.  1.
    10030    2    1    2    0    0  0.00000000000E+00  0.00000000000E+00  0.41530220096E+02  0.94627559113E+03  0.94536381102E+03 0.  0.
        2    1    3    3  502    0  0.42276424519E+03 -0.20839299418E+03  0.56449693734E+02  0.47470392348E+03  0.25500000920E-02 0.  1.
       -2    1    3    3    0  502 -0.42276424519E+03  0.20839299418E+03 -0.14919473638E+02  0.47157166766E+03  0.25500000920E-02 0. -1.
</event>
<event>
 5   0  0.1040163E-02  0.9041030E+03  0.7818609E-02  0.9420467E-01
       -3   -1    0    0    0  501  0.00000000000E+00  0.00000000000E+00  0.16995448950E+04  0.16995448980E+04  0.10100000352E+00 0.  1.
        3   -1    0    0  501    0  0.00000000000E+00  0.00000000000E+00 -0.12023836436E+03  0.12023840678E+03  0.10100000352E+00 0. -1.
    10030    2    1    2    0    0  0.00000000000E+00  0.00000000000E+00  0.15793065307E+04  0.18197833048E+04  0.90410295797E+03 0.  0.
        2    1    3    3  502    0  0.10640197929E+03  0.18604062085E+03  0.15907853259E+04  0.16051574523E+04  0.25500000920E-02 0.  1.
       -2    1    3    3    0  502 -0.10640197929E+03 -0.18604062085E+03 -0.11478795189E+02  0.21462585247E+03  0.25500000920E-02 0. -1.
</event>
<event>
 5   0  0.2679861E-02  0.9012417E+03  0.7818609E-02  0.9424031E-01
        2   -1    0    0  501    0  0.00000000000E+00  0.00000000000E+00  0.13393656738E+04  0.13393656738E+04  0.25500000920E-02 0.  1.
       -2   -1    0    0    0  501  0.00000000000E+00  0.00000000000E+00 -0.15160843752E+03  0.15160843754E+03  0.25500000920E-02 0. -1.
    10030    2    1    2    0    0  0.00000000000E+00  0.00000000000E+00  0.11877572363E+04  0.14909741113E+04  0.90124167032E+03 0.  0.
        1    1    3    3  502    0  0.11590813804E+03  0.12649121227E+03  0.12832198169E+04  0.12946381045E+04  0.50400001928E-02 0.  1.
       -1    1    3    3    0  502 -0.11590813804E+03 -0.12649121227E+03 -0.95462580607E+02  0.19633600680E+03  0.50400001928E-02 0. -1.
</event>
<event>
 5   0  0.2414128E-02  0.9628885E+03  0.7818609E-02  0.9350211E-01
       -2   -1    0    0    0  501  0.00000000000E+00  0.00000000000E+00  0.23960337425E+03  0.23960337426E+03  0.25500000920E-02 0. -1.
        2   -1    0    0  501    0  0.00000000000E+00  0.00000000000E+00 -0.96738441195E+03  0.96738441196E+03  0.25500000920E-02 0.  1.
    10030    2    1    2    0    0  0.00000000000E+00  0.00000000000E+00 -0.72778103771E+03  0.12069877862E+04  0.96288850716E+03 0.  0.
        3    1    3    3  502    0 -0.12204526142E+03  0.41153148378E+03 -0.90593291678E+02  0.43870304612E+03  0.10100000352E+00 0.  1.
       -3    1    3    3    0  502  0.12204526142E+03 -0.41153148378E+03 -0.63718774603E+03  0.76828474010E+03  0.10100000352E+00 0. -1.
</event>
<event>
 5   0  0.2679861E-02  0.8909250E+03  0.7818609E-02  0.9436997E-01
       -2   -1    0    0    0  501  0.00000000000E+00  0.00000000000E+00  0.20719652355E+03  0.20719652356E+03  0.25500000920E-02 0.  1.
        2   -1    0    0  501    0  0.00000000000E+00  0.00000000000E+00 -0.95772291419E+03  0.95772291419E+03  0.25500000920E-02 0. -1.
    10030    2    1    2    0    0  0.00000000000E+00  0.00000000000E+00 -0.75052639064E+03  0.11649194378E+04  0.89092504365E+03 0.  0.
        1    1    3    3  502    0  0.19622533201E+03  0.14787029216E+03 -0.86111009937E+03  0.89547786544E+03  0.50400001928E-02 0. -1.
       -1    1    3    3    0  502 -0.19622533201E+03 -0.14787029216E+03  0.11058370873E+03  0.26944157231E+03  0.50400001928E-02 0.  1.
</event>
<event>
 5   0  0.2414128E-02  0.6946144E+03  0.7818609E-02  0.9726487E-01
        2   -1    0    0  501    0  0.00000000000E+00  0.00000000000E+00  0.94431530348E+03  0.94431530349E+03  0.25500000920E-02 0. -1.
       -2   -1    0    0    0  501  0.00000000000E+00  0.00000000000E+00 -0.12773519784E+03  0.12773519787E+03  0.25500000920E-02 0.  1.
    10030    2    1    2    0    0  0.00000000000E+00  0.00000000000E+00  0.81658010564E+03  0.10720505014E+04  0.69461443156E+03 0.  0.
        3    1    3    3  502    0 -0.28651665237E+03  0.19191051935E+03  0.34463912225E+03  0.48754238206E+03  0.10100000352E+00 0.  1.
       -3    1    3    3    0  502  0.28651665237E+03 -0.19191051935E+03  0.47194098339E+03  0.58450811930E+03  0.10100000352E+00 0. -1.
</event>
<event>
 5   0  0.2628383E-02  0.8145543E+03  0.7818609E-02  0.9539186E-01
        2   -1    0    0  501    0  0.00000000000E+00  0.00000000000E+00  0.15819131131E+04  0.15819131131E+04  0.25500000920E-02 0.  1.
       -2   -1    0    0    0  501  0.00000000000E+00  0.00000000000E+00 -0.10485701154E+03  0.10485701157E+03  0.25500000920E-02 0. -1.
    10030    2    1    2    0    0  0.00000000000E+00  0.00000000000E+00  0.14770561016E+04  0.16867701247E+04  0.81455431147E+03 0.  0.
        2    1    3    3  502    0  0.30739381666E+03  0.26271893966E+03  0.63787658835E+03  0.75524747053E+03  0.25500000920E-02 0. -1.
       -2    1    3    3    0  502 -0.30739381666E+03 -0.26271893966E+03  0.83917951325E+03  0.93152265418E+03  0.25500000920E-02 0.  1.
</event>
<event>
 5   0  0.2679861E-02  0.9049237E+03  0.7818609E-02  0.9419447E-01
        2   -1    0    0  501    0  0.00000000000E+00  0.00000000000E+00  0.98166530852E+03  0.98166530852E+03  0.25500000920E-02 0. -1.
       -2   -1    0    0    0  501  0.00000000000E+00  0.00000000000E+00 -0.20854534530E+03  0.20854534532E+03  0.25500000920E-02 0.  1.
    10030    2    1    2    0    0  0.00000000000E+00  0.00000000000E+00  0.77311996322E+03  0.11902106538E+04  0.90492371114E+03 0.  0.
        1    1    3    3  502    0  0.36440875630E+03  0.24583314672E+03  0.24555045202E+03  0.50351037944E+03  0.50400001928E-02 0.  1.
       -1    1    3    3    0  502 -0.36440875630E+03 -0.24583314672E+03  0.52756951119E+03  0.68670027440E+03  0.50400001928E-02 0. -1.
</event>
<event>
 5   0  0.1537870E-02  0.9010594E+03  0.7818609E-02  0.9424258E-01
        1   -1    0    0  501    0  0.00000000000E+00  0.00000000000E+00  0.47830169507E+03  0.47830169509E+03  0.50400001928E-02 0. -1.
       -1   -1    0    0    0  501  0.00000000000E+00  0.00000000000E+00 -0.42437022816E+03  0.42437022819E+03  0.50400001928E-02 0.  1.
    10030    2    1    2    0    0  0.00000000000E+00  0.00000000000E+00  0.53931466905E+02  0.90267192328E+03  0.90105937538E+03 0.  0.
        5    1    3    3  502    0  0.12640594009E+02 -0.26140617569E+03 -0.34038101906E+03  0.42938828750E+03  0.46999998093E+01 0.  1.
       -5    1    3    3    0  502 -0.12640594009E+02  0.26140617569E+03  0.39431248597E+03  0.47328363578E+03  0.46999998093E+01 0. -1.
</event>
<event>
 5   0  0.1497410E-02  0.9107995E+03  0.7818609E-02  0.9412181E-01
       -1   -1    0    0    0  501  0.00000000000E+00  0.00000000000E+00  0.11156383904E+04  0.11156383904E+04  0.50400001928E-02 0.  1.
        1   -1    0    0  501    0  0.00000000000E+00  0.00000000000E+00 -0.18589259789E+03  0.18589259796E+03  0.50400001928E-02 0. -1.
    10030    2    1    2    0    0  0.00000000000E+00  0.00000000000E+00  0.92974579248E+03  0.13015309883E+04  0.91079947024E+03 0.  0.
        3    1    3    3  502    0  0.27756432905E+03  0.23840220911E+03  0.77428924048E+02  0.37399574670E+03  0.10100000352E+00 0. -1.
       -3    1    3    3    0  502 -0.27756432905E+03 -0.23840220911E+03  0.85231686843E+03  0.92753524164E+03  0.10100000352E+00 0.  1.
</event>
<event>
 5   0  0.2628383E-02  0.8974487E+03  0.7818609E-02  0.9428776E-01
       -2   -1    0    0    0  501  0.00000000000E+00  0.00000000000E+00  0.14696452872E+03  0.14696452874E+03  0.25500000920E-02 0. -1.
        2   -1    0    0  501    0  0.00000000000E+00  0.00000000000E+00 -0.13700826634E+04  0.13700826634E+04  0.25500000920E-02 0.  1.
    10030    2    1    2    0    0  0.00000000000E+00  0.00000000000E+00 -0.12231181347E+04  0.15170471922E+04  0.89744872378E+03 0.  0.
        2    1    3    3  502    0 -0.11480490067E+03 -0.16227507025E+03  0.68478077904E+02  0.21024416949E+03  0.25500000920E-02 0. -1.
       -2    1    3    3    0  502  0.11480490067E+03  0.16227507025E+03 -0.12915962126E+04  0.13068030227E+04  0.25500000920E-02 0.  1.
</event>
<event>
 5   0  0.1497410E-02  0.5563682E+03  0.7818609E-02  0.1000031E+00
       -1   -1    0    0    0  501  0.00000000000E+00  0.00000000000E+00  0.39864735119E+02  0.39864735437E+02  0.50400001928E-02 0. -1.
        1   -1    0    0  501    0  0.00000000000E+00  0.00000000000E+00 -0.19412246247E+04  0.19412246248E+04  0.50400001928E-02 0.  1.
    10030    2    1    2    0    0  0.00000000000E+00  0.00000000000E+00 -0.19013598896E+04  0.19810893602E+04  0.55636824422E+03 0.  0.
        3    1    3    3  502    0 -0.17055006728E+03  0.76937860200E+02 -0.21765231985E+03  0.28701794773E+03  0.10100000352E+00 0. -1.
       -3    1    3    3    0  502  0.17055006728E+03 -0.76937860200E+02 -0.16837075698E+04  0.16940714125E+04  0.10100000352E+00 0.  1.
</event>
<event>
 5   0  0.1497410E-02  0.9786780E+03  0.7818609E-02  0.9332245E-01
        1   -1    0    0  501    0  0.00000000000E+00  0.00000000000E+00  0.88365932625E+03  0.88365932627E+03  0.50400001928E-02 0.  1.
       -1   -1    0    0    0  501  0.00000000000E+00  0.00000000000E+00 -0.27097848054E+03  0.27097848058E+03  0.50400001928E-02 0. -1.
    10030    2    1    2    0    0  0.00000000000E+00  0.00000000000E+00  0.61268084572E+03  0.11546378069E+04  0.97867800951E+03 0.  0.
        3    1    3    3  502    0 -0.10026630985E+03  0.43716702915E+03  0.75497619685E+02  0.45482770919E+03  0.10100000352E+00 0. -1.
       -3    1    3    3    0  502  0.10026630985E+03 -0.43716702915E+03  0.53718322603E+03  0.69981009767E+03  0.10100000352E+00 0.  1.
</event>
<event>
 5   0  0.2803717E-02  0.8652199E+03  0.7818609E-02  0.9470134E-01
       -2   -1    0    0    0  501  0.00000000000E+00  0.00000000000E+00  0.13691665094E+03  0.13691665096E+03  0.25500000920E-02 0.  1.
        2   -1    0    0  501    0  0.00000000000E+00  0.00000000000E+00 -0.13668999944E+04  0.13668999944E+04  0.25500000920E-02 0. -1.
    10030    2    1    2    0    0  0.00000000000E+00  0.00000000000E+00 -0.12299833434E+04  0.15038166453E+04  0.86521990133E+03 0.  0.
        5    1    3    3  502    0  0.15809487314E+03  0.15414195135E+02  0.84348889212E+02  0.17991223259E+03  0.46999998093E+01 0.  1.
       -5    1    3    3    0  502 -0.15809487314E+03 -0.15414195135E+02 -0.13143322326E+04  0.13239044127E+04  0.46999998093E+01 0. -1.
</event>
<event>
 5   0  0.2414128E-02  0.8903474E+03  0.7818609E-02  0.9437729E-01
       -2   -1    0    0    0  501  0.00000000000E+00  0.00000000000E+00  0.51215699024E+03  0.51215699024E+03  0.25500000920E-02 0.  1.
        2   -1    0    0  501    0  0.00000000000E+00  0.00000000000E+00 -0.38695091087E+03  0.38695091088E+03  0.25500000920E-02 0. -1.
    10030    2    1    2    0    0  0.00000000000E+00  0.00000000000E+00  0.12520607937E+03  0.89910790112E+03  0.89034737915E+03 0.  0.
        3    1    3    3  502    0 -0.14892046876E+03  0.26252884751E+03  0.39305500546E+03  0.49557133624E+03  0.10100000352E+00 0.  1.
       -3    1    3    3    0  502  0.14892046876E+03 -0.26252884751E+03 -0.26784892609E+03  0.40353656488E+03  0.10100000352E+00 0. -1.
</event>
<event>
 5   0  0.1537870E-02  0.9115582E+03  0.7818609E-02  0.9411247E-01
       -1   -1    0    0    0  501  0.00000000000E+00  0.00000000000E+00  0.35676557479E+03  0.35676557483E+03  0.50400001928E-02 0.  1.
        1   -1    0    0  501    0  0.00000000000E+00  0.00000000000E+00 -0.58227199012E+03  0.58227199014E+03  0.50400001928E-02 0. -1.
    10030    2    1    2    0    0  0.00000000000E+00  0.00000000000E+00 -0.22550641532E+03  0.93903756497E+03  0.91155822912E+03 0.  0.
        5    1    3    3  502    0  0.31485097277E+03  0.29548265164E+03 -0.26299694240E+03  0.50559926244E+03  0.46999998093E+01 0.  1.
       -5    1    3    3    0  502 -0.31485097277E+03 -0.29548265164E+03  0.37490527075E+02  0.43343830252E+03  0.46999998093E+01 0. -1.
</event>
<event>
 5   0  0.2628383E-02  0.9025967E+03  0.7818609E-02  0.9422341E-01
       -2   -1    0    0    0  501  0.00000000000E+00  0.00000000000E+00  0.15217823472E+03  0.15217823474E+03  0.25500000920E-02 0. -1.
        2   -1    0    0  501    0  0.00000000000E+00  0.00000000000E+00 -0.13383661941E+04  0.13383661941E+04  0.25500000920E-02 0.  1.
    10030    2    1    2    0    0  0.00000000000E+00  0.00000000000E+00 -0.11861879594E+04  0.14905444289E+04  0.90259670916E+03 0.  0.
        2    1    3    3  502    0  0.33926251556E+03  0.13251155500E+03 -0.10331587044E+04  0.10954794727E+04  0.25500000920E-02 0.  1.
       -2    1    3    3    0  502 -0.33926251556E+03 -0.13251155500E+03 -0.15302925500E+03  0.39506495614E+03  0.25500000920E-02 0. -1.
</event>
<event>
 5   0  0.1559275E-02  0.9226284E+03  0.7818609E-02  0.9397729E-01
        1   -1    0    0  501    0  0.00000000000E+00  0.00000000000E+00  0.39351213472E+03  0.39351213475E+03  0.50400001928E-02 0.  1.
       -1   -1    0    0    0  501  0.00000000000E+00  0.00000000000E+00 -0.54079859751E+03  0.54079859753E+03  0.50400001928E-02 0. -1.
    10030    2    1    2    0    0  0.00000000000E+00  0.00000000000E+00 -0.14728646279E+03  0.93431073229E+03  0.92262844219E+03 0.  0.
        1    1    3    3  502    0  0.10978955178E+03 -0.53325033318E+02  0.37686446496E+03  0.39613650404E+03  0.50400001928E-02 0.  1.
       -1    1    3    3    0  502 -0.10978955178E+03  0.53325033318E+02 -0.52415092775E+03  0.53817422824E+03  0.50400001928E-02 0. -1.
</event>
<event>
 5   0  0.1537870E-02  0.9036537E+03  0.7818609E-02  0.9421026E-01
       -1   -1    0    0    0  501  0.00000000000E+00  0.00000000000E+00  0.18935583226E+03  0.18935583233E+03  0.50400001928E-02 0. -1.
        1   -1    0    0  501    0  0.00000000000E+00  0.00000000000E+00 -0.10781157259E+04  0.10781157259E+04  0.50400001928E-02 0.  1.
    10030    2    1    2    0    0  0.00000000000E+00  0.00000000000E+00 -0.88875989366E+03  0.12674715583E+04  0.90365369608E+03 0.  0.
        5    1    3    3  502    0  0.15217891941E+03  0.12650808551E+02 -0.10407883398E+04  0.10519415026E+04  0.46999998093E+01 0.  1.
       -5    1    3    3    0  502 -0.15217891941E+03 -0.12650808551E+02  0.15202844617E+03  0.21553005571E+03  0.46999998093E+01 0. -1.
</event>
<event>
 5   0  0.2414128E-02  0.9187629E+03  0.7818609E-02  0.9402426E-01
        2   -1    0    0  501    0  0.00000000000E+00  0.00000000000E+00  0.54605955687E+03  0.54605955688E+03  0.25500000920E-02 0.  1.
       -2   -1    0    0    0  501  0.00000000000E+00  0.00000000000E+00 -0.38646207383E+03  0.38646207384E+03  0.25500000920E-02 0. -1.
    10030    2    1    2    0    0  0.00000000000E+00  0.00000000000E+00  0.15959748304E+03  0.93252163072E+03  0.91876288299E+03 0.  0.
        3    1    3    3  502    0 -0.84846522107E+02 -0.17389438030E+02 -0.37810022241E+03  0.38789317248E+03  0.10100000352E+00 0. -1.
       -3    1    3    3    0  502  0.84846522107E+02  0.17389438030E+02  0.53769770546E+03  0.54462845824E+03  0.10100000352E+00 0.  1.
</event>
<event>
 5   0  0.1459111E-02  0.5534704E+03  0.7818609E-02  0.1000694E+00
        1   -1    0    0  501    0  0.00000000000E+00  0.00000000000E+00  0.49511421722E+03  0.49511421724E+03  0.50400001928E-02 0.  1.
       -1   -1    0    0    0  501  0.00000000000E+00  0.00000000000E+00 -0.15467616069E+03  0.15467616077E+03  0.50400001928E-02 0. -1.
    10030    2    1    2    0    0  0.00000000000E+00  0.00000000000E+00  0.34043805653E+03  0.64979037802E+03  0.55347038316E+03 0.  0.
        2    1    3    3  502    0  0.19988848032E+03 -0.58752245359E+02 -0.43619147869E+02  0.21286113071E+03  0.25500000920E-02 0. -1.
       -2    1    3    3    0  502 -0.19988848032E+03  0.58752245359E+02  0.38405720440E+03  0.43692924731E+03  0.25500000920E-02 0.  1.
</event>
<event>
 5   0  0.1497410E-02  0.8988286E+03  0.7818609E-02  0.9427047E-01
       -1   -1    0    0    0  501  0.00000000000E+00  0.00000000000E+00  0.15351152226E+04  0.15351152226E+04  0.50400001928E-02 0. -1.
        1   -1    0    0  501    0  0.00000000000E+00  0.00000000000E+00 -0.13156875578E+03  0.13156875587E+03  0.50400001928E-02 0.  1.
    10030    2    1    2    0    0  0.00000000000E+00  0.00000000000E+00  0.14035464668E+04  0.16666839785E+04  0.89882857074E+03 0.  0.
        3    1    3    3  502    0 -0.25892297681E+02  0.40640311031E+03  0.10542789816E+04  0.11301938242E+04  0.10100000352E+00 0. -1.
       -3    1    3    3    0  502  0.25892297681E+02 -0.40640311031E+03  0.34926748523E+03  0.53649015423E+03  0.10100000352E+00 0.  1.
</event>
<event>
 5   0  0.1537870E-02  0.9321138E+03  0.7818609E-02  0.9386305E-01
       -1   -1    0    0    0  501  0.00000000000E+00  0.00000000000E+00  0.27863492240E+03  0.27863492244E+03  0.50400001928E-02 0. -1.
        1   -1    0    0  501    0  0.00000000000E+00  0.00000000000E+00 -0.77954703865E+03  0.77954703867E+03  0.50400001928E-02 0.  1.
    10030    2    1    2    0    0  0.00000000000E+00  0.00000000000E+00 -0.50091211625E+03  0.10581819611E+04  0.93211378845E+03 0.  0.
        5    1    3    3  502    0  0.22217237115E+03 -0.21948576561E+03  0.14223596812E+03  0.34320216263E+03  0.46999998093E+01 0. -1.
       -5    1    3    3    0  502 -0.22217237115E+03  0.21948576561E+03 -0.64314808437E+03  0.71497979848E+03  0.46999998093E+01 0.  1.
</event>
<event>
 5   0  0.1459111E-02  0.8911809E+03  0.7818609E-02  0.9436673E-01
        1   -1    0    0  501    0  0.00000000000E+00  0.00000000000E+00  0.50856817184E+03  0.50856817187E+03  0.50400001928E-02 0. -1.
       -1   -1    0    0    0  501  0.00000000000E+00  0.00000000000E+00 -0.39041146399E+03  0.39041146402E+03  0.50400001928E-02 0.  1.
    10030    2    1    2    0    0  0.00000000000E+00  0.00000000000E+00  0.11815670786E+03  0.89897963589E+03  0.89118088968E+03 0.  0.
        2    1    3    3  502    0  0.31047223663E+03 -0.27651219855E+03  0.22078979214E+03  0.47074423840E+03  0.25500000920E-02 0. -1.
       -2    1    3    3    0  502 -0.31047223663E+03  0.27651219855E+03 -0.10263308428E+03  0.42823539749E+03  0.25500000920E-02 0.  1.
</event>
<event>
 5   0  0.1040163E-02  0.8975543E+03  0.7818609E-02  0.9428644E-01
        3   -1    0    0  501    0  0.00000000000E+00  0.00000000000E+00  0.28984739225E+03  0.28984740985E+03  0.10100000352E+00 0.  1.
       -3   -1    0    0    0  501  0.00000000000E+00  0.00000000000E+00 -0.69485165437E+03  0.69485166171E+03  0.10100000352E+00 0. -1.
    10030    2    1    2    0    0  0.00000000000E+00  0.00000000000E+00 -0.40500426212E+03  0.98469907156E+03  0.89755434888E+03 0.  0.
        3    1    3    3  502    0 -0.30559548242E+03  0.32553560236E+03 -0.25204056969E+03  0.51272457153E+03  0.10100000352E+00 0.  1.
       -3    1    3    3    0  502  0.30559548242E+03 -0.32553560236E+03 -0.15296369242E+03  0.47197450003E+03  0.10100000352E+00 0. -1.
</event>
<event>
 5   0  0.2705111E-02  0.9094637E+03  0.7818609E-02  0.9413828E-01
        2   -1    0    0  501    0  0.00000000000E+00  0.00000000000E+00  0.77212563721E+03  0.77212563722E+03  0.25500000920E-02 0. -1.
       -2   -1    0    0    0  501  0.00000000000E+00  0.00000000000E+00 -0.26780751236E+03  0.26780751237E+03  0.25500000920E-02 0.  1.
    10030    2    1    2    0    0  0.00000000000E+00  0.00000000000E+00  0.50431812485E+03  0.10399331496E+04  0.90946367963E+03 0.  0.
        4    1    3    3  502    0  0.13175872874E+03  0.42643156818E+03  0.15263759318E+03  0.47170339483E+03  0.12699999809E+01 0.  1.
       -4    1    3    3    0  502 -0.13175872874E+03 -0.42643156818E+03  0.35168053167E+03  0.56822975476E+03  0.12699999809E+01 0. -1.
</event>
<event>
 5   0  0.1560728E-02  0.8607897E+03  0.7818609E-02  0.9475969E-01
       -1   -1    0    0    0  501  0.00000000000E+00  0.00000000000E+00  0.34723338771E+03  0.34723338775E+03  0.50400001928E-02 0.  1.
        1   -1    0    0  501    0  0.00000000000E+00  0.00000000000E+00 -0.53347326171E+03  0.53347326173E+03  0.50400001928E-02 0. -1.
    10030    2    1    2    0    0  0.00000000000E+00  0.00000000000E+00 -0.18623987400E+03  0.88070664948E+03  0.86078970241E+03 0.  0.
        4    1    3    3  502    0  0.17487818097E+02 -0.42295974723E+03 -0.17261811128E+03  0.45716451831E+03  0.12699999809E+01 0. -1.
       -4    1    3    3    0  502 -0.17487818097E+02  0.42295974723E+03 -0.13621762715E+02  0.42354213117E+03  0.12699999809E+01 0.  1.
</event>
<event>
 5   0  0.1497410E-02  0.8325695E+03  0.7818609E-02  0.9514035E-01
       -1   -1    0    0    0  501  0.00000000000E+00  0.00000000000E+00  0.30509763087E+03  0.30509763091E+03  0.50400001928E-02 0. -1.
        1   -1    0    0  501    0  0.00000000000E+00  0.00000000000E+00 -0.56799195617E+03  0.56799195619E+03  0.50400001928E-02 0.  1.
    10030    2    1    2    0    0  0.00000000000E+00  0.00000000000E+00 -0.26289432530E+03  0.87308958710E+03  0.83256951712E+03 0.  0.
        3    1    3    3  502    0  0.25817353985E+03  0.28452497928E+03 -0.29951231002E+03  0.48715056663E+03  0.10100000352E+00 0. -1.
       -3    1    3    3    0  502 -0.25817353985E+03 -0.28452497928E+03  0.36617984715E+02  0.38593902047E+03  0.10100000352E+00 0.  1.
</event>
<event>
 5   0  0.1040163E-02  0.9024854E+03  0.7818609E-02  0.9422480E-01
        4   -1    0    0  501    0  0.00000000000E+00  0.00000000000E+00  0.56586544130E+03  0.56586686646E+03  0.12699999809E+01 0. -1.
       -4   -1    0    0    0  501  0.00000000000E+00  0.00000000000E+00 -0.35983517175E+03  0.35983741291E+03  0.12699999809E+01 0.  1.
    10030    2    1    2    0    0  0.00000000000E+00  0.00000000000E+00  0.20603026955E+03  0.92570427937E+03  0.90248542419E+03 0.  0.
        4    1    3    3  502    0  0.28324944105E+03  0.16297176659E+03 -0.21616311962E+03  0.39181392235E+03  0.12699999809E+01 0.  1.
       -4    1    3    3    0  502 -0.28324944105E+03 -0.16297176659E+03  0.42219338917E+03  0.53389035702E+03  0.12699999809E+01 0. -1.
</event>
<event>
 5   0  0.2679861E-02  0.9171978E+03  0.7818609E-02  0.9404335E-01
       -2   -1    0    0    0  501  0.00000000000E+00  0.00000000000E+00  0.14398773447E+03  0.14398773450E+03  0.25500000920E-02 0.  1.
        2   -1    0    0  501    0  0.00000000000E+00  0.00000000000E+00 -0.14606311328E+04  0.14606311328E+04  0.25500000920E-02 0. -1.
    10030    2    1    2    0    0  0.00000000000E+00  0.00000000000E+00 -0.13166433983E+04  0.16046188673E+04  0.91719783632E+03 0.  0.
        1    1    3    3  502    0  0.55087460032E+02 -0.44866128300E+03 -0.79362550950E+03  0.91333073116E+03  0.50400001928E-02 0. -1.
       -1    1    3    3    0  502 -0.55087460032E+02  0.44866128300E+03 -0.52301788883E+03  0.69128813615E+03  0.50400001928E-02 0.  1.
</event>
<event>
 5   0  0.2414128E-02  0.8769789E+03  0.7818609E-02  0.9454825E-01
        2   -1    0    0  501    0  0.00000000000E+00  0.00000000000E+00  0.13472445175E+04  0.13472445175E+04  0.25500000920E-02 0.  1.
       -2   -1    0    0    0  501  0.00000000000E+00  0.00000000000E+00 -0.14271574421E+03  0.14271574423E+03  0.25500000920E-02 0. -1.
    10030    2    1    2    0    0  0.00000000000E+00  0.00000000000E+00  0.12045287733E+04  0.14899602617E+04  0.87697891415E+03 0.  0.
        3    1    3    3  502    0 -0.29797173711E+01 -0.24734634768E+03  0.12173848997E+04  0.12422620893E+04  0.10100000352E+00 0.  1.
       -3    1    3    3    0  502  0.29797173711E+01  0.24734634768E+03 -0.12856126382E+02  0.24769817241E+03  0.10100000352E+00 0. -1.
</event>
<event>
 5   0  0.2414128E-02  0.8849993E+03  0.7818609E-02  0.9444530E-01
        2   -1    0    0  501    0  0.00000000000E+00  0.00000000000E+00  0.59914664909E+03  0.59914664909E+03  0.25500000920E-02 0. -1.
       -2   -1    0    0    0  501  0.00000000000E+00  0.00000000000E+00 -0.32680800266E+03  0.32680800267E+03  0.25500000920E-02 0.  1.
    10030    2    1    2    0    0  0.00000000000E+00  0.00000000000E+00  0.27233864643E+03  0.92595465177E+03  0.88499925355E+03 0.  0.
        3    1    3    3  502    0  0.25946979143E+03 -0.34218020498E+03  0.24486659822E+02  0.43012959914E+03  0.10100000352E+00 0. -1.
       -3    1    3    3    0  502 -0.25946979143E+03  0.34218020498E+03  0.24785198660E+03  0.49582505263E+03  0.10100000352E+00 0.  1.
</event>
<event>
 5   0  0.1560728E-02  0.8875475E+03  0.7818609E-02  0.9441283E-01
        1   -1    0    0  501    0  0.00000000000E+00  0.00000000000E+00  0.76750925932E+03  0.76750925934E+03  0.50400001928E-02 0.  1.
       -1   -1    0    0    0  501  0.00000000000E+00  0.00000000000E+00 -0.25658994347E+03  0.25658994352E+03  0.50400001928E-02 0. -1.
    10030    2    1    2    0    0  0.00000000000E+00  0.00000000000E+00  0.51091931585E+03  0.10240992029E+04  0.88754753675E+03 0.  0.
        4    1    3    3  502    0  0.78887154176E+02 -0.14391975348E+03 -0.22028249001E+03  0.27470359816E+03  0.12699999809E+01 0. -1.
       -4    1    3    3    0  502 -0.78887154176E+02  0.14391975348E+03  0.73120180587E+03  0.74939560470E+03  0.12699999809E+01 0.  1.
</event>
<event>
 5   0  0.2679861E-02  0.8954107E+03  0.7818609E-02  0.9431336E-01
        2   -1    0    0  501    0  0.00000000000E+00  0.00000000000E+00  0.15591740413E+04  0.15591740413E+04  0.25500000920E-02 0.  1.
       -2   -1    0    0    0  501  0.00000000000E+00  0.00000000000E+00 -0.12855530482E+03  0.12855530484E+03  0.25500000920E-02 0. -1.
    10030    2    1    2    0    0  0.00000000000E+00  0.00000000000E+00  0.14306187365E+04  0.16877293462E+04  0.89541073071E+03 0.  0.
        1    1    3    3  502    0 -0.42089170236E+02  0.37793217055E+03  0.26992276241E+03  0.46632876973E+03  0.50400001928E-02 0. -1.
       -1    1    3    3    0  502  0.42089170236E+02 -0.37793217055E+03  0.11606959741E+04  0.12214005764E+04  0.50400001928E-02 0.  1.
</event>
<event>
 5   0  0.1459111E-02  0.9272901E+03  0.7818609E-02  0.9392096E-01
        1   -1    0    0  501    0  0.00000000000E+00  0.00000000000E+00  0.12277004856E+04  0.12277004856E+04  0.50400001928E-02 0. -1.
       -1   -1    0    0    0  501  0.00000000000E+00  0.00000000000E+00 -0.17509705854E+03  0.17509705861E+03  0.50400001928E-02 0.  1.
    10030    2    1    2    0    0  0.00000000000E+00  0.00000000000E+00  0.10526034270E+04  0.14027975442E+04  0.92729012470E+03 0.  0.
        2    1    3    3  502    0 -0.11119428140E+03  0.44496218752E+03  0.62902942826E+03  0.77848155930E+03  0.25500000920E-02 0.  1.
       -2    1    3    3    0  502  0.11119428140E+03 -0.44496218752E+03  0.42357399875E+03  0.62431598487E+03  0.25500000920E-02 0. -1.
</event>
<event>
 5   0  0.1559275E-02  0.8815313E+03  0.7818609E-02  0.9448967E-01
       -1   -1    0    0    0  501  0.00000000000E+00  0.00000000000E+00  0.28191633469E+03  0.28191633474E+03  0.50400001928E-02 0.  1.
        1   -1    0    0  501    0  0.00000000000E+00  0.00000000000E+00 -0.68912060016E+03  0.68912060018E+03  0.50400001928E-02 0. -1.
    10030    2    1    2    0    0  0.00000000000E+00  0.00000000000E+00 -0.40720426547E+03  0.97103693492E+03  0.88153128995E+03 0.  0.
        1    1    3    3  502    0  0.21142501468E+03  0.38634804842E+03 -0.18423885152E+03  0.47739847694E+03  0.50400001928E-02 0. -1.
       -1    1    3    3    0  502 -0.21142501468E+03 -0.38634804842E+03 -0.22296541395E+03  0.49363845798E+03  0.50400001928E-02 0.  1.
</event>
<event>
 5   0  0.1537870E-02  0.8946835E+03  0.7818609E-02  0.9432252E-01
       -1   -1    0    0    0  501  0.00000000000E+00  0.00000000000E+00  0.26953633945E+03  0.26953633950E+03  0.50400001928E-02 0. -1.
        1   -1    0    0  501    0  0.00000000000E+00  0.00000000000E+00 -0.74244027689E+03  0.74244027690E+03  0.50400001928E-02 0.  1.
    10030    2    1    2    0    0  0.00000000000E+00  0.00000000000E+00 -0.47290393744E+03  0.10119766164E+04  0.89468348487E+03 0.  0.
        5    1    3    3  502    0  0.20551839078E+03 -0.31874361466E+03 -0.50473319442E+03  0.63135805086E+03  0.46999998093E+01 0.  1.
       -5    1    3    3    0  502 -0.20551839078E+03  0.31874361466E+03  0.31829256979E+02  0.38061856554E+03  0.46999998093E+01 0. -1.
</event>
<event>
 5   0  0.2628383E-02  0.9123364E+03  0.7818609E-02  0.9410290E-01
        2   -1    0    0  501    0  0.00000000000E+00  0.00000000000E+00  0.75834688734E+03  0.75834688735E+03  0.25500000920E-02 0. -1.
       -2   -1    0    0    0  501  0.00000000000E+00  0.00000000000E+00 -0.27439871603E+03  0.27439871604E+03  0.25500000920E-02 0.  1.
    10030    2    1    2    0    0  0.00000000000E+00  0.00000000000E+00  0.48394817131E+03  0.10327456034E+04  0.91233636823E+03 0.  0.
        2    1    3    3  502    0 -0.34520789635E+03  0.16860227496E+03 -0.36442570047E+02  0.38590579128E+03  0.25500000920E-02 0.  1.
       -2    1    3    3    0  502  0.34520789635E+03 -0.16860227496E+03  0.52039074136E+03  0.64683981211E+03  0.25500000920E-02 0. -1.
</event>
<event>
 5   0  0.2679861E-02  0.7256657E+03  0.7818609E-02  0.9674320E-01
        2   -1    0    0  501    0  0.00000000000E+00  0.00000000000E+00  0.53266268845E+03  0.53266268846E+03  0.25500000920E-02 0. -1.
       -2   -1    0    0    0  501  0.00000000000E+00  0.00000000000E+00 -0.24715018760E+03  0.24715018762E+03  0.25500000920E-02 0.  1.
    10030    2    1    2    0    0  0.00000000000E+00  0.00000000000E+00  0.28551250085E+03  0.77981287608E+03  0.72566571750E+03 0.  0.
        1    1    3    3  502    0  0.52276247921E+02 -0.22531876690E+03  0.44316189631E+03  0.49989380790E+03  0.50400001928E-02 0. -1.
       -1    1    3    3    0  502 -0.52276247921E+02  0.22531876690E+03 -0.15764939546E+03  0.27991906818E+03  0.50400001928E-02 0.  1.
</event>
<event>
 5   0  0.2414128E-02  0.9067325E+03  0.7818609E-02  0.9417204E-01
       -2   -1    0    0    0  501  0.00000000000E+00  0.00000000000E+00  0.33901139358E+03  0.33901139359E+03  0.25500000920E-02 0. -1.
        2   -1    0    0  501    0  0.00000000000E+00  0.00000000000E+00 -0.60629507742E+03  0.60629507743E+03  0.25500000920E-02 0.  1.
    10030    2    1    2    0    0  0.00000000000E+00  0.00000000000E+00 -0.26728368385E+03  0.94530647102E+03  0.90673246137E+03 0.  0.
        3    1    3    3  502    0 -0.37062226178E+02 -0.19676707657E+03 -0.55770144489E+03  0.59255531629E+03  0.10100000352E+00 0.  1.
       -3    1    3    3    0  502  0.37062226178E+02  0.19676707657E+03  0.29041776104E+03  0.35275115473E+03  0.10100000352E+00 0. -1.
</event>
<event>
 5   0  0.1537870E-02  0.8699394E+03  0.7818609E-02  0.9463959E-01
        1   -1    0    0  501    0  0.00000000000E+00  0.00000000000E+00  0.18799924608E+04  0.18799924608E+04  0.50400001928E-02 0.  1.
       -1   -1    0    0    0  501  0.00000000000E+00  0.00000000000E+00 -0.10063797697E+03  0.10063797710E+03  0.50400001928E-02 0. -1.
    10030    2    1    2    0    0  0.00000000000E+00  0.00000000000E+00  0.17793544839E+04  0.19806304379E+04  0.86993939583E+03 0.  0.
        5    1    3    3  502    0  0.24756859476E+03  0.21294569517E+01  0.17038542389E+04  0.17217537864E+04  0.46999998093E+01 0.  1.
       -5    1    3    3    0  502 -0.24756859476E+03 -0.21294569517E+01  0.75500244951E+02  0.25887665148E+03  0.46999998093E+01 0. -1.
</event>
<event>
 5   0  0.1040163E-02  0.9517020E+03  0.7818609E-02  0.9363163E-01
        4   -1    0    0  501    0  0.00000000000E+00  0.00000000000E+00  0.14328047671E+03  0.14328610507E+03  0.12699999809E+01 0.  1.
       -4   -1    0    0    0  501  0.00000000000E+00  0.00000000000E+00 -0.15803190893E+04  0.15803195996E+04  0.12699999809E+01 0. -1.
    10030    2    1    2    0    0  0.00000000000E+00  0.00000000000E+00 -0.14370386126E+04  0.17236057047E+04  0.95170197601E+03 0.  0.
        4    1    3    3  502    0  0.15822489751E+03 -0.11768233016E+03 -0.15028397201E+04  0.15157219687E+04  0.12699999809E+01 0. -1.
       -4    1    3    3    0  502 -0.15822489751E+03  0.11768233016E+03  0.65801107573E+02  0.20788373598E+03  0.12699999809E+01 0.  1.
</event>
<event>
 5   0  0.2705111E-02  0.8894724E+03  0.7818609E-02  0.9438838E-01
       -2   -1    0    0    0  501  0.00000000000E+00  0.00000000000E+00  0.12739195302E+03  0.12739195305E+03  0.25500000920E-02 0. -1.
        2   -1    0    0  501    0  0.00000000000E+00  0.00000000000E+00 -0.15526120847E+04  0.15526120847E+04  0.25500000920E-02 0.  1.
    10030    2    1    2    0    0  0.00000000000E+00  0.00000000000E+00 -0.14252201317E+04  0.16800040378E+04  0.88947239594E+03 0.  0.
        4    1    3    3  502    0 -0.13375911408E+03  0.37975909202E+03 -0.10693826854E+04  0.11426676723E+04  0.12699999809E+01 0.  1.
       -4    1    3    3    0  502  0.13375911408E+03 -0.37975909202E+03 -0.35583744625E+03  0.53733636544E+03  0.12699999809E+01 0. -1.
</event>
<event>
 5   0  0.2679861E-02  0.6921018E+03  0.7818609E-02  0.9730835E-01
        2   -1    0    0  501    0  0.00000000000E+00  0.00000000000E+00  0.80410068047E+03  0.80410068048E+03  0.25500000920E-02 0. -1.
       -2   -1    0    0    0  501  0.00000000000E+00  0.00000000000E+00 -0.14892567577E+03  0.14892567580E+03  0.25500000920E-02 0.  1.
    10030    2    1    2    0    0  0.00000000000E+00  0.00000000000E+00  0.65517500470E+03  0.95302635627E+03  0.69210183425E+03 0.  0.
        1    1    3    3  502    0 -0.30488168363E+03  0.81507456228E+02  0.52307796149E+03  0.61090658881E+03  0.50400001928E-02 0. -1.
       -1    1    3    3    0  502  0.30488168363E+03 -0.81507456228E+02  0.13209704321E+03  0.34211976746E+03  0.50400001928E-02 0.  1.
</event>
<event>
 5   0  0.1560728E-02  0.8704991E+03  0.7818609E-02  0.9463229E-01
       -1   -1    0    0    0  501  0.00000000000E+00  0.00000000000E+00  0.27379023234E+03  0.27379023239E+03  0.50400001928E-02 0.  1.
        1   -1    0    0  501    0  0.00000000000E+00  0.00000000000E+00 -0.69192456768E+03  0.69192456770E+03  0.50400001928E-02 0. -1.
    10030    2    1    2    0    0  0.00000000000E+00  0.00000000000E+00 -0.41813433534E+03  0.96571480009E+03  0.87049913998E+03 0.  0.
        4    1    3    3  502    0  0.17869911943E+03 -0.26533240959E+03 -0.53648652972E+03  0.62462314425E+03  0.12699999809E+01 0. -1.
       -4    1    3    3    0  502 -0.17869911943E+03  0.26533240959E+03  0.11835219437E+03  0.34109165583E+03  0.12699999809E+01 0.  1.
</event>
<event>
 5   0  0.1537870E-02  0.1011461E+04  0.7818609E-02  0.9296063E-01
        1   -1    0    0  501    0  0.00000000000E+00  0.00000000000E+00  0.77515868478E+03  0.77515868480E+03  0.50400001928E-02 0.  1.
       -1   -1    0    0    0  501  0.00000000000E+00  0.00000000000E+00 -0.32994953127E+03  0.32994953131E+03  0.50400001928E-02 0. -1.
    10030    2    1    2    0    0  0.00000000000E+00  0.00000000000E+00  0.44520915351E+03  0.11051082161E+04  0.10114608143E+04 0.  0.
        5    1    3    3  502    0  0.35053402277E+03  0.31236635056E+03  0.42786637746E+03  0.63524685362E+03  0.46999998093E+01 0. -1.
       -5    1    3    3    0  502 -0.35053402277E+03 -0.31236635056E+03  0.17342776044E+02  0.46986136249E+03  0.46999998093E+01 0.  1.
</event>
<event>
 5   0  0.2803717E-02  0.8220580E+03  0.7818609E-02  0.9528627E-01
        2   -1    0    0  501    0  0.00000000000E+00  0.00000000000E+00  0.24573502150E+03  0.24573502151E+03  0.25500000920E-02 0.  1.
       -2   -1    0    0    0  501  0.00000000000E+00  0.00000000000E+00 -0.68750821938E+03  0.68750821939E+03  0.25500000920E-02 0. -1.
    10030    2    1    2    0    0  0.00000000000E+00  0.00000000000E+00 -0.44177319788E+03  0.93324324090E+03  0.82205802004E+03 0.  0.
        5    1    3    3  502    0  0.56567323587E+02 -0.32490539735E+03 -0.49933456525E+03  0.59843168146E+03  0.46999998093E+01 0. -1.
       -5    1    3    3    0  502 -0.56567323587E+02  0.32490539735E+03  0.57561367366E+02  0.33481155944E+03  0.46999998093E+01 0.  1.
</event>
<event>
 5   0  0.2803717E-02  0.8960012E+03  0.7818609E-02  0.9430594E-01
       -2   -1    0    0    0  501  0.00000000000E+00  0.00000000000E+00  0.26282761153E+03  0.26282761154E+03  0.25500000920E-02 0.  1.
        2   -1    0    0  501    0  0.00000000000E+00  0.00000000000E+00 -0.76363570846E+03  0.76363570846E+03  0.25500000920E-02 0. -1.
    10030    2    1    2    0    0  0.00000000000E+00  0.00000000000E+00 -0.50080809693E+03  0.10264633200E+04  0.89600122621E+03 0.  0.
        5    1    3    3  502    0 -0.32721888886E+03 -0.15308641482E+03 -0.55388081379E+03  0.66129698133E+03  0.46999998093E+01 0. -1.
       -5    1    3    3    0  502  0.32721888886E+03  0.15308641482E+03  0.53072716863E+02  0.36516633868E+03  0.46999998093E+01 0.  1.
</event>
<event>
 5   0  0.2803717E-02  0.8021349E+03  0.7818609E-02  0.9556932E-01
        2   -1    0    0  501    0  0.00000000000E+00  0.00000000000E+00  0.87880742658E+03  0.87880742658E+03  0.25500000920E-02 0. -1.
       -2   -1    0    0    0  501  0.00000000000E+00  0.00000000000E+00 -0.18303792608E+03  0.18303792610E+03  0.25500000920E-02 0.  1.
    10030    2    1    2    0    0  0.00000000000E+00  0.00000000000E+00  0.69576950050E+03  0.10618453527E+04  0.80213487343E+03 0.  0.
        5    1    3    3  502    0  0.25810163189E+03  0.78699659583E+02 -0.44861216320E+02  0.27357760788E+03  0.46999998093E+01 0.  1.
       -5    1    3    3    0  502 -0.25810163189E+03 -0.78699659583E+02  0.74063071682E+03  0.78826774480E+03  0.46999998093E+01 0. -1.
</event>
<event>
 5   0  0.2705111E-02  0.1085331E+04  0.7818609E-02  0.9219609E-01
       -2   -1    0    0    0  501  0.00000000000E+00  0.00000000000E+00  0.31094155404E+03  0.31094155405E+03  0.25500000920E-02 0.  1.
        2   -1    0    0  501    0  0.00000000000E+00  0.00000000000E+00 -0.94707739236E+03  0.94707739236E+03  0.25500000920E-02 0. -1.
    10030    2    1    2    0    0  0.00000000000E+00  0.00000000000E+00 -0.63613583832E+03  0.12580189464E+04  0.10853307628E+04 0.  0.
        4    1    3    3  502    0  0.29188148491E+03  0.30175499429E+03  0.80493115592E+02  0.42747120648E+03  0.12699999809E+01 0.  1.
       -4    1    3    3    0  502 -0.29188148491E+03 -0.30175499429E+03 -0.71662895391E+03  0.83054773992E+03  0.12699999809E+01 0. -1.
</event>
<event>
 5   0  0.2705111E-02  0.8102975E+03  0.7818609E-02  0.9545230E-01
        2   -1    0    0  501    0  0.00000000000E+00  0.00000000000E+00  0.13561752315E+04  0.13561752315E+04  0.25500000920E-02 0.  1.
       -2   -1    0    0    0  501  0.00000000000E+00  0.00000000000E+00 -0.12103562921E+03  0.12103562924E+03  0.25500000920E-02 0. -1.
    10030    2    1    2    0    0  0.00000000000E+00  0.00000000000E+00  0.12351396023E+04  0.14772108608E+04  0.81029753176E+03 0.  0.
        4    1    3    3  502    0 -0.25312691489E+02  0.27657017494E+03  0.11553289900E+04  0.11882417608E+04  0.12699999809E+01 0.  1.
       -4    1    3    3    0  502  0.25312691489E+02 -0.27657017494E+03  0.79810612323E+02  0.28896910000E+03  0.12699999809E+01 0. -1.
</event>
<event>
 5   0  0.1537870E-02  0.8165582E+03  0.7818609E-02  0.9536354E-01
       -1   -1    0    0    0  501  0.00000000000E+00  0.00000000000E+00  0.55862144084E+03  0.55862144086E+03  0.50400001928E-02 0. -1.
        1   -1    0    0  501    0  0.00000000000E+00  0.00000000000E+00 -0.29839856188E+03  0.29839856192E+03  0.50400001928E-02 0.  1.
    10030    2    1    2    0    0  0.00000000000E+00  0.00000000000E+00  0.26022287896E+03  0.85702000278E+03  0.81655822721E+03 0.  0.
        5    1    3    3  502    0  0.21112462204E+03 -0.27977199448E+03 -0.89603033583E+02  0.36179658450E+03  0.46999998093E+01 0.  1.
       -5    1    3    3    0  502 -0.21112462204E+03  0.27977199448E+03  0.34982591254E+03  0.49522341828E+03  0.46999998093E+01 0. -1.
</event>
<event>
 5   0  0.2414128E-02  0.6275975E+03  0.7818609E-02  0.9849748E-01
       -2   -1    0    0    0  501  0.00000000000E+00  0.00000000000E+00  0.45869280499E+02  0.45869280570E+02  0.25500000920E-02 0.  1.
        2   -1    0    0  501    0  0.00000000000E+00  0.00000000000E+00 -0.21467452592E+04  0.21467452592E+04  0.25500000920E-02 0. -1.
    10030    2    1    2    0    0  0.00000000000E+00  0.00000000000E+00 -0.21008759787E+04  0.21926145398E+04  0.62759751604E+03 0.  0.
        3    1    3    3  502    0  0.34845028293E+02  0.29776994044E+03 -0.72666496149E+03  0.78608084182E+03  0.10100000352E+00 0.  1.
       -3    1    3    3    0  502 -0.34845028293E+02 -0.29776994044E+03 -0.13742110172E+04  0.14065336979E+04  0.10100000352E+00 0. -1.
</event>
<event>
 5   0  0.2628383E-02  0.9268622E+03  0.7818609E-02  0.9392612E-01
        2   -1    0    0  501    0  0.00000000000E+00  0.00000000000E+00  0.41458229923E+03  0.41458229923E+03  0.25500000920E-02 0. -1.
       -2   -1    0    0    0  501  0.00000000000E+00  0.00000000000E+00 -0.51803555173E+03  0.51803555174E+03  0.25500000920E-02 0.  1.
    10030    2    1    2    0    0  0.00000000000E+00  0.00000000000E+00 -0.10345325251E+03  0.93261785097E+03  0.92686216909E+03 0.  0.
        2    1    3    3  502    0  0.10540789353E+03 -0.12522422234E+03 -0.48798148619E+03  0.51470172017E+03  0.25500000920E-02 0.  1.
       -2    1    3    3    0  502 -0.10540789353E+03  0.12522422234E+03  0.38452823368E+03  0.41791613080E+03  0.25500000920E-02 0. -1.
</event>
<event>
 5   0  0.1559275E-02  0.9350835E+03  0.7818609E-02  0.9382758E-01
        1   -1    0    0  501    0  0.00000000000E+00  0.00000000000E+00  0.26609602340E+04  0.26609602340E+04  0.50400001928E-02 0.  1.
       -1   -1    0    0    0  501  0.00000000000E+00  0.00000000000E+00 -0.82149025747E+02  0.82149025901E+02  0.50400001928E-02 0. -1.
    10030    2    1    2    0    0  0.00000000000E+00  0.00000000000E+00  0.25788112083E+04  0.27431092599E+04  0.93508350641E+03 0.  0.
        1    1    3    3  502    0 -0.41213206148E+03  0.64251824586E+02  0.66978042209E+03  0.78904179034E+03  0.50400001928E-02 0. -1.
       -1    1    3    3    0  502  0.41213206148E+03 -0.64251824586E+02  0.19090307862E+04  0.19540674696E+04  0.50400001928E-02 0.  1.
</event>
<event>
 5   0  0.2803717E-02  0.1101744E+04  0.7818609E-02  0.9203493E-01
        2   -1    0    0  501    0  0.00000000000E+00  0.00000000000E+00  0.92772926014E+03  0.92772926015E+03  0.25500000920E-02 0.  1.
       -2   -1    0    0    0  501  0.00000000000E+00  0.00000000000E+00 -0.32709989742E+03  0.32709989743E+03  0.25500000920E-02 0. -1.
    10030    2    1    2    0    0  0.00000000000E+00  0.00000000000E+00  0.60062936272E+03  0.12548291576E+04  0.11017443367E+04 0.  0.
        5    1    3    3  502    0 -0.29058080972E+03  0.45997540182E+03  0.39844597060E+03  0.67438554162E+03  0.46999998093E+01 0. -1.
       -5    1    3    3    0  502  0.29058080972E+03 -0.45997540182E+03  0.20218339213E+03  0.58044361596E+03  0.46999998093E+01 0.  1.
</event>
<event>
 5   0  0.2628383E-02  0.8967446E+03  0.7818609E-02  0.9429660E-01
       -2   -1    0    0    0  501  0.00000000000E+00  0.00000000000E+00  0.20938749725E+03  0.20938749726E+03  0.25500000920E-02 0.  1.
        2   -1    0    0  501    0  0.00000000000E+00  0.00000000000E+00 -0.96012291416E+03  0.96012291416E+03  0.25500000920E-02 0. -1.
    10030    2    1    2    0    0  0.00000000000E+00  0.00000000000E+00 -0.75073541691E+03  0.11695104114E+04  0.89674463267E+03 0.  0.
        2    1    3    3  502    0 -0.23833452485E+03 -0.37813647977E+03 -0.42142535971E+03  0.61432066291E+03  0.25500000920E-02 0.  1.
       -2    1    3    3    0  502  0.23833452485E+03  0.37813647977E+03 -0.32931005721E+03  0.55518974851E+03  0.25500000920E-02 0. -1.
</event>
<event>
 5   0  0.1559275E-02  0.9124914E+03  0.7818609E-02  0.9410100E-01
       -1   -1    0    0    0  501  0.00000000000E+00  0.00000000000E+00  0.41551850127E+03  0.41551850130E+03  0.50400001928E-02 0. -1.
        1   -1    0    0  501    0  0.00000000000E+00  0.00000000000E+00 -0.50096475436E+03  0.50096475439E+03  0.50400001928E-02 0.  1.
    10030    2    1    2    0    0  0.00000000000E+00  0.00000000000E+00 -0.85446253091E+02  0.91648325569E+03  0.91249136752E+03 0.  0.
        1    1    3    3  502    0  0.36837746142E+03  0.11454933313E+03  0.20193360669E+03  0.43543160811E+03  0.50400001928E-02 0.  1.
       -1    1    3    3    0  502 -0.36837746142E+03 -0.11454933313E+03 -0.28737985978E+03  0.48105164758E+03  0.50400001928E-02 0. -1.
</event>
<event>
 5   0  0.2803717E-02  0.9147346E+03  0.7818609E-02  0.9407348E-01
       -2   -1    0    0    0  501  0.00000000000E+00  0.00000000000E+00  0.52176576964E+03  0.52176576964E+03  0.25500000920E-02 0.  1.
        2   -1    0    0  501    0  0.00000000000E+00  0.00000000000E+00 -0.40091714352E+03  0.40091714353E+03  0.25500000920E-02 0. -1.
    10030    2    1    2    0    0  0.00000000000E+00  0.00000000000E+00  0.12084862611E+03  0.92268291318E+03  0.91473458874E+03 0.  0.
        5    1    3    3  502    0  0.40767537642E+02  0.44791251626E+03 -0.23212615309E+02  0.45038708891E+03  0.46999998093E+01 0. -1.
       -5    1    3    3    0  502 -0.40767537642E+02 -0.44791251626E+03  0.14406124142E+03  0.47229582427E+03  0.46999998093E+01 0.  1.
</event>
<event>
 5   0  0.2803717E-02  0.8761849E+03  0.7818609E-02  0.9455851E-01
        2   -1    0    0  501    0  0.00000000000E+00  0.00000000000E+00  0.14531450099E+04  0.14531450099E+04  0.25500000920E-02 0. -1.
       -2   -1    0    0    0  501  0.00000000000E+00  0.00000000000E+00 -0.13207560140E+03  0.13207560142E+03  0.25500000920E-02 0.  1.
    10030    2    1    2    0    0  0.00000000000E+00  0.00000000000E+00  0.13210694085E+04  0.15852206114E+04  0.87618491455E+03 0.  0.
        5    1    3    3  502    0 -0.44462493304E+02 -0.29245223326E+03  0.12451085510E+04  0.12797744395E+04  0.46999998093E+01 0. -1.
       -5    1    3    3    0  502  0.44462493304E+02  0.29245223326E+03  0.75960857504E+02  0.30544617189E+03  0.46999998093E+01 0.  1.
</event>
<event>
 5   0  0.2414128E-02  0.9052877E+03  0.7818609E-02  0.9418996E-01
       -2   -1    0    0    0  501  0.00000000000E+00  0.00000000000E+00  0.29763632133E+03  0.29763632134E+03  0.25500000920E-02 0.  1.
        2   -1    0    0  501    0  0.00000000000E+00  0.00000000000E+00 -0.68837852512E+03  0.68837852513E+03  0.25500000920E-02 0. -1.
    10030    2    1    2    0    0  0.00000000000E+00  0.00000000000E+00 -0.39074220380E+03  0.98601484646E+03  0.90528769329E+03 0.  0.
        3    1    3    3  502    0 -0.23440357564E+03  0.19602245382E+03  0.16834841327E+03  0.34887108956E+03  0.10100000352E+00 0.  1.
       -3    1    3    3    0  502  0.23440357564E+03 -0.19602245382E+03 -0.55909061707E+03  0.63714375691E+03  0.10100000352E+00 0. -1.
</event>
<event>
 5   0  0.1040163E-02  0.8936862E+03  0.7818609E-02  0.9433509E-01
        4   -1    0    0  501    0  0.00000000000E+00  0.00000000000E+00  0.52348775574E+03  0.52348929627E+03  0.12699999809E+01 0.  1.
       -4   -1    0    0    0  501  0.00000000000E+00  0.00000000000E+00 -0.38141694974E+03  0.38141906408E+03  0.12699999809E+01 0. -1.
    10030    2    1    2    0    0  0.00000000000E+00  0.00000000000E+00  0.14207080601E+03  0.90490836036E+03  0.89368620148E+03 0.  0.
        3    1    3    3  502    0  0.25515169533E+03 -0.36583813838E+03  0.43699822209E+02  0.44816248815E+03  0.10100000352E+00 0. -1.
       -3    1    3    3    0  502 -0.25515169533E+03  0.36583813838E+03  0.98370983799E+02  0.45674587221E+03  0.10100000352E+00 0.  1.
</event>
<event>
 5   0  0.1537870E-02  0.8830338E+03  0.7818609E-02  0.9447042E-01
       -1   -1    0    0    0  501  0.00000000000E+00  0.00000000000E+00  0.10714023678E+03  0.10714023690E+03  0.50400001928E-02 0. -1.
        1   -1    0    0  501    0  0.00000000000E+00  0.00000000000E+00 -0.18194579222E+04  0.18194579222E+04  0.50400001928E-02 0.  1.
    10030    2    1    2    0    0  0.00000000000E+00  0.00000000000E+00 -0.17123176854E+04  0.19265981591E+04  0.88303375409E+03 0.  0.
        5    1    3    3  502    0 -0.19677870529E+03  0.14748332090E+03 -0.56175185828E+02  0.25229135994E+03  0.46999998093E+01 0. -1.
       -5    1    3    3    0  502  0.19677870529E+03 -0.14748332090E+03 -0.16561424996E+04  0.16743067992E+04  0.46999998093E+01 0.  1.
</event>
<event>
 5   0  0.2628383E-02  0.8403555E+03  0.7818609E-02  0.9503374E-01
        2   -1    0    0  501    0  0.00000000000E+00  0.00000000000E+00  0.12426691815E+04  0.12426691815E+04  0.25500000920E-02 0. -1.
       -2   -1    0    0    0  501  0.00000000000E+00  0.00000000000E+00 -0.14207268857E+03  0.14207268860E+03  0.25500000920E-02 0.  1.
    10030    2    1    2    0    0  0.00000000000E+00  0.00000000000E+00  0.11005964929E+04  0.13847418701E+04  0.84035552389E+03 0.  0.
        2    1    3    3  502    0 -0.15738255858E+03 -0.33781668197E+03  0.23052232647E+03  0.43821218989E+03  0.25500000920E-02 0.  1.
       -2    1    3    3    0  502  0.15738255858E+03  0.33781668197E+03  0.87007416642E+03  0.94652968017E+03  0.25500000920E-02 0. -1.
</event>
<event>
 5   0  0.2679861E-02  0.1105547E+04  0.7818609E-02  0.9199802E-01
       -2   -1    0    0    0  501  0.00000000000E+00  0.00000000000E+00  0.62075859282E+03  0.62075859283E+03  0.25500000920E-02 0. -1.
        2   -1    0    0  501    0  0.00000000000E+00  0.00000000000E+00 -0.49223390766E+03  0.49223390766E+03  0.25500000920E-02 0.  1.
    10030    2    1    2    0    0  0.00000000000E+00  0.00000000000E+00  0.12852468517E+03  0.11129925005E+04  0.11055467930E+04 0.  0.
        1    1    3    3  502    0  0.40022067822E+03 -0.18660898605E+03  0.39900573136E+03  0.59515130734E+03  0.50400001928E-02 0. -1.
       -1    1    3    3    0  502 -0.40022067822E+03  0.18660898605E+03 -0.27048104619E+03  0.51784119315E+03  0.50400001928E-02 0.  1.
</event>
<event>
 5   0  0.1459111E-02  0.8869577E+03  0.7818609E-02  0.9442033E-01
       -1   -1    0    0    0  501  0.00000000000E+00  0.00000000000E+00  0.63745512629E+03  0.63745512631E+03  0.50400001928E-02 0.  1.
        1   -1    0    0  501    0  0.00000000000E+00  0.00000000000E+00 -0.30852913172E+03  0.30852913176E+03  0.50400001928E-02 0. -1.
    10030    2    1    2    0    0  0.00000000000E+00  0.00000000000E+00  0.32892599458E+03  0.94598425807E+03  0.88695766900E+03 0.  0.
        2    1    3    3  502    0  0.23710848908E+03  0.37032332751E+02  0.56221825528E+03  0.61129468821E+03  0.25500000920E-02 0.  1.
       -2    1    3    3    0  502 -0.23710848908E+03 -0.37032332751E+02 -0.23329226070E+03  0.33468956986E+03  0.25500000920E-02 0. -1.
</event>
<event>
 5   0  0.1559275E-02  0.9027162E+03  0.7818609E-02  0.9422192E-01
       -1   -1    0    0    0  501  0.00000000000E+00  0.00000000000E+00  0.11486234127E+04  0.11486234127E+04  0.50400001928E-02 0.  1.
        1   -1    0    0  501    0  0.00000000000E+00  0.00000000000E+00 -0.17736372857E+03  0.17736372864E+03  0.50400001928E-02 0. -1.
    10030    2    1    2    0    0  0.00000000000E+00  0.00000000000E+00  0.97125968410E+03  0.13259871413E+04  0.90271619293E+03 0.  0.
        1    1    3    3  502    0 -0.21693248851E+03 -0.14014239898E+03 -0.58105105746E+02  0.26471834070E+03  0.50400001928E-02 0. -1.
       -1    1    3    3    0  502  0.21693248851E+03  0.14014239898E+03  0.10293647899E+04  0.10612688006E+04  0.50400001928E-02 0.  1.
</event>
<event>
 5   0  0.2628383E-02  0.6207989E+03  0.7818609E-02  0.9863170E-01
        2   -1    0    0  501    0  0.00000000000E+00  0.00000000000E+00  0.20770122115E+04  0.20770122115E+04  0.25500000920E-02 0.  1.
       -2   -1    0    0    0  501  0.00000000000E+00  0.00000000000E+00 -0.46387694307E+02  0.46387694377E+02  0.25500000920E-02 0. -1.
    10030    2    1    2    0    0  0.00000000000E+00  0.00000000000E+00  0.20306245171E+04  0.21233999058E+04  0.62079886473E+03 0.  0.
        2    1    3    3  502    0  0.11311299243E+03  0.28003667643E+03  0.77026231957E+03  0.82735671277E+03  0.25500000920E-02 0. -1.
       -2    1    3    3    0  502 -0.11311299243E+03 -0.28003667643E+03  0.12603621976E+04  0.12960431931E+04  0.25500000920E-02 0.  1.
</event>
<event>
 5   0  0.1559275E-02  0.9617478E+03  0.7818609E-02  0.9351524E-01
       -1   -1    0    0    0  501  0.00000000000E+00  0.00000000000E+00  0.31161913002E+03  0.31161913006E+03  0.50400001928E-02 0. -1.
        1   -1    0    0  501    0  0.00000000000E+00  0.00000000000E+00 -0.74205883709E+03  0.74205883711E+03  0.50400001928E-02 0.  1.
    10030    2    1    2    0    0  0.00000000000E+00  0.00000000000E+00 -0.43043970707E+03  0.10536779672E+04  0.96174784486E+03 0.  0.
        1    1    3    3  502    0 -0.30617989077E+03  0.22602042316E+03  0.10683109943E+03  0.39527742287E+03  0.50400001928E-02 0. -1.
       -1    1    3    3    0  502  0.30617989077E+03 -0.22602042316E+03 -0.53727080650E+03  0.65840054431E+03  0.50400001928E-02 0.  1.
</event>
<event>
 5   0  0.1559275E-02  0.8950198E+03  0.7818609E-02  0.9431828E-01
       -1   -1    0    0    0  501  0.00000000000E+00  0.00000000000E+00  0.26162764881E+03  0.26162764886E+03  0.50400001928E-02 0.  1.
        1   -1    0    0  501    0  0.00000000000E+00  0.00000000000E+00 -0.76545854981E+03  0.76545854982E+03  0.50400001928E-02 0. -1.
    10030    2    1    2    0    0  0.00000000000E+00  0.00000000000E+00 -0.50383090100E+03  0.10270861987E+04  0.89501982253E+03 0.  0.
        1    1    3    3  502    0  0.38043199624E+03 -0.29602338415E+02  0.16378152815E+02  0.38193330061E+03  0.50400001928E-02 0.  1.
       -1    1    3    3    0  502 -0.38043199624E+03  0.29602338415E+02 -0.52020905381E+03  0.64515289807E+03  0.50400001928E-02 0. -1.
</event>
<event>
 5   0  0.1459111E-02  0.9055663E+03  0.7818609E-02  0.9418650E-01
        1   -1    0    0  501    0  0.00000000000E+00  0.00000000000E+00  0.73122622333E+03  0.73122622335E+03  0.50400001928E-02 0.  1.
       -1   -1    0    0    0  501  0.00000000000E+00  0.00000000000E+00 -0.28036820794E+03  0.28036820798E+03  0.50400001928E-02 0. -1.
    10030    2    1    2    0    0  0.00000000000E+00  0.00000000000E+00  0.45085801539E+03  0.10115944313E+04  0.90556631091E+03 0.  0.
        2    1    3    3  502    0  0.37383612110E+03  0.14054188941E+03 -0.12871977249E+02  0.39958873348E+03  0.25500000920E-02 0. -1.
       -2    1    3    3    0  502 -0.37383612110E+03 -0.14054188941E+03  0.46372999264E+03  0.61200569785E+03  0.25500000920E-02 0.  1.
</event>
<event>
 5   0  0.2705111E-02  0.8174714E+03  0.7818609E-02  0.9535067E-01
       -2   -1    0    0    0  501  0.00000000000E+00  0.00000000000E+00  0.11808482153E+03  0.11808482156E+03  0.25500000920E-02 0.  1.
        2   -1    0    0  501    0  0.00000000000E+00  0.00000000000E+00 -0.14147870628E+04  0.14147870628E+04  0.25500000920E-02 0. -1.
    10030    2    1    2    0    0  0.00000000000E+00  0.00000000000E+00 -0.12967022413E+04  0.15328718843E+04  0.81747141316E+03 0.  0.
        4    1    3    3  502    0  0.29456933679E+03 -0.18897105713E+03 -0.10442767313E+04  0.11013612755E+04  0.12699999809E+01 0.  1.
       -4    1    3    3    0  502 -0.29456933679E+03  0.18897105713E+03 -0.25242550992E+03  0.43151060887E+03  0.12699999809E+01 0. -1.
</event>
<event>
 5   0  0.2803717E-02  0.9110987E+03  0.7818609E-02  0.9411813E-01
        2   -1    0    0  501    0  0.00000000000E+00  0.00000000000E+00  0.25258383018E+04  0.25258383018E+04  0.25500000920E-02 0. -1.
       -2   -1    0    0    0  501  0.00000000000E+00  0.00000000000E+00 -0.82160921291E+02  0.82160921330E+02  0.25500000920E-02 0.  1.
    10030    2    1    2    0    0  0.00000000000E+00  0.00000000000E+00  0.24436773805E+04  0.26079992232E+04  0.91109868173E+03 0.  0.
        5    1    3    3  502    0  0.32725650416E+03 -0.13045615532E+03  0.20484331205E+04  0.20785129220E+04  0.46999998093E+01 0. -1.
       -5    1    3    3    0  502 -0.32725650416E+03  0.13045615532E+03  0.39524426007E+03  0.52948630114E+03  0.46999998093E+01 0.  1.
</event>
<event>
 5   0  0.2705111E-02  0.5477003E+03  0.7818609E-02  0.1002028E+00
       -2   -1    0    0    0  501  0.00000000000E+00  0.00000000000E+00  0.79765105543E+02  0.79765105584E+02  0.25500000920E-02 0.  1.
        2   -1    0    0  501    0  0.00000000000E+00  0.00000000000E+00 -0.94018451050E+03  0.94018451050E+03  0.25500000920E-02 0. -1.
    10030    2    1    2    0    0  0.00000000000E+00  0.00000000000E+00 -0.86041940496E+03  0.10199496161E+04  0.54770034410E+03 0.  0.
        4    1    3    3  502    0  0.17616067108E+03 -0.13836616450E+03 -0.72356146357E+03  0.75744345134E+03  0.12699999809E+01 0. -1.
       -4    1    3    3    0  502 -0.17616067108E+03  0.13836616450E+03 -0.13685794139E+03  0.26250616475E+03  0.12699999809E+01 0.  1.
</event>
<event>
 5   0  0.2679861E-02  0.9096389E+03  0.7818609E-02  0.9413612E-01
       -2   -1    0    0    0  501  0.00000000000E+00  0.00000000000E+00  0.46870351950E+03  0.46870351951E+03  0.25500000920E-02 0.  1.
        2   -1    0    0  501    0  0.00000000000E+00  0.00000000000E+00 -0.44134666701E+03  0.44134666701E+03  0.25500000920E-02 0. -1.
    10030    2    1    2    0    0  0.00000000000E+00  0.00000000000E+00  0.27356852493E+02  0.91005018652E+03  0.90963890891E+03 0.  0.
        1    1    3    3  502    0  0.83764217352E+00  0.45297657958E+03  0.54590103562E+02  0.45625493172E+03  0.50400001928E-02 0. -1.
       -1    1    3    3    0  502 -0.83764217352E+00 -0.45297657958E+03 -0.27233251069E+02  0.45379525480E+03  0.50400001928E-02 0.  1.
</event>
<event>
 5   0  0.2803717E-02  0.9375737E+03  0.7818609E-02  0.9379794E-01
       -2   -1    0    0    0  501  0.00000000000E+00  0.00000000000E+00  0.93848949893E+03  0.93848949894E+03  0.25500000920E-02 0. -1.
        2   -1    0    0  501    0  0.00000000000E+00  0.00000000000E+00 -0.23416469414E+03  0.23416469415E+03  0.25500000920E-02 0.  1.
    10030    2    1    2    0    0  0.00000000000E+00  0.00000000000E+00  0.70432480479E+03  0.11726541931E+04  0.93757369093E+03 0.  0.
        5    1    3    3  502    0  0.12689308377E+03 -0.23348813033E+03  0.83514686327E+03  0.87641938303E+03  0.46999998093E+01 0. -1.
       -5    1    3    3    0  502 -0.12689308377E+03  0.23348813033E+03 -0.13082205848E+03  0.29623481007E+03  0.46999998093E+01 0.  1.
</event>
<event>
 5   0  0.2414128E-02  0.9107238E+03  0.7818609E-02  0.9412275E-01
        2   -1    0    0  501    0  0.00000000000E+00  0.00000000000E+00  0.11150459620E+04  0.11150459621E+04  0.25500000920E-02 0.  1.
       -2   -1    0    0    0  501  0.00000000000E+00  0.00000000000E+00 -0.18596044351E+03  0.18596044353E+03  0.25500000920E-02 0. -1.
    10030    2    1    2    0    0  0.00000000000E+00  0.00000000000E+00  0.92908551854E+03  0.13010064056E+04  0.91072375976E+03 0.  0.
        3    1    3    3  502    0  0.77739477399E+02  0.39972663035E+03  0.75566258214E+03  0.85840011277E+03  0.10100000352E+00 0.  1.
       -3    1    3    3    0  502 -0.77739477399E+02 -0.39972663035E+03  0.17342293640E+03  0.44260629280E+03  0.10100000352E+00 0. -1.
</event>
<event>
 5   0  0.2705111E-02  0.9113664E+03  0.7818609E-02  0.9411483E-01
       -2   -1    0    0    0  501  0.00000000000E+00  0.00000000000E+00  0.51737615560E+03  0.51737615561E+03  0.25500000920E-02 0. -1.
        2   -1    0    0  501    0  0.00000000000E+00  0.00000000000E+00 -0.40134666947E+03  0.40134666948E+03  0.25500000920E-02 0.  1.
    10030    2    1    2    0    0  0.00000000000E+00  0.00000000000E+00  0.11602948613E+03  0.91872282509E+03  0.91136643985E+03 0.  0.
        4    1    3    3  502    0 -0.22148063316E+03  0.32164654947E+03  0.29471938775E+03  0.48925586769E+03  0.12699999809E+01 0. -1.
       -4    1    3    3    0  502  0.22148063316E+03 -0.32164654947E+03 -0.17868990162E+03  0.42946695740E+03  0.12699999809E+01 0.  1.
</event>
<event>
 5   0  0.1497410E-02  0.8788416E+03  0.7818609E-02  0.9452424E-01
       -1   -1    0    0    0  501  0.00000000000E+00  0.00000000000E+00  0.10757256250E+03  0.10757256262E+03  0.50400001928E-02 0.  1.
        1   -1    0    0  501    0  0.00000000000E+00  0.00000000000E+00 -0.17949801916E+04  0.17949801916E+04  0.50400001928E-02 0. -1.
    10030    2    1    2    0    0  0.00000000000E+00  0.00000000000E+00 -0.16874076291E+04  0.19025527542E+04  0.87884155336E+03 0.  0.
        3    1    3    3  502    0 -0.31191075948E+03 -0.30052885181E+03 -0.10040292434E+04  0.10934718306E+04  0.10100000352E+00 0. -1.
       -3    1    3    3    0  502  0.31191075948E+03  0.30052885181E+03 -0.68337838576E+03  0.80908092362E+03  0.10100000352E+00 0.  1.
</event>
<event>
 5   0  0.1459111E-02  0.8500374E+03  0.7818609E-02  0.9490287E-01
       -1   -1    0    0    0  501  0.00000000000E+00  0.00000000000E+00  0.29727045057E+03  0.29727045061E+03  0.50400001928E-02 0. -1.
        1   -1    0    0  501    0  0.00000000000E+00  0.00000000000E+00 -0.60766520309E+03  0.60766520311E+03  0.50400001928E-02 0.  1.
    10030    2    1    2    0    0  0.00000000000E+00  0.00000000000E+00 -0.31039475251E+03  0.90493565372E+03  0.85003743152E+03 0.  0.
        2    1    3    3  502    0  0.33717324711E+03  0.23064361262E+03 -0.28007002103E+03  0.49529939561E+03  0.25500000920E-02 0. -1.
       -2    1    3    3    0  502 -0.33717324711E+03 -0.23064361262E+03 -0.30324731484E+02  0.40963625811E+03  0.25500000920E-02 0.  1.
</event>
<event>
 5   0  0.1497410E-02  0.8922673E+03  0.7818609E-02  0.9435300E-01
        1   -1    0    0  501    0  0.00000000000E+00  0.00000000000E+00  0.65019867504E+03  0.65019867506E+03  0.50400001928E-02 0.  1.
       -1   -1    0    0    0  501  0.00000000000E+00  0.00000000000E+00 -0.30611445676E+03  0.30611445680E+03  0.50400001928E-02 0. -1.
    10030    2    1    2    0    0  0.00000000000E+00  0.00000000000E+00  0.34408421828E+03  0.95631313186E+03  0.89226725643E+03 0.  0.
        3    1    3    3  502    0  0.34164087403E+03 -0.25166703279E+03  0.31970048713E+03  0.53128447547E+03  0.10100000352E+00 0.  1.
       -3    1    3    3    0  502 -0.34164087403E+03  0.25166703279E+03  0.24383731146E+02  0.42502865638E+03  0.10100000352E+00 0. -1.
</event>
<event>
 5   0  0.2705111E-02  0.8860013E+03  0.7818609E-02  0.9443252E-01
        2   -1    0    0  501    0  0.00000000000E+00  0.00000000000E+00  0.82987717357E+03  0.82987717357E+03  0.25500000920E-02 0.  1.
       -2   -1    0    0    0  501  0.00000000000E+00  0.00000000000E+00 -0.23648028353E+03  0.23648028354E+03  0.25500000920E-02 0. -1.
    10030    2    1    2    0    0  0.00000000000E+00  0.00000000000E+00  0.59339689004E+03  0.10663574571E+04  0.88600133026E+03 0.  0.
        4    1    3    3  502    0  0.27215656594E+02  0.18495248289E+03  0.78007483771E+03  0.80216362309E+03  0.12699999809E+01 0.  1.
       -4    1    3    3    0  502 -0.27215656594E+02 -0.18495248289E+03 -0.18667794766E+03  0.26419383402E+03  0.12699999809E+01 0. -1.
</event>
<event>
 5   0  0.1559275E-02  0.8277446E+03  0.7818609E-02  0.9520704E-01
       -1   -1    0    0    0  501  0.00000000000E+00  0.00000000000E+00  0.17478324894E+03  0.17478324901E+03  0.50400001928E-02 0. -1.
        1   -1    0    0  501    0  0.00000000000E+00  0.00000000000E+00 -0.98001549639E+03  0.98001549640E+03  0.50400001928E-02 0.  1.
    10030    2    1    2    0    0  0.00000000000E+00  0.00000000000E+00 -0.80523224745E+03  0.11547987454E+04  0.82774462853E+03 0.  0.
        1    1    3    3  502    0 -0.28472070380E+03 -0.29946272089E+03 -0.43522995967E+03  0.60014074865E+03  0.50400001928E-02 0.  1.
       -1    1    3    3    0  502  0.28472070380E+03  0.29946272089E+03 -0.37000228778E+03  0.55465799675E+03  0.50400001928E-02 0. -1.
</event>
<event>
 5   0  0.1537870E-02  0.8736539E+03  0.7818609E-02  0.9459128E-01
        1   -1    0    0  501    0  0.00000000000E+00  0.00000000000E+00  0.73493758389E+03  0.73493758390E+03  0.50400001928E-02 0. -1.
       -1   -1    0    0    0  501  0.00000000000E+00  0.00000000000E+00 -0.25963805432E+03  0.25963805437E+03  0.50400001928E-02 0.  1.
    10030    2    1    2    0    0  0.00000000000E+00  0.00000000000E+00  0.47529952956E+03  0.99457563828E+03  0.87365385448E+03 0.  0.
        5    1    3    3  502    0  0.35956602225E+03 -0.38637640091E+02 -0.41237462525E+02  0.36400990358E+03  0.46999998093E+01 0.  1.
       -5    1    3    3    0  502 -0.35956602225E+03  0.38637640091E+02  0.51653699209E+03  0.63056573470E+03  0.46999998093E+01 0. -1.
</event>
<event>
 5   0  0.1559275E-02  0.8417200E+03  0.7818609E-02  0.9501518E-01
        1   -1    0    0  501    0  0.00000000000E+00  0.00000000000E+00  0.19854283187E+03  0.19854283193E+03  0.50400001928E-02 0. -1.
       -1   -1    0    0    0  501  0.00000000000E+00  0.00000000000E+00 -0.89211560260E+03  0.89211560261E+03  0.50400001928E-02 0.  1.
    10030    2    1    2    0    0  0.00000000000E+00  0.00000000000E+00 -0.69357277073E+03  0.10906584345E+04  0.84172004404E+03 0.  0.
        1    1    3    3  502    0 -0.27263620404E+03 -0.29303988748E+02 -0.76048159031E+03  0.80840674956E+03  0.50400001928E-02 0.  1.
       -1    1    3    3    0  502  0.27263620404E+03  0.29303988748E+02  0.66908819577E+02  0.28225168498E+03  0.50400001928E-02 0. -1.
</event>
<event>
 5   0  0.1459111E-02  0.9148813E+03  0.7818609E-02  0.9407168E-01
       -1   -1    0    0    0  501  0.00000000000E+00  0.00000000000E+00  0.20097215622E+03  0.20097215628E+03  0.50400001928E-02 0. -1.
        1   -1    0    0  501    0  0.00000000000E+00  0.00000000000E+00 -0.10411986380E+04  0.10411986380E+04  0.50400001928E-02 0.  1.
    10030    2    1    2    0    0  0.00000000000E+00  0.00000000000E+00 -0.84022648180E+03  0.12421707943E+04  0.91488127182E+03 0.  0.
        2    1    3    3  502    0  0.38336932617E+03  0.18690172703E+03 -0.64464433893E+03  0.77296223681E+03  0.25500000920E-02 0.  1.
       -2    1    3    3    0  502 -0.38336932617E+03 -0.18690172703E+03 -0.19558214287E+03  0.46920855750E+03  0.25500000920E-02 0. -1.
</event>
<event>
 5   0  0.2803717E-02  0.8826635E+03  0.7818609E-02  0.9447516E-01
       -2   -1    0    0    0  501  0.00000000000E+00  0.00000000000E+00  0.10627651768E+03  0.10627651771E+03  0.25500000920E-02 0. -1.
        2   -1    0    0  501    0  0.00000000000E+00  0.00000000000E+00 -0.18327070585E+04  0.18327070585E+04  0.25500000920E-02 0.  1.
    10030    2    1    2    0    0  0.00000000000E+00  0.00000000000E+00 -0.17264305408E+04  0.19389835762E+04  0.88266352395E+03 0.  0.
        5    1    3    3  502    0 -0.32230670155E+03 -0.74641698036E+02 -0.22163646707E+03  0.39824340105E+03  0.46999998093E+01 0. -1.
       -5    1    3    3    0  502  0.32230670155E+03  0.74641698036E+02 -0.15047940737E+04  0.15407401751E+04  0.46999998093E+01 0.  1.
</event>
<event>
 5   0  0.2705111E-02  0.7475861E+03  0.7818609E-02  0.9639145E-01
        2   -1    0    0  501    0  0.00000000000E+00  0.00000000000E+00  0.86104796001E+03  0.86104796001E+03  0.25500000920E-02 0. -1.
       -2   -1    0    0    0  501  0.00000000000E+00  0.00000000000E+00 -0.16226884653E+03  0.16226884655E+03  0.25500000920E-02 0.  1.
    10030    2    1    2    0    0  0.00000000000E+00  0.00000000000E+00  0.69877911348E+03  0.10233168066E+04  0.74758614028E+03 0.  0.
        4    1    3    3  502    0  0.16320964542E+03 -0.12905846291E+03  0.77444572887E+03  0.80191101443E+03  0.12699999809E+01 0. -1.
       -4    1    3    3    0  502 -0.16320964542E+03  0.12905846291E+03 -0.75666615384E+02  0.22140579213E+03  0.12699999809E+01 0.  1.
</event>
<event>
 5   0  0.1497410E-02  0.8919286E+03  0.7818609E-02  0.9435728E-01
        1   -1    0    0  501    0  0.00000000000E+00  0.00000000000E+00  0.23023251694E+03  0.23023251700E+03  0.50400001928E-02 0. -1.
       -1   -1    0    0    0  501  0.00000000000E+00  0.00000000000E+00 -0.86384047835E+03  0.86384047837E+03  0.50400001928E-02 0.  1.
    10030    2    1    2    0    0  0.00000000000E+00  0.00000000000E+00 -0.63360796141E+03  0.10940729954E+04  0.89192862406E+03 0.  0.
        3    1    3    3  502    0 -0.28490292278E+03  0.10290299051E+03  0.84674747606E+02  0.31452905104E+03  0.10100000352E+00 0. -1.
       -3    1    3    3    0  502  0.28490292278E+03 -0.10290299051E+03 -0.71828270902E+03  0.77954394433E+03  0.10100000352E+00 0.  1.
</event>
<event>
 5   0  0.1459111E-02  0.7559618E+03  0.7818609E-02  0.9626043E-01
       -1   -1    0    0    0  501  0.00000000000E+00  0.00000000000E+00  0.99733369778E+02  0.99733369905E+02  0.50400001928E-02 0.  1.
        1   -1    0    0  501    0  0.00000000000E+00  0.00000000000E+00 -0.14325150183E+04  0.14325150183E+04  0.50400001928E-02 0. -1.
    10030    2    1    2    0    0  0.00000000000E+00  0.00000000000E+00 -0.13327816485E+04  0.15322483882E+04  0.75596177189E+03 0.  0.
        2    1    3    3  502    0 -0.66465585892E+01 -0.26347034863E+03 -0.11722531935E+03  0.28844856882E+03  0.25500000920E-02 0.  1.
       -2    1    3    3    0  502  0.66465585892E+01  0.26347034863E+03 -0.12155563292E+04  0.12437998194E+04  0.25500000920E-02 0. -1.
</event>
<event>
 5   0  0.2705111E-02  0.9281738E+03  0.7818609E-02  0.9391032E-01
       -2   -1    0    0    0  501  0.00000000000E+00  0.00000000000E+00  0.32291334333E+03  0.32291334334E+03  0.25500000920E-02 0.  1.
        2   -1    0    0  501    0  0.00000000000E+00  0.00000000000E+00 -0.66697978941E+03  0.66697978942E+03  0.25500000920E-02 0. -1.
    10030    2    1    2    0    0  0.00000000000E+00  0.00000000000E+00 -0.34406644609E+03  0.98989313276E+03  0.92817384953E+03 0.  0.
        4    1    3    3  502    0  0.61484112871E+02 -0.13271051674E+03  0.29768830437E+03  0.33168104686E+03  0.12699999809E+01 0.  1.
       -4    1    3    3    0  502 -0.61484112871E+02  0.13271051674E+03 -0.64175475045E+03  0.65821208590E+03  0.12699999809E+01 0. -1.
</event>
<event>
 5   0  0.1560728E-02  0.9011121E+03  0.7818609E-02  0.9424192E-01
        1   -1    0    0  501    0  0.00000000000E+00  0.00000000000E+00  0.67367516621E+03  0.67367516623E+03  0.50400001928E-02 0.  1.
       -1   -1    0    0    0  501  0.00000000000E+00  0.00000000000E+00 -0.30133325658E+03  0.30133325662E+03  0.50400001928E-02 0. -1.
    10030    2    1    2    0    0  0.00000000000E+00  0.00000000000E+00  0.37234190963E+03  0.97500842285E+03  0.90111205017E+03 0.  0.
        4    1    3    3  502    0  0.43619212103E+03 -0.98533333110E+02  0.24569833162E+03  0.51023687366E+03  0.12699999809E+01 0.  1.
       -4    1    3    3    0  502 -0.43619212103E+03  0.98533333110E+02  0.12664357801E+03  0.46477154919E+03  0.12699999809E+01 0. -1.
</event>
<event>
 5   0  0.2679861E-02  0.8863235E+03  0.7818609E-02  0.9442841E-01
       -2   -1    0    0    0  501  0.00000000000E+00  0.00000000000E+00  0.48447565365E+03  0.48447565366E+03  0.25500000920E-02 0.  1.
        2   -1    0    0  501    0  0.00000000000E+00  0.00000000000E+00 -0.40537087544E+03  0.40537087545E+03  0.25500000920E-02 0. -1.
    10030    2    1    2    0    0  0.00000000000E+00  0.00000000000E+00  0.79104778204E+02  0.88984652911E+03  0.88632346208E+03 0.  0.
        1    1    3    3  502    0 -0.21146303284E+03 -0.38345323317E+03  0.10793571123E+03  0.45100234376E+03  0.50400001928E-02 0.  1.
       -1    1    3    3    0  502  0.21146303284E+03  0.38345323317E+03 -0.28830933027E+02  0.43884418535E+03  0.50400001928E-02 0. -1.
</event>
<event>
 5   0  0.1560728E-02  0.7188266E+03  0.7818609E-02  0.9685567E-01
       -1   -1    0    0    0  501  0.00000000000E+00  0.00000000000E+00  0.53904008836E+03  0.53904008838E+03  0.50400001928E-02 0.  1.
        1   -1    0    0  501    0  0.00000000000E+00  0.00000000000E+00 -0.23964434022E+03  0.23964434027E+03  0.50400001928E-02 0. -1.
    10030    2    1    2    0    0  0.00000000000E+00  0.00000000000E+00  0.29939574814E+03  0.77868442865E+03  0.71882656143E+03 0.  0.
        4    1    3    3  502    0 -0.35801159124E+03  0.21831941233E+02  0.12482126946E+03  0.37977742867E+03  0.12699999809E+01 0. -1.
       -4    1    3    3    0  502  0.35801159124E+03 -0.21831941233E+02  0.17457447868E+03  0.39890699997E+03  0.12699999809E+01 0.  1.
</event>
<event>
 5   0  0.1559275E-02  0.8189093E+03  0.7818609E-02  0.9533043E-01
        1   -1    0    0  501    0  0.00000000000E+00  0.00000000000E+00  0.61418315693E+03  0.61418315695E+03  0.50400001928E-02 0.  1.
       -1   -1    0    0    0  501  0.00000000000E+00  0.00000000000E+00 -0.27296925455E+03  0.27296925460E+03  0.50400001928E-02 0. -1.
    10030    2    1    2    0    0  0.00000000000E+00  0.00000000000E+00  0.34121390238E+03  0.88715241155E+03  0.81890931986E+03 0.  0.
        1    1    3    3  502    0 -0.33838202662E+03  0.13870819303E+03 -0.28887666803E+02  0.36684718354E+03  0.50400001928E-02 0.  1.
       -1    1    3    3    0  502  0.33838202662E+03 -0.13870819303E+03  0.37010156918E+03  0.52030522801E+03  0.50400001928E-02 0. -1.
</event>
<event>
 5   0  0.2414128E-02  0.8864224E+03  0.7818609E-02  0.9442715E-01
       -2   -1    0    0    0  501  0.00000000000E+00  0.00000000000E+00  0.98189451138E+02  0.98189451171E+02  0.25500000920E-02 0.  1.
        2   -1    0    0  501    0  0.00000000000E+00  0.00000000000E+00 -0.20005829942E+04  0.20005829943E+04  0.25500000920E-02 0. -1.
    10030    2    1    2    0    0  0.00000000000E+00  0.00000000000E+00 -0.19023935431E+04  0.20987724454E+04  0.88642235125E+03 0.  0.
        3    1    3    3  502    0 -0.25811123874E+03 -0.29469703385E+03 -0.14419906746E+04  0.14942572969E+04  0.10100000352E+00 0. -1.
       -3    1    3    3    0  502  0.25811123874E+03  0.29469703385E+03 -0.46040286849E+03  0.60451514856E+03  0.10100000352E+00 0.  1.
</event>
<event>
 5   0  0.1537870E-02  0.9154169E+03  0.7818609E-02  0.9406512E-01
        1   -1    0    0  501    0  0.00000000000E+00  0.00000000000E+00  0.69305502377E+03  0.69305502379E+03  0.50400001928E-02 0. -1.
       -1   -1    0    0    0  501  0.00000000000E+00  0.00000000000E+00 -0.30228052688E+03  0.30228052692E+03  0.50400001928E-02 0.  1.
    10030    2    1    2    0    0  0.00000000000E+00  0.00000000000E+00  0.39077449689E+03  0.99533555071E+03  0.91541692746E+03 0.  0.
        5    1    3    3  502    0  0.31384416003E+03 -0.49091301667E+02  0.55364794506E+03  0.63832299798E+03  0.46999998093E+01 0. -1.
       -5    1    3    3    0  502 -0.31384416003E+03  0.49091301667E+02 -0.16287344818E+03  0.35701255272E+03  0.46999998093E+01 0.  1.
</event>
<event>
 5   0  0.2414128E-02  0.8976025E+03  0.7818609E-02  0.9428583E-01
       -2   -1    0    0    0  501  0.00000000000E+00  0.00000000000E+00  0.23479735878E+03  0.23479735879E+03  0.25500000920E-02 0. -1.
        2   -1    0    0  501    0  0.00000000000E+00  0.00000000000E+00 -0.85785708391E+03  0.85785708392E+03  0.25500000920E-02 0.  1.
    10030    2    1    2    0    0  0.00000000000E+00  0.00000000000E+00 -0.62305972514E+03  0.10926544427E+04  0.89760253458E+03 0.  0.
        3    1    3    3  502    0  0.82281259477E+02 -0.31362890912E+03 -0.68926528285E+03  0.76172169369E+03  0.10100000352E+00 0.  1.
       -3    1    3    3    0  502 -0.82281259477E+02  0.31362890912E+03  0.66205557714E+02  0.33093274902E+03  0.10100000352E+00 0. -1.
</event>
<event>
 5   0  0.2705111E-02  0.8006759E+03  0.7818609E-02  0.9559039E-01
        2   -1    0    0  501    0  0.00000000000E+00  0.00000000000E+00  0.54608046366E+03  0.54608046367E+03  0.25500000920E-02 0.  1.
       -2   -1    0    0    0  501  0.00000000000E+00  0.00000000000E+00 -0.29349242926E+03  0.29349242927E+03  0.25500000920E-02 0. -1.
    10030    2    1    2    0    0  0.00000000000E+00  0.00000000000E+00  0.25258803441E+03  0.83957289294E+03  0.80067591910E+03 0.  0.
        4    1    3    3  502    0 -0.27130254803E+03  0.25013552531E+03  0.28906397728E+03  0.46875627937E+03  0.12699999809E+01 0.  1.
       -4    1    3    3    0  502  0.27130254803E+03 -0.25013552531E+03 -0.36475942869E+02  0.37081661357E+03  0.12699999809E+01 0. -1.
</event>
<event>
 5   0  0.2414128E-02  0.9090287E+03  0.7818609E-02  0.9414365E-01
        2   -1    0    0  501    0  0.00000000000E+00  0.00000000000E+00  0.85323247216E+03  0.85323247216E+03  0.25500000920E-02 0.  1.
       -2   -1    0    0    0  501  0.00000000000E+00  0.00000000000E+00 -0.24211841067E+03  0.24211841069E+03  0.25500000920E-02 0. -1.
    10030    2    1    2    0    0  0.00000000000E+00  0.00000000000E+00  0.61111406148E+03  0.10953508828E+04  0.90902869064E+03 0.  0.
        3    1    3    3  502    0 -0.17690623779E+03 -0.41843323706E+03  0.32264419087E+03  0.55720864580E+03  0.10100000352E+00 0. -1.
       -3    1    3    3    0  502  0.17690623779E+03  0.41843323706E+03  0.28846987062E+03  0.53814223705E+03  0.10100000352E+00 0.  1.
</event>
<event>
 5   0  0.2679861E-02  0.9188162E+03  0.7818609E-02  0.9402361E-01
       -2   -1    0    0    0  501  0.00000000000E+00  0.00000000000E+00  0.36831175570E+03  0.36831175570E+03  0.25500000920E-02 0. -1.
        2   -1    0    0  501    0  0.00000000000E+00  0.00000000000E+00 -0.57303570293E+03  0.57303570293E+03  0.25500000920E-02 0.  1.
    10030    2    1    2    0    0  0.00000000000E+00  0.00000000000E+00 -0.20472394723E+03  0.94134745864E+03  0.91881616405E+03 0.  0.
        1    1    3    3  502    0 -0.22750559309E+03 -0.17703570138E+03 -0.46884220630E+03  0.55037573428E+03  0.50400001928E-02 0.  1.
       -1    1    3    3    0  502  0.22750559309E+03  0.17703570138E+03  0.26411825907E+03  0.39097172436E+03  0.50400001928E-02 0. -1.
</event>
<event>
 5   0  0.1459111E-02  0.9069067E+03  0.7818609E-02  0.9416989E-01
       -1   -1    0    0    0  501  0.00000000000E+00  0.00000000000E+00  0.57282090165E+03  0.57282090167E+03  0.50400001928E-02 0. -1.
        1   -1    0    0  501    0  0.00000000000E+00  0.00000000000E+00 -0.35896028281E+03  0.35896028285E+03  0.50400001928E-02 0.  1.
    10030    2    1    2    0    0  0.00000000000E+00  0.00000000000E+00  0.21386061884E+03  0.93178118452E+03  0.90690672703E+03 0.  0.
        2    1    3    3  502    0  0.20824500891E+03 -0.81119420115E+02  0.51230703451E+03  0.55893187570E+03  0.25500000920E-02 0. -1.
       -2    1    3    3    0  502 -0.20824500891E+03  0.81119420115E+02 -0.29844641567E+03  0.37284930882E+03  0.25500000920E-02 0.  1.
</event>
<event>
 5   0  0.1560728E-02  0.9119400E+03  0.7818609E-02  0.9410778E-01
       -1   -1    0    0    0  501  0.00000000000E+00  0.00000000000E+00  0.48842407008E+03  0.48842407010E+03  0.50400001928E-02 0. -1.
        1   -1    0    0  501    0  0.00000000000E+00  0.00000000000E+00 -0.42567240587E+03  0.42567240590E+03  0.50400001928E-02 0.  1.
    10030    2    1    2    0    0  0.00000000000E+00  0.00000000000E+00  0.62751664204E+02  0.91409647601E+03  0.91194001781E+03 0.  0.
        4    1    3    3  502    0  0.34890374443E+03  0.14229036938E+03 -0.22599321289E+03  0.43938015120E+03  0.12699999809E+01 0.  1.
       -4    1    3    3    0  502 -0.34890374443E+03 -0.14229036938E+03  0.28874487709E+03  0.47471632481E+03  0.12699999809E+01 0. -1.
</event>
<event>
 5   0  0.2803717E-02  0.8605337E+03  0.7818609E-02  0.9476307E-01
        2   -1    0    0  501    0  0.00000000000E+00  0.00000000000E+00  0.10690446258E+04  0.10690446258E+04  0.25500000920E-02 0.  1.
       -2   -1    0    0    0  501  0.00000000000E+00  0.00000000000E+00 -0.17317288609E+03  0.17317288611E+03  0.25500000920E-02 0. -1.
    10030    2    1    2    0    0  0.00000000000E+00  0.00000000000E+00  0.89587173970E+03  0.12422175119E+04  0.86053365586E+03 0.  0.
        5    1    3    3  502    0 -0.55981634645E+00  0.42797622086E+03  0.38429715334E+03  0.57521330919E+03  0.46999998093E+01 0.  1.
       -5    1    3    3    0  502  0.55981634645E+00 -0.42797622086E+03  0.51157458636E+03  0.66700420270E+03  0.46999998093E+01 0. -1.
</event>
<event>
 5   0  0.1559275E-02  0.9005449E+03  0.7818609E-02  0.9424901E-01
        1   -1    0    0  501    0  0.00000000000E+00  0.00000000000E+00  0.94832604913E+03  0.94832604914E+03  0.50400001928E-02 0.  1.
       -1   -1    0    0    0  501  0.00000000000E+00  0.00000000000E+00 -0.21379279129E+03  0.21379279135E+03  0.50400001928E-02 0. -1.
    10030    2    1    2    0    0  0.00000000000E+00  0.00000000000E+00  0.73453325784E+03  0.11621188405E+04  0.90054488647E+03 0.  0.
        1    1    3    3  502    0  0.17566037089E+03  0.19674610804E+03  0.83820508412E+03  0.87872257283E+03  0.50400001928E-02 0.  1.
       -1    1    3    3    0  502 -0.17566037089E+03 -0.19674610804E+03 -0.10367182628E+03  0.28339626766E+03  0.50400001928E-02 0. -1.
</event>
<event>
 5   0  0.1040163E-02  0.8540731E+03  0.7818609E-02  0.9484886E-01
        3   -1    0    0  501    0  0.00000000000E+00  0.00000000000E+00  0.32645566162E+03  0.32645567725E+03  0.10100000352E+00 0.  1.
       -3   -1    0    0    0  501  0.00000000000E+00  0.00000000000E+00 -0.55860637223E+03  0.55860638136E+03  0.10100000352E+00 0. -1.
    10030    2    1    2    0    0  0.00000000000E+00  0.00000000000E+00 -0.23215071060E+03  0.88506205860E+03  0.85407312049E+03 0.  0.
        5    1    3    3  502    0 -0.30375052307E+03 -0.27187057696E+03 -0.24781038332E+03  0.47708496828E+03  0.46999998093E+01 0. -1.
       -5    1    3    3    0  502  0.30375052307E+03  0.27187057696E+03  0.15659672714E+02  0.40797709032E+03  0.46999998093E+01 0.  1.
</event>
<event>
 5   0  0.1560728E-02  0.8944022E+03  0.7818609E-02  0.9432606E-01
        1   -1    0    0  501    0  0.00000000000E+00  0.00000000000E+00  0.55345415705E+03  0.55345415707E+03  0.50400001928E-02 0.  1.
       -1   -1    0    0    0  501  0.00000000000E+00  0.00000000000E+00 -0.36134669568E+03  0.36134669572E+03  0.50400001928E-02 0. -1.
    10030    2    1    2    0    0  0.00000000000E+00  0.00000000000E+00  0.19210746137E+03  0.91480085279E+03  0.89440221576E+03 0.  0.
        4    1    3    3  502    0 -0.38097299806E+02 -0.53732053243E+02 -0.35635622733E+03  0.36239469016E+03  0.12699999809E+01 0. -1.
       -4    1    3    3    0  502  0.38097299806E+02  0.53732053243E+02  0.54846368870E+03  0.55240616263E+03  0.12699999809E+01 0.  1.
</event>
<event>
 5   0  0.1537870E-02  0.8180749E+03  0.7818609E-02  0.9534217E-01
        1   -1    0    0  501    0  0.00000000000E+00  0.00000000000E+00  0.10175600240E+04  0.10175600240E+04  0.50400001928E-02 0.  1.
       -1   -1    0    0    0  501  0.00000000000E+00  0.00000000000E+00 -0.16442432650E+03  0.16442432658E+03  0.50400001928E-02 0. -1.
    10030    2    1    2    0    0  0.00000000000E+00  0.00000000000E+00  0.85313569746E+03  0.11819843506E+04  0.81807486618E+03 0.  0.
        5    1    3    3  502    0 -0.61743400991E+02 -0.52071764750E+02 -0.15274816064E+03  0.17285197953E+03  0.46999998093E+01 0. -1.
       -5    1    3    3    0  502  0.61743400991E+02  0.52071764750E+02  0.10058838581E+04  0.10091323710E+04  0.46999998093E+01 0.  1.
</event>
<event>
 5   0  0.2705111E-02  0.9371271E+03  0.7818609E-02  0.9380325E-01
       -2   -1    0    0    0  501  0.00000000000E+00  0.00000000000E+00  0.55892689593E+03  0.55892689593E+03  0.25500000920E-02 0.  1.
        2   -1    0    0  501    0  0.00000000000E+00  0.00000000000E+00 -0.39280948378E+03  0.39280948379E+03  0.25500000920E-02 0. -1.
    10030    2    1    2    0    0  0.00000000000E+00  0.00000000000E+00  0.16611741215E+03  0.95173637973E+03  0.93712706816E+03 0.  0.
        4    1    3    3  502    0  0.83110023104E+02  0.42916682080E+03  0.25438577923E+03  0.50577185923E+03  0.12699999809E+01 0. -1.
       -4    1    3    3    0  502 -0.83110023104E+02 -0.42916682080E+03 -0.88268367082E+02  0.44596452050E+03  0.12699999809E+01 0.  1.
</event>
<event>
 5   0  0.1559275E-02  0.9011933E+03  0.7818609E-02  0.9424091E-01
       -1   -1    0    0    0  501  0.00000000000E+00  0.00000000000E+00  0.40842192588E+03  0.40842192591E+03  0.50400001928E-02 0.  1.
        1   -1    0    0  501    0  0.00000000000E+00  0.00000000000E+00 -0.49712644080E+03  0.49712644082E+03  0.50400001928E-02 0. -1.
    10030    2    1    2    0    0  0.00000000000E+00  0.00000000000E+00 -0.88704514914E+02  0.90554836674E+03  0.90119329421E+03 0.  0.
        1    1    3    3  502    0 -0.36319262741E+03 -0.24592695252E+03  0.59337445238E+02  0.44261708396E+03  0.50400001928E-02 0.  1.
       -1    1    3    3    0  502  0.36319262741E+03  0.24592695252E+03 -0.14804196015E+03  0.46293128278E+03  0.50400001928E-02 0. -1.
</event>
<event>
 5   0  0.2628383E-02  0.9137345E+03  0.7818609E-02  0.9408574E-01
       -2   -1    0    0    0  501  0.00000000000E+00  0.00000000000E+00  0.13597195453E+03  0.13597195456E+03  0.25500000920E-02 0. -1.
        2   -1    0    0  501    0  0.00000000000E+00  0.00000000000E+00 -0.15350790454E+04  0.15350790454E+04  0.25500000920E-02 0.  1.
    10030    2    1    2    0    0  0.00000000000E+00  0.00000000000E+00 -0.13991070908E+04  0.16710509999E+04  0.91373453077E+03 0.  0.
        2    1    3    3  502    0  0.19628821030E+03 -0.10847528968E+03  0.28378392253E+02  0.22605592920E+03  0.25500000920E-02 0. -1.
       -2    1    3    3    0  502 -0.19628821030E+03  0.10847528968E+03 -0.14274854831E+04  0.14449950707E+04  0.25500000920E-02 0.  1.
</event>
<event>
 5   0  0.2803717E-02  0.9399681E+03  0.7818609E-02  0.9376954E-01
       -2   -1    0    0    0  501  0.00000000000E+00  0.00000000000E+00  0.30849377770E+03  0.30849377771E+03  0.25500000920E-02 0.  1.
        2   -1    0    0  501    0  0.00000000000E+00  0.00000000000E+00 -0.71601125868E+03  0.71601125869E+03  0.25500000920E-02 0. -1.
    10030    2    1    2    0    0  0.00000000000E+00  0.00000000000E+00 -0.40751748099E+03  0.10245050364E+04  0.93996812301E+03 0.  0.
        5    1    3    3  502    0 -0.40189245457E+03 -0.14751979388E+03  0.75407206328E+01  0.42820390831E+03  0.46999998093E+01 0.  1.
       -5    1    3    3    0  502  0.40189245457E+03  0.14751979388E+03 -0.41505820162E+03  0.59630112808E+03  0.46999998093E+01 0. -1.
</event>
<event>
 5   0  0.1497410E-02  0.9029249E+03  0.7818609E-02  0.9421933E-01
       -1   -1    0    0    0  501  0.00000000000E+00  0.00000000000E+00  0.29999080411E+03  0.29999080415E+03  0.50400001928E-02 0. -1.
        1   -1    0    0  501    0  0.00000000000E+00  0.00000000000E+00 -0.67941533604E+03  0.67941533606E+03  0.50400001928E-02 0.  1.
    10030    2    1    2    0    0  0.00000000000E+00  0.00000000000E+00 -0.37942453193E+03  0.97940614021E+03  0.90292492050E+03 0.  0.
        3    1    3    3  502    0  0.44902460943E+03  0.45783980210E+02 -0.20050875330E+03  0.49388565789E+03  0.10100000352E+00 0. -1.
       -3    1    3    3    0  502 -0.44902460943E+03 -0.45783980210E+02 -0.17891577863E+03  0.48552048233E+03  0.10100000352E+00 0.  1.
</event>
<event>
 5   0  0.1040163E-02  0.8980894E+03  0.7818609E-02  0.9427973E-01
       -3   -1    0    0    0  501  0.00000000000E+00  0.00000000000E+00  0.50330981460E+03  0.50330982474E+03  0.10100000352E+00 0. -1.
        3   -1    0    0  501    0  0.00000000000E+00  0.00000000000E+00 -0.40063027511E+03  0.40063028784E+03  0.10100000352E+00 0.  1.
    10030    2    1    2    0    0  0.00000000000E+00  0.00000000000E+00  0.10267953950E+03  0.90394011257E+03  0.89808943836E+03 0.  0.
        2    1    3    3  502    0  0.37926490688E+03  0.15537752340E+03  0.23599368303E+03  0.47294509492E+03  0.25500000920E-02 0.  1.
       -2    1    3    3    0  502 -0.37926490688E+03 -0.15537752340E+03 -0.13331414353E+03  0.43099501766E+03  0.25500000920E-02 0. -1.
</event>
<event>
 5   0  0.1497410E-02  0.8949388E+03  0.7818609E-02  0.9431930E-01
        1   -1    0    0  501    0  0.00000000000E+00  0.00000000000E+00  0.13448685822E+04  0.13448685822E+04  0.50400001928E-02 0.  1.
       -1   -1    0    0    0  501  0.00000000000E+00  0.00000000000E+00 -0.14888358622E+03  0.14888358630E+03  0.50400001928E-02 0. -1.
    10030    2    1    2    0    0  0.00000000000E+00  0.00000000000E+00  0.11959849960E+04  0.14937521685E+04  0.89493878578E+03 0.  0.
        3    1    3    3  502    0 -0.14070664654E+03  0.17959836135E+03 -0.44506659680E+02  0.23245383356E+03  0.10100000352E+00 0. -1.
       -3    1    3    3    0  502  0.14070664654E+03 -0.17959836135E+03  0.12404916556E+04  0.12612983349E+04  0.10100000352E+00 0.  1.
</event>
<event>
 5   0  0.2628383E-02  0.8579528E+03  0.7818609E-02  0.9479725E-01
        2   -1    0    0  501    0  0.00000000000E+00  0.00000000000E+00  0.57152258210E+03  0.57152258211E+03  0.25500000920E-02 0. -1.
       -2   -1    0    0    0  501  0.00000000000E+00  0.00000000000E+00 -0.32198332024E+03  0.32198332025E+03  0.25500000920E-02 0.  1.
    10030    2    1    2    0    0  0.00000000000E+00  0.00000000000E+00  0.24953926187E+03  0.89350590236E+03  0.85795276929E+03 0.  0.
        2    1    3    3  502    0 -0.29913527557E+03  0.20202578342E+03  0.36615995955E+03  0.51416869434E+03  0.25500000920E-02 0. -1.
       -2    1    3    3    0  502  0.29913527557E+03 -0.20202578342E+03 -0.11662069768E+03  0.37933720802E+03  0.25500000920E-02 0.  1.
</event>
<event>
 5   0  0.1560728E-02  0.9355773E+03  0.7818609E-02  0.9382169E-01
       -1   -1    0    0    0  501  0.00000000000E+00  0.00000000000E+00  0.27282318908E+03  0.27282318913E+03  0.50400001928E-02 0.  1.
        1   -1    0    0  501    0  0.00000000000E+00  0.00000000000E+00 -0.80208067289E+03  0.80208067291E+03  0.50400001928E-02 0. -1.
    10030    2    1    2    0    0  0.00000000000E+00  0.00000000000E+00 -0.52925748381E+03  0.10749038620E+04  0.93557727016E+03 0.  0.
        4    1    3    3  502    0  0.14244008898E+02 -0.43811438406E+03 -0.76972750418E+02  0.44505451634E+03  0.12699999809E+01 0.  1.
       -4    1    3    3    0  502 -0.14244008898E+02  0.43811438406E+03 -0.45228473339E+03  0.62984934569E+03  0.12699999809E+01 0. -1.
</event>
<event>
 5   0  0.2414128E-02  0.9327632E+03  0.7818609E-02  0.9385528E-01
        2   -1    0    0  501    0  0.00000000000E+00  0.00000000000E+00  0.39938110333E+03  0.39938110334E+03  0.25500000920E-02 0. -1.
       -2   -1    0    0    0  501  0.00000000000E+00  0.00000000000E+00 -0.54462217362E+03  0.54462217363E+03  0.25500000920E-02 0.  1.
    10030    2    1    2    0    0  0.00000000000E+00  0.00000000000E+00 -0.14524107029E+03  0.94400327696E+03  0.93276321670E+03 0.  0.
        3    1    3    3  502    0  0.24402172282E+02  0.20878436356E+03  0.34871997666E+03  0.40717564859E+03  0.10100000352E+00 0. -1.
       -3    1    3    3    0  502 -0.24402172282E+02 -0.20878436356E+03 -0.49396104695E+03  0.53682762837E+03  0.10100000352E+00 0.  1.
</event>
<event>
 5   0  0.2803717E-02  0.9145343E+03  0.7818609E-02  0.9407593E-01
       -2   -1    0    0    0  501  0.00000000000E+00  0.00000000000E+00  0.44460085162E+03  0.44460085163E+03  0.25500000920E-02 0.  1.
        2   -1    0    0  501    0  0.00000000000E+00  0.00000000000E+00 -0.47029429454E+03  0.47029429454E+03  0.25500000920E-02 0. -1.
    10030    2    1    2    0    0  0.00000000000E+00  0.00000000000E+00 -0.25693442917E+02  0.91489514617E+03  0.91453429432E+03 0.  0.
        5    1    3    3  502    0 -0.30596208877E+03  0.26766272866E+03  0.19655624220E+03  0.45156680837E+03  0.46999998093E+01 0.  1.
       -5    1    3    3    0  502  0.30596208877E+03 -0.26766272866E+03 -0.22224968512E+03  0.46332833780E+03  0.46999998093E+01 0. -1.
</event>
<event>
 5   0  0.2679861E-02  0.9334410E+03  0.7818609E-02  0.9384718E-01
        2   -1    0    0  501    0  0.00000000000E+00  0.00000000000E+00  0.10183975455E+04  0.10183975455E+04  0.25500000920E-02 0. -1.
       -2   -1    0    0    0  501  0.00000000000E+00  0.00000000000E+00 -0.21389290578E+03  0.21389290579E+03  0.25500000920E-02 0.  1.
    10030    2    1    2    0    0  0.00000000000E+00  0.00000000000E+00  0.80450463975E+03  0.12322904513E+04  0.93344096816E+03 0.  0.
        1    1    3    3  502    0  0.38596047035E+03 -0.25195473342E+03  0.49909601580E+03  0.67936993264E+03  0.50400001928E-02 0. -1.
       -1    1    3    3    0  502 -0.38596047035E+03  0.25195473342E+03  0.30540862395E+03  0.55292051868E+03  0.50400001928E-02 0.  1.
</event>
<event>
 5   0  0.1560728E-02  0.8910619E+03  0.7818609E-02  0.9436824E-01
        1   -1    0    0  501    0  0.00000000000E+00  0.00000000000E+00  0.42011021183E+03  0.42011021186E+03  0.50400001928E-02 0. -1.
       -1   -1    0    0    0  501  0.00000000000E+00  0.00000000000E+00 -0.47248993536E+03  0.47248993539E+03  0.50400001928E-02 0.  1.
    10030    2    1    2    0    0  0.00000000000E+00  0.00000000000E+00 -0.52379723537E+02  0.89260014725E+03  0.89106194365E+03 0.  0.
        4    1    3    3  502    0  0.29523105203E+03 -0.27725713138E+03  0.15977365879E+03  0.43538732862E+03  0.12699999809E+01 0. -1.
       -4    1    3    3    0  502 -0.29523105203E+03  0.27725713138E+03 -0.21215338233E+03  0.45721281862E+03  0.12699999809E+01 0.  1.
</event>
<event>
 5   0  0.2679861E-02  0.8545701E+03  0.7818609E-02  0.9484224E-01
       -2   -1    0    0    0  501  0.00000000000E+00  0.00000000000E+00  0.24092531746E+03  0.24092531748E+03  0.25500000920E-02 0. -1.
        2   -1    0    0  501    0  0.00000000000E+00  0.00000000000E+00 -0.75779704275E+03  0.75779704275E+03  0.25500000920E-02 0.  1.
    10030    2    1    2    0    0  0.00000000000E+00  0.00000000000E+00 -0.51687172528E+03  0.99872236023E+03  0.85457005121E+03 0.  0.
        1    1    3    3  502    0 -0.16006614134E+02 -0.27265782148E+03 -0.64245837749E+03  0.69810548354E+03  0.50400001928E-02 0.  1.
       -1    1    3    3    0  502  0.16006614134E+02  0.27265782148E+03  0.12558665221E+03  0.30061687669E+03  0.50400001928E-02 0. -1.
</event>
<event>
 5   0  0.1560728E-02  0.9066109E+03  0.7818609E-02  0.9417355E-01
        1   -1    0    0  501    0  0.00000000000E+00  0.00000000000E+00  0.12319146862E+04  0.12319146862E+04  0.50400001928E-02 0. -1.
       -1   -1    0    0    0  501  0.00000000000E+00  0.00000000000E+00 -0.16680200630E+03  0.16680200638E+03  0.50400001928E-02 0.  1.
    10030    2    1    2    0    0  0.00000000000E+00  0.00000000000E+00  0.10651126799E+04  0.13987166926E+04  0.90661092274E+03 0.  0.
        4    1    3    3  502    0 -0.15299572508E+03 -0.25138807086E+02 -0.12461831677E+03  0.19892458191E+03  0.12699999809E+01 0.  1.
       -4    1    3    3    0  502  0.15299572508E+03  0.25138807086E+02  0.11897309966E+04  0.11997921106E+04  0.12699999809E+01 0. -1.
</event>
<event>
 5   0  0.2705111E-02  0.1042240E+04  0.7818609E-02  0.9263392E-01
        2   -1    0    0  501    0  0.00000000000E+00  0.00000000000E+00  0.14419219364E+04  0.14419219364E+04  0.25500000920E-02 0. -1.
       -2   -1    0    0    0  501  0.00000000000E+00  0.00000000000E+00 -0.18833627448E+03  0.18833627450E+03  0.25500000920E-02 0.  1.
    10030    2    1    2    0    0  0.00000000000E+00  0.00000000000E+00  0.12535856619E+04  0.16302582109E+04  0.10422402902E+04 0.  0.
        4    1    3    3  502    0  0.20522242417E+03 -0.43906241024E+03  0.92633577132E+03  0.10454623942E+04  0.12699999809E+01 0. -1.
       -4    1    3    3    0  502 -0.20522242417E+03  0.43906241024E+03  0.32724989056E+03  0.58479581671E+03  0.12699999809E+01 0.  1.
</event>
<event>
 5   0  0.1559275E-02  0.7283178E+03  0.7818609E-02  0.9669994E-01
        1   -1    0    0  501    0  0.00000000000E+00  0.00000000000E+00  0.69595596264E+03  0.69595596266E+03  0.50400001928E-02 0. -1.
       -1   -1    0    0    0  501  0.00000000000E+00  0.00000000000E+00 -0.19054610768E+03  0.19054610775E+03  0.50400001928E-02 0.  1.
    10030    2    1    2    0    0  0.00000000000E+00  0.00000000000E+00  0.50540985496E+03  0.88650207041E+03  0.72831778734E+03 0.  0.
        1    1    3    3  502    0  0.29834491594E+02 -0.27028183817E+03 -0.42120139009E+02  0.27516626804E+03  0.50400001928E-02 0.  1.
       -1    1    3    3    0  502 -0.29834491594E+02  0.27028183817E+03  0.54752999397E+03  0.61133580237E+03  0.50400001928E-02 0. -1.
</event>
<event>
 5   0  0.2803717E-02  0.9140679E+03  0.7818609E-02  0.9408165E-01
        2   -1    0    0  501    0  0.00000000000E+00  0.00000000000E+00  0.14700447854E+04  0.14700447854E+04  0.25500000920E-02 0. -1.
       -2   -1    0    0    0  501  0.00000000000E+00  0.00000000000E+00 -0.14209091905E+03  0.14209091907E+03  0.25500000920E-02 0.  1.
    10030    2    1    2    0    0  0.00000000000E+00  0.00000000000E+00  0.13279538664E+04  0.16121357045E+04  0.91406786318E+03 0.  0.
        5    1    3    3  502    0  0.36564187872E+02  0.33865469951E+03  0.12013509204E+04  0.12487153676E+04  0.46999998093E+01 0. -1.
       -5    1    3    3    0  502 -0.36564187872E+02 -0.33865469951E+03  0.12660294596E+03  0.36342033688E+03  0.46999998093E+01 0.  1.
</event>
<event>
 5   0  0.2803717E-02  0.8421202E+03  0.7818609E-02  0.9500974E-01
        2   -1    0    0  501    0  0.00000000000E+00  0.00000000000E+00  0.40116361939E+03  0.40116361940E+03  0.25500000920E-02 0. -1.
       -2   -1    0    0    0  501  0.00000000000E+00  0.00000000000E+00 -0.44194338577E+03  0.44194338578E+03  0.25500000920E-02 0.  1.
    10030    2    1    2    0    0  0.00000000000E+00  0.00000000000E+00 -0.40779766378E+02  0.84310700517E+03  0.84212020094E+03 0.  0.
        5    1    3    3  502    0  0.38499685600E+03 -0.87922119847E+02 -0.16656316140E+03  0.42862367529E+03  0.46999998093E+01 0.  1.
       -5    1    3    3    0  502 -0.38499685600E+03  0.87922119847E+02  0.12578339502E+03  0.41448332988E+03  0.46999998093E+01 0. -1.
</event>
<event>
 5   0  0.2628383E-02  0.9062976E+03  0.7818609E-02  0.9417743E-01
        2   -1    0    0  501    0  0.00000000000E+00  0.00000000000E+00  0.52616672038E+03  0.52616672039E+03  0.25500000920E-02 0.  1.
       -2   -1    0    0    0  501  0.00000000000E+00  0.00000000000E+00 -0.39026382769E+03  0.39026382770E+03  0.25500000920E-02 0. -1.
    10030    2    1    2    0    0  0.00000000000E+00  0.00000000000E+00  0.13590289269E+03  0.91643054809E+03  0.90629760743E+03 0.  0.
        2    1    3    3  502    0 -0.40051012235E+03 -0.21118810290E+03  0.49441996461E+02  0.45547039852E+03  0.25500000920E-02 0. -1.
       -2    1    3    3    0  502  0.40051012235E+03  0.21118810290E+03  0.86460896231E+02  0.46096014957E+03  0.25500000920E-02 0.  1.
</event>
<event>
 5   0  0.2628383E-02  0.8797210E+03  0.7818609E-02  0.9451292E-01
        2   -1    0    0  501    0  0.00000000000E+00  0.00000000000E+00  0.17668884113E+04  0.17668884113E+04  0.25500000920E-02 0.  1.
       -2   -1    0    0    0  501  0.00000000000E+00  0.00000000000E+00 -0.10950169446E+03  0.10950169449E+03  0.25500000920E-02 0. -1.
    10030    2    1    2    0    0  0.00000000000E+00  0.00000000000E+00  0.16573867169E+04  0.18763901058E+04  0.87972103531E+03 0.  0.
        2    1    3    3  502    0  0.28618903442E+02 -0.29110236252E+03  0.12800582094E+03  0.31928845469E+03  0.25500000920E-02 0. -1.
       -2    1    3    3    0  502 -0.28618903442E+02  0.29110236252E+03  0.15293808959E+04  0.15571016511E+04  0.25500000920E-02 0.  1.
</event>
<event>
 5   0  0.2679861E-02  0.8439242E+03  0.7818609E-02  0.9498528E-01
        2   -1    0    0  501    0  0.00000000000E+00  0.00000000000E+00  0.36948159329E+03  0.36948159330E+03  0.25500000920E-02 0. -1.
       -2   -1    0    0    0  501  0.00000000000E+00  0.00000000000E+00 -0.48189681025E+03  0.48189681026E+03  0.25500000920E-02 0.  1.
    10030    2    1    2    0    0  0.00000000000E+00  0.00000000000E+00 -0.11241521697E+03  0.85137840356E+03  0.84392417019E+03 0.  0.
        1    1    3    3  502    0 -0.29508898751E+03  0.21460954004E+03  0.15760126047E+03  0.39745807647E+03  0.50400001928E-02 0. -1.
       -1    1    3    3    0  502  0.29508898751E+03 -0.21460954004E+03 -0.27001647744E+03  0.45392032708E+03  0.50400001928E-02 0.  1.
</event>
<event>
 5   0  0.1497410E-02  0.9051146E+03  0.7818609E-02  0.9419210E-01
        1   -1    0    0  501    0  0.00000000000E+00  0.00000000000E+00  0.57542443248E+03  0.57542443250E+03  0.50400001928E-02 0. -1.
       -1   -1    0    0    0  501  0.00000000000E+00  0.00000000000E+00 -0.35592525435E+03  0.35592525439E+03  0.50400001928E-02 0.  1.
    10030    2    1    2    0    0  0.00000000000E+00  0.00000000000E+00  0.21949917813E+03  0.93134968689E+03  0.90511455080E+03 0.  0.
        3    1    3    3  502    0 -0.41397783430E+03 -0.98425866834E+02 -0.48803606348E+02  0.42830725040E+03  0.10100000352E+00 0.  1.
       -3    1    3    3    0  502  0.41397783430E+03  0.98425866834E+02  0.26830278447E+03  0.50304243649E+03  0.10100000352E+00 0. -1.
</event>
<event>
 5   0  0.1497410E-02  0.1012468E+04  0.7818609E-02  0.9294975E-01
       -1   -1    0    0    0  501  0.00000000000E+00  0.00000000000E+00  0.33967200298E+03  0.33967200302E+03  0.50400001928E-02 0.  1.
        1   -1    0    0  501    0  0.00000000000E+00  0.00000000000E+00 -0.75447192578E+03  0.75447192579E+03  0.50400001928E-02 0. -1.
    10030    2    1    2    0    0  0.00000000000E+00  0.00000000000E+00 -0.41479992279E+03  0.10941439288E+04  0.10124682519E+04 0.  0.
        3    1    3    3  502    0  0.70852568592E+02  0.45478608651E+03 -0.43516894484E+03  0.63342125928E+03  0.10100000352E+00 0.  1.
       -3    1    3    3    0  502 -0.70852568592E+02 -0.45478608651E+03  0.20369022050E+02  0.46072266953E+03  0.10100000352E+00 0. -1.
</event>
<event>
 5   0  0.1537870E-02  0.8661876E+03  0.7818609E-02  0.9468864E-01
        1   -1    0    0  501    0  0.00000000000E+00  0.00000000000E+00  0.54166432692E+03  0.54166432694E+03  0.50400001928E-02 0.  1.
       -1   -1    0    0    0  501  0.00000000000E+00  0.00000000000E+00 -0.34628505204E+03  0.34628505207E+03  0.50400001928E-02 0. -1.
    10030    2    1    2    0    0  0.00000000000E+00  0.00000000000E+00  0.19537927488E+03  0.88794937902E+03  0.86618764632E+03 0.  0.
        5    1    3    3  502    0 -0.17758127343E+03 -0.10819459672E+03 -0.29173184597E+03  0.35828862581E+03  0.46999998093E+01 0. -1.
       -5    1    3    3    0  502  0.17758127343E+03  0.10819459672E+03  0.48711112085E+03  0.52966075321E+03  0.46999998093E+01 0.  1.
</event>
<event>
 5   0  0.2414128E-02  0.9135031E+03  0.7818609E-02  0.9408858E-01
        2   -1    0    0  501    0  0.00000000000E+00  0.00000000000E+00  0.17093265147E+04  0.17093265147E+04  0.25500000920E-02 0. -1.
       -2   -1    0    0    0  501  0.00000000000E+00  0.00000000000E+00 -0.12204923132E+03  0.12204923135E+03  0.25500000920E-02 0.  1.
    10030    2    1    2    0    0  0.00000000000E+00  0.00000000000E+00  0.15872772834E+04  0.18313757461E+04  0.91350311926E+03 0.  0.
        3    1    3    3  502    0  0.59326779224E+02  0.38536285758E+03  0.12705823405E+04  0.13290612074E+04  0.10100000352E+00 0. -1.
       -3    1    3    3    0  502 -0.59326779224E+02 -0.38536285758E+03  0.31669494290E+03  0.50231453871E+03  0.10100000352E+00 0.  1.
</event>
<event>
 5   0  0.1560728E-02  0.9090813E+03  0.7818609E-02  0.9414300E-01
       -1   -1    0    0    0  501  0.00000000000E+00  0.00000000000E+00  0.31871755792E+03  0.31871755796E+03  0.50400001928E-02 0. -1.
        1   -1    0    0  501    0  0.00000000000E+00  0.00000000000E+00 -0.64824547145E+03  0.64824547147E+03  0.50400001928E-02 0.  1.
    10030    2    1    2    0    0  0.00000000000E+00  0.00000000000E+00 -0.32952791353E+03  0.96696302943E+03  0.90908132446E+03 0.  0.
        4    1    3    3  502    0 -0.77813694590E+02 -0.23214089723E+03 -0.57211121766E+03  0.62229994818E+03  0.12699999809E+01 0.  1.
       -4    1    3    3    0  502  0.77813694590E+02  0.23214089723E+03  0.24258330413E+03  0.34466308125E+03  0.12699999809E+01 0. -1.
</event>
<event>
 5   0  0.2628383E-02  0.8910304E+03  0.7818609E-02  0.9436864E-01
       -2   -1    0    0    0  501  0.00000000000E+00  0.00000000000E+00  0.23955454027E+03  0.23955454028E+03  0.25500000920E-02 0.  1.
        2   -1    0    0  501    0  0.00000000000E+00  0.00000000000E+00 -0.82855366283E+03  0.82855366284E+03  0.25500000920E-02 0. -1.
    10030    2    1    2    0    0  0.00000000000E+00  0.00000000000E+00 -0.58899912257E+03  0.10681082031E+04  0.89103039633E+03 0.  0.
        2    1    3    3  502    0  0.43881883032E+03  0.76256710003E+02 -0.30688429277E+03  0.54088355569E+03  0.25500000920E-02 0. -1.
       -2    1    3    3    0  502 -0.43881883032E+03 -0.76256710003E+02 -0.28211482980E+03  0.52722464743E+03  0.25500000920E-02 0.  1.
</event>
<event>
 5   0  0.1560728E-02  0.8797154E+03  0.7818609E-02  0.9451300E-01
        1   -1    0    0  501    0  0.00000000000E+00  0.00000000000E+00  0.13830287028E+04  0.13830287028E+04  0.50400001928E-02 0. -1.
       -1   -1    0    0    0  501  0.00000000000E+00  0.00000000000E+00 -0.13989209011E+03  0.13989209020E+03  0.50400001928E-02 0.  1.
    10030    2    1    2    0    0  0.00000000000E+00  0.00000000000E+00  0.12431366127E+04  0.15229207930E+04  0.87971535394E+03 0.  0.
        4    1    3    3  502    0  0.13513981078E+03  0.11799887614E+03  0.13168076941E+04  0.13289735209E+04  0.12699999809E+01 0. -1.
       -4    1    3    3    0  502 -0.13513981078E+03 -0.11799887614E+03 -0.73671081370E+02  0.19394727210E+03  0.12699999809E+01 0.  1.
</event>
<event>
 5   0  0.1559275E-02  0.8719047E+03  0.7818609E-02  0.9461400E-01
        1   -1    0    0  501    0  0.00000000000E+00  0.00000000000E+00  0.43081612736E+03  0.43081612739E+03  0.50400001928E-02 0.  1.
       -1   -1    0    0    0  501  0.00000000000E+00  0.00000000000E+00 -0.44114984792E+03  0.44114984794E+03  0.50400001928E-02 0. -1.
    10030    2    1    2    0    0  0.00000000000E+00  0.00000000000E+00 -0.10333720555E+02  0.87196597533E+03  0.87190474042E+03 0.  0.
        1    1    3    3  502    0 -0.16388736697E+03 -0.24343561361E+03  0.31724452513E+03  0.43216207119E+03  0.50400001928E-02 0.  1.
       -1    1    3    3    0  502  0.16388736697E+03  0.24343561361E+03 -0.32757824569E+03  0.43980390414E+03  0.50400001928E-02 0. -1.
</event>
<event>
 5   0  0.1459111E-02  0.9191451E+03  0.7818609E-02  0.9401961E-01
        1   -1    0    0  501    0  0.00000000000E+00  0.00000000000E+00  0.10199386125E+04  0.10199386125E+04  0.50400001928E-02 0.  1.
       -1   -1    0    0    0  501  0.00000000000E+00  0.00000000000E+00 -0.20707808738E+03  0.20707808744E+03  0.50400001928E-02 0. -1.
    10030    2    1    2    0    0  0.00000000000E+00  0.00000000000E+00  0.81286052513E+03  0.12270167000E+04  0.91914511839E+03 0.  0.
        2    1    3    3  502    0 -0.40660588267E+03 -0.20577523917E+03  0.32705778066E+03  0.56092654133E+03  0.25500000920E-02 0.  1.
       -2    1    3    3    0  502  0.40660588267E+03  0.20577523917E+03  0.48580274448E+03  0.66609015863E+03  0.25500000920E-02 0. -1.
</event>
<event>
 5   0  0.1497410E-02  0.7812446E+03  0.7818609E-02  0.9587569E-01
        1   -1    0    0  501    0  0.00000000000E+00  0.00000000000E+00  0.59348201581E+03  0.59348201583E+03  0.50400001928E-02 0. -1.
       -1   -1    0    0    0  501  0.00000000000E+00  0.00000000000E+00 -0.25710259224E+03  0.25710259229E+03  0.50400001928E-02 0.  1.
    10030    2    1    2    0    0  0.00000000000E+00  0.00000000000E+00  0.33637942357E+03  0.85058460812E+03  0.78124455771E+03 0.  0.
        3    1    3    3  502    0 -0.19729351618E+03  0.14312454403E+03 -0.16415092668E+03  0.29386204852E+03  0.10100000352E+00 0.  1.
       -3    1    3    3    0  502  0.19729351618E+03 -0.14312454403E+03  0.50053035026E+03  0.55672255959E+03  0.10100000352E+00 0. -1.
</event>
<event>
 5   0  0.2705111E-02  0.9216029E+03  0.7818609E-02  0.9398972E-01
        2   -1    0    0  501    0  0.00000000000E+00  0.00000000000E+00  0.17543814281E+04  0.17543814281E+04  0.25500000920E-02 0.  1.
       -2   -1    0    0    0  501  0.00000000000E+00  0.00000000000E+00 -0.12103296315E+03  0.12103296318E+03  0.25500000920E-02 0. -1.
    10030    2    1    2    0    0  0.00000000000E+00  0.00000000000E+00  0.16333484649E+04  0.18754143912E+04  0.92160291397E+03 0.  0.
        4    1    3    3  502    0  0.34213358111E+03  0.29447464855E+03  0.62833798207E+03  0.77368012678E+03  0.12699999809E+01 0. -1.
       -4    1    3    3    0  502 -0.34213358111E+03 -0.29447464855E+03  0.10050104828E+04  0.11017342644E+04  0.12699999809E+01 0.  1.
</event>
<event>
 5   0  0.2705111E-02  0.7374465E+03  0.7818609E-02  0.9655253E-01
       -2   -1    0    0    0  501  0.00000000000E+00  0.00000000000E+00  0.34495436606E+03  0.34495436607E+03  0.25500000920E-02 0.  1.
        2   -1    0    0  501    0  0.00000000000E+00  0.00000000000E+00 -0.39412994069E+03  0.39412994070E+03  0.25500000920E-02 0. -1.
    10030    2    1    2    0    0  0.00000000000E+00  0.00000000000E+00 -0.49175574631E+02  0.73908430677E+03  0.73744652374E+03 0.  0.
        4    1    3    3  502    0  0.36222529172E+03  0.64502932969E+02 -0.48878789581E+02  0.37115837495E+03  0.12699999809E+01 0. -1.
       -4    1    3    3    0  502 -0.36222529172E+03 -0.64502932969E+02 -0.29678504987E+00  0.36792593182E+03  0.12699999809E+01 0.  1.
</event>
<event>
 5   0  0.1459111E-02  0.8945224E+03  0.7818609E-02  0.9432455E-01
        1   -1    0    0  501    0  0.00000000000E+00  0.00000000000E+00  0.12990849527E+04  0.12990849527E+04  0.50400001928E-02 0. -1.
       -1   -1    0    0    0  501  0.00000000000E+00  0.00000000000E+00 -0.15398728168E+03  0.15398728176E+03  0.50400001928E-02 0.  1.
    10030    2    1    2    0    0  0.00000000000E+00  0.00000000000E+00  0.11450976710E+04  0.14530722345E+04  0.89452235433E+03 0.  0.
        2    1    3    3  502    0 -0.40879965844E+03  0.82732624903E+02  0.83488353120E+03  0.93326971377E+03  0.25500000920E-02 0. -1.
       -2    1    3    3    0  502  0.40879965844E+03 -0.82732624903E+02  0.31021413981E+03  0.51980252069E+03  0.25500000920E-02 0.  1.
</event>
<event>
 5   0  0.2705111E-02  0.8875478E+03  0.7818609E-02  0.9441283E-01
       -2   -1    0    0    0  501  0.00000000000E+00  0.00000000000E+00  0.26282980676E+03  0.26282980678E+03  0.25500000920E-02 0.  1.
        2   -1    0    0  501    0  0.00000000000E+00  0.00000000000E+00 -0.74928816618E+03  0.74928816619E+03  0.25500000920E-02 0. -1.
    10030    2    1    2    0    0  0.00000000000E+00  0.00000000000E+00 -0.48645835942E+03  0.10121179730E+04  0.88754777660E+03 0.  0.
        4    1    3    3  502    0  0.30173781046E+03  0.15093116869E+03  0.85516534059E+02  0.34805260298E+03  0.12699999809E+01 0.  1.
       -4    1    3    3    0  502 -0.30173781046E+03 -0.15093116869E+03 -0.57197489348E+03  0.66406536999E+03  0.12699999809E+01 0. -1.
</event>
<event>
 5   0  0.2679861E-02  0.8902730E+03  0.7818609E-02  0.9437823E-01
       -2   -1    0    0    0  501  0.00000000000E+00  0.00000000000E+00  0.11302633921E+04  0.11302633921E+04  0.25500000920E-02 0. -1.
        2   -1    0    0  501    0  0.00000000000E+00  0.00000000000E+00 -0.17531003922E+03  0.17531003924E+03  0.25500000920E-02 0.  1.
    10030    2    1    2    0    0  0.00000000000E+00  0.00000000000E+00  0.95495335292E+03  0.13055734314E+04  0.89027303591E+03 0.  0.
        1    1    3    3  502    0 -0.19529003313E+03  0.33352234905E+03  0.15361493297E+03  0.41590011062E+03  0.50400001928E-02 0.  1.
       -1    1    3    3    0  502  0.19529003313E+03 -0.33352234905E+03  0.80133841995E+03  0.88967332075E+03  0.50400001928E-02 0. -1.
</event>
<event>
 5   0  0.1040163E-02  0.7721970E+03  0.7818609E-02  0.9601156E-01
        3   -1    0    0  501    0  0.00000000000E+00  0.00000000000E+00  0.12271526208E+04  0.12271526250E+04  0.10100000352E+00 0.  1.
       -3   -1    0    0    0  501  0.00000000000E+00  0.00000000000E+00 -0.12147799431E+03  0.12147803630E+03  0.10100000352E+00 0. -1.
    10030    2    1    2    0    0  0.00000000000E+00  0.00000000000E+00  0.11056746265E+04  0.13486306613E+04  0.77219704793E+03 0.  0.
        1    1    3    3  502    0  0.19996108113E+03 -0.14293476625E+03  0.10728597899E+04  0.11006556728E+04  0.50400001928E-02 0.  1.
       -1    1    3    3    0  502 -0.19996108113E+03  0.14293476625E+03  0.32814836638E+02  0.24797498845E+03  0.50400001928E-02 0. -1.
</event>
<event>
 5   0  0.2705111E-02  0.8672644E+03  0.7818609E-02  0.9467454E-01
        2   -1    0    0  501    0  0.00000000000E+00  0.00000000000E+00  0.12794153935E+04  0.12794153935E+04  0.25500000920E-02 0.  1.
       -2   -1    0    0    0  501  0.00000000000E+00  0.00000000000E+00 -0.14697092759E+03  0.14697092761E+03  0.25500000920E-02 0. -1.
    10030    2    1    2    0    0  0.00000000000E+00  0.00000000000E+00  0.11324444659E+04  0.14263863211E+04  0.86726435917E+03 0.  0.
        4    1    3    3  502    0  0.15726918877E+03  0.24698823313E+03  0.40180458872E+02  0.29555518473E+03  0.12699999809E+01 0. -1.
       -4    1    3    3    0  502 -0.15726918877E+03 -0.24698823313E+03  0.10922640070E+04  0.11308311364E+04  0.12699999809E+01 0.  1.
</event>
<event>
 5   0  0.1497410E-02  0.9074313E+03  0.7818609E-02  0.9416339E-01
        1   -1    0    0  501    0  0.00000000000E+00  0.00000000000E+00  0.39759127176E+03  0.39759127179E+03  0.50400001928E-02 0.  1.
       -1   -1    0    0    0  501  0.00000000000E+00  0.00000000000E+00 -0.51776256388E+03  0.51776256390E+03  0.50400001928E-02 0. -1.
    10030    2    1    2    0    0  0.00000000000E+00  0.00000000000E+00 -0.12017129212E+03  0.91535383569E+03  0.90743126741E+03 0.  0.
        3    1    3    3  502    0 -0.34344802366E+03 -0.17387050270E+03 -0.30232886716E+03  0.48947957137E+03  0.10100000352E+00 0. -1.
       -3    1    3    3    0  502  0.34344802366E+03  0.17387050270E+03  0.18215757504E+03  0.42587426432E+03  0.10100000352E+00 0.  1.
</event>
<event>
 5   0  0.2803717E-02  0.7927898E+03  0.7818609E-02  0.9570513E-01
        2   -1    0    0  501    0  0.00000000000E+00  0.00000000000E+00  0.97116578700E+03  0.97116578700E+03  0.25500000920E-02 0. -1.
       -2   -1    0    0    0  501  0.00000000000E+00  0.00000000000E+00 -0.16179410989E+03  0.16179410991E+03  0.25500000920E-02 0.  1.
    10030    2    1    2    0    0  0.00000000000E+00  0.00000000000E+00  0.80937167711E+03  0.11329598969E+04  0.79278976804E+03 0.  0.
        5    1    3    3  502    0 -0.29296551698E+03 -0.11207514750E+03  0.75097516095E+03  0.81386449437E+03  0.46999998093E+01 0. -1.
       -5    1    3    3    0  502  0.29296551698E+03  0.11207514750E+03  0.58396516155E+02  0.31909540255E+03  0.46999998093E+01 0.  1.
</event>
<event>
 5   0  0.1497410E-02  0.1058074E+04  0.7818609E-02  0.9247047E-01
       -1   -1    0    0    0  501  0.00000000000E+00  0.00000000000E+00  0.71699175373E+03  0.71699175375E+03  0.50400001928E-02 0.  1.
        1   -1    0    0  501    0  0.00000000000E+00  0.00000000000E+00 -0.39035371252E+03  0.39035371255E+03  0.50400001928E-02 0. -1.
    10030    2    1    2    0    0  0.00000000000E+00  0.00000000000E+00  0.32663804121E+03  0.11073454663E+04  0.10580744642E+04 0.  0.
        3    1    3    3  502    0 -0.10727373150E+02  0.52710003360E+03  0.20930679375E+03  0.56723792721E+03  0.10100000352E+00 0. -1.
       -3    1    3    3    0  502  0.10727373150E+02 -0.52710003360E+03  0.11733124746E+03  0.54010753909E+03  0.10100000352E+00 0.  1.
</event>
<event>
 5   0  0.1497410E-02  0.8992034E+03  0.7818609E-02  0.9426578E-01
       -1   -1    0    0    0  501  0.00000000000E+00  0.00000000000E+00  0.92385722376E+02  0.92385722514E+02  0.50400001928E-02 0. -1.
        1   -1    0    0  501    0  0.00000000000E+00  0.00000000000E+00 -0.21880189000E+04  0.21880189000E+04  0.50400001928E-02 0.  1.
    10030    2    1    2    0    0  0.00000000000E+00  0.00000000000E+00 -0.20956331776E+04  0.22804046225E+04  0.89920344041E+03 0.  0.
        3    1    3    3  502    0 -0.42831521158E+03 -0.13453385284E+03 -0.98629930652E+03  0.10836695116E+04  0.10100000352E+00 0.  1.
       -3    1    3    3    0  502  0.42831521158E+03  0.13453385284E+03 -0.11093338711E+04  0.11967351110E+04  0.10100000352E+00 0. -1.
</event>
<event>
 5   0  0.2414128E-02  0.9217177E+03  0.7818609E-02  0.9398833E-01
        2   -1    0    0  501    0  0.00000000000E+00  0.00000000000E+00  0.56058753496E+03  0.56058753497E+03  0.25500000920E-02 0. -1.
       -2   -1    0    0    0  501  0.00000000000E+00  0.00000000000E+00 -0.37887192300E+03  0.37887192301E+03  0.25500000920E-02 0.  1.
    10030    2    1    2    0    0  0.00000000000E+00  0.00000000000E+00  0.18171561196E+03  0.93945945797E+03  0.92171769515E+03 0.  0.
        3    1    3    3  502    0  0.33725269459E+03 -0.17372931143E+03 -0.17584590348E+03  0.41814237483E+03  0.10100000352E+00 0.  1.
       -3    1    3    3    0  502 -0.33725269459E+03  0.17372931143E+03  0.35756151544E+03  0.52131708315E+03  0.10100000352E+00 0. -1.
</event>
<event>
 5   0  0.1040163E-02  0.8903173E+03  0.7818609E-02  0.9437767E-01
       -3   -1    0    0    0  501  0.00000000000E+00  0.00000000000E+00  0.34145005502E+03  0.34145006996E+03  0.10100000352E+00 0. -1.
        3   -1    0    0  501    0  0.00000000000E+00  0.00000000000E+00 -0.58036666171E+03  0.58036667050E+03  0.10100000352E+00 0.  1.
    10030    2    1    2    0    0  0.00000000000E+00  0.00000000000E+00 -0.23891660669E+03  0.92181674046E+03  0.89031733559E+03 0.  0.
        5    1    3    3  502    0  0.23726325322E+03 -0.36781061876E+03 -0.20335377556E+03  0.48265241182E+03  0.46999998093E+01 0. -1.
       -5    1    3    3    0  502 -0.23726325322E+03  0.36781061876E+03 -0.35562831123E+02  0.43916432864E+03  0.46999998093E+01 0.  1.
</event>
<event>
 5   0  0.1559275E-02  0.9522825E+03  0.7818609E-02  0.9362487E-01
       -1   -1    0    0    0  501  0.00000000000E+00  0.00000000000E+00  0.29844270024E+03  0.29844270028E+03  0.50400001928E-02 0.  1.
        1   -1    0    0  501    0  0.00000000000E+00  0.00000000000E+00 -0.75964493769E+03  0.75964493771E+03  0.50400001928E-02 0. -1.
    10030    2    1    2    0    0  0.00000000000E+00  0.00000000000E+00 -0.46120223745E+03  0.10580876380E+04  0.95228249267E+03 0.  0.
        1    1    3    3  502    0  0.43919419545E+03  0.17295906785E+03 -0.16117599878E+03  0.49878260102E+03  0.50400001928E-02 0.  1.
       -1    1    3    3    0  502 -0.43919419545E+03 -0.17295906785E+03 -0.30002623867E+03  0.55930503698E+03  0.50400001928E-02 0. -1.
</event>
<event>
 5   0  0.1560728E-02  0.9185200E+03  0.7818609E-02  0.9402722E-01
        1   -1    0    0  501    0  0.00000000000E+00  0.00000000000E+00  0.28571142569E+03  0.28571142574E+03  0.50400001928E-02 0.  1.
       -1   -1    0    0    0  501  0.00000000000E+00  0.00000000000E+00 -0.73822656539E+03  0.73822656541E+03  0.50400001928E-02 0. -1.
    10030    2    1    2    0    0  0.00000000000E+00  0.00000000000E+00 -0.45251513970E+03  0.10239379911E+04  0.91852003683E+03 0.  0.
        4    1    3    3  502    0 -0.37378039026E+03  0.24158650841E+03 -0.99927440045E+02  0.45613915350E+03  0.12699999809E+01 0.  1.
       -4    1    3    3    0  502  0.37378039026E+03 -0.24158650841E+03 -0.35258769965E+03  0.56779883764E+03  0.12699999809E+01 0. -1.
</event>
<event>
 5   0  0.1537870E-02  0.9515883E+03  0.7818609E-02  0.9363296E-01
       -1   -1    0    0    0  501  0.00000000000E+00  0.00000000000E+00  0.38489927689E+03  0.38489927692E+03  0.50400001928E-02 0.  1.
        1   -1    0    0  501    0  0.00000000000E+00  0.00000000000E+00 -0.58815405023E+03  0.58815405025E+03  0.50400001928E-02 0. -1.
    10030    2    1    2    0    0  0.00000000000E+00  0.00000000000E+00 -0.20325477334E+03  0.97305332718E+03  0.95158829051E+03 0.  0.
        5    1    3    3  502    0 -0.58900232521E+02  0.30331026823E+03  0.26832299368E+03  0.40925013762E+03  0.46999998093E+01 0.  1.
       -5    1    3    3    0  502  0.58900232521E+02 -0.30331026823E+03 -0.47157776702E+03  0.56380318956E+03  0.46999998093E+01 0. -1.
</event>
<event>
 5   0  0.1040163E-02  0.8467475E+03  0.7818609E-02  0.9494713E-01
       -3   -1    0    0    0  501  0.00000000000E+00  0.00000000000E+00  0.30168186196E+03  0.30168187887E+03  0.10100000352E+00 0. -1.
        3   -1    0    0  501    0  0.00000000000E+00  0.00000000000E+00 -0.59415338816E+03  0.59415339675E+03  0.10100000352E+00 0.  1.
    10030    2    1    2    0    0  0.00000000000E+00  0.00000000000E+00 -0.29247152620E+03  0.89583527561E+03  0.84674745196E+03 0.  0.
        3    1    3    3  502    0  0.96404067533E+02  0.30595942813E+03  0.14607946231E+03  0.35248281576E+03  0.10100000352E+00 0.  1.
       -3    1    3    3    0  502 -0.96404067533E+02 -0.30595942813E+03 -0.43855098851E+03  0.54335245985E+03  0.10100000352E+00 0. -1.
</event>
<event>
 5   0  0.1560728E-02  0.9018356E+03  0.7818609E-02  0.9423290E-01
       -1   -1    0    0    0  501  0.00000000000E+00  0.00000000000E+00  0.16034709144E+03  0.16034709152E+03  0.50400001928E-02 0.  1.
        1   -1    0    0  501    0  0.00000000000E+00  0.00000000000E+00 -0.12680420300E+04  0.12680420300E+04  0.50400001928E-02 0. -1.
    10030    2    1    2    0    0  0.00000000000E+00  0.00000000000E+00 -0.11076949385E+04  0.14283891215E+04  0.90183557568E+03 0.  0.
        4    1    3    3  502    0 -0.32575656396E+03 -0.87528972774E+01 -0.60220657583E+02  0.33139416512E+03  0.12699999809E+01 0.  1.
       -4    1    3    3    0  502  0.32575656396E+03  0.87528972774E+01 -0.10474742809E+04  0.10969949564E+04  0.12699999809E+01 0. -1.
</event>
<event>
 5   0  0.1559275E-02  0.7805163E+03  0.7818609E-02  0.9588655E-01
        1   -1    0    0  501    0  0.00000000000E+00  0.00000000000E+00  0.28757502012E+03  0.28757502017E+03  0.50400001928E-02 0. -1.
       -1   -1    0    0    0  501  0.00000000000E+00  0.00000000000E+00 -0.52960590832E+03  0.52960590834E+03  0.50400001928E-02 0.  1.
    10030    2    1    2    0    0  0.00000000000E+00  0.00000000000E+00 -0.24203088819E+03  0.81718092851E+03  0.78051631570E+03 0.  0.
        1    1    3    3  502    0  0.29356929868E+03 -0.23506907697E+03 -0.23012722812E+03  0.44090695755E+03  0.50400001928E-02 0.  1.
       -1    1    3    3    0  502 -0.29356929868E+03  0.23506907697E+03 -0.11903660074E+02  0.37627397096E+03  0.50400001928E-02 0. -1.
</event>
<event>
 5   0  0.2705111E-02  0.9354867E+03  0.7818609E-02  0.9382277E-01
       -2   -1    0    0    0  501  0.00000000000E+00  0.00000000000E+00  0.20453075411E+03  0.20453075413E+03  0.25500000920E-02 0.  1.
        2   -1    0    0  501    0  0.00000000000E+00  0.00000000000E+00 -0.10696868573E+04  0.10696868573E+04  0.25500000920E-02 0. -1.
    10030    2    1    2    0    0  0.00000000000E+00  0.00000000000E+00 -0.86515610320E+03  0.12742176114E+04  0.93548673877E+03 0.  0.
        4    1    3    3  502    0 -0.25001002381E+03  0.35092782197E+02 -0.96891272544E+03  0.10012641998E+04  0.12699999809E+01 0. -1.
       -4    1    3    3    0  502  0.25001002381E+03 -0.35092782197E+02  0.10375662225E+03  0.27295341165E+03  0.12699999809E+01 0.  1.
</event>
<event>
 5   0  0.1560728E-02  0.8917899E+03  0.7818609E-02  0.9435903E-01
       -1   -1    0    0    0  501  0.00000000000E+00  0.00000000000E+00  0.18277447637E+03  0.18277447644E+03  0.50400001928E-02 0.  1.
        1   -1    0    0  501    0  0.00000000000E+00  0.00000000000E+00 -0.10878012296E+04  0.10878012296E+04  0.50400001928E-02 0. -1.
    10030    2    1    2    0    0  0.00000000000E+00  0.00000000000E+00 -0.90502675326E+03  0.12705757061E+04  0.89178988600E+03 0.  0.
        4    1    3    3  502    0 -0.20169381590E+03 -0.38168145986E+02 -0.10164750822E+04  0.10369958575E+04  0.12699999809E+01 0. -1.
       -4    1    3    3    0  502  0.20169381590E+03  0.38168145986E+02  0.11144832897E+03  0.23357984860E+03  0.12699999809E+01 0.  1.
</event>
<event>
 5   0  0.1560728E-02  0.9070016E+03  0.7818609E-02  0.9416871E-01
        1   -1    0    0  501    0  0.00000000000E+00  0.00000000000E+00  0.15458161125E+04  0.15458161125E+04  0.50400001928E-02 0. -1.
       -1   -1    0    0    0  501  0.00000000000E+00  0.00000000000E+00 -0.13304492083E+03  0.13304492092E+03  0.50400001928E-02 0.  1.
    10030    2    1    2    0    0  0.00000000000E+00  0.00000000000E+00  0.14127711917E+04  0.16788610334E+04  0.90700161496E+03 0.  0.
        4    1    3    3  502    0 -0.25932503672E+03  0.35961524776E+03  0.88285085045E+03  0.98792704090E+03  0.12699999809E+01 0. -1.
       -4    1    3    3    0  502  0.25932503672E+03 -0.35961524776E+03  0.52992034122E+03  0.69093399253E+03  0.12699999809E+01 0.  1.
</event>
<event>
 5   0  0.1497410E-02  0.8965840E+03  0.7818609E-02  0.9429862E-01
        1   -1    0    0  501    0  0.00000000000E+00  0.00000000000E+00  0.11783851661E+04  0.11783851661E+04  0.50400001928E-02 0. -1.
       -1   -1    0    0    0  501  0.00000000000E+00  0.00000000000E+00 -0.17054333165E+03  0.17054333173E+03  0.50400001928E-02 0.  1.
    10030    2    1    2    0    0  0.00000000000E+00  0.00000000000E+00  0.10078418344E+04  0.13489284978E+04  0.89658403342E+03 0.  0.
        3    1    3    3  502    0 -0.56143923614E+02  0.39292243452E+02 -0.16261653973E+03  0.17646577500E+03  0.10100000352E+00 0.  1.
       -3    1    3    3    0  502  0.56143923614E+02 -0.39292243452E+02  0.11704583741E+04  0.11724627228E+04  0.10100000352E+00 0. -1.
</event>
<event>
 5   0  0.1497410E-02  0.9250170E+03  0.7818609E-02  0.9394838E-01
       -1   -1    0    0    0  501  0.00000000000E+00  0.00000000000E+00  0.35255041293E+03  0.35255041296E+03  0.50400001928E-02 0.  1.
        1   -1    0    0  501    0  0.00000000000E+00  0.00000000000E+00 -0.60676181267E+03  0.60676181269E+03  0.50400001928E-02 0. -1.
    10030    2    1    2    0    0  0.00000000000E+00  0.00000000000E+00 -0.25421139974E+03  0.95931222565E+03  0.92501703256E+03 0.  0.
        3    1    3    3  502    0 -0.37196428204E+03 -0.25919940897E+02 -0.41090232266E+03  0.55486034227E+03  0.10100000352E+00 0. -1.
       -3    1    3    3    0  502  0.37196428204E+03  0.25919940897E+02  0.15669092292E+03  0.40445188339E+03  0.10100000352E+00 0.  1.
</event>
<event>
 5   0  0.1040163E-02  0.8785310E+03  0.7818609E-02  0.9452824E-01
        3   -1    0    0  501    0  0.00000000000E+00  0.00000000000E+00  0.82845744717E+03  0.82845745333E+03  0.10100000352E+00 0.  1.
       -3   -1    0    0    0  501  0.00000000000E+00  0.00000000000E+00 -0.23290773640E+03  0.23290775830E+03  0.10100000352E+00 0. -1.
    10030    2    1    2    0    0  0.00000000000E+00  0.00000000000E+00  0.59554971077E+03  0.10613652116E+04  0.87853096386E+03 0.  0.
        3    1    3    3  502    0 -0.13068203575E+03 -0.40621693345E+03  0.42369809573E+03  0.60134023482E+03  0.10100000352E+00 0.  1.
       -3    1    3    3    0  502  0.13068203575E+03  0.40621693345E+03  0.17185161504E+03  0.46002497680E+03  0.10100000352E+00 0. -1.
</event>
<event>
 5   0  0.2705111E-02  0.9005452E+03  0.7818609E-02  0.9424900E-01
        2   -1    0    0  501    0  0.00000000000E+00  0.00000000000E+00  0.93801654185E+03  0.93801654185E+03  0.25500000920E-02 0. -1.
       -2   -1    0    0    0  501  0.00000000000E+00  0.00000000000E+00 -0.21614268940E+03  0.21614268941E+03  0.25500000920E-02 0.  1.
    10030    2    1    2    0    0  0.00000000000E+00  0.00000000000E+00  0.72187385245E+03  0.11541592313E+04  0.90054520834E+03 0.  0.
        4    1    3    3  502    0  0.21792555532E+03  0.16282888745E+03 -0.98912124031E+02  0.28946505045E+03  0.12699999809E+01 0.  1.
       -4    1    3    3    0  502 -0.21792555532E+03 -0.16282888745E+03  0.82078597648E+03  0.86469418082E+03  0.12699999809E+01 0. -1.
</event>
<event>
 5   0  0.1459111E-02  0.8612575E+03  0.7818609E-02  0.9475351E-01
        1   -1    0    0  501    0  0.00000000000E+00  0.00000000000E+00  0.66026375297E+03  0.66026375299E+03  0.50400001928E-02 0.  1.
       -1   -1    0    0    0  501  0.00000000000E+00  0.00000000000E+00 -0.28085918496E+03  0.28085918500E+03  0.50400001928E-02 0. -1.
    10030    2    1    2    0    0  0.00000000000E+00  0.00000000000E+00  0.37940456802E+03  0.94112293799E+03  0.86125754463E+03 0.  0.
        2    1    3    3  502    0  0.25820371808E+03  0.33874135933E+03  0.12036532023E+03  0.44260894576E+03  0.25500000920E-02 0.  1.
       -2    1    3    3    0  502 -0.25820371808E+03 -0.33874135933E+03  0.25903924778E+03  0.49851399223E+03  0.25500000920E-02 0. -1.
</event>
<event>
 5   0  0.1560728E-02  0.8929719E+03  0.7818609E-02  0.9434410E-01
        1   -1    0    0  501    0  0.00000000000E+00  0.00000000000E+00  0.58940051251E+03  0.58940051253E+03  0.50400001928E-02 0.  1.
       -1   -1    0    0    0  501  0.00000000000E+00  0.00000000000E+00 -0.33822450037E+03  0.33822450040E+03  0.50400001928E-02 0. -1.
    10030    2    1    2    0    0  0.00000000000E+00  0.00000000000E+00  0.25117601214E+03  0.92762501293E+03  0.89297187836E+03 0.  0.
        4    1    3    3  502    0  0.11670101449E+03 -0.18510898581E+03 -0.27869811371E+03  0.35434265182E+03  0.12699999809E+01 0. -1.
       -4    1    3    3    0  502 -0.11670101449E+03  0.18510898581E+03  0.52987412586E+03  0.57328236111E+03  0.12699999809E+01 0.  1.
</event>
<event>
 5   0  0.2705111E-02  0.9540804E+03  0.7818609E-02  0.9360394E-01
       -2   -1    0    0    0  501  0.00000000000E+00  0.00000000000E+00  0.26107096988E+03  0.26107096990E+03  0.25500000920E-02 0. -1.
        2   -1    0    0  501    0  0.00000000000E+00  0.00000000000E+00 -0.87166855901E+03  0.87166855902E+03  0.25500000920E-02 0.  1.
    10030    2    1    2    0    0  0.00000000000E+00  0.00000000000E+00 -0.61059758913E+03  0.11327395289E+04  0.95408040778E+03 0.  0.
        4    1    3    3  502    0  0.31688139097E+03  0.34901381032E+03 -0.21852910263E+03  0.51959699512E+03  0.12699999809E+01 0. -1.
       -4    1    3    3    0  502 -0.31688139097E+03 -0.34901381032E+03 -0.39206848650E+03  0.61314253379E+03  0.12699999809E+01 0.  1.
</event>
<event>
 5   0  0.2803717E-02  0.8304287E+03  0.7818609E-02  0.9516988E-01
        2   -1    0    0  501    0  0.00000000000E+00  0.00000000000E+00  0.28961538336E+03  0.28961538338E+03  0.25500000920E-02 0. -1.
       -2   -1    0    0    0  501  0.00000000000E+00  0.00000000000E+00 -0.59528248047E+03  0.59528248047E+03  0.25500000920E-02 0.  1.
    10030    2    1    2    0    0  0.00000000000E+00  0.00000000000E+00 -0.30566709710E+03  0.88489786385E+03  0.83042871771E+03 0.  0.
        5    1    3    3  502    0  0.31043523806E+03  0.95677134364E+02  0.12269292216E+03  0.34727481080E+03  0.46999998093E+01 0. -1.
       -5    1    3    3    0  502 -0.31043523806E+03 -0.95677134364E+02 -0.42836001926E+03  0.53762305305E+03  0.46999998093E+01 0.  1.
</event>
<event>
 5   0  0.1560728E-02  0.9961688E+03  0.7818609E-02  0.9312757E-01
        1   -1    0    0  501    0  0.00000000000E+00  0.00000000000E+00  0.24183416027E+03  0.24183416032E+03  0.50400001928E-02 0. -1.
       -1   -1    0    0    0  501  0.00000000000E+00  0.00000000000E+00 -0.10258603973E+04  0.10258603973E+04  0.50400001928E-02 0.  1.
    10030    2    1    2    0    0  0.00000000000E+00  0.00000000000E+00 -0.78402623707E+03  0.12676945577E+04  0.99616883666E+03 0.  0.
        4    1    3    3  502    0 -0.48877945259E+03  0.62164586258E+02 -0.29922290525E+03  0.57645966814E+03  0.12699999809E+01 0. -1.
       -4    1    3    3    0  502  0.48877945259E+03 -0.62164586258E+02 -0.48480333182E+03  0.69123488953E+03  0.12699999809E+01 0.  1.
</event>
<event>
 5   0  0.2705111E-02  0.8878885E+03  0.7818609E-02  0.9440849E-01
       -2   -1    0    0    0  501  0.00000000000E+00  0.00000000000E+00  0.57083935916E+03  0.57083935916E+03  0.25500000920E-02 0. -1.
        2   -1    0    0  501    0  0.00000000000E+00  0.00000000000E+00 -0.34525740781E+03  0.34525740782E+03  0.25500000920E-02 0.  1.
    10030    2    1    2    0    0  0.00000000000E+00  0.00000000000E+00  0.22558195135E+03  0.91609676699E+03  0.88788854577E+03 0.  0.
        4    1    3    3  502    0  0.92603436230E+02 -0.35313976470E+03  0.37340597833E+03  0.52222287135E+03  0.12699999809E+01 0. -1.
       -4    1    3    3    0  502 -0.92603436230E+02  0.35313976470E+03 -0.14782402698E+03  0.39387389564E+03  0.12699999809E+01 0.  1.
</event>
<event>
 5   0  0.2414128E-02  0.9242446E+03  0.7818609E-02  0.9395772E-01
        2   -1    0    0  501    0  0.00000000000E+00  0.00000000000E+00  0.44166280187E+03  0.44166280188E+03  0.25500000920E-02 0.  1.
       -2   -1    0    0    0  501  0.00000000000E+00  0.00000000000E+00 -0.48352953537E+03  0.48352953538E+03  0.25500000920E-02 0. -1.
    10030    2    1    2    0    0  0.00000000000E+00  0.00000000000E+00 -0.41866733495E+02  0.92519233726E+03  0.92424457669E+03 0.  0.
        3    1    3    3  502    0  0.76577724231E+02 -0.10485868647E+03  0.42302735042E+03  0.44250609192E+03  0.10100000352E+00 0.  1.
       -3    1    3    3    0  502 -0.76577724231E+02  0.10485868647E+03 -0.46489408392E+03  0.48268624534E+03  0.10100000352E+00 0. -1.
</event>
<event>
 5   0  0.1537870E-02  0.8881732E+03  0.7818609E-02  0.9440487E-01
       -1   -1    0    0    0  501  0.00000000000E+00  0.00000000000E+00  0.13095336756E+03  0.13095336766E+03  0.50400001928E-02 0. -1.
        1   -1    0    0  501    0  0.00000000000E+00  0.00000000000E+00 -0.15059782317E+04  0.15059782317E+04  0.50400001928E-02 0.  1.
    10030    2    1    2    0    0  0.00000000000E+00  0.00000000000E+00 -0.13750248642E+04  0.16369315994E+04  0.88817322862E+03 0.  0.
        5    1    3    3  502    0  0.35636015362E+03 -0.22688875789E+03 -0.93967640157E+03  0.10302838916E+04  0.46999998093E+01 0.  1.
       -5    1    3    3    0  502 -0.35636015362E+03  0.22688875789E+03 -0.43534846261E+03  0.60664770785E+03  0.46999998093E+01 0. -1.
</event>
<event>
 5   0  0.2628383E-02  0.9026570E+03  0.7818609E-02  0.9422266E-01
        2   -1    0    0  501    0  0.00000000000E+00  0.00000000000E+00  0.74347717540E+03  0.74347717540E+03  0.25500000920E-02 0.  1.
       -2   -1    0    0    0  501  0.00000000000E+00  0.00000000000E+00 -0.27397938025E+03  0.27397938026E+03  0.25500000920E-02 0. -1.
    10030    2    1    2    0    0  0.00000000000E+00  0.00000000000E+00  0.46949779515E+03  0.10174565557E+04  0.90265700186E+03 0.  0.
        2    1    3    3  502    0 -0.40071991106E+03 -0.74428483317E+02  0.16234820550E+02  0.40789657470E+03  0.25500000920E-02 0. -1.
       -2    1    3    3    0  502  0.40071991106E+03  0.74428483317E+02  0.45326297460E+03  0.60955998097E+03  0.25500000920E-02 0.  1.
</event>
<event>
 5   0  0.1537870E-02  0.9112890E+03  0.7818609E-02  0.9411579E-01
       -1   -1    0    0    0  501  0.00000000000E+00  0.00000000000E+00  0.21714780144E+03  0.21714780150E+03  0.50400001928E-02 0.  1.
        1   -1    0    0  501    0  0.00000000000E+00  0.00000000000E+00 -0.95608563218E+03  0.95608563220E+03  0.50400001928E-02 0. -1.
    10030    2    1    2    0    0  0.00000000000E+00  0.00000000000E+00 -0.73893783075E+03  0.11732334337E+04  0.91128896198E+03 0.  0.
        5    1    3    3  502    0 -0.42604405685E+03 -0.29598442836E+02 -0.16509273069E+03  0.45789442661E+03  0.46999998093E+01 0.  1.
       -5    1    3    3    0  502  0.42604405685E+03  0.29598442836E+02 -0.57384510005E+03  0.71533900708E+03  0.46999998093E+01 0. -1.
</event>
<event>
 5   0  0.2628383E-02  0.8966717E+03  0.7818609E-02  0.9429752E-01
       -2   -1    0    0    0  501  0.00000000000E+00  0.00000000000E+00  0.24398285980E+03  0.24398285981E+03  0.25500000920E-02 0. -1.
        2   -1    0    0  501    0  0.00000000000E+00  0.00000000000E+00 -0.82384895580E+03  0.82384895580E+03  0.25500000920E-02 0.  1.
    10030    2    1    2    0    0  0.00000000000E+00  0.00000000000E+00 -0.57986609600E+03  0.10678318156E+04  0.89667167746E+03 0.  0.
        2    1    3    3  502    0 -0.14934811756E+03  0.42110865303E+03 -0.33397428350E+03  0.55783167705E+03  0.25500000920E-02 0.  1.
       -2    1    3    3    0  502  0.14934811756E+03 -0.42110865303E+03 -0.24589181250E+03  0.51000013857E+03  0.25500000920E-02 0. -1.
</event>
<event>
 5   0  0.1497410E-02  0.8966780E+03  0.7818609E-02  0.9429744E-01
        1   -1    0    0  501    0  0.00000000000E+00  0.00000000000E+00  0.76440161700E+03  0.76440161702E+03  0.50400001928E-02 0. -1.
       -1   -1    0    0    0  501  0.00000000000E+00  0.00000000000E+00 -0.26296103445E+03  0.26296103450E+03  0.50400001928E-02 0.  1.
    10030    2    1    2    0    0  0.00000000000E+00  0.00000000000E+00  0.50144058255E+03  0.10273626515E+04  0.89667795774E+03 0.  0.
        3    1    3    3  502    0  0.51989618458E+02 -0.35840883157E+03 -0.52085603565E+02  0.36588622723E+03  0.10100000352E+00 0.  1.
       -3    1    3    3    0  502 -0.51989618458E+02  0.35840883157E+03  0.55352618611E+03  0.66147642429E+03  0.10100000352E+00 0. -1.
</event>
<event>
 5   0  0.2414128E-02  0.9165479E+03  0.7818609E-02  0.9405129E-01
       -2   -1    0    0    0  501  0.00000000000E+00  0.00000000000E+00  0.28478986145E+03  0.28478986147E+03  0.25500000920E-02 0. -1.
        2   -1    0    0  501    0  0.00000000000E+00  0.00000000000E+00 -0.73743849987E+03  0.73743849987E+03  0.25500000920E-02 0.  1.
    10030    2    1    2    0    0  0.00000000000E+00  0.00000000000E+00 -0.45264863841E+03  0.10222283613E+04  0.91654788902E+03 0.  0.
        3    1    3    3  502    0 -0.23449208638E+03 -0.39054696870E+03 -0.17054218059E+03  0.48641352664E+03  0.10100000352E+00 0. -1.
       -3    1    3    3    0  502  0.23449208638E+03  0.39054696870E+03 -0.28210645782E+03  0.53581483470E+03  0.10100000352E+00 0.  1.
</event>
<event>
 5   0  0.1459111E-02  0.8848157E+03  0.7818609E-02  0.9444764E-01
       -1   -1    0    0    0  501  0.00000000000E+00  0.00000000000E+00  0.43435264914E+03  0.43435264917E+03  0.50400001928E-02 0.  1.
        1   -1    0    0  501    0  0.00000000000E+00  0.00000000000E+00 -0.45061239590E+03  0.45061239593E+03  0.50400001928E-02 0. -1.
    10030    2    1    2    0    0  0.00000000000E+00  0.00000000000E+00 -0.16259746768E+02  0.88496504510E+03  0.88481565972E+03 0.  0.
        2    1    3    3  502    0  0.25659121602E+03 -0.26267481849E+03  0.23866586566E+03  0.43794806524E+03  0.25500000920E-02 0.  1.
       -2    1    3    3    0  502 -0.25659121602E+03  0.26267481849E+03 -0.25492561243E+03  0.44701697986E+03  0.25500000920E-02 0. -1.
</event>
<event>
 5   0  0.1559275E-02  0.8973988E+03  0.7818609E-02  0.9428839E-01
        1   -1    0    0  501    0  0.00000000000E+00  0.00000000000E+00  0.12581218177E+04  0.12581218178E+04  0.50400001928E-02 0. -1.
       -1   -1    0    0    0  501  0.00000000000E+00  0.00000000000E+00 -0.16002517888E+03  0.16002517896E+03  0.50400001928E-02 0.  1.
    10030    2    1    2    0    0  0.00000000000E+00  0.00000000000E+00  0.10980966389E+04  0.14181469967E+04  0.89739883886E+03 0.  0.
        1    1    3    3  502    0 -0.39785524028E+03 -0.20717939842E+03  0.56629253858E+03  0.72242600633E+03  0.50400001928E-02 0. -1.
       -1    1    3    3    0  502  0.39785524028E+03  0.20717939842E+03  0.53180410029E+03  0.69572099038E+03  0.50400001928E-02 0.  1.
</event>
<event>
 5   0  0.2628383E-02  0.6083159E+03  0.7818609E-02  0.9888302E-01
        2   -1    0    0  501    0  0.00000000000E+00  0.00000000000E+00  0.54374333624E+03  0.54374333624E+03  0.25500000920E-02 0.  1.
       -2   -1    0    0    0  501  0.00000000000E+00  0.00000000000E+00 -0.17013921254E+03  0.17013921256E+03  0.25500000920E-02 0. -1.
    10030    2    1    2    0    0  0.00000000000E+00  0.00000000000E+00  0.37360412370E+03  0.71388254880E+03  0.60831591483E+03 0.  0.
        2    1    3    3  502    0 -0.25241132265E+02 -0.38104418550E+02  0.53969018873E+03  0.54162215731E+03  0.25500000920E-02 0.  1.
       -2    1    3    3    0  502  0.25241132265E+02  0.38104418550E+02 -0.16608606503E+03  0.17226039149E+03  0.25500000920E-02 0. -1.
</event>
<event>
 5   0  0.1497410E-02  0.9005591E+03  0.7818609E-02  0.9424883E-01
       -1   -1    0    0    0  501  0.00000000000E+00  0.00000000000E+00  0.52130548066E+03  0.52130548069E+03  0.50400001928E-02 0.  1.
        1   -1    0    0  501    0  0.00000000000E+00  0.00000000000E+00 -0.38893066918E+03  0.38893066921E+03  0.50400001928E-02 0. -1.
    10030    2    1    2    0    0  0.00000000000E+00  0.00000000000E+00  0.13237481148E+03  0.91023614990E+03  0.90055913624E+03 0.  0.
        3    1    3    3  502    0  0.30938018918E+03  0.25200936369E+03 -0.14468536493E+03  0.42445104061E+03  0.10100000352E+00 0. -1.
       -3    1    3    3    0  502 -0.30938018918E+03 -0.25200936369E+03  0.27706017642E+03  0.48578510929E+03  0.10100000352E+00 0.  1.
</event>
<event>
 5   0  0.2705111E-02  0.9550930E+03  0.7818609E-02  0.9359217E-01
        2   -1    0    0  501    0  0.00000000000E+00  0.00000000000E+00  0.49349210896E+03  0.49349210897E+03  0.25500000920E-02 0.  1.
       -2   -1    0    0    0  501  0.00000000000E+00  0.00000000000E+00 -0.46211607938E+03  0.46211607939E+03  0.25500000920E-02 0. -1.
    10030    2    1    2    0    0  0.00000000000E+00  0.00000000000E+00  0.31376029581E+02  0.95560818835E+03  0.95509295590E+03 0.  0.
        4    1    3    3  502    0 -0.57349317859E+02 -0.49516407611E+02  0.48743807929E+03  0.49329333355E+03  0.12699999809E+01 0.  1.
       -4    1    3    3    0  502  0.57349317859E+02  0.49516407611E+02 -0.45606204971E+03  0.46231485480E+03  0.12699999809E+01 0. -1.
</event>
<event>
 5   0  0.2414128E-02  0.9141489E+03  0.7818609E-02  0.9408065E-01
        2   -1    0    0  501    0  0.00000000000E+00  0.00000000000E+00  0.79342132185E+03  0.79342132186E+03  0.25500000920E-02 0.  1.
       -2   -1    0    0    0  501  0.00000000000E+00  0.00000000000E+00 -0.26331162159E+03  0.26331162160E+03  0.25500000920E-02 0. -1.
    10030    2    1    2    0    0  0.00000000000E+00  0.00000000000E+00  0.53010970026E+03  0.10567329435E+04  0.91414890444E+03 0.  0.
        3    1    3    3  502    0  0.30297506898E+03  0.15355101658E+03  0.61861160957E+03  0.70572809269E+03  0.10100000352E+00 0.  1.
       -3    1    3    3    0  502 -0.30297506898E+03 -0.15355101658E+03 -0.88501909303E+02  0.35100485077E+03  0.10100000352E+00 0. -1.
</event>
<event>
 5   0  0.2803717E-02  0.6358802E+03  0.7818609E-02  0.9833641E-01
       -2   -1    0    0    0  501  0.00000000000E+00  0.00000000000E+00  0.11021357040E+03  0.11021357043E+03  0.25500000920E-02 0.  1.
        2   -1    0    0  501    0  0.00000000000E+00  0.00000000000E+00 -0.91718211354E+03  0.91718211355E+03  0.25500000920E-02 0. -1.
    10030    2    1    2    0    0  0.00000000000E+00  0.00000000000E+00 -0.80696854314E+03  0.10273956840E+04  0.63588022601E+03 0.  0.
        5    1    3    3  502    0  0.45776745591E+01 -0.44829163222E+02  0.10497112289E+03  0.11433125390E+03  0.46999998093E+01 0.  1.
       -5    1    3    3    0  502 -0.45776745591E+01  0.44829163222E+02 -0.91193966604E+03  0.91306443007E+03  0.46999998093E+01 0. -1.
</event>
<event>
 5   0  0.1560728E-02  0.9010399E+03  0.7818609E-02  0.9424282E-01
        1   -1    0    0  501    0  0.00000000000E+00  0.00000000000E+00  0.13067135821E+04  0.13067135821E+04  0.50400001928E-02 0. -1.
       -1   -1    0    0    0  501  0.00000000000E+00  0.00000000000E+00 -0.15532726390E+03  0.15532726398E+03  0.50400001928E-02 0.  1.
    10030    2    1    2    0    0  0.00000000000E+00  0.00000000000E+00  0.11513863182E+04  0.14620408461E+04  0.90103994467E+03 0.  0.
        4    1    3    3  502    0 -0.23281316486E+03  0.49437089813E+02 -0.44987557845E+02  0.24222198258E+03  0.12699999809E+01 0.  1.
       -4    1    3    3    0  502  0.23281316486E+03 -0.49437089813E+02  0.11963738761E+04  0.12198188635E+04  0.12699999809E+01 0. -1.
</event>
<event>
 5   0  0.1559275E-02  0.8916050E+03  0.7818609E-02  0.9436137E-01
        1   -1    0    0  501    0  0.00000000000E+00  0.00000000000E+00  0.50597866907E+03  0.50597866909E+03  0.50400001928E-02 0.  1.
       -1   -1    0    0    0  501  0.00000000000E+00  0.00000000000E+00 -0.39278309064E+03  0.39278309068E+03  0.50400001928E-02 0. -1.
    10030    2    1    2    0    0  0.00000000000E+00  0.00000000000E+00  0.11319557842E+03  0.89876175977E+03  0.89160499205E+03 0.  0.
        1    1    3    3  502    0 -0.12706091012E+03 -0.20851389030E+03 -0.31938047603E+03  0.40202786698E+03  0.50400001928E-02 0. -1.
       -1    1    3    3    0  502  0.12706091012E+03  0.20851389030E+03  0.43257605446E+03  0.49673389279E+03  0.50400001928E-02 0.  1.
</event>
<event>
 5   0  0.1537870E-02  0.9126667E+03  0.7818609E-02  0.9409884E-01
       -1   -1    0    0    0  501  0.00000000000E+00  0.00000000000E+00  0.25974390362E+03  0.25974390367E+03  0.50400001928E-02 0.  1.
        1   -1    0    0  501    0  0.00000000000E+00  0.00000000000E+00 -0.80171332573E+03  0.80171332575E+03  0.50400001928E-02 0. -1.
    10030    2    1    2    0    0  0.00000000000E+00  0.00000000000E+00 -0.54196942211E+03  0.10614572294E+04  0.91266674936E+03 0.  0.
        5    1    3    3  502    0  0.14199256074E+03 -0.43308616056E+03 -0.29679631699E+03  0.54390776198E+03  0.46999998093E+01 0.  1.
       -5    1    3    3    0  502 -0.14199256074E+03  0.43308616056E+03 -0.24517310512E+03  0.51754946744E+03  0.46999998093E+01 0. -1.
</event>
<event>
 5   0  0.2705111E-02  0.8958582E+03  0.7818609E-02  0.9430774E-01
        2   -1    0    0  501    0  0.00000000000E+00  0.00000000000E+00  0.14730038562E+04  0.14730038562E+04  0.25500000920E-02 0.  1.
       -2   -1    0    0    0  501  0.00000000000E+00  0.00000000000E+00 -0.13621176727E+03  0.13621176729E+03  0.25500000920E-02 0. -1.
    10030    2    1    2    0    0  0.00000000000E+00  0.00000000000E+00  0.13367920889E+04  0.16092156235E+04  0.89585815498E+03 0.  0.
        4    1    3    3  502    0  0.22990309233E+03 -0.38278257889E+03  0.73218084538E+03  0.85759450664E+03  0.12699999809E+01 0.  1.
       -4    1    3    3    0  502 -0.22990309233E+03  0.38278257889E+03  0.60461124352E+03  0.75162111683E+03  0.12699999809E+01 0. -1.
</event>
<event>
 5   0  0.2679861E-02  0.8898881E+03  0.7818609E-02  0.9438311E-01
       -2   -1    0    0    0  501  0.00000000000E+00  0.00000000000E+00  0.29666840793E+03  0.29666840794E+03  0.25500000920E-02 0.  1.
        2   -1    0    0  501    0  0.00000000000E+00  0.00000000000E+00 -0.66732819076E+03  0.66732819077E+03  0.25500000920E-02 0. -1.
    10030    2    1    2    0    0  0.00000000000E+00  0.00000000000E+00 -0.37065978283E+03  0.96399659871E+03  0.88988806471E+03 0.  0.
        1    1    3    3  502    0  0.41849096805E+03  0.51596654921E+02 -0.33920992218E+03  0.54116566453E+03  0.50400001928E-02 0. -1.
       -1    1    3    3    0  502 -0.41849096805E+03 -0.51596654921E+02 -0.31449860646E+02  0.42283093418E+03  0.50400001928E-02 0.  1.
</event>
<event>
 5   0  0.2803717E-02  0.9094429E+03  0.7818609E-02  0.9413854E-01
        2   -1    0    0  501    0  0.00000000000E+00  0.00000000000E+00  0.80209754339E+03  0.80209754340E+03  0.25500000920E-02 0.  1.
       -2   -1    0    0    0  501  0.00000000000E+00  0.00000000000E+00 -0.25778858599E+03  0.25778858601E+03  0.25500000920E-02 0. -1.
    10030    2    1    2    0    0  0.00000000000E+00  0.00000000000E+00  0.54430895740E+03  0.10598861294E+04  0.90944288782E+03 0.  0.
        5    1    3    3  502    0  0.44092204064E+03 -0.33753620468E+02  0.14882894170E+03  0.46660871906E+03  0.46999998093E+01 0. -1.
       -5    1    3    3    0  502 -0.44092204064E+03  0.33753620468E+02  0.39548001570E+03  0.59327741035E+03  0.46999998093E+01 0.  1.
</event>
<event>
 5   0  0.2705111E-02  0.9046377E+03  0.7818609E-02  0.9419803E-01
        2   -1    0    0  501    0  0.00000000000E+00  0.00000000000E+00  0.20326393037E+04  0.20326393037E+04  0.25500000920E-02 0.  1.
       -2   -1    0    0    0  501  0.00000000000E+00  0.00000000000E+00 -0.10065354403E+03  0.10065354406E+03  0.25500000920E-02 0. -1.
    10030    2    1    2    0    0  0.00000000000E+00  0.00000000000E+00  0.19319857596E+04  0.21332928477E+04  0.90463771683E+03 0.  0.
        4    1    3    3  502    0 -0.22589017029E+03 -0.13441905904E+03  0.97954678361E+02  0.28052020316E+03  0.12699999809E+01 0. -1.
       -4    1    3    3    0  502  0.22589017029E+03  0.13441905904E+03  0.18340310813E+04  0.18527726446E+04  0.12699999809E+01 0.  1.
</event>
<event>
 5   0  0.2628383E-02  0.8810863E+03  0.7818609E-02  0.9449538E-01
        2   -1    0    0  501    0  0.00000000000E+00  0.00000000000E+00  0.13943025065E+04  0.13943025065E+04  0.25500000920E-02 0.  1.
       -2   -1    0    0    0  501  0.00000000000E+00  0.00000000000E+00 -0.13919379568E+03  0.13919379571E+03  0.25500000920E-02 0. -1.
    10030    2    1    2    0    0  0.00000000000E+00  0.00000000000E+00  0.12551087108E+04  0.15334963022E+04  0.88108628005E+03 0.  0.
        2    1    3    3  502    0 -0.18655636945E+03  0.39474074080E+03  0.72985329873E+03  0.85047596622E+03  0.25500000920E-02 0. -1.
       -2    1    3    3    0  502  0.18655636945E+03 -0.39474074080E+03  0.52525541205E+03  0.68302033595E+03  0.25500000920E-02 0.  1.
</event>
<event>
 5   0  0.2803717E-02  0.8956227E+03  0.7818609E-02  0.9431070E-01
        2   -1    0    0  501    0  0.00000000000E+00  0.00000000000E+00  0.12231169598E+04  0.12231169598E+04  0.25500000920E-02 0. -1.
       -2   -1    0    0    0  501  0.00000000000E+00  0.00000000000E+00 -0.16395408707E+03  0.16395408709E+03  0.25500000920E-02 0.  1.
    10030    2    1    2    0    0  0.00000000000E+00  0.00000000000E+00  0.10591628727E+04  0.13870710469E+04  0.89562274320E+03 0.  0.
        5    1    3    3  502    0 -0.40656157034E+03  0.13256398479E+03  0.73531925469E+03  0.85063624238E+03  0.46999998093E+01 0. -1.
       -5    1    3    3    0  502  0.40656157034E+03 -0.13256398479E+03  0.32384361805E+03  0.53643480451E+03  0.46999998093E+01 0.  1.
</event>
<event>
 5   0  0.2803717E-02  0.9072955E+03  0.7818609E-02  0.9416507E-01
        2   -1    0    0  501    0  0.00000000000E+00  0.00000000000E+00  0.10144429420E+04  0.10144429420E+04  0.25500000920E-02 0. -1.
       -2   -1    0    0    0  501  0.00000000000E+00  0.00000000000E+00 -0.20286631023E+03  0.20286631024E+03  0.25500000920E-02 0.  1.
    10030    2    1    2    0    0  0.00000000000E+00  0.00000000000E+00  0.81157663177E+03  0.12173092523E+04  0.90729553420E+03 0.  0.
        5    1    3    3  502    0  0.29364002248E+02 -0.98390090292E+02 -0.18703725842E+03  0.21341949426E+03  0.46999998093E+01 0.  1.
       -5    1    3    3    0  502 -0.29364002248E+02  0.98390090292E+02  0.99861389020E+03  0.10038897580E+04  0.46999998093E+01 0. -1.
</event>
<event>
 5   0  0.1459111E-02  0.7952068E+03  0.7818609E-02  0.9566981E-01
        1   -1    0    0  501    0  0.00000000000E+00  0.00000000000E+00  0.52064059079E+03  0.52064059082E+03  0.50400001928E-02 0.  1.
       -1   -1    0    0    0  501  0.00000000000E+00  0.00000000000E+00 -0.30364218499E+03  0.30364218503E+03  0.50400001928E-02 0. -1.
    10030    2    1    2    0    0  0.00000000000E+00  0.00000000000E+00  0.21699840580E+03  0.82428277585E+03  0.79520675704E+03 0.  0.
        2    1    3    3  502    0 -0.39751484239E+03 -0.52708635237E+01  0.10173252064E+03  0.41036000985E+03  0.25500000920E-02 0. -1.
       -2    1    3    3    0  502  0.39751484239E+03  0.52708635237E+01  0.11526588516E+03  0.41392276600E+03  0.25500000920E-02 0.  1.
</event>
<event>
 5   0  0.1459111E-02  0.8669554E+03  0.7818609E-02  0.9467858E-01
       -1   -1    0    0    0  501  0.00000000000E+00  0.00000000000E+00  0.24349544013E+03  0.24349544019E+03  0.50400001928E-02 0.  1.
        1   -1    0    0  501    0  0.00000000000E+00  0.00000000000E+00 -0.77168961026E+03  0.77168961027E+03  0.50400001928E-02 0. -1.
    10030    2    1    2    0    0  0.00000000000E+00  0.00000000000E+00 -0.52819417012E+03  0.10151850505E+04  0.86695536524E+03 0.  0.
        2    1    3    3  502    0  0.37199456482E+03  0.21606563413E+03 -0.20170930015E+03  0.47513256706E+03  0.25500000920E-02 0.  1.
       -2    1    3    3    0  502 -0.37199456482E+03 -0.21606563413E+03 -0.32648486997E+03  0.54005248340E+03  0.25500000920E-02 0. -1.
</event>
<event>
 5   0  0.1040163E-02  0.9166116E+03  0.7818609E-02  0.9405051E-01
       -4   -1    0    0    0  501  0.00000000000E+00  0.00000000000E+00  0.29273753383E+03  0.29274028867E+03  0.12699999809E+01 0. -1.
        4   -1    0    0  501    0  0.00000000000E+00  0.00000000000E+00 -0.71751054397E+03  0.71751166793E+03  0.12699999809E+01 0.  1.
    10030    2    1    2    0    0  0.00000000000E+00  0.00000000000E+00 -0.42477301014E+03  0.10102519566E+04  0.91661164386E+03 0.  0.
        4    1    3    3  502    0 -0.15214049927E+03  0.38437672698E+03  0.56918227743E+01  0.41343223085E+03  0.12699999809E+01 0. -1.
       -4    1    3    3    0  502  0.15214049927E+03 -0.38437672698E+03 -0.43046483291E+03  0.59681972575E+03  0.12699999809E+01 0.  1.
</event>
<event>
 5   0  0.1497410E-02  0.9397918E+03  0.7818609E-02  0.9377163E-01
        1   -1    0    0  501    0  0.00000000000E+00  0.00000000000E+00  0.81349808356E+03  0.81349808358E+03  0.50400001928E-02 0. -1.
       -1   -1    0    0    0  501  0.00000000000E+00  0.00000000000E+00 -0.27142310934E+03  0.27142310938E+03  0.50400001928E-02 0.  1.
    10030    2    1    2    0    0  0.00000000000E+00  0.00000000000E+00  0.54207497423E+03  0.10849211930E+04  0.93979184783E+03 0.  0.
        3    1    3    3  502    0 -0.38437760134E+03 -0.26740939342E+03  0.22561338369E+03  0.51976469022E+03  0.10100000352E+00 0. -1.
       -3    1    3    3    0  502  0.38437760134E+03  0.26740939342E+03  0.31646159054E+03  0.56515650274E+03  0.10100000352E+00 0.  1.
</event>
<event>
 5   0  0.2414128E-02  0.9055296E+03  0.7818609E-02  0.9418695E-01
       -2   -1    0    0    0  501  0.00000000000E+00  0.00000000000E+00  0.19453483543E+03  0.19453483544E+03  0.25500000920E-02 0. -1.
        2   -1    0    0  501    0  0.00000000000E+00  0.00000000000E+00 -0.10537750939E+04  0.10537750939E+04  0.25500000920E-02 0.  1.
    10030    2    1    2    0    0  0.00000000000E+00  0.00000000000E+00 -0.85924025846E+03  0.12483099293E+04  0.90552960079E+03 0.  0.
        3    1    3    3  502    0 -0.22032030225E+02 -0.26569503178E+03  0.74851948418E+02  0.27691530230E+03  0.10100000352E+00 0. -1.
       -3    1    3    3    0  502  0.22032030225E+02  0.26569503178E+03 -0.93409220687E+03  0.97139462702E+03  0.10100000352E+00 0.  1.
</event>
<event>
 5   0  0.1559275E-02  0.9106591E+03  0.7818609E-02  0.9412354E-01
        1   -1    0    0  501    0  0.00000000000E+00  0.00000000000E+00  0.65961178741E+03  0.65961178743E+03  0.50400001928E-02 0. -1.
       -1   -1    0    0    0  501  0.00000000000E+00  0.00000000000E+00 -0.31431363358E+03  0.31431363362E+03  0.50400001928E-02 0.  1.
    10030    2    1    2    0    0  0.00000000000E+00  0.00000000000E+00  0.34529815382E+03  0.97392542105E+03  0.91065905296E+03 0.  0.
        1    1    3    3  502    0 -0.83631743350E+02 -0.21497874248E+03  0.59249712228E+03  0.63581677247E+03  0.50400001928E-02 0. -1.
       -1    1    3    3    0  502  0.83631743350E+02  0.21497874248E+03 -0.24719896846E+03  0.33810864858E+03  0.50400001928E-02 0.  1.
</event>
<event>
 5   0  0.1459111E-02  0.9130815E+03  0.7818609E-02  0.9409375E-01
        1   -1    0    0  501    0  0.00000000000E+00  0.00000000000E+00  0.11990648211E+04  0.11990648211E+04  0.50400001928E-02 0. -1.
       -1   -1    0    0    0  501  0.00000000000E+00  0.00000000000E+00 -0.17382669839E+03  0.17382669847E+03  0.50400001928E-02 0.  1.
    10030    2    1    2    0    0  0.00000000000E+00  0.00000000000E+00  0.10252381227E+04  0.13728915196E+04  0.91308154963E+03 0.  0.
        2    1    3    3  502    0  0.24721572320E+03  0.37721379872E+03  0.40604909141E+03  0.60686219885E+03  0.25500000920E-02 0.  1.
       -2    1    3    3    0  502 -0.24721572320E+03 -0.37721379872E+03  0.61918903130E+03  0.76602932074E+03  0.25500000920E-02 0. -1.
</event>
<event>
 5   0  0.1537870E-02  0.9115058E+03  0.7818609E-02  0.9411312E-01
       -1   -1    0    0    0  501  0.00000000000E+00  0.00000000000E+00  0.10839429735E+03  0.10839429746E+03  0.50400001928E-02 0.  1.
        1   -1    0    0  501    0  0.00000000000E+00  0.00000000000E+00 -0.19162513041E+04  0.19162513041E+04  0.50400001928E-02 0. -1.
    10030    2    1    2    0    0  0.00000000000E+00  0.00000000000E+00 -0.18078570067E+04  0.20246456016E+04  0.91150581736E+03 0.  0.
        5    1    3    3  502    0  0.28899120514E+03 -0.76619063628E+02 -0.13994139860E+03  0.33013948961E+03  0.46999998093E+01 0.  1.
       -5    1    3    3    0  502 -0.28899120514E+03  0.76619063628E+02 -0.16679156081E+04  0.16945061119E+04  0.46999998093E+01 0. -1.
</event>
<event>
 5   0  0.2628383E-02  0.9049140E+03  0.7818609E-02  0.9419459E-01
       -2   -1    0    0    0  501  0.00000000000E+00  0.00000000000E+00  0.96802691792E+02  0.96802691826E+02  0.25500000920E-02 0.  1.
        2   -1    0    0  501    0  0.00000000000E+00  0.00000000000E+00 -0.21147899282E+04  0.21147899282E+04  0.25500000920E-02 0. -1.
    10030    2    1    2    0    0  0.00000000000E+00  0.00000000000E+00 -0.20179872364E+04  0.22115926200E+04  0.90491404601E+03 0.  0.
        2    1    3    3  502    0 -0.34064329347E+03 -0.50614720249E+02 -0.17261995929E+04  0.17602172417E+04  0.25500000920E-02 0. -1.
       -2    1    3    3    0  502  0.34064329347E+03  0.50614720249E+02 -0.29178764352E+03  0.45137537839E+03  0.25500000920E-02 0.  1.
</event>
<event>
 5   0  0.2705111E-02  0.9670613E+03  0.7818609E-02  0.9345428E-01
        2   -1    0    0  501    0  0.00000000000E+00  0.00000000000E+00  0.13284251100E+04  0.13284251100E+04  0.25500000920E-02 0.  1.
       -2   -1    0    0    0  501  0.00000000000E+00  0.00000000000E+00 -0.17599931426E+03  0.17599931428E+03  0.25500000920E-02 0. -1.
    10030    2    1    2    0    0  0.00000000000E+00  0.00000000000E+00  0.11524257957E+04  0.15044244243E+04  0.96706133914E+03 0.  0.
        4    1    3    3  502    0 -0.11612180836E+03 -0.39910397543E+03  0.96053493691E+03  0.10466122661E+04  0.12699999809E+01 0.  1.
       -4    1    3    3    0  502  0.11612180836E+03  0.39910397543E+03  0.19189085881E+03  0.45781215818E+03  0.12699999809E+01 0. -1.
</event>
<event>
 5   0  0.1497410E-02  0.9018116E+03  0.7818609E-02  0.9423320E-01
       -1   -1    0    0    0  501  0.00000000000E+00  0.00000000000E+00  0.21023524773E+03  0.21023524779E+03  0.50400001928E-02 0. -1.
        1   -1    0    0  501    0  0.00000000000E+00  0.00000000000E+00 -0.96708825133E+03  0.96708825135E+03  0.50400001928E-02 0.  1.
    10030    2    1    2    0    0  0.00000000000E+00  0.00000000000E+00 -0.75685300360E+03  0.11773234991E+04  0.90181159483E+03 0.  0.
        3    1    3    3  502    0 -0.43405070631E+03  0.10068426922E+03 -0.46867384738E+03  0.64667806761E+03  0.10100000352E+00 0.  1.
       -3    1    3    3    0  502  0.43405070631E+03 -0.10068426922E+03 -0.28817915622E+03  0.53064543153E+03  0.10100000352E+00 0. -1.
</event>
<event>
 5   0  0.2628383E-02  0.9600456E+03  0.7818609E-02  0.9353485E-01
        2   -1    0    0  501    0  0.00000000000E+00  0.00000000000E+00  0.11197324606E+04  0.11197324606E+04  0.25500000920E-02 0. -1.
       -2   -1    0    0    0  501  0.00000000000E+00  0.00000000000E+00 -0.20578298938E+03  0.20578298940E+03  0.25500000920E-02 0.  1.
    10030    2    1    2    0    0  0.00000000000E+00  0.00000000000E+00  0.91394947122E+03  0.13255154500E+04  0.96004560947E+03 0.  0.
        2    1    3    3  502    0  0.46189452733E+02  0.38216022236E+03  0.61025290486E+02  0.38974862051E+03  0.25500000920E-02 0.  1.
       -2    1    3    3    0  502 -0.46189452733E+02 -0.38216022236E+03  0.85292418074E+03  0.93576682950E+03  0.25500000920E-02 0. -1.
</event>
<event>
 5   0  0.1537870E-02  0.8973285E+03  0.7818609E-02  0.9428927E-01
       -1   -1    0    0    0  501  0.00000000000E+00  0.00000000000E+00  0.99409829243E+03  0.99409829244E+03  0.50400001928E-02 0. -1.
        1   -1    0    0  501    0  0.00000000000E+00  0.00000000000E+00 -0.20249466953E+03  0.20249466959E+03  0.50400001928E-02 0.  1.
    10030    2    1    2    0    0  0.00000000000E+00  0.00000000000E+00  0.79160362290E+03  0.11965929620E+04  0.89732849113E+03 0.  0.
        5    1    3    3  502    0 -0.18842831064E+03  0.22118126259E+03 -0.60037164697E+02  0.29673714010E+03  0.46999998093E+01 0.  1.
       -5    1    3    3    0  502  0.18842831064E+03 -0.22118126259E+03  0.85164078759E+03  0.89985582193E+03  0.46999998093E+01 0. -1.
</event>
<event>
 5   0  0.1537870E-02  0.8574606E+03  0.7818609E-02  0.9480378E-01
       -1   -1    0    0    0  501  0.00000000000E+00  0.00000000000E+00  0.29152242269E+03  0.29152242273E+03  0.50400001928E-02 0. -1.
        1   -1    0    0  501    0  0.00000000000E+00  0.00000000000E+00 -0.63051647642E+03  0.63051647644E+03  0.50400001928E-02 0.  1.
    10030    2    1    2    0    0  0.00000000000E+00  0.00000000000E+00 -0.33899405374E+03  0.92203889918E+03  0.85746064815E+03 0.  0.
        5    1    3    3  502    0  0.23516410110E+02 -0.42245221763E+03 -0.95240405367E+02  0.43371848304E+03  0.46999998093E+01 0.  1.
       -5    1    3    3    0  502 -0.23516410110E+02  0.42245221763E+03 -0.24375364837E+03  0.48832041613E+03  0.46999998093E+01 0. -1.
</event>
<event>
 5   0  0.1560728E-02  0.8940788E+03  0.7818609E-02  0.9433014E-01
       -1   -1    0    0    0  501  0.00000000000E+00  0.00000000000E+00  0.67689257802E+03  0.67689257804E+03  0.50400001928E-02 0. -1.
        1   -1    0    0  501    0  0.00000000000E+00  0.00000000000E+00 -0.29523775727E+03  0.29523775732E+03  0.50400001928E-02 0.  1.
    10030    2    1    2    0    0  0.00000000000E+00  0.00000000000E+00  0.38165482074E+03  0.97213033535E+03  0.89407884815E+03 0.  0.
        4    1    3    3  502    0 -0.26396740382E+03 -0.23823628453E+03  0.48541764629E+03  0.60172021885E+03  0.12699999809E+01 0. -1.
       -4    1    3    3    0  502  0.26396740382E+03  0.23823628453E+03 -0.10376282554E+03  0.37041011650E+03  0.12699999809E+01 0.  1.
</event>
<event>
 5   0  0.1459111E-02  0.6399096E+03  0.7818609E-02  0.9825900E-01
       -1   -1    0    0    0  501  0.00000000000E+00  0.00000000000E+00  0.20130491670E+03  0.20130491676E+03  0.50400001928E-02 0.  1.
        1   -1    0    0  501    0  0.00000000000E+00  0.00000000000E+00 -0.50853731235E+03  0.50853731238E+03  0.50400001928E-02 0. -1.
    10030    2    1    2    0    0  0.00000000000E+00  0.00000000000E+00 -0.30723239565E+03  0.70984222914E+03  0.63990956027E+03 0.  0.
        2    1    3    3  502    0 -0.26637726554E+03 -0.15136000935E+03 -0.25591347749E+03  0.39919720439E+03  0.25500000920E-02 0. -1.
       -2    1    3    3    0  502  0.26637726554E+03  0.15136000935E+03 -0.51318918163E+02  0.31064502474E+03  0.25500000920E-02 0.  1.
</event>
<event>
 5   0  0.1537870E-02  0.8927366E+03  0.7818609E-02  0.9434707E-01
        1   -1    0    0  501    0  0.00000000000E+00  0.00000000000E+00  0.69532832263E+03  0.69532832264E+03  0.50400001928E-02 0. -1.
       -1   -1    0    0    0  501  0.00000000000E+00  0.00000000000E+00 -0.28654760716E+03  0.28654760720E+03  0.50400001928E-02 0.  1.
    10030    2    1    2    0    0  0.00000000000E+00  0.00000000000E+00  0.40878071547E+03  0.98187592985E+03  0.89273661753E+03 0.  0.
        5    1    3    3  502    0  0.13647853986E+03  0.22379771665E+03  0.60172500460E+03  0.65635880506E+03  0.46999998093E+01 0. -1.
       -5    1    3    3    0  502 -0.13647853986E+03 -0.22379771665E+03 -0.19294428914E+03  0.32551712479E+03  0.46999998093E+01 0.  1.
</event>
<event>
 5   0  0.1559275E-02  0.9026865E+03  0.7818609E-02  0.9422229E-01
        1   -1    0    0  501    0  0.00000000000E+00  0.00000000000E+00  0.16447396328E+04  0.16447396328E+04  0.50400001928E-02 0.  1.
       -1   -1    0    0    0  501  0.00000000000E+00  0.00000000000E+00 -0.12385591010E+03  0.12385591021E+03  0.50400001928E-02 0. -1.
    10030    2    1    2    0    0  0.00000000000E+00  0.00000000000E+00  0.15208837227E+04  0.17685955430E+04  0.90268648866E+03 0.  0.
        1    1    3    3  502    0 -0.83629851098E+02  0.30809841962E+03  0.13534301403E+03  0.34675109176E+03  0.50400001928E-02 0. -1.
       -1    1    3    3    0  502  0.83629851098E+02 -0.30809841962E+03  0.13855407087E+04  0.14218444512E+04  0.50400001928E-02 0.  1.
</event>
<event>
 5   0  0.2414128E-02  0.8781999E+03  0.7818609E-02  0.9453250E-01
       -2   -1    0    0    0  501  0.00000000000E+00  0.00000000000E+00  0.13354181338E+03  0.13354181341E+03  0.25500000920E-02 0.  1.
        2   -1    0    0  501    0  0.00000000000E+00  0.00000000000E+00 -0.14438082873E+04  0.14438082873E+04  0.25500000920E-02 0. -1.
    10030    2    1    2    0    0  0.00000000000E+00  0.00000000000E+00 -0.13102664739E+04  0.15773501007E+04  0.87819992457E+03 0.  0.
        3    1    3    3  502    0 -0.53304777628E+02  0.12582525400E+03  0.94378093315E+02  0.16607416585E+03  0.10100000352E+00 0.  1.
       -3    1    3    3    0  502  0.53304777628E+02 -0.12582525400E+03 -0.14046445672E+04  0.14112759348E+04  0.10100000352E+00 0. -1.
</event>
<event>
 5   0  0.2414128E-02  0.8854282E+03  0.7818609E-02  0.9443982E-01
        2   -1    0    0  501    0  0.00000000000E+00  0.00000000000E+00  0.23674627062E+03  0.23674627064E+03  0.25500000920E-02 0.  1.
       -2   -1    0    0    0  501  0.00000000000E+00  0.00000000000E+00 -0.82787277216E+03  0.82787277217E+03  0.25500000920E-02 0. -1.
    10030    2    1    2    0    0  0.00000000000E+00  0.00000000000E+00 -0.59112650154E+03  0.10646190428E+04  0.88542823847E+03 0.  0.
        3    1    3    3  502    0  0.11728209439E+03  0.47633333038E+02 -0.80564882327E+03  0.81553299180E+03  0.10100000352E+00 0. -1.
       -3    1    3    3    0  502 -0.11728209439E+03 -0.47633333038E+02  0.21452232173E+03  0.24908605100E+03  0.10100000352E+00 0.  1.
</event>
<event>
 5   0  0.1537870E-02  0.8424099E+03  0.7818609E-02  0.9500581E-01
        1   -1    0    0  501    0  0.00000000000E+00  0.00000000000E+00  0.24493279284E+03  0.24493279289E+03  0.50400001928E-02 0. -1.
       -1   -1    0    0    0  501  0.00000000000E+00  0.00000000000E+00 -0.72433593516E+03  0.72433593517E+03  0.50400001928E-02 0.  1.
    10030    2    1    2    0    0  0.00000000000E+00  0.00000000000E+00 -0.47940314232E+03  0.96926872806E+03  0.84240993248E+03 0.  0.
        5    1    3    3  502    0  0.37807615401E+02 -0.41931529362E+03 -0.25315916702E+03  0.49129053023E+03  0.46999998093E+01 0.  1.
       -5    1    3    3    0  502 -0.37807615401E+02  0.41931529362E+03 -0.22624397530E+03  0.47797819783E+03  0.46999998093E+01 0. -1.
</event>
<event>
 5   0  0.1559275E-02  0.8227710E+03  0.7818609E-02  0.9527630E-01
        1   -1    0    0  501    0  0.00000000000E+00  0.00000000000E+00  0.12439069186E+04  0.12439069186E+04  0.50400001928E-02 0.  1.
       -1   -1    0    0    0  501  0.00000000000E+00  0.00000000000E+00 -0.13605361871E+03  0.13605361880E+03  0.50400001928E-02 0. -1.
    10030    2    1    2    0    0  0.00000000000E+00  0.00000000000E+00  0.11078532999E+04  0.13799605374E+04  0.82277101961E+03 0.  0.
        1    1    3    3  502    0  0.10587935678E+02 -0.35011472244E+03  0.91577538985E+03  0.98047793853E+03  0.50400001928E-02 0.  1.
       -1    1    3    3    0  502 -0.10587935678E+02  0.35011472244E+03  0.19207791003E+03  0.39948259887E+03  0.50400001928E-02 0. -1.
</event>
<event>
 5   0  0.1497410E-02  0.8957352E+03  0.7818609E-02  0.9430928E-01
       -1   -1    0    0    0  501  0.00000000000E+00  0.00000000000E+00  0.30864845320E+03  0.30864845325E+03  0.50400001928E-02 0.  1.
        1   -1    0    0  501    0  0.00000000000E+00  0.00000000000E+00 -0.64988294741E+03  0.64988294743E+03  0.50400001928E-02 0. -1.
    10030    2    1    2    0    0  0.00000000000E+00  0.00000000000E+00 -0.34123449421E+03  0.95853140068E+03  0.89573515396E+03 0.  0.
        3    1    3    3  502    0 -0.14541148865E+03 -0.36610024152E+03 -0.39865644173E+03  0.56044701499E+03  0.10100000352E+00 0. -1.
       -3    1    3    3    0  502  0.14541148865E+03  0.36610024152E+03  0.57421947522E+02  0.39808438569E+03  0.10100000352E+00 0.  1.
</event>
<event>
 5   0  0.2628383E-02  0.8935238E+03  0.7818609E-02  0.9433713E-01
       -2   -1    0    0    0  501  0.00000000000E+00  0.00000000000E+00  0.15693120295E+03  0.15693120297E+03  0.25500000920E-02 0.  1.
        2   -1    0    0  501    0  0.00000000000E+00  0.00000000000E+00 -0.12718706667E+04  0.12718706667E+04  0.25500000920E-02 0. -1.
    10030    2    1    2    0    0  0.00000000000E+00  0.00000000000E+00 -0.11149394638E+04  0.14288018697E+04  0.89352379651E+03 0.  0.
        2    1    3    3  502    0  0.27007519793E+02 -0.33438103193E+03 -0.85661490214E+02  0.34623398382E+03  0.25500000920E-02 0.  1.
       -2    1    3    3    0  502 -0.27007519793E+02  0.33438103193E+03 -0.10292779736E+04  0.10825678859E+04  0.25500000920E-02 0. -1.
</event>
<event>
 5   0  0.2628383E-02  0.9126063E+03  0.7818609E-02  0.9409959E-01
       -2   -1    0    0    0  501  0.00000000000E+00  0.00000000000E+00  0.50371480803E+03  0.50371480804E+03  0.25500000920E-02 0. -1.
        2   -1    0    0  501    0  0.00000000000E+00  0.00000000000E+00 -0.41335405390E+03  0.41335405390E+03  0.25500000920E-02 0.  1.
    10030    2    1    2    0    0  0.00000000000E+00  0.00000000000E+00  0.90360754132E+02  0.91706886194E+03  0.91260628513E+03 0.  0.
        2    1    3    3  502    0  0.16667327385E+03  0.65670052073E+02  0.46689907575E+03  0.50008727528E+03  0.25500000920E-02 0. -1.
       -2    1    3    3    0  502 -0.16667327385E+03 -0.65670052073E+02 -0.37653832162E+03  0.41698158666E+03  0.25500000920E-02 0.  1.
</event>
<event>
 5   0  0.1560728E-02  0.9033941E+03  0.7818609E-02  0.9421349E-01
       -1   -1    0    0    0  501  0.00000000000E+00  0.00000000000E+00  0.17717058388E+03  0.17717058395E+03  0.50400001928E-02 0. -1.
        1   -1    0    0  501    0  0.00000000000E+00  0.00000000000E+00 -0.11516032924E+04  0.11516032924E+04  0.50400001928E-02 0.  1.
    10030    2    1    2    0    0  0.00000000000E+00  0.00000000000E+00 -0.97443270851E+03  0.13287738763E+04  0.90339410616E+03 0.  0.
        4    1    3    3  502    0 -0.39407739168E+03  0.21847441575E+03 -0.44069053052E+03  0.63026805215E+03  0.12699999809E+01 0.  1.
       -4    1    3    3    0  502  0.39407739168E+03 -0.21847441575E+03 -0.53374217799E+03  0.69850582420E+03  0.12699999809E+01 0. -1.
</event>
<event>
 5   0  0.2679861E-02  0.9600531E+03  0.7818609E-02  0.9353477E-01
       -2   -1    0    0    0  501  0.00000000000E+00  0.00000000000E+00  0.48075201881E+03  0.48075201882E+03  0.25500000920E-02 0. -1.
        2   -1    0    0  501    0  0.00000000000E+00  0.00000000000E+00 -0.47930221991E+03  0.47930221992E+03  0.25500000920E-02 0.  1.
    10030    2    1    2    0    0  0.00000000000E+00  0.00000000000E+00  0.14497988999E+01  0.96005423873E+03  0.96005314405E+03 0.  0.
        1    1    3    3  502    0 -0.15026390574E+03 -0.54077824042E+02  0.45340837023E+03  0.48071072657E+03  0.50400001928E-02 0. -1.
       -1    1    3    3    0  502  0.15026390574E+03  0.54077824042E+02 -0.45195857133E+03  0.47934351216E+03  0.50400001928E-02 0.  1.
</event>
<event>
 5   0  0.1537870E-02  0.8899436E+03  0.7818609E-02  0.9438240E-01
        1   -1    0    0  501    0  0.00000000000E+00  0.00000000000E+00  0.87390652239E+03  0.87390652240E+03  0.50400001928E-02 0.  1.
       -1   -1    0    0    0  501  0.00000000000E+00  0.00000000000E+00 -0.22656874131E+03  0.22656874136E+03  0.50400001928E-02 0. -1.
    10030    2    1    2    0    0  0.00000000000E+00  0.00000000000E+00  0.64733778108E+03  0.11004752638E+04  0.88994359560E+03 0.  0.
        5    1    3    3  502    0  0.27911086874E+03  0.10168580728E+01  0.75216029163E+03  0.80229115996E+03  0.46999998093E+01 0.  1.
       -5    1    3    3    0  502 -0.27911086874E+03 -0.10168580728E+01 -0.10482251055E+03  0.29818410381E+03  0.46999998093E+01 0. -1.
</event>
<event>
 5   0  0.2803717E-02  0.8891601E+03  0.7818609E-02  0.9439234E-01
        2   -1    0    0  501    0  0.00000000000E+00  0.00000000000E+00  0.81887413955E+03  0.81887413955E+03  0.25500000920E-02 0.  1.
       -2   -1    0    0    0  501  0.00000000000E+00  0.00000000000E+00 -0.24136971220E+03  0.24136971222E+03  0.25500000920E-02 0. -1.
    10030    2    1    2    0    0  0.00000000000E+00  0.00000000000E+00  0.57750442734E+03  0.10602438518E+04  0.88916008773E+03 0.  0.
        5    1    3    3  502    0  0.66931678561E+02  0.23306853593E+03 -0.15553638703E+03  0.28812228259E+03  0.46999998093E+01 0. -1.
       -5    1    3    3    0  502 -0.66931678561E+02 -0.23306853593E+03  0.73304081438E+03  0.77212156917E+03  0.46999998093E+01 0.  1.
</event>
<event>
 5   0  0.2803717E-02  0.9393808E+03  0.7818609E-02  0.9377650E-01
       -2   -1    0    0    0  501  0.00000000000E+00  0.00000000000E+00  0.19089098444E+03  0.19089098446E+03  0.25500000920E-02 0. -1.
        2   -1    0    0  501    0  0.00000000000E+00  0.00000000000E+00 -0.11556808694E+04  0.11556808694E+04  0.25500000920E-02 0.  1.
    10030    2    1    2    0    0  0.00000000000E+00  0.00000000000E+00 -0.96478988494E+03  0.13465718538E+04  0.93938077236E+03 0.  0.
        5    1    3    3  502    0 -0.15750982269E+03  0.10136674945E+02 -0.11164915003E+04  0.11276025260E+04  0.46999998093E+01 0.  1.
       -5    1    3    3    0  502  0.15750982269E+03 -0.10136674945E+02  0.15170161537E+03  0.21896932782E+03  0.46999998093E+01 0. -1.
</event>
<event>
 5   0  0.1040163E-02  0.9358940E+03  0.7818609E-02  0.9381792E-01
       -3   -1    0    0    0  501  0.00000000000E+00  0.00000000000E+00  0.27730387498E+03  0.27730389338E+03  0.10100000352E+00 0. -1.
        3   -1    0    0  501    0  0.00000000000E+00  0.00000000000E+00 -0.78965490691E+03  0.78965491337E+03  0.10100000352E+00 0.  1.
    10030    2    1    2    0    0  0.00000000000E+00  0.00000000000E+00 -0.51235103193E+03  0.10669588067E+04  0.93589396589E+03 0.  0.
        1    1    3    3  502    0 -0.38027468327E+03  0.27159915023E+03 -0.22826319682E+03  0.52007597540E+03  0.50400001928E-02 0.  1.
       -1    1    3    3    0  502  0.38027468327E+03 -0.27159915023E+03 -0.28408783510E+03  0.54688283135E+03  0.50400001928E-02 0. -1.
</event>
<event>
 5   0  0.2628383E-02  0.9152983E+03  0.7818609E-02  0.9406657E-01
        2   -1    0    0  501    0  0.00000000000E+00  0.00000000000E+00  0.42116591423E+03  0.42116591423E+03  0.25500000920E-02 0. -1.
       -2   -1    0    0    0  501  0.00000000000E+00  0.00000000000E+00 -0.49729275523E+03  0.49729275524E+03  0.25500000920E-02 0.  1.
    10030    2    1    2    0    0  0.00000000000E+00  0.00000000000E+00 -0.76126841005E+02  0.91845866947E+03  0.91529832929E+03 0.  0.
        2    1    3    3  502    0 -0.22859506450E+03  0.32400093342E+03 -0.26734843142E+03  0.47823372127E+03  0.25500000920E-02 0.  1.
       -2    1    3    3    0  502  0.22859506450E+03 -0.32400093342E+03  0.19122159042E+03  0.44022494820E+03  0.25500000920E-02 0. -1.
</event>
<event>
 5   0  0.1537870E-02  0.7758788E+03  0.7818609E-02  0.9595603E-01
       -1   -1    0    0    0  501  0.00000000000E+00  0.00000000000E+00  0.90656613136E+02  0.90656613276E+02  0.50400001928E-02 0.  1.
        1   -1    0    0  501    0  0.00000000000E+00  0.00000000000E+00 -0.16600770804E+04  0.16600770804E+04  0.50400001928E-02 0. -1.
    10030    2    1    2    0    0  0.00000000000E+00  0.00000000000E+00 -0.15694204672E+04  0.17507336937E+04  0.77587876832E+03 0.  0.
        5    1    3    3  502    0  0.38681021026E+03 -0.19023516293E+02 -0.83470188185E+03  0.92018115309E+03  0.46999998093E+01 0. -1.
       -5    1    3    3    0  502 -0.38681021026E+03  0.19023516293E+02 -0.73471858539E+03  0.83055254058E+03  0.46999998093E+01 0.  1.
</event>
<event>
 5   0  0.2414128E-02  0.9013474E+03  0.7818609E-02  0.9423899E-01
        2   -1    0    0  501    0  0.00000000000E+00  0.00000000000E+00  0.17047936287E+04  0.17047936287E+04  0.25500000920E-02 0. -1.
       -2   -1    0    0    0  501  0.00000000000E+00  0.00000000000E+00 -0.11913863605E+03  0.11913863608E+03  0.25500000920E-02 0.  1.
    10030    2    1    2    0    0  0.00000000000E+00  0.00000000000E+00  0.15856549926E+04  0.18239322648E+04  0.90134740850E+03 0.  0.
        3    1    3    3  502    0 -0.44612448211E+03  0.62319379956E+02  0.82115872439E+03  0.93659618807E+03  0.10100000352E+00 0. -1.
       -3    1    3    3    0  502  0.44612448211E+03 -0.62319379956E+02  0.76449626823E+03  0.88733607669E+03  0.10100000352E+00 0.  1.
</event>
<event>
 5   0  0.1497410E-02  0.8901286E+03  0.7818609E-02  0.9438006E-01
       -1   -1    0    0    0  501  0.00000000000E+00  0.00000000000E+00  0.34233207579E+03  0.34233207583E+03  0.50400001928E-02 0. -1.
        1   -1    0    0  501    0  0.00000000000E+00  0.00000000000E+00 -0.57862599855E+03  0.57862599857E+03  0.50400001928E-02 0.  1.
    10030    2    1    2    0    0  0.00000000000E+00  0.00000000000E+00 -0.23629392275E+03  0.92095807440E+03  0.89012861816E+03 0.  0.
        3    1    3    3  502    0 -0.21315461674E+03  0.26893218909E+03  0.17508179523E+03  0.38524415399E+03  0.10100000352E+00 0. -1.
       -3    1    3    3    0  502  0.21315461674E+03 -0.26893218909E+03 -0.41137571799E+03  0.53571392040E+03  0.10100000352E+00 0.  1.
</event>
<event>
 5   0  0.2705111E-02  0.9019187E+03  0.7818609E-02  0.9423186E-01
        2   -1    0    0  501    0  0.00000000000E+00  0.00000000000E+00  0.35809198207E+03  0.35809198208E+03  0.25500000920E-02 0. -1.
       -2   -1    0    0    0  501  0.00000000000E+00  0.00000000000E+00 -0.56791088780E+03  0.56791088780E+03  0.25500000920E-02 0.  1.
    10030    2    1    2    0    0  0.00000000000E+00  0.00000000000E+00 -0.20981890572E+03  0.92600286988E+03  0.90191870023E+03 0.  0.
        4    1    3    3  502    0 -0.37344982004E+03 -0.25149025177E+03 -0.78721319081E+02  0.45706758122E+03  0.12699999809E+01 0. -1.
       -4    1    3    3    0  502  0.37344982004E+03  0.25149025177E+03 -0.13109758664E+03  0.46893528866E+03  0.12699999809E+01 0.  1.
</event>
<event>
 5   0  0.1459111E-02  0.8947600E+03  0.7818609E-02  0.9432155E-01
        1   -1    0    0  501    0  0.00000000000E+00  0.00000000000E+00  0.78735628588E+03  0.78735628590E+03  0.50400001928E-02 0.  1.
       -1   -1    0    0    0  501  0.00000000000E+00  0.00000000000E+00 -0.25420368795E+03  0.25420368800E+03  0.50400001928E-02 0. -1.
    10030    2    1    2    0    0  0.00000000000E+00  0.00000000000E+00  0.53315259793E+03  0.10415599739E+04  0.89476001618E+03 0.  0.
        2    1    3    3  502    0 -0.14140085543E+03  0.41911846120E+03  0.34461550802E+03  0.56072661326E+03  0.25500000920E-02 0.  1.
       -2    1    3    3    0  502  0.14140085543E+03 -0.41911846120E+03  0.18853708991E+03  0.48083336065E+03  0.25500000920E-02 0. -1.
</event>
<event>
 5   0  0.1559275E-02  0.8811961E+03  0.7818609E-02  0.9449397E-01
       -1   -1    0    0    0  501  0.00000000000E+00  0.00000000000E+00  0.26287743111E+03  0.26287743116E+03  0.50400001928E-02 0. -1.
        1   -1    0    0  501    0  0.00000000000E+00  0.00000000000E+00 -0.73846833742E+03  0.73846833744E+03  0.50400001928E-02 0.  1.
    10030    2    1    2    0    0  0.00000000000E+00  0.00000000000E+00 -0.47559090631E+03  0.10013457686E+04  0.88119614055E+03 0.  0.
        1    1    3    3  502    0  0.17628225180E+03  0.38638073281E+03 -0.37109815372E+03  0.56398523270E+03  0.50400001928E-02 0.  1.
       -1    1    3    3    0  502 -0.17628225180E+03 -0.38638073281E+03 -0.10449275259E+03  0.43736053589E+03  0.50400001928E-02 0. -1.
</event>
<event>
 5   0  0.2803717E-02  0.9452152E+03  0.7818609E-02  0.9370761E-01
       -2   -1    0    0    0  501  0.00000000000E+00  0.00000000000E+00  0.13674632444E+03  0.13674632446E+03  0.25500000920E-02 0.  1.
        2   -1    0    0  501    0  0.00000000000E+00  0.00000000000E+00 -0.16333743872E+04  0.16333743872E+04  0.25500000920E-02 0. -1.
    10030    2    1    2    0    0  0.00000000000E+00  0.00000000000E+00 -0.14966280628E+04  0.17701207117E+04  0.94521520070E+03 0.  0.
        5    1    3    3  502    0 -0.74493308453E+02 -0.45882865580E+03 -0.90791156960E+03  0.10199992630E+04  0.46999998093E+01 0.  1.
       -5    1    3    3    0  502  0.74493308453E+02  0.45882865580E+03 -0.58871649319E+03  0.75012144866E+03  0.46999998093E+01 0. -1.
</event>
<event>
 5   0  0.1497410E-02  0.8993253E+03  0.7818609E-02  0.9426425E-01
        1   -1    0    0  501    0  0.00000000000E+00  0.00000000000E+00  0.51359026562E+03  0.51359026565E+03  0.50400001928E-02 0.  1.
       -1   -1    0    0    0  501  0.00000000000E+00  0.00000000000E+00 -0.39369223181E+03  0.39369223185E+03  0.50400001928E-02 0. -1.
    10030    2    1    2    0    0  0.00000000000E+00  0.00000000000E+00  0.11989803381E+03  0.90728249749E+03  0.89932529807E+03 0.  0.
        3    1    3    3  502    0 -0.39579401965E+02 -0.84033242269E+02  0.50380586243E+03  0.51229724974E+03  0.10100000352E+00 0.  1.
       -3    1    3    3    0  502  0.39579401965E+02  0.84033242269E+02 -0.38390782862E+03  0.39498524776E+03  0.10100000352E+00 0. -1.
</event>
<event>
 5   0  0.2414128E-02  0.9075896E+03  0.7818609E-02  0.9416143E-01
       -2   -1    0    0    0  501  0.00000000000E+00  0.00000000000E+00  0.33937462284E+03  0.33937462285E+03  0.25500000920E-02 0.  1.
        2   -1    0    0  501    0  0.00000000000E+00  0.00000000000E+00 -0.60679176556E+03  0.60679176556E+03  0.25500000920E-02 0. -1.
    10030    2    1    2    0    0  0.00000000000E+00  0.00000000000E+00 -0.26741714272E+03  0.94616638841E+03  0.90758961340E+03 0.  0.
        3    1    3    3  502    0 -0.41586267150E+03 -0.91041946368E+02 -0.29754877807E+03  0.51938972177E+03  0.10100000352E+00 0. -1.
       -3    1    3    3    0  502  0.41586267150E+03  0.91041946368E+02  0.30131635355E+02  0.42677666665E+03  0.10100000352E+00 0.  1.
</event>
<event>
 5   0  0.2679861E-02  0.8910525E+03  0.7818609E-02  0.9436836E-01
        2   -1    0    0  501    0  0.00000000000E+00  0.00000000000E+00  0.31460589809E+03  0.31460589810E+03  0.25500000920E-02 0.  1.
       -2   -1    0    0    0  501  0.00000000000E+00  0.00000000000E+00 -0.63092787815E+03  0.63092787816E+03  0.25500000920E-02 0. -1.
    10030    2    1    2    0    0  0.00000000000E+00  0.00000000000E+00 -0.31632198007E+03  0.94553377626E+03  0.89105248272E+03 0.  0.
        1    1    3    3  502    0 -0.24234403131E+03  0.33249168213E+03 -0.33952725789E+03  0.53344175602E+03  0.50400001928E-02 0. -1.
       -1    1    3    3    0  502  0.24234403131E+03 -0.33249168213E+03  0.23205277821E+02  0.41209202023E+03  0.50400001928E-02 0.  1.
</event>
<event>
 5   0  0.1459111E-02  0.9022703E+03  0.7818609E-02  0.9422748E-01
        1   -1    0    0  501    0  0.00000000000E+00  0.00000000000E+00  0.79567223457E+03  0.79567223459E+03  0.50400001928E-02 0.  1.
       -1   -1    0    0    0  501  0.00000000000E+00  0.00000000000E+00 -0.25578738724E+03  0.25578738729E+03  0.50400001928E-02 0. -1.
    10030    2    1    2    0    0  0.00000000000E+00  0.00000000000E+00  0.53988484733E+03  0.10514596219E+04  0.90227029656E+03 0.  0.
        2    1    3    3  502    0  0.29091855753E+03  0.31203755843E+03  0.98981832060E+02  0.43794799699E+03  0.25500000920E-02 0. -1.
       -2    1    3    3    0  502 -0.29091855753E+03 -0.31203755843E+03  0.44090301527E+03  0.61351162488E+03  0.25500000920E-02 0.  1.
</event>
<event>
 5   0  0.1459111E-02  0.8906307E+03  0.7818609E-02  0.9437370E-01
        1   -1    0    0  501    0  0.00000000000E+00  0.00000000000E+00  0.67228966320E+03  0.67228966322E+03  0.50400001928E-02 0.  1.
       -1   -1    0    0    0  501  0.00000000000E+00  0.00000000000E+00 -0.29497073665E+03  0.29497073670E+03  0.50400001928E-02 0. -1.
    10030    2    1    2    0    0  0.00000000000E+00  0.00000000000E+00  0.37731892655E+03  0.96726039991E+03  0.89063073656E+03 0.  0.
        2    1    3    3  502    0 -0.27712787663E+03  0.10449779849E+03  0.54981647729E+03  0.62451405797E+03  0.25500000920E-02 0.  1.
       -2    1    3    3    0  502  0.27712787663E+03 -0.10449779849E+03 -0.17249755075E+03  0.34274634194E+03  0.25500000920E-02 0. -1.
</event>
<event>
 5   0  0.2414128E-02  0.9022059E+03  0.7818609E-02  0.9422828E-01
       -2   -1    0    0    0  501  0.00000000000E+00  0.00000000000E+00  0.19377231404E+03  0.19377231405E+03  0.25500000920E-02 0. -1.
        2   -1    0    0  501    0  0.00000000000E+00  0.00000000000E+00 -0.10501701097E+04  0.10501701097E+04  0.25500000920E-02 0.  1.
    10030    2    1    2    0    0  0.00000000000E+00  0.00000000000E+00 -0.85639779562E+03  0.12439424237E+04  0.90220594609E+03 0.  0.
        3    1    3    3  502    0 -0.38955200313E+03 -0.18282564690E+03 -0.61480784271E+03  0.75044298515E+03  0.10100000352E+00 0.  1.
       -3    1    3    3    0  502  0.38955200313E+03  0.18282564690E+03 -0.24158995291E+03  0.49349943856E+03  0.10100000352E+00 0. -1.
</event>
<event>
 5   0  0.2414128E-02  0.9004133E+03  0.7818609E-02  0.9425065E-01
        2   -1    0    0  501    0  0.00000000000E+00  0.00000000000E+00  0.18029352291E+04  0.18029352291E+04  0.25500000920E-02 0.  1.
       -2   -1    0    0    0  501  0.00000000000E+00  0.00000000000E+00 -0.11242003490E+03  0.11242003493E+03  0.25500000920E-02 0. -1.
    10030    2    1    2    0    0  0.00000000000E+00  0.00000000000E+00  0.16905151942E+04  0.19153552641E+04  0.90041333044E+03 0.  0.
        3    1    3    3  502    0  0.42228768227E+03  0.14091460952E+03  0.98798936870E+03  0.10836543806E+04  0.10100000352E+00 0.  1.
       -3    1    3    3    0  502 -0.42228768227E+03 -0.14091460952E+03  0.70252582554E+03  0.83170088345E+03  0.10100000352E+00 0. -1.
</event>
<event>
 5   0  0.1560728E-02  0.8750277E+03  0.7818609E-02  0.9457348E-01
        1   -1    0    0  501    0  0.00000000000E+00  0.00000000000E+00  0.15647980149E+04  0.15647980149E+04  0.50400001928E-02 0. -1.
       -1   -1    0    0    0  501  0.00000000000E+00  0.00000000000E+00 -0.12232784663E+03  0.12232784673E+03  0.50400001928E-02 0.  1.
    10030    2    1    2    0    0  0.00000000000E+00  0.00000000000E+00  0.14424701683E+04  0.16871258616E+04  0.87502770622E+03 0.  0.
        4    1    3    3  502    0 -0.32391071685E+02 -0.37952114090E+03  0.30622100365E+03  0.48873141284E+03  0.12699999809E+01 0. -1.
       -4    1    3    3    0  502  0.32391071685E+02  0.37952114090E+03  0.11362491646E+04  0.11983944488E+04  0.12699999809E+01 0.  1.
</event>
<event>
 5   0  0.1560728E-02  0.9168751E+03  0.7818609E-02  0.9404729E-01
        1   -1    0    0  501    0  0.00000000000E+00  0.00000000000E+00  0.67017963512E+03  0.67017963514E+03  0.50400001928E-02 0. -1.
       -1   -1    0    0    0  501  0.00000000000E+00  0.00000000000E+00 -0.31359503759E+03  0.31359503763E+03  0.50400001928E-02 0.  1.
    10030    2    1    2    0    0  0.00000000000E+00  0.00000000000E+00  0.35658459753E+03  0.98377467277E+03  0.91687514504E+03 0.  0.
        4    1    3    3  502    0  0.29714896183E+03  0.34074651961E+03  0.25970832675E+03  0.52139785579E+03  0.12699999809E+01 0.  1.
       -4    1    3    3    0  502 -0.29714896183E+03 -0.34074651961E+03  0.96876270786E+02  0.46237681698E+03  0.12699999809E+01 0. -1.
</event>
<event>
 5   0  0.1559275E-02  0.9136202E+03  0.7818609E-02  0.9408714E-01
       -1   -1    0    0    0  501  0.00000000000E+00  0.00000000000E+00  0.97945001531E+02  0.97945001661E+02  0.50400001928E-02 0.  1.
        1   -1    0    0  501    0  0.00000000000E+00  0.00000000000E+00 -0.21305369537E+04  0.21305369537E+04  0.50400001928E-02 0. -1.
    10030    2    1    2    0    0  0.00000000000E+00  0.00000000000E+00 -0.20325919522E+04  0.22284819554E+04  0.91362015158E+03 0.  0.
        1    1    3    3  502    0  0.56206846161E+02 -0.45220819338E+03 -0.93824283639E+03  0.10430489345E+04  0.50400001928E-02 0. -1.
       -1    1    3    3    0  502 -0.56206846161E+02  0.45220819338E+03 -0.10943491158E+04  0.11854330209E+04  0.50400001928E-02 0.  1.
</event>
<event>
 5   0  0.1559275E-02  0.8882891E+03  0.7818609E-02  0.9440340E-01
        1   -1    0    0  501    0  0.00000000000E+00  0.00000000000E+00  0.26045566819E+04  0.26045566819E+04  0.50400001928E-02 0.  1.
       -1   -1    0    0    0  501  0.00000000000E+00  0.00000000000E+00 -0.75738184071E+02  0.75738184239E+02  0.50400001928E-02 0. -1.
    10030    2    1    2    0    0  0.00000000000E+00  0.00000000000E+00  0.25288184979E+04  0.26802948662E+04  0.88828912778E+03 0.  0.
        1    1    3    3  502    0 -0.11260102944E+02  0.36800205982E+03  0.20139812349E+04  0.20473574970E+04  0.50400001928E-02 0.  1.
       -1    1    3    3    0  502  0.11260102944E+02 -0.36800205982E+03  0.51483726300E+03  0.63293736921E+03  0.50400001928E-02 0. -1.
</event>
<event>
 5   0  0.1459111E-02  0.9063826E+03  0.7818609E-02  0.9417638E-01
        1   -1    0    0  501    0  0.00000000000E+00  0.00000000000E+00  0.54104119677E+03  0.54104119679E+03  0.50400001928E-02 0. -1.
       -1   -1    0    0    0  501  0.00000000000E+00  0.00000000000E+00 -0.37960573043E+03  0.37960573047E+03  0.50400001928E-02 0.  1.
    10030    2    1    2    0    0  0.00000000000E+00  0.00000000000E+00  0.16143546634E+03  0.92064692726E+03  0.90638256541E+03 0.  0.
        2    1    3    3  502    0  0.46902154854E+02 -0.26163429685E+03  0.45355022551E+03  0.52569965236E+03  0.25500000920E-02 0. -1.
       -2    1    3    3    0  502 -0.46902154854E+02  0.26163429685E+03 -0.29211475918E+03  0.39494727490E+03  0.25500000920E-02 0.  1.
</event>
<event>
 5   0  0.1537870E-02  0.9000028E+03  0.7818609E-02  0.9425578E-01
        1   -1    0    0  501    0  0.00000000000E+00  0.00000000000E+00  0.17825261051E+04  0.17825261051E+04  0.50400001928E-02 0.  1.
       -1   -1    0    0    0  501  0.00000000000E+00  0.00000000000E+00 -0.11360353114E+03  0.11360353125E+03  0.50400001928E-02 0. -1.
    10030    2    1    2    0    0  0.00000000000E+00  0.00000000000E+00  0.16689225740E+04  0.18961296364E+04  0.90000280000E+03 0.  0.
        5    1    3    3  502    0  0.36404529484E+03  0.26428467585E+03  0.81299633149E+03  0.92917193867E+03  0.46999998093E+01 0.  1.
       -5    1    3    3    0  502 -0.36404529484E+03 -0.26428467585E+03  0.85592624249E+03  0.96695769772E+03  0.46999998093E+01 0. -1.
</event>
<event>
 5   0  0.1040163E-02  0.8784229E+03  0.7818609E-02  0.9452963E-01
       -3   -1    0    0    0  501  0.00000000000E+00  0.00000000000E+00  0.36907540834E+03  0.36907542216E+03  0.10100000352E+00 0.  1.
        3   -1    0    0  501    0  0.00000000000E+00  0.00000000000E+00 -0.52267552746E+03  0.52267553722E+03  0.10100000352E+00 0. -1.
    10030    2    1    2    0    0  0.00000000000E+00  0.00000000000E+00 -0.15360011912E+03  0.89175095938E+03  0.87842289187E+03 0.  0.
        1    1    3    3  502    0  0.34144879909E+03 -0.85836695086E+02 -0.34337033224E+03  0.49179101834E+03  0.50400001928E-02 0. -1.
       -1    1    3    3    0  502 -0.34144879909E+03  0.85836695086E+02  0.18977021313E+03  0.39995994104E+03  0.50400001928E-02 0.  1.
</event>
<event>
 5   0  0.1459111E-02  0.9098127E+03  0.7818609E-02  0.9413398E-01
        1   -1    0    0  501    0  0.00000000000E+00  0.00000000000E+00  0.69565128529E+03  0.69565128531E+03  0.50400001928E-02 0.  1.
       -1   -1    0    0    0  501  0.00000000000E+00  0.00000000000E+00 -0.29747631652E+03  0.29747631656E+03  0.50400001928E-02 0. -1.
    10030    2    1    2    0    0  0.00000000000E+00  0.00000000000E+00  0.39817496877E+03  0.99312760187E+03  0.90981268832E+03 0.  0.
        2    1    3    3  502    0 -0.15765358726E+03 -0.15089831015E+03  0.63478106692E+03  0.67124656908E+03  0.25500000920E-02 0.  1.
       -2    1    3    3    0  502  0.15765358726E+03  0.15089831015E+03 -0.23660609814E+03  0.32188103279E+03  0.25500000920E-02 0. -1.
</event>
<event>
 5   0  0.2679861E-02  0.9170983E+03  0.7818609E-02  0.9404457E-01
        2   -1    0    0  501    0  0.00000000000E+00  0.00000000000E+00  0.53629208724E+03  0.53629208725E+03  0.25500000920E-02 0.  1.
       -2   -1    0    0    0  501  0.00000000000E+00  0.00000000000E+00 -0.39207609586E+03  0.39207609586E+03  0.25500000920E-02 0. -1.
    10030    2    1    2    0    0  0.00000000000E+00  0.00000000000E+00  0.14421599139E+03  0.92836818311E+03  0.91709826695E+03 0.  0.
        1    1    3    3  502    0  0.31120953151E+03 -0.24913323946E+03 -0.15727885967E+03  0.42855032754E+03  0.50400001928E-02 0. -1.
       -1    1    3    3    0  502 -0.31120953151E+03  0.24913323946E+03  0.30149485106E+03  0.49981785557E+03  0.50400001928E-02 0.  1.
</event>
<event>
 5   0  0.2679861E-02  0.9340552E+03  0.7818609E-02  0.9383984E-01
        2   -1    0    0  501    0  0.00000000000E+00  0.00000000000E+00  0.92653286601E+03  0.92653286602E+03  0.25500000920E-02 0.  1.
       -2   -1    0    0    0  501  0.00000000000E+00  0.00000000000E+00 -0.23540963973E+03  0.23540963974E+03  0.25500000920E-02 0. -1.
    10030    2    1    2    0    0  0.00000000000E+00  0.00000000000E+00  0.69112322629E+03  0.11619425058E+04  0.93405517651E+03 0.  0.
        1    1    3    3  502    0 -0.26823695288E+03 -0.36767019298E+03  0.21519708394E+03  0.50343045067E+03  0.50400001928E-02 0. -1.
       -1    1    3    3    0  502  0.26823695288E+03  0.36767019298E+03  0.47592614235E+03  0.65851205509E+03  0.50400001928E-02 0.  1.
</event>
<event>
 5   0  0.2628383E-02  0.9651352E+03  0.7818609E-02  0.9347633E-01
       -2   -1    0    0    0  501  0.00000000000E+00  0.00000000000E+00  0.88385785023E+03  0.88385785023E+03  0.25500000920E-02 0.  1.
        2   -1    0    0  501    0  0.00000000000E+00  0.00000000000E+00 -0.26347166399E+03  0.26347166401E+03  0.25500000920E-02 0. -1.
    10030    2    1    2    0    0  0.00000000000E+00  0.00000000000E+00  0.62038618623E+03  0.11473295142E+04  0.96513522067E+03 0.  0.
        2    1    3    3  502    0  0.31675254501E+03 -0.36402124333E+03  0.31646755216E+03  0.57705749449E+03  0.25500000920E-02 0. -1.
       -2    1    3    3    0  502 -0.31675254501E+03  0.36402124333E+03  0.30391863407E+03  0.57027201975E+03  0.25500000920E-02 0.  1.
</event>
<event>
 5   0  0.1459111E-02  0.1033132E+04  0.7818609E-02  0.9272935E-01
        1   -1    0    0  501    0  0.00000000000E+00  0.00000000000E+00  0.80366736349E+03  0.80366736351E+03  0.50400001928E-02 0. -1.
       -1   -1    0    0    0  501  0.00000000000E+00  0.00000000000E+00 -0.33202836111E+03  0.33202836115E+03  0.50400001928E-02 0.  1.
    10030    2    1    2    0    0  0.00000000000E+00  0.00000000000E+00  0.47163900239E+03  0.11356957247E+04  0.10331318553E+04 0.  0.
        2    1    3    3  502    0  0.29412680683E+03 -0.24889019285E+03  0.61404581159E+03  0.72492010962E+03  0.25500000920E-02 0. -1.
       -2    1    3    3    0  502 -0.29412680683E+03  0.24889019285E+03 -0.14240680920E+03  0.41077561504E+03  0.25500000920E-02 0.  1.
</event>
<event>
 5   0  0.1560728E-02  0.5952476E+03  0.7818609E-02  0.9915315E-01
        1   -1    0    0  501    0  0.00000000000E+00  0.00000000000E+00  0.34822156911E+03  0.34822156914E+03  0.50400001928E-02 0. -1.
       -1   -1    0    0    0  501  0.00000000000E+00  0.00000000000E+00 -0.25437801740E+03  0.25437801745E+03  0.50400001928E-02 0.  1.
    10030    2    1    2    0    0  0.00000000000E+00  0.00000000000E+00  0.93843551710E+02  0.60259958659E+03  0.59524755318E+03 0.  0.
        4    1    3    3  502    0  0.29568530376E+03  0.26838175889E+02  0.25972881421E+02  0.29803739700E+03  0.12699999809E+01 0. -1.
       -4    1    3    3    0  502 -0.29568530376E+03 -0.26838175889E+02  0.67870670289E+02  0.30456218959E+03  0.12699999809E+01 0.  1.
</event>
<event>
 5   0  0.1559275E-02  0.9070812E+03  0.7818609E-02  0.9416773E-01
       -1   -1    0    0    0  501  0.00000000000E+00  0.00000000000E+00  0.10921684113E+03  0.10921684125E+03  0.50400001928E-02 0.  1.
        1   -1    0    0  501    0  0.00000000000E+00  0.00000000000E+00 -0.18834005359E+04  0.18834005360E+04  0.50400001928E-02 0. -1.
    10030    2    1    2    0    0  0.00000000000E+00  0.00000000000E+00 -0.17741836948E+04  0.19926173772E+04  0.90708115899E+03 0.  0.
        1    1    3    3  502    0 -0.83015952374E+01 -0.43901264840E+03 -0.11365740373E+04  0.12184422695E+04  0.50400001928E-02 0.  1.
       -1    1    3    3    0  502  0.83015952374E+01  0.43901264840E+03 -0.63760965755E+03  0.77417510769E+03  0.50400001928E-02 0. -1.
</event>
<event>
 5   0  0.1459111E-02  0.9057156E+03  0.7818609E-02  0.9418465E-01
       -1   -1    0    0    0  501  0.00000000000E+00  0.00000000000E+00  0.97963596535E+03  0.97963596536E+03  0.50400001928E-02 0.  1.
        1   -1    0    0  501    0  0.00000000000E+00  0.00000000000E+00 -0.20934324264E+03  0.20934324270E+03  0.50400001928E-02 0. -1.
    10030    2    1    2    0    0  0.00000000000E+00  0.00000000000E+00  0.77029272271E+03  0.11889792081E+04  0.90571556161E+03 0.  0.
        2    1    3    3  502    0  0.26086593197E+03  0.29662179697E+03  0.94424140976E+02  0.40614214667E+03  0.25500000920E-02 0. -1.
       -2    1    3    3    0  502 -0.26086593197E+03 -0.29662179697E+03  0.67586858174E+03  0.78283706139E+03  0.25500000920E-02 0.  1.
</event>
<event>
 5   0  0.1040163E-02  0.9056167E+03  0.7818609E-02  0.9418587E-01
        4   -1    0    0  501    0  0.00000000000E+00  0.00000000000E+00  0.28695201038E+03  0.28695482077E+03  0.12699999809E+01 0.  1.
       -4   -1    0    0    0  501  0.00000000000E+00  0.00000000000E+00 -0.71452170769E+03  0.71452283635E+03  0.12699999809E+01 0. -1.
    10030    2    1    2    0    0  0.00000000000E+00  0.00000000000E+00 -0.42756969731E+03  0.10014776571E+04  0.90561672447E+03 0.  0.
        3    1    3    3  502    0  0.89559373289E+02  0.28626765883E+03  0.16133419256E+03  0.34058594470E+03  0.10100000352E+00 0.  1.
       -3    1    3    3    0  502 -0.89559373289E+02 -0.28626765883E+03 -0.58890388987E+03  0.66089171242E+03  0.10100000352E+00 0. -1.
</event>
<event>
 5   0  0.2414128E-02  0.9027286E+03  0.7818609E-02  0.9422177E-01
       -2   -1    0    0    0  501  0.00000000000E+00  0.00000000000E+00  0.15672476518E+03  0.15672476520E+03  0.25500000920E-02 0. -1.
        2   -1    0    0  501    0  0.00000000000E+00  0.00000000000E+00 -0.12999204220E+04  0.12999204220E+04  0.25500000920E-02 0.  1.
    10030    2    1    2    0    0  0.00000000000E+00  0.00000000000E+00 -0.11431956568E+04  0.14566451872E+04  0.90272858136E+03 0.  0.
        3    1    3    3  502    0  0.12557238729E+03 -0.12335772851E+03  0.99055788578E+02  0.20198419019E+03  0.10100000352E+00 0. -1.
       -3    1    3    3    0  502 -0.12557238729E+03  0.12335772851E+03 -0.12422514454E+04  0.12546609970E+04  0.10100000352E+00 0.  1.
</event>
<event>
 5   0  0.2679861E-02  0.7986894E+03  0.7818609E-02  0.9561916E-01
        2   -1    0    0  501    0  0.00000000000E+00  0.00000000000E+00  0.60348307182E+03  0.60348307183E+03  0.25500000920E-02 0. -1.
       -2   -1    0    0    0  501  0.00000000000E+00  0.00000000000E+00 -0.26425957723E+03  0.26425957724E+03  0.25500000920E-02 0.  1.
    10030    2    1    2    0    0  0.00000000000E+00  0.00000000000E+00  0.33922349459E+03  0.86774264907E+03  0.79868938000E+03 0.  0.
        1    1    3    3  502    0  0.10060688711E+03  0.25797849793E+03  0.48224287353E+03  0.55608707972E+03  0.50400001928E-02 0. -1.
       -1    1    3    3    0  502 -0.10060688711E+03 -0.25797849793E+03 -0.14301937895E+03  0.31165556935E+03  0.50400001928E-02 0.  1.
</event>
<event>
 5   0  0.2414128E-02  0.8266514E+03  0.7818609E-02  0.9522222E-01
       -2   -1    0    0    0  501  0.00000000000E+00  0.00000000000E+00  0.80315759284E+02  0.80315759324E+02  0.25500000920E-02 0. -1.
        2   -1    0    0  501    0  0.00000000000E+00  0.00000000000E+00 -0.21270808569E+04  0.21270808569E+04  0.25500000920E-02 0.  1.
    10030    2    1    2    0    0  0.00000000000E+00  0.00000000000E+00 -0.20467650976E+04  0.22073966162E+04  0.82665135123E+03 0.  0.
        3    1    3    3  502    0  0.13262655611E+03  0.19312367034E+03 -0.19326596809E+04  0.19468076453E+04  0.10100000352E+00 0.  1.
       -3    1    3    3    0  502 -0.13262655611E+03 -0.19312367034E+03 -0.11410541668E+03  0.26058897088E+03  0.10100000352E+00 0. -1.
</event>
<event>
 5   0  0.1560728E-02  0.9155721E+03  0.7818609E-02  0.9406322E-01
       -1   -1    0    0    0  501  0.00000000000E+00  0.00000000000E+00  0.31809304253E+03  0.31809304257E+03  0.50400001928E-02 0. -1.
        1   -1    0    0  501    0  0.00000000000E+00  0.00000000000E+00 -0.65882635428E+03  0.65882635430E+03  0.50400001928E-02 0.  1.
    10030    2    1    2    0    0  0.00000000000E+00  0.00000000000E+00 -0.34073331175E+03  0.97691939687E+03  0.91557212619E+03 0.  0.
        4    1    3    3  502    0  0.34298944640E+02  0.18511637994E+02  0.31631758469E+03  0.31871229287E+03  0.12699999809E+01 0. -1.
       -4    1    3    3    0  502 -0.34298944640E+02 -0.18511637994E+02 -0.65705089644E+03  0.65820710400E+03  0.12699999809E+01 0.  1.
</event>
<event>
 5   0  0.2628383E-02  0.9101908E+03  0.7818609E-02  0.9412931E-01
        2   -1    0    0  501    0  0.00000000000E+00  0.00000000000E+00  0.66166669913E+03  0.66166669914E+03  0.25500000920E-02 0.  1.
       -2   -1    0    0    0  501  0.00000000000E+00  0.00000000000E+00 -0.31301532901E+03  0.31301532902E+03  0.25500000920E-02 0. -1.
    10030    2    1    2    0    0  0.00000000000E+00  0.00000000000E+00  0.34865137012E+03  0.97468202816E+03  0.91019079216E+03 0.  0.
        2    1    3    3  502    0 -0.33719826637E+03  0.24926430776E+03  0.36370793501E+03  0.55508452326E+03  0.25500000920E-02 0.  1.
       -2    1    3    3    0  502  0.33719826637E+03 -0.24926430776E+03 -0.15056564888E+02  0.41959750490E+03  0.25500000920E-02 0. -1.
</event>
<event>
 5   0  0.2628383E-02  0.8224693E+03  0.7818609E-02  0.9528051E-01
        2   -1    0    0  501    0  0.00000000000E+00  0.00000000000E+00  0.14177442924E+04  0.14177442924E+04  0.25500000920E-02 0. -1.
       -2   -1    0    0    0  501  0.00000000000E+00  0.00000000000E+00 -0.11928381153E+03  0.11928381156E+03  0.25500000920E-02 0.  1.
    10030    2    1    2    0    0  0.00000000000E+00  0.00000000000E+00  0.12984604808E+04  0.15370281039E+04  0.82246931370E+03 0.  0.
        2    1    3    3  502    0 -0.29623240367E+03  0.97807412262E+01  0.11649316619E+03  0.31846500225E+03  0.25500000920E-02 0.  1.
       -2    1    3    3    0  502  0.29623240367E+03 -0.97807412262E+01  0.11819673146E+04  0.12185631017E+04  0.25500000920E-02 0. -1.
</event>
<event>
 5   0  0.1560728E-02  0.9094609E+03  0.7818609E-02  0.9413831E-01
       -1   -1    0    0    0  501  0.00000000000E+00  0.00000000000E+00  0.19679399683E+03  0.19679399690E+03  0.50400001928E-02 0.  1.
        1   -1    0    0  501    0  0.00000000000E+00  0.00000000000E+00 -0.10507423939E+04  0.10507423939E+04  0.50400001928E-02 0. -1.
    10030    2    1    2    0    0  0.00000000000E+00  0.00000000000E+00 -0.85394839706E+03  0.12475363908E+04  0.90946092909E+03 0.  0.
        4    1    3    3  502    0  0.18494980268E+03 -0.25470431503E+03 -0.87713939645E+03  0.93190978711E+03  0.12699999809E+01 0. -1.
       -4    1    3    3    0  502 -0.18494980268E+03  0.25470431503E+03  0.23190999392E+02  0.31562660369E+03  0.12699999809E+01 0.  1.
</event>
<event>
 5   0  0.1459111E-02  0.9199813E+03  0.7818609E-02  0.9400943E-01
        1   -1    0    0  501    0  0.00000000000E+00  0.00000000000E+00  0.69997942684E+03  0.69997942686E+03  0.50400001928E-02 0. -1.
       -1   -1    0    0    0  501  0.00000000000E+00  0.00000000000E+00 -0.30228230185E+03  0.30228230189E+03  0.50400001928E-02 0.  1.
    10030    2    1    2    0    0  0.00000000000E+00  0.00000000000E+00  0.39769712499E+03  0.10022617287E+04  0.91998128768E+03 0.  0.
        2    1    3    3  502    0 -0.28095223674E+03  0.36591979312E+02 -0.19594013739E+03  0.34447883784E+03  0.25500000920E-02 0.  1.
       -2    1    3    3    0  502  0.28095223674E+03 -0.36591979312E+02  0.59363726237E+03  0.65778289090E+03  0.25500000920E-02 0. -1.
</event>
<event>
 5   0  0.1537870E-02  0.8711493E+03  0.7818609E-02  0.9462383E-01
       -1   -1    0    0    0  501  0.00000000000E+00  0.00000000000E+00  0.13158840587E+03  0.13158840597E+03  0.50400001928E-02 0.  1.
        1   -1    0    0  501    0  0.00000000000E+00  0.00000000000E+00 -0.14418083661E+04  0.14418083661E+04  0.50400001928E-02 0. -1.
    10030    2    1    2    0    0  0.00000000000E+00  0.00000000000E+00 -0.13102199602E+04  0.15733967721E+04  0.87114927435E+03 0.  0.
        5    1    3    3  502    0 -0.18292030201E+03  0.39424399198E+03 -0.70667174772E+03  0.82963558935E+03  0.46999998093E+01 0. -1.
       -5    1    3    3    0  502  0.18292030201E+03 -0.39424399198E+03 -0.60354821253E+03  0.74376118274E+03  0.46999998093E+01 0.  1.
</event>
<event>
 5   0  0.2705111E-02  0.9063652E+03  0.7818609E-02  0.9417659E-01
       -2   -1    0    0    0  501  0.00000000000E+00  0.00000000000E+00  0.54333268715E+03  0.54333268716E+03  0.25500000920E-02 0. -1.
        2   -1    0    0  501    0  0.00000000000E+00  0.00000000000E+00 -0.37799024898E+03  0.37799024899E+03  0.25500000920E-02 0.  1.
    10030    2    1    2    0    0  0.00000000000E+00  0.00000000000E+00  0.16534243817E+03  0.92132293615E+03  0.90636517520E+03 0.  0.
        4    1    3    3  502    0  0.28560529914E+03 -0.31724449873E+03  0.23736142445E+03  0.48842247859E+03  0.12699999809E+01 0. -1.
       -4    1    3    3    0  502 -0.28560529914E+03  0.31724449873E+03 -0.72018986284E+02  0.43290045756E+03  0.12699999809E+01 0.  1.
</event>
<event>
 5   0  0.1537870E-02  0.1026498E+04  0.7818609E-02  0.9279951E-01
       -1   -1    0    0    0  501  0.00000000000E+00  0.00000000000E+00  0.55183140690E+03  0.55183140692E+03  0.50400001928E-02 0.  1.
        1   -1    0    0  501    0  0.00000000000E+00  0.00000000000E+00 -0.47736378594E+03  0.47736378597E+03  0.50400001928E-02 0. -1.
    10030    2    1    2    0    0  0.00000000000E+00  0.00000000000E+00  0.74467620954E+02  0.10291951929E+04  0.10264975979E+04 0.  0.
        5    1    3    3  502    0  0.16928287651E+03  0.33477457897E+03  0.38839919550E+03  0.54000623706E+03  0.46999998093E+01 0.  1.
       -5    1    3    3    0  502 -0.16928287651E+03 -0.33477457897E+03 -0.31393157455E+03  0.48918895582E+03  0.46999998093E+01 0. -1.
</event>
<event>
 5   0  0.2679861E-02  0.9200546E+03  0.7818609E-02  0.9400854E-01
       -2   -1    0    0    0  501  0.00000000000E+00  0.00000000000E+00  0.72913804588E+03  0.72913804588E+03  0.25500000920E-02 0.  1.
        2   -1    0    0  501    0  0.00000000000E+00  0.00000000000E+00 -0.29024012135E+03  0.29024012136E+03  0.25500000920E-02 0. -1.
    10030    2    1    2    0    0  0.00000000000E+00  0.00000000000E+00  0.43889792453E+03  0.10193781672E+04  0.92005459604E+03 0.  0.
        1    1    3    3  502    0  0.22945274365E+03 -0.17058923962E+03  0.61873668299E+03  0.68160423498E+03  0.50400001928E-02 0.  1.
       -1    1    3    3    0  502 -0.22945274365E+03  0.17058923962E+03 -0.17983875847E+03  0.33777393226E+03  0.50400001928E-02 0. -1.
</event>
<event>
 5   0  0.1537870E-02  0.9038483E+03  0.7818609E-02  0.9420784E-01
       -1   -1    0    0    0  501  0.00000000000E+00  0.00000000000E+00  0.22464019932E+03  0.22464019938E+03  0.50400001928E-02 0. -1.
        1   -1    0    0  501    0  0.00000000000E+00  0.00000000000E+00 -0.90916685835E+03  0.90916685836E+03  0.50400001928E-02 0.  1.
    10030    2    1    2    0    0  0.00000000000E+00  0.00000000000E+00 -0.68452665903E+03  0.11338070577E+04  0.90384827116E+03 0.  0.
        5    1    3    3  502    0 -0.28639447931E+03  0.23254891167E+03 -0.14879546265E+02  0.36924827013E+03  0.46999998093E+01 0. -1.
       -5    1    3    3    0  502  0.28639447931E+03 -0.23254891167E+03 -0.66964711276E+03  0.76455878762E+03  0.46999998093E+01 0.  1.
</event>
<event>
 5   0  0.1559275E-02  0.9045415E+03  0.7818609E-02  0.9419922E-01
       -1   -1    0    0    0  501  0.00000000000E+00  0.00000000000E+00  0.21835885928E+03  0.21835885934E+03  0.50400001928E-02 0. -1.
        1   -1    0    0  501    0  0.00000000000E+00  0.00000000000E+00 -0.93675536162E+03  0.93675536164E+03  0.50400001928E-02 0.  1.
    10030    2    1    2    0    0  0.00000000000E+00  0.00000000000E+00 -0.71839650234E+03  0.11551142210E+04  0.90454150205E+03 0.  0.
        1    1    3    3  502    0  0.42230946529E+03  0.15425782217E+03 -0.42186413504E+03  0.61653070373E+03  0.50400001928E-02 0.  1.
       -1    1    3    3    0  502 -0.42230946529E+03 -0.15425782217E+03 -0.29653236730E+03  0.53858351725E+03  0.50400001928E-02 0. -1.
</event>
<event>
 5   0  0.1497410E-02  0.9102043E+03  0.7818609E-02  0.9412915E-01
       -1   -1    0    0    0  501  0.00000000000E+00  0.00000000000E+00  0.22471200467E+03  0.22471200473E+03  0.50400001928E-02 0. -1.
        1   -1    0    0  501    0  0.00000000000E+00  0.00000000000E+00 -0.92170405873E+03  0.92170405874E+03  0.50400001928E-02 0.  1.
    10030    2    1    2    0    0  0.00000000000E+00  0.00000000000E+00 -0.69699205406E+03  0.11464160635E+04  0.91020429969E+03 0.  0.
        3    1    3    3  502    0 -0.59364142104E+02  0.31846992426E+03 -0.75108947013E+03  0.81797469176E+03  0.10100000352E+00 0.  1.
       -3    1    3    3    0  502  0.59364142104E+02 -0.31846992426E+03  0.54097416072E+02  0.32844137171E+03  0.10100000352E+00 0. -1.
</event>
<event>
 5   0  0.1537870E-02  0.7192865E+03  0.7818609E-02  0.9684807E-01
       -1   -1    0    0    0  501  0.00000000000E+00  0.00000000000E+00  0.15168133198E+03  0.15168133206E+03  0.50400001928E-02 0. -1.
        1   -1    0    0  501    0  0.00000000000E+00  0.00000000000E+00 -0.85273027145E+03  0.85273027146E+03  0.50400001928E-02 0.  1.
    10030    2    1    2    0    0  0.00000000000E+00  0.00000000000E+00 -0.70104893947E+03  0.10044116035E+04  0.71928648936E+03 0.  0.
        5    1    3    3  502    0 -0.35801573779E+03  0.32574843313E+02 -0.36338231243E+03  0.51118018732E+03  0.46999998093E+01 0. -1.
       -5    1    3    3    0  502  0.35801573779E+03 -0.32574843313E+02 -0.33766662703E+03  0.49323141621E+03  0.46999998093E+01 0.  1.
</event>
<event>
 5   0  0.2705111E-02  0.8878638E+03  0.7818609E-02  0.9440881E-01
       -2   -1    0    0    0  501  0.00000000000E+00  0.00000000000E+00  0.12059802349E+03  0.12059802352E+03  0.25500000920E-02 0.  1.
        2   -1    0    0  501    0  0.00000000000E+00  0.00000000000E+00 -0.16341523315E+04  0.16341523315E+04  0.25500000920E-02 0. -1.
    10030    2    1    2    0    0  0.00000000000E+00  0.00000000000E+00 -0.15135543080E+04  0.17547503550E+04  0.88786382127E+03 0.  0.
        4    1    3    3  502    0  0.27627504277E+03  0.30217003284E+03 -0.41767330310E+03  0.58488223517E+03  0.12699999809E+01 0.  1.
       -4    1    3    3    0  502 -0.27627504277E+03 -0.30217003284E+03 -0.10958810049E+04  0.11698681198E+04  0.12699999809E+01 0. -1.
</event>
<event>
 5   0  0.2414128E-02  0.8777776E+03  0.7818609E-02  0.9453795E-01
        2   -1    0    0  501    0  0.00000000000E+00  0.00000000000E+00  0.93859342815E+03  0.93859342815E+03  0.25500000920E-02 0. -1.
       -2   -1    0    0    0  501  0.00000000000E+00  0.00000000000E+00 -0.20522559050E+03  0.20522559052E+03  0.25500000920E-02 0.  1.
    10030    2    1    2    0    0  0.00000000000E+00  0.00000000000E+00  0.73336783765E+03  0.11438190187E+04  0.87777762683E+03 0.  0.
        3    1    3    3  502    0 -0.10193674504E+03 -0.25899132896E+03  0.80888078620E+03  0.85542722949E+03  0.10100000352E+00 0. -1.
       -3    1    3    3    0  502  0.10193674504E+03  0.25899132896E+03 -0.75512948555E+02  0.28839178918E+03  0.10100000352E+00 0.  1.
</event>
<event>
 5   0  0.2628383E-02  0.8927097E+03  0.7818609E-02  0.9434741E-01
        2   -1    0    0  501    0  0.00000000000E+00  0.00000000000E+00  0.24304559260E+03  0.24304559261E+03  0.25500000920E-02 0. -1.
       -2   -1    0    0    0  501  0.00000000000E+00  0.00000000000E+00 -0.81973368483E+03  0.81973368484E+03  0.25500000920E-02 0.  1.
    10030    2    1    2    0    0  0.00000000000E+00  0.00000000000E+00 -0.57668809223E+03  0.10627792775E+04  0.89270971590E+03 0.  0.
        2    1    3    3  502    0 -0.20528613307E+03 -0.20591546072E+03  0.11483120189E+03  0.31261762318E+03  0.25500000920E-02 0. -1.
       -2    1    3    3    0  502  0.20528613307E+03  0.20591546072E+03 -0.69151929412E+03  0.75016165427E+03  0.25500000920E-02 0.  1.
</event>
<event>
 5   0  0.2679861E-02  0.9222900E+03  0.7818609E-02  0.9398139E-01
        2   -1    0    0  501    0  0.00000000000E+00  0.00000000000E+00  0.55114228581E+03  0.55114228581E+03  0.25500000920E-02 0.  1.
       -2   -1    0    0    0  501  0.00000000000E+00  0.00000000000E+00 -0.38584361508E+03  0.38584361509E+03  0.25500000920E-02 0. -1.
    10030    2    1    2    0    0  0.00000000000E+00  0.00000000000E+00  0.16529867073E+03  0.93698590090E+03  0.92229004545E+03 0.  0.
        1    1    3    3  502    0  0.10374154860E+03  0.20527614887E+03  0.48871061253E+03  0.54012838198E+03  0.50400001928E-02 0.  1.
       -1    1    3    3    0  502 -0.10374154860E+03 -0.20527614887E+03 -0.32341194180E+03  0.39685751892E+03  0.50400001928E-02 0. -1.
</event>
<event>
 5   0  0.2803717E-02  0.9003152E+03  0.7818609E-02  0.9425187E-01
       -2   -1    0    0    0  501  0.00000000000E+00  0.00000000000E+00  0.11637753034E+03  0.11637753037E+03  0.25500000920E-02 0. -1.
        2   -1    0    0  501    0  0.00000000000E+00  0.00000000000E+00 -0.17412457460E+04  0.17412457460E+04  0.25500000920E-02 0.  1.
    10030    2    1    2    0    0  0.00000000000E+00  0.00000000000E+00 -0.16248682157E+04  0.18576232764E+04  0.90031523293E+03 0.  0.
        5    1    3    3  502    0 -0.17211721587E+03  0.34249585093E+03 -0.32551184500E+03  0.50289938869E+03  0.46999998093E+01 0. -1.
       -5    1    3    3    0  502  0.17211721587E+03 -0.34249585093E+03 -0.12993563707E+04  0.13547238877E+04  0.46999998093E+01 0.  1.
</event>
<event>
 5   0  0.2414128E-02  0.8996661E+03  0.7818609E-02  0.9425999E-01
       -2   -1    0    0    0  501  0.00000000000E+00  0.00000000000E+00  0.58541335511E+03  0.58541335511E+03  0.25500000920E-02 0. -1.
        2   -1    0    0  501    0  0.00000000000E+00  0.00000000000E+00 -0.34565280822E+03  0.34565280823E+03  0.25500000920E-02 0.  1.
    10030    2    1    2    0    0  0.00000000000E+00  0.00000000000E+00  0.23976054689E+03  0.93106616334E+03  0.89966609399E+03 0.  0.
        3    1    3    3  502    0 -0.13483307507E+03  0.15469744169E+03 -0.29438891207E+03  0.35885386768E+03  0.10100000352E+00 0.  1.
       -3    1    3    3    0  502  0.13483307507E+03 -0.15469744169E+03  0.53414945896E+03  0.57221229566E+03  0.10100000352E+00 0. -1.
</event>
<event>
 5   0  0.1559275E-02  0.8950184E+03  0.7818609E-02  0.9431830E-01
       -1   -1    0    0    0  501  0.00000000000E+00  0.00000000000E+00  0.45571767481E+03  0.45571767484E+03  0.50400001928E-02 0.  1.
        1   -1    0    0  501    0  0.00000000000E+00  0.00000000000E+00 -0.43944860404E+03  0.43944860407E+03  0.50400001928E-02 0. -1.
    10030    2    1    2    0    0  0.00000000000E+00  0.00000000000E+00  0.16269070769E+02  0.89516627891E+03  0.89501842676E+03 0.  0.
        1    1    3    3  502    0  0.12651109208E+03  0.31354482235E+03  0.30135370764E+03  0.45291220912E+03  0.50400001928E-02 0.  1.
       -1    1    3    3    0  502 -0.12651109208E+03 -0.31354482235E+03 -0.28508463687E+03  0.44225406979E+03  0.50400001928E-02 0. -1.
</event>
<event>
 5   0  0.1497410E-02  0.8849952E+03  0.7818609E-02  0.9444535E-01
       -1   -1    0    0    0  501  0.00000000000E+00  0.00000000000E+00  0.60051640404E+03  0.60051640406E+03  0.50400001928E-02 0.  1.
        1   -1    0    0  501    0  0.00000000000E+00  0.00000000000E+00 -0.32605959223E+03  0.32605959227E+03  0.50400001928E-02 0. -1.
    10030    2    1    2    0    0  0.00000000000E+00  0.00000000000E+00  0.27445681181E+03  0.92657599634E+03  0.88499521775E+03 0.  0.
        3    1    3    3  502    0  0.44194679505E+03 -0.11056138892E+01  0.16030797537E+03  0.47012429123E+03  0.10100000352E+00 0.  1.
       -3    1    3    3    0  502 -0.44194679505E+03  0.11056138892E+01  0.11414883644E+03  0.45645170511E+03  0.10100000352E+00 0. -1.
</event>
<event>
 5   0  0.1537870E-02  0.8438333E+03  0.7818609E-02  0.9498651E-01
       -1   -1    0    0    0  501  0.00000000000E+00  0.00000000000E+00  0.37390239903E+03  0.37390239907E+03  0.50400001928E-02 0. -1.
        1   -1    0    0  501    0  0.00000000000E+00  0.00000000000E+00 -0.47609665251E+03  0.47609665254E+03  0.50400001928E-02 0.  1.
    10030    2    1    2    0    0  0.00000000000E+00  0.00000000000E+00 -0.10219425348E+03  0.84999905160E+03  0.84383334983E+03 0.  0.
        5    1    3    3  502    0 -0.20904959700E+02 -0.40229418216E+03  0.75174168647E+02  0.40981809619E+03  0.46999998093E+01 0.  1.
       -5    1    3    3    0  502  0.20904959700E+02  0.40229418216E+03 -0.17736842213E+03  0.44018095541E+03  0.46999998093E+01 0. -1.
</event>
<event>
 5   0  0.1497410E-02  0.8944161E+03  0.7818609E-02  0.9432589E-01
       -1   -1    0    0    0  501  0.00000000000E+00  0.00000000000E+00  0.40983133439E+03  0.40983133442E+03  0.50400001928E-02 0.  1.
        1   -1    0    0  501    0  0.00000000000E+00  0.00000000000E+00 -0.48799352364E+03  0.48799352367E+03  0.50400001928E-02 0. -1.
    10030    2    1    2    0    0  0.00000000000E+00  0.00000000000E+00 -0.78162189253E+02  0.89782485809E+03  0.89441609331E+03 0.  0.
        3    1    3    3  502    0  0.15734546560E+03  0.11851900819E+03  0.36393461828E+03  0.41382697765E+03  0.10100000352E+00 0.  1.
       -3    1    3    3    0  502 -0.15734546560E+03 -0.11851900819E+03 -0.44209680753E+03  0.48399788045E+03  0.10100000352E+00 0. -1.
</event>
<event>
 5   0  0.2628383E-02  0.8909929E+03  0.7818609E-02  0.9436911E-01
       -2   -1    0    0    0  501  0.00000000000E+00  0.00000000000E+00  0.16965616905E+03  0.16965616907E+03  0.25500000920E-02 0.  1.
        2   -1    0    0  501    0  0.00000000000E+00  0.00000000000E+00 -0.11698193660E+04  0.11698193661E+04  0.25500000920E-02 0. -1.
    10030    2    1    2    0    0  0.00000000000E+00  0.00000000000E+00 -0.10001631970E+04  0.13394755351E+04  0.89099286673E+03 0.  0.
        2    1    3    3  502    0  0.94583666801E+02 -0.42442840322E+03 -0.35446950163E+03  0.56101173524E+03  0.25500000920E-02 0.  1.
       -2    1    3    3    0  502 -0.94583666801E+02  0.42442840322E+03 -0.64569369536E+03  0.77846379988E+03  0.25500000920E-02 0. -1.
</event>
<event>
 5   0  0.2414128E-02  0.5956082E+03  0.7818609E-02  0.9914560E-01
        2   -1    0    0  501    0  0.00000000000E+00  0.00000000000E+00  0.13840575822E+04  0.13840575822E+04  0.25500000920E-02 0. -1.
       -2   -1    0    0    0  501  0.00000000000E+00  0.00000000000E+00 -0.64077737637E+02  0.64077737687E+02  0.25500000920E-02 0.  1.
    10030    2    1    2    0    0  0.00000000000E+00  0.00000000000E+00  0.13199798445E+04  0.14481353199E+04  0.59560818887E+03 0.  0.
        3    1    3    3  502    0  0.10751151891E+03 -0.64414589236E+02  0.13168129039E+04  0.13227638489E+04  0.10100000352E+00 0. -1.
       -3    1    3    3    0  502 -0.10751151891E+03  0.64414589236E+02  0.31669406348E+01  0.12537147091E+03  0.10100000352E+00 0.  1.
</event>
<event>
 5   0  0.1497410E-02  0.7792108E+03  0.7818609E-02  0.9590606E-01
       -1   -1    0    0    0  501  0.00000000000E+00  0.00000000000E+00  0.11747698458E+03  0.11747698469E+03  0.50400001928E-02 0. -1.
        1   -1    0    0  501    0  0.00000000000E+00  0.00000000000E+00 -0.12921031404E+04  0.12921031405E+04  0.50400001928E-02 0.  1.
    10030    2    1    2    0    0  0.00000000000E+00  0.00000000000E+00 -0.11746261559E+04  0.14095801251E+04  0.77921083358E+03 0.  0.
        3    1    3    3  502    0 -0.82410766547E+02  0.25274523851E+03 -0.11025424086E+04  0.11341390845E+04  0.10100000352E+00 0.  1.
       -3    1    3    3    0  502  0.82410766547E+02 -0.25274523851E+03 -0.72083747225E+02  0.27544104060E+03  0.10100000352E+00 0. -1.
</event>
<event>
 5   0  0.1459111E-02  0.9747251E+03  0.7818609E-02  0.9336709E-01
       -1   -1    0    0    0  501  0.00000000000E+00  0.00000000000E+00  0.13724082354E+03  0.13724082364E+03  0.50400001928E-02 0. -1.
        1   -1    0    0  501    0  0.00000000000E+00  0.00000000000E+00 -0.17306966400E+04  0.17306966400E+04  0.50400001928E-02 0.  1.
    10030    2    1    2    0    0  0.00000000000E+00  0.00000000000E+00 -0.15934558165E+04  0.18679374637E+04  0.97472505308E+03 0.  0.
        2    1    3    3  502    0 -0.39891487925E+02  0.48468134198E+03 -0.85777871997E+03  0.98604851124E+03  0.25500000920E-02 0.  1.
       -2    1    3    3    0  502  0.39891487925E+02 -0.48468134198E+03 -0.73567709651E+03  0.88188895243E+03  0.25500000920E-02 0. -1.
</event>
<event>
 5   0  0.2628383E-02  0.8886202E+03  0.7818609E-02  0.9439920E-01
        2   -1    0    0  501    0  0.00000000000E+00  0.00000000000E+00  0.15871086314E+04  0.15871086314E+04  0.25500000920E-02 0.  1.
       -2   -1    0    0    0  501  0.00000000000E+00  0.00000000000E+00 -0.12438434266E+03  0.12438434269E+03  0.25500000920E-02 0. -1.
    10030    2    1    2    0    0  0.00000000000E+00  0.00000000000E+00  0.14627242887E+04  0.17114929741E+04  0.88862019754E+03 0.  0.
        2    1    3    3  502    0 -0.36393426613E+03 -0.24170852401E+03  0.88712284147E+03  0.98886707727E+03  0.25500000920E-02 0. -1.
       -2    1    3    3    0  502  0.36393426613E+03  0.24170852401E+03  0.57560144725E+03  0.72262589680E+03  0.25500000920E-02 0.  1.
</event>
<event>
 5   0  0.1459111E-02  0.9131218E+03  0.7818609E-02  0.9409326E-01
       -1   -1    0    0    0  501  0.00000000000E+00  0.00000000000E+00  0.22307532565E+03  0.22307532571E+03  0.50400001928E-02 0. -1.
        1   -1    0    0  501    0  0.00000000000E+00  0.00000000000E+00 -0.93442808708E+03  0.93442808710E+03  0.50400001928E-02 0.  1.
    10030    2    1    2    0    0  0.00000000000E+00  0.00000000000E+00 -0.71135276143E+03  0.11575034128E+04  0.91312178786E+03 0.  0.
        2    1    3    3  502    0  0.22657478145E+02 -0.45267148915E+03 -0.28597947918E+03  0.53591893130E+03  0.25500000920E-02 0. -1.
       -2    1    3    3    0  502 -0.22657478145E+02  0.45267148915E+03 -0.42537328224E+03  0.62158448151E+03  0.25500000920E-02 0.  1.
</event>
<event>
 5   0  0.1537870E-02  0.9000885E+03  0.7818609E-02  0.9425471E-01
        1   -1    0    0  501    0  0.00000000000E+00  0.00000000000E+00  0.54084264964E+03  0.54084264966E+03  0.50400001928E-02 0.  1.
       -1   -1    0    0    0  501  0.00000000000E+00  0.00000000000E+00 -0.37448940604E+03  0.37448940607E+03  0.50400001928E-02 0. -1.
    10030    2    1    2    0    0  0.00000000000E+00  0.00000000000E+00  0.16635324360E+03  0.91533205573E+03  0.90008853487E+03 0.  0.
        5    1    3    3  502    0 -0.41460712986E+03  0.17285742619E+03  0.11082138904E+03  0.46269021190E+03  0.46999998093E+01 0. -1.
       -5    1    3    3    0  502  0.41460712986E+03 -0.17285742619E+03  0.55531854558E+02  0.45264184383E+03  0.46999998093E+01 0.  1.
</event>
<event>
 5   0  0.2679861E-02  0.9299134E+03  0.7818609E-02  0.9388942E-01
        2   -1    0    0  501    0  0.00000000000E+00  0.00000000000E+00  0.76068781417E+03  0.76068781417E+03  0.25500000920E-02 0. -1.
       -2   -1    0    0    0  501  0.00000000000E+00  0.00000000000E+00 -0.28419638967E+03  0.28419638968E+03  0.25500000920E-02 0.  1.
    10030    2    1    2    0    0  0.00000000000E+00  0.00000000000E+00  0.47649142450E+03  0.10448842039E+04  0.92991339481E+03 0.  0.
        1    1    3    3  502    0 -0.45932614410E+02 -0.46251268604E+03  0.22416925553E+03  0.51602291127E+03  0.50400001928E-02 0. -1.
       -1    1    3    3    0  502  0.45932614410E+02  0.46251268604E+03  0.25232216897E+03  0.52886129258E+03  0.50400001928E-02 0.  1.
</event>
<event>
 5   0  0.1459111E-02  0.9285233E+03  0.7818609E-02  0.9390612E-01
       -1   -1    0    0    0  501  0.00000000000E+00  0.00000000000E+00  0.44051099968E+03  0.44051099971E+03  0.50400001928E-02 0. -1.
        1   -1    0    0  501    0  0.00000000000E+00  0.00000000000E+00 -0.48929288452E+03  0.48929288454E+03  0.50400001928E-02 0.  1.
    10030    2    1    2    0    0  0.00000000000E+00  0.00000000000E+00 -0.48781884838E+02  0.92980388425E+03  0.92852333890E+03 0.  0.
        2    1    3    3  502    0  0.38556677518E+02  0.24276315955E+03 -0.41878475245E+03  0.48559369632E+03  0.25500000920E-02 0.  1.
       -2    1    3    3    0  502 -0.38556677518E+02 -0.24276315955E+03  0.37000286761E+03  0.44421018793E+03  0.25500000920E-02 0. -1.
</event>
<event>
 5   0  0.1559275E-02  0.9033061E+03  0.7818609E-02  0.9421458E-01
        1   -1    0    0  501    0  0.00000000000E+00  0.00000000000E+00  0.65743254001E+03  0.65743254003E+03  0.50400001928E-02 0. -1.
       -1   -1    0    0    0  501  0.00000000000E+00  0.00000000000E+00 -0.31028350168E+03  0.31028350172E+03  0.50400001928E-02 0.  1.
    10030    2    1    2    0    0  0.00000000000E+00  0.00000000000E+00  0.34714903834E+03  0.96771604175E+03  0.90330608469E+03 0.  0.
        1    1    3    3  502    0 -0.27452341653E+03 -0.22586188346E+03  0.47203195645E+03  0.59092373836E+03  0.50400001928E-02 0. -1.
       -1    1    3    3    0  502  0.27452341653E+03  0.22586188346E+03 -0.12488291812E+03  0.37679230338E+03  0.50400001928E-02 0.  1.
</event>
<event>
 5   0  0.1459111E-02  0.9374816E+03  0.7818609E-02  0.9379903E-01
       -1   -1    0    0    0  501  0.00000000000E+00  0.00000000000E+00  0.41718938198E+03  0.41718938201E+03  0.50400001928E-02 0. -1.
        1   -1    0    0  501    0  0.00000000000E+00  0.00000000000E+00 -0.52666237338E+03  0.52666237340E+03  0.50400001928E-02 0.  1.
    10030    2    1    2    0    0  0.00000000000E+00  0.00000000000E+00 -0.10947299140E+03  0.94385175541E+03  0.93748162667E+03 0.  0.
        2    1    3    3  502    0 -0.12164110720E+03  0.35252663443E+03 -0.34064917575E+03  0.50508756457E+03  0.25500000920E-02 0.  1.
       -2    1    3    3    0  502  0.12164110720E+03 -0.35252663443E+03  0.23117618435E+03  0.43876419083E+03  0.25500000920E-02 0. -1.
</event>
<event>
 5   0  0.2679861E-02  0.9082727E+03  0.7818609E-02  0.9415299E-01
       -2   -1    0    0    0  501  0.00000000000E+00  0.00000000000E+00  0.21215026972E+03  0.21215026974E+03  0.25500000920E-02 0. -1.
        2   -1    0    0  501    0  0.00000000000E+00  0.00000000000E+00 -0.97214033757E+03  0.97214033757E+03  0.25500000920E-02 0.  1.
    10030    2    1    2    0    0  0.00000000000E+00  0.00000000000E+00 -0.75999006785E+03  0.11842906073E+04  0.90827272300E+03 0.  0.
        1    1    3    3  502    0  0.34610434082E+03  0.47054553789E+02 -0.15570505503E+01  0.34929181239E+03  0.50400001928E-02 0. -1.
       -1    1    3    3    0  502 -0.34610434082E+03 -0.47054553789E+02 -0.75843301730E+03  0.83499879492E+03  0.50400001928E-02 0.  1.
</event>
<event>
 5   0  0.2803717E-02  0.9213772E+03  0.7818609E-02  0.9399246E-01
       -2   -1    0    0    0  501  0.00000000000E+00  0.00000000000E+00  0.13441239861E+04  0.13441239861E+04  0.25500000920E-02 0.  1.
        2   -1    0    0  501    0  0.00000000000E+00  0.00000000000E+00 -0.15789762186E+03  0.15789762188E+03  0.25500000920E-02 0. -1.
    10030    2    1    2    0    0  0.00000000000E+00  0.00000000000E+00  0.11862263642E+04  0.15020216080E+04  0.92137718856E+03 0.  0.
        5    1    3    3  502    0  0.10388909397E+03  0.44450453116E+03  0.49216403449E+03  0.67128589208E+03  0.46999998093E+01 0. -1.
       -5    1    3    3    0  502 -0.10388909397E+03 -0.44450453116E+03  0.69406232974E+03  0.83073571588E+03  0.46999998093E+01 0.  1.
</event>
<event>
 5   0  0.1497410E-02  0.8908878E+03  0.7818609E-02  0.9437044E-01
       -1   -1    0    0    0  501  0.00000000000E+00  0.00000000000E+00  0.51162887331E+03  0.51162887334E+03  0.50400001928E-02 0. -1.
        1   -1    0    0  501    0  0.00000000000E+00  0.00000000000E+00 -0.38782073067E+03  0.38782073070E+03  0.50400001928E-02 0.  1.
    10030    2    1    2    0    0  0.00000000000E+00  0.00000000000E+00  0.12380814265E+03  0.89944960404E+03  0.89088783470E+03 0.  0.
        3    1    3    3  502    0  0.10557297783E+02 -0.31555022540E+03 -0.25533998099E+03  0.40605654456E+03  0.10100000352E+00 0.  1.
       -3    1    3    3    0  502 -0.10557297783E+02  0.31555022540E+03  0.37914812363E+03  0.49339305948E+03  0.10100000352E+00 0. -1.
</event>
<event>
 5   0  0.2705111E-02  0.9322711E+03  0.7818609E-02  0.9386116E-01
        2   -1    0    0  501    0  0.00000000000E+00  0.00000000000E+00  0.12210952793E+04  0.12210952793E+04  0.25500000920E-02 0. -1.
       -2   -1    0    0    0  501  0.00000000000E+00  0.00000000000E+00 -0.17794054680E+03  0.17794054682E+03  0.25500000920E-02 0.  1.
    10030    2    1    2    0    0  0.00000000000E+00  0.00000000000E+00  0.10431547325E+04  0.13990358261E+04  0.93227112302E+03 0.  0.
        4    1    3    3  502    0  0.28130259895E+03 -0.49242898277E+02 -0.31283821781E+02  0.28729132533E+03  0.12699999809E+01 0.  1.
       -4    1    3    3    0  502 -0.28130259895E+03  0.49242898277E+02  0.10744385543E+04  0.11117445008E+04  0.12699999809E+01 0. -1.
</event>
<event>
 5   0  0.1560728E-02  0.8606643E+03  0.7818609E-02  0.9476134E-01
        1   -1    0    0  501    0  0.00000000000E+00  0.00000000000E+00  0.37749939887E+03  0.37749939891E+03  0.50400001928E-02 0. -1.
       -1   -1    0    0    0  501  0.00000000000E+00  0.00000000000E+00 -0.49055905378E+03  0.49055905381E+03  0.50400001928E-02 0.  1.
    10030    2    1    2    0    0  0.00000000000E+00  0.00000000000E+00 -0.11305965491E+03  0.86805845272E+03  0.86066427355E+03 0.  0.
        4    1    3    3  502    0 -0.18971932176E+03 -0.20303411253E+03  0.27487776043E+03  0.39086528111E+03  0.12699999809E+01 0. -1.
       -4    1    3    3    0  502  0.18971932176E+03  0.20303411253E+03 -0.38793741534E+03  0.47719317160E+03  0.12699999809E+01 0.  1.
</event>
<event>
 5   0  0.1537870E-02  0.8960301E+03  0.7818609E-02  0.9430558E-01
        1   -1    0    0  501    0  0.00000000000E+00  0.00000000000E+00  0.33728480550E+03  0.33728480554E+03  0.50400001928E-02 0. -1.
       -1   -1    0    0    0  501  0.00000000000E+00  0.00000000000E+00 -0.59509787438E+03  0.59509787440E+03  0.50400001928E-02 0.  1.
    10030    2    1    2    0    0  0.00000000000E+00  0.00000000000E+00 -0.25781306887E+03  0.93238267994E+03  0.89603006834E+03 0.  0.
        5    1    3    3  502    0  0.63344249579E+02  0.39784016085E+02 -0.58852808217E+03  0.59328126162E+03  0.46999998093E+01 0.  1.
       -5    1    3    3    0  502 -0.63344249579E+02 -0.39784016085E+02  0.33071501330E+03  0.33910141832E+03  0.46999998093E+01 0. -1.
</event>
<event>
 5   0  0.1459111E-02  0.9234181E+03  0.7818609E-02  0.9396772E-01
       -1   -1    0    0    0  501  0.00000000000E+00  0.00000000000E+00  0.50673979909E+03  0.50673979911E+03  0.50400001928E-02 0.  1.
        1   -1    0    0  501    0  0.00000000000E+00  0.00000000000E+00 -0.42067990229E+03  0.42067990232E+03  0.50400001928E-02 0. -1.
    10030    2    1    2    0    0  0.00000000000E+00  0.00000000000E+00  0.86059896797E+02  0.92741970143E+03  0.92341810507E+03 0.  0.
        2    1    3    3  502    0 -0.43635753852E+03  0.14914642403E+03  0.20068417365E+02  0.46157913580E+03  0.25500000920E-02 0.  1.
       -2    1    3    3    0  502  0.43635753852E+03 -0.14914642403E+03  0.65991479432E+02  0.46584056563E+03  0.25500000920E-02 0. -1.
</event>
<event>
 5   0  0.1459111E-02  0.8923788E+03  0.7818609E-02  0.9435159E-01
        1   -1    0    0  501    0  0.00000000000E+00  0.00000000000E+00  0.56394267676E+03  0.56394267678E+03  0.50400001928E-02 0. -1.
       -1   -1    0    0    0  501  0.00000000000E+00  0.00000000000E+00 -0.35302346708E+03  0.35302346712E+03  0.50400001928E-02 0.  1.
    10030    2    1    2    0    0  0.00000000000E+00  0.00000000000E+00  0.21091920968E+03  0.91696614390E+03  0.89237884110E+03 0.  0.
        2    1    3    3  502    0 -0.25164779704E+02 -0.34704896719E+03 -0.18153629249E+03  0.39246869590E+03  0.25500000920E-02 0. -1.
       -2    1    3    3    0  502  0.25164779704E+02  0.34704896719E+03  0.39245550217E+03  0.52449744800E+03  0.25500000920E-02 0.  1.
</event>
<event>
 5   0  0.1537870E-02  0.8930139E+03  0.7818609E-02  0.9434357E-01
        1   -1    0    0  501    0  0.00000000000E+00  0.00000000000E+00  0.22302433271E+03  0.22302433276E+03  0.50400001928E-02 0. -1.
       -1   -1    0    0    0  501  0.00000000000E+00  0.00000000000E+00 -0.89393137702E+03  0.89393137703E+03  0.50400001928E-02 0.  1.
    10030    2    1    2    0    0  0.00000000000E+00  0.00000000000E+00 -0.67090704431E+03  0.11169557098E+04  0.89301388318E+03 0.  0.
        5    1    3    3  502    0 -0.35310616542E+02  0.29295276795E+03  0.83653997454E+02  0.30673807259E+03  0.46999998093E+01 0. -1.
       -5    1    3    3    0  502  0.35310616542E+02 -0.29295276795E+03 -0.75456104177E+03  0.81021763721E+03  0.46999998093E+01 0.  1.
</event>
<event>
 5   0  0.1537870E-02  0.9000909E+03  0.7818609E-02  0.9425468E-01
       -1   -1    0    0    0  501  0.00000000000E+00  0.00000000000E+00  0.46587408162E+03  0.46587408164E+03  0.50400001928E-02 0. -1.
        1   -1    0    0  501    0  0.00000000000E+00  0.00000000000E+00 -0.43475461862E+03  0.43475461865E+03  0.50400001928E-02 0.  1.
    10030    2    1    2    0    0  0.00000000000E+00  0.00000000000E+00  0.31119462992E+02  0.90062870029E+03  0.90009090364E+03 0.  0.
        5    1    3    3  502    0  0.53968653888E+02  0.22581945672E+03  0.40129204498E+03  0.46364257570E+03  0.46999998093E+01 0. -1.
       -5    1    3    3    0  502 -0.53968653888E+02 -0.22581945672E+03 -0.37017258199E+03  0.43698612460E+03  0.46999998093E+01 0.  1.
</event>
<event>
 5   0  0.1459111E-02  0.8882326E+03  0.7818609E-02  0.9440412E-01
       -1   -1    0    0    0  501  0.00000000000E+00  0.00000000000E+00  0.21518817415E+03  0.21518817421E+03  0.50400001928E-02 0. -1.
        1   -1    0    0  501    0  0.00000000000E+00  0.00000000000E+00 -0.91658985645E+03  0.91658985647E+03  0.50400001928E-02 0.  1.
    10030    2    1    2    0    0  0.00000000000E+00  0.00000000000E+00 -0.70140168230E+03  0.11317780307E+04  0.88823262200E+03 0.  0.
        2    1    3    3  502    0  0.36981325959E+03  0.11169824579E+03 -0.62986487695E+03  0.73889654777E+03  0.25500000920E-02 0.  1.
       -2    1    3    3    0  502 -0.36981325959E+03 -0.11169824579E+03 -0.71536805348E+02  0.39288148290E+03  0.25500000920E-02 0. -1.
</event>
<event>
 5   0  0.1459111E-02  0.9075564E+03  0.7818609E-02  0.9416185E-01
        1   -1    0    0  501    0  0.00000000000E+00  0.00000000000E+00  0.29406324883E+03  0.29406324888E+03  0.50400001928E-02 0. -1.
       -1   -1    0    0    0  501  0.00000000000E+00  0.00000000000E+00 -0.70023934384E+03  0.70023934386E+03  0.50400001928E-02 0.  1.
    10030    2    1    2    0    0  0.00000000000E+00  0.00000000000E+00 -0.40617609501E+03  0.99430259273E+03  0.90755640362E+03 0.  0.
        2    1    3    3  502    0 -0.30639750348E+03  0.94263174823E+02  0.14877923690E+03  0.35341227710E+03  0.25500000920E-02 0. -1.
       -2    1    3    3    0  502  0.30639750348E+03 -0.94263174823E+02 -0.55495533190E+03  0.64089031564E+03  0.25500000920E-02 0.  1.
</event>
<event>
 5   0  0.1040163E-02  0.9041536E+03  0.7818609E-02  0.9420404E-01
       -3   -1    0    0    0  501  0.00000000000E+00  0.00000000000E+00  0.14972105693E+03  0.14972109100E+03  0.10100000352E+00 0.  1.
        3   -1    0    0  501    0  0.00000000000E+00  0.00000000000E+00 -0.13650278063E+04  0.13650278101E+04  0.10100000352E+00 0. -1.
    10030    2    1    2    0    0  0.00000000000E+00  0.00000000000E+00 -0.12153067494E+04  0.15147489011E+04  0.90415360318E+03 0.  0.
        5    1    3    3  502    0  0.41395180058E+03  0.16102780902E+03 -0.74847313837E+03  0.87035635078E+03  0.46999998093E+01 0. -1.
       -5    1    3    3    0  502 -0.41395180058E+03 -0.16102780902E+03 -0.46683361103E+03  0.64439255028E+03  0.46999998093E+01 0.  1.
</event>
<event>
 5   0  0.1040163E-02  0.8894211E+03  0.7818609E-02  0.9438903E-01
        4   -1    0    0  501    0  0.00000000000E+00  0.00000000000E+00  0.15337627450E+04  0.15337632708E+04  0.12699999809E+01 0.  1.
       -4   -1    0    0    0  501  0.00000000000E+00  0.00000000000E+00 -0.12893899944E+03  0.12894525379E+03  0.12699999809E+01 0. -1.
    10030    2    1    2    0    0  0.00000000000E+00  0.00000000000E+00  0.14048237456E+04  0.16627085246E+04  0.88942109355E+03 0.  0.
        4    1    3    3  502    0  0.42844498045E+03  0.11870593985E+03  0.72198792335E+03  0.84789408288E+03  0.12699999809E+01 0.  1.
       -4    1    3    3    0  502 -0.42844498045E+03 -0.11870593985E+03  0.68283582225E+03  0.81481444174E+03  0.12699999809E+01 0. -1.
</event>
<event>
 5   0  0.2679861E-02  0.8981162E+03  0.7818609E-02  0.9427939E-01
        2   -1    0    0  501    0  0.00000000000E+00  0.00000000000E+00  0.52375511801E+03  0.52375511802E+03  0.25500000920E-02 0.  1.
       -2   -1    0    0    0  501  0.00000000000E+00  0.00000000000E+00 -0.38501426350E+03  0.38501426351E+03  0.25500000920E-02 0. -1.
    10030    2    1    2    0    0  0.00000000000E+00  0.00000000000E+00  0.13874085451E+03  0.90876938152E+03  0.89811623083E+03 0.  0.
        1    1    3    3  502    0 -0.13943527742E+03 -0.20921039141E+03 -0.30712099312E+03  0.39690614621E+03  0.50400001928E-02 0.  1.
       -1    1    3    3    0  502  0.13943527742E+03  0.20921039141E+03  0.44586184763E+03  0.51186323531E+03  0.50400001928E-02 0. -1.
</event>
<event>
 5   0  0.1537870E-02  0.9029191E+03  0.7818609E-02  0.9421940E-01
       -1   -1    0    0    0  501  0.00000000000E+00  0.00000000000E+00  0.33631599174E+03  0.33631599177E+03  0.50400001928E-02 0.  1.
        1   -1    0    0  501    0  0.00000000000E+00  0.00000000000E+00 -0.60602454761E+03  0.60602454763E+03  0.50400001928E-02 0. -1.
    10030    2    1    2    0    0  0.00000000000E+00  0.00000000000E+00 -0.26970855587E+03  0.94234053940E+03  0.90291914759E+03 0.  0.
        5    1    3    3  502    0 -0.25853834409E+03  0.56123128746E+02  0.24690530774E+03  0.36190634415E+03  0.46999998093E+01 0.  1.
       -5    1    3    3    0  502  0.25853834409E+03 -0.56123128746E+02 -0.51661386361E+03  0.58043419525E+03  0.46999998093E+01 0. -1.
</event>
<event>
 5   0  0.1459111E-02  0.9063068E+03  0.7818609E-02  0.9417732E-01
        1   -1    0    0  501    0  0.00000000000E+00  0.00000000000E+00  0.14387675469E+04  0.14387675469E+04  0.50400001928E-02 0.  1.
       -1   -1    0    0    0  501  0.00000000000E+00  0.00000000000E+00 -0.14272493347E+03  0.14272493356E+03  0.50400001928E-02 0. -1.
    10030    2    1    2    0    0  0.00000000000E+00  0.00000000000E+00  0.12960426134E+04  0.15814924804E+04  0.90630679682E+03 0.  0.
        2    1    3    3  502    0  0.92056845471E+02 -0.43389445154E+03  0.48611196926E+03  0.65806056298E+03  0.25500000920E-02 0. -1.
       -2    1    3    3    0  502 -0.92056845471E+02  0.43389445154E+03  0.80993064414E+03  0.92343191747E+03  0.25500000920E-02 0.  1.
</event>
<event>
 5   0  0.1559275E-02  0.9021400E+03  0.7818609E-02  0.9422910E-01
        1   -1    0    0  501    0  0.00000000000E+00  0.00000000000E+00  0.86053188206E+03  0.86053188208E+03  0.50400001928E-02 0.  1.
       -1   -1    0    0    0  501  0.00000000000E+00  0.00000000000E+00 -0.23643997886E+03  0.23643997892E+03  0.50400001928E-02 0. -1.
    10030    2    1    2    0    0  0.00000000000E+00  0.00000000000E+00  0.62409190320E+03  0.10969718610E+04  0.90213998924E+03 0.  0.
        1    1    3    3  502    0  0.48703230621E+02  0.10186465897E+03  0.84307075470E+03  0.85059785496E+03  0.50400001928E-02 0.  1.
       -1    1    3    3    0  502 -0.48703230621E+02 -0.10186465897E+03 -0.21897885150E+03  0.24637400603E+03  0.50400001928E-02 0. -1.
</event>
<event>
 5   0  0.2803717E-02  0.8770228E+03  0.7818609E-02  0.9454769E-01
       -2   -1    0    0    0  501  0.00000000000E+00  0.00000000000E+00  0.35363586961E+03  0.35363586962E+03  0.25500000920E-02 0. -1.
        2   -1    0    0  501    0  0.00000000000E+00  0.00000000000E+00 -0.54375770273E+03  0.54375770274E+03  0.25500000920E-02 0.  1.
    10030    2    1    2    0    0  0.00000000000E+00  0.00000000000E+00 -0.19012183313E+03  0.89739357236E+03  0.87702275471E+03 0.  0.
        5    1    3    3  502    0  0.41697882789E+03  0.34983922828E+02 -0.22915803894E+03  0.47710660714E+03  0.46999998093E+01 0.  1.
       -5    1    3    3    0  502 -0.41697882789E+03 -0.34983922828E+02  0.39036205819E+02  0.42028696521E+03  0.46999998093E+01 0. -1.
</event>
<event>
 5   0  0.2803717E-02  0.9012343E+03  0.7818609E-02  0.9424040E-01
       -2   -1    0    0    0  501  0.00000000000E+00  0.00000000000E+00  0.20185546019E+03  0.20185546021E+03  0.25500000920E-02 0.  1.
        2   -1    0    0  501    0  0.00000000000E+00  0.00000000000E+00 -0.10059466036E+04  0.10059466036E+04  0.25500000920E-02 0. -1.
    10030    2    1    2    0    0  0.00000000000E+00  0.00000000000E+00 -0.80409114341E+03  0.12078020638E+04  0.90123429720E+03 0.  0.
        5    1    3    3  502    0  0.36892778436E+03 -0.20546295953E+03 -0.19137537492E+03  0.46364788573E+03  0.46999998093E+01 0.  1.
       -5    1    3    3    0  502 -0.36892778436E+03  0.20546295953E+03 -0.61271576849E+03  0.74415417809E+03  0.46999998093E+01 0. -1.
</event>
<event>
 5   0  0.2705111E-02  0.8977331E+03  0.7818609E-02  0.9428420E-01
        2   -1    0    0  501    0  0.00000000000E+00  0.00000000000E+00  0.59177197238E+03  0.59177197239E+03  0.25500000920E-02 0.  1.
       -2   -1    0    0    0  501  0.00000000000E+00  0.00000000000E+00 -0.34047095476E+03  0.34047095477E+03  0.25500000920E-02 0. -1.
    10030    2    1    2    0    0  0.00000000000E+00  0.00000000000E+00  0.25130101762E+03  0.93224292715E+03  0.89773307490E+03 0.  0.
        4    1    3    3  502    0 -0.61345621992E+02  0.27900116419E+03 -0.23388806705E+03  0.36920207985E+03  0.12699999809E+01 0. -1.
       -4    1    3    3    0  502  0.61345621992E+02 -0.27900116419E+03  0.48518908467E+03  0.56304084731E+03  0.12699999809E+01 0.  1.
</event>
<event>
 5   0  0.1537870E-02  0.8948812E+03  0.7818609E-02  0.9432003E-01
        1   -1    0    0  501    0  0.00000000000E+00  0.00000000000E+00  0.61515291836E+03  0.61515291839E+03  0.50400001928E-02 0. -1.
       -1   -1    0    0    0  501  0.00000000000E+00  0.00000000000E+00 -0.32545256024E+03  0.32545256028E+03  0.50400001928E-02 0.  1.
    10030    2    1    2    0    0  0.00000000000E+00  0.00000000000E+00  0.28970035813E+03  0.94060547866E+03  0.89488120384E+03 0.  0.
        5    1    3    3  502    0 -0.39763309178E+03  0.14833331738E+03  0.29374314568E+03  0.51616080281E+03  0.46999998093E+01 0. -1.
       -5    1    3    3    0  502  0.39763309178E+03 -0.14833331738E+03 -0.40427875555E+01  0.42444467585E+03  0.46999998093E+01 0.  1.
</event>
<event>
 5   0  0.2628383E-02  0.9766813E+03  0.7818609E-02  0.9334497E-01
        2   -1    0    0  501    0  0.00000000000E+00  0.00000000000E+00  0.29570757403E+03  0.29570757404E+03  0.25500000920E-02 0.  1.
       -2   -1    0    0    0  501  0.00000000000E+00  0.00000000000E+00 -0.80646083431E+03  0.80646083431E+03  0.25500000920E-02 0. -1.
    10030    2    1    2    0    0  0.00000000000E+00  0.00000000000E+00 -0.51075326028E+03  0.11021684084E+04  0.97668127221E+03 0.  0.
        2    1    3    3  502    0  0.40683550896E+03  0.14139542167E+03 -0.51509644492E+03  0.67144035044E+03  0.25500000920E-02 0. -1.
       -2    1    3    3    0  502 -0.40683550896E+03 -0.14139542167E+03  0.43431846453E+01  0.43072805792E+03  0.25500000920E-02 0.  1.
</event>
<event>
 5   0  0.1459111E-02  0.8820467E+03  0.7818609E-02  0.9448306E-01
        1   -1    0    0  501    0  0.00000000000E+00  0.00000000000E+00  0.13055474854E+04  0.13055474854E+04  0.50400001928E-02 0.  1.
       -1   -1    0    0    0  501  0.00000000000E+00  0.00000000000E+00 -0.14898085557E+03  0.14898085565E+03  0.50400001928E-02 0. -1.
    10030    2    1    2    0    0  0.00000000000E+00  0.00000000000E+00  0.11565666298E+04  0.14545283410E+04  0.88204666866E+03 0.  0.
        2    1    3    3  502    0 -0.24715471893E+03 -0.19337871443E+03  0.10892743510E+04  0.11335781376E+04  0.25500000920E-02 0.  1.
       -2    1    3    3    0  502  0.24715471893E+03  0.19337871443E+03  0.67292278788E+02  0.32095020342E+03  0.25500000920E-02 0. -1.
</event>
<event>
 5   0  0.2628383E-02  0.8888854E+03  0.7818609E-02  0.9439583E-01
        2   -1    0    0  501    0  0.00000000000E+00  0.00000000000E+00  0.96191396512E+03  0.96191396512E+03  0.25500000920E-02 0. -1.
       -2   -1    0    0    0  501  0.00000000000E+00  0.00000000000E+00 -0.20535029694E+03  0.20535029696E+03  0.25500000920E-02 0.  1.
    10030    2    1    2    0    0  0.00000000000E+00  0.00000000000E+00  0.75656366818E+03  0.11672642621E+04  0.88888541079E+03 0.  0.
        2    1    3    3  502    0 -0.13227243844E+03 -0.40440431220E+03  0.54691382325E+03  0.69293114793E+03  0.25500000920E-02 0. -1.
       -2    1    3    3    0  502  0.13227243844E+03  0.40440431220E+03  0.20964984493E+03  0.47433311415E+03  0.25500000920E-02 0.  1.
</event>
<event>
 5   0  0.1537870E-02  0.9052170E+03  0.7818609E-02  0.9419083E-01
       -1   -1    0    0    0  501  0.00000000000E+00  0.00000000000E+00  0.14745159222E+03  0.14745159231E+03  0.50400001928E-02 0. -1.
        1   -1    0    0  501    0  0.00000000000E+00  0.00000000000E+00 -0.13892997185E+04  0.13892997185E+04  0.50400001928E-02 0.  1.
    10030    2    1    2    0    0  0.00000000000E+00  0.00000000000E+00 -0.12418481263E+04  0.15367513108E+04  0.90521700303E+03 0.  0.
        5    1    3    3  502    0  0.94543290070E+02 -0.19308012256E+03 -0.12970407360E+04  0.13147452713E+04  0.46999998093E+01 0.  1.
       -5    1    3    3    0  502 -0.94543290070E+02  0.19308012256E+03  0.55192609753E+02  0.22200603954E+03  0.46999998093E+01 0. -1.
</event>
<event>
 5   0  0.2705111E-02  0.8197794E+03  0.7818609E-02  0.9531820E-01
        2   -1    0    0  501    0  0.00000000000E+00  0.00000000000E+00  0.90769982799E+03  0.90769982799E+03  0.25500000920E-02 0. -1.
       -2   -1    0    0    0  501  0.00000000000E+00  0.00000000000E+00 -0.18509376330E+03  0.18509376332E+03  0.25500000920E-02 0.  1.
    10030    2    1    2    0    0  0.00000000000E+00  0.00000000000E+00  0.72260606469E+03  0.10927935913E+04  0.81977942673E+03 0.  0.
        4    1    3    3  502    0 -0.21323167958E+03  0.27529846840E+03  0.64953120595E+03  0.73698670021E+03  0.12699999809E+01 0.  1.
       -4    1    3    3    0  502  0.21323167958E+03 -0.27529846840E+03  0.73074858732E+02  0.35580689110E+03  0.12699999809E+01 0. -1.
</event>
<event>
 5   0  0.1559275E-02  0.9159928E+03  0.7818609E-02  0.9405807E-01
       -1   -1    0    0    0  501  0.00000000000E+00  0.00000000000E+00  0.15000113770E+03  0.15000113779E+03  0.50400001928E-02 0.  1.
        1   -1    0    0  501    0  0.00000000000E+00  0.00000000000E+00 -0.13983941884E+04  0.13983941884E+04  0.50400001928E-02 0. -1.
    10030    2    1    2    0    0  0.00000000000E+00  0.00000000000E+00 -0.12483930507E+04  0.15483953262E+04  0.91599283685E+03 0.  0.
        1    1    3    3  502    0  0.15576403167E+03  0.10574031056E+03 -0.13299613108E+04  0.13432202110E+04  0.50400001928E-02 0. -1.
       -1    1    3    3    0  502 -0.15576403167E+03 -0.10574031056E+03  0.81568260098E+02  0.20517511526E+03  0.50400001928E-02 0.  1.
</event>
<event>
 5   0  0.1537870E-02  0.8988637E+03  0.7818609E-02  0.9427003E-01
        1   -1    0    0  501    0  0.00000000000E+00  0.00000000000E+00  0.12985404392E+04  0.12985404393E+04  0.50400001928E-02 0.  1.
       -1   -1    0    0    0  501  0.00000000000E+00  0.00000000000E+00 -0.15555079576E+03  0.15555079584E+03  0.50400001928E-02 0. -1.
    10030    2    1    2    0    0  0.00000000000E+00  0.00000000000E+00  0.11429896435E+04  0.14540912351E+04  0.89886372431E+03 0.  0.
        5    1    3    3  502    0  0.36832769321E+03  0.40472637013E+02  0.98286015642E+03  0.10503996863E+04  0.46999998093E+01 0.  1.
       -5    1    3    3    0  502 -0.36832769321E+03 -0.40472637013E+02  0.16012948706E+03  0.40369154878E+03  0.46999998093E+01 0. -1.
</event>
<event>
 5   0  0.1560728E-02  0.8904003E+03  0.7818609E-02  0.9437662E-01
       -1   -1    0    0    0  501  0.00000000000E+00  0.00000000000E+00  0.42759822343E+03  0.42759822346E+03  0.50400001928E-02 0.  1.
        1   -1    0    0  501    0  0.00000000000E+00  0.00000000000E+00 -0.46352669070E+03  0.46352669073E+03  0.50400001928E-02 0. -1.
    10030    2    1    2    0    0  0.00000000000E+00  0.00000000000E+00 -0.35928467272E+02  0.89112491418E+03  0.89040033575E+03 0.  0.
        4    1    3    3  502    0 -0.39802820741E+03  0.10537130863E+03 -0.18743014071E+03  0.45239500121E+03  0.12699999809E+01 0. -1.
       -4    1    3    3    0  502  0.39802820741E+03 -0.10537130863E+03  0.15150167343E+03  0.43872991297E+03  0.12699999809E+01 0.  1.
</event>
<event>
 5   0  0.2628383E-02  0.8846542E+03  0.7818609E-02  0.9444970E-01
       -2   -1    0    0    0  501  0.00000000000E+00  0.00000000000E+00  0.16432090361E+03  0.16432090363E+03  0.25500000920E-02 0. -1.
        2   -1    0    0  501    0  0.00000000000E+00  0.00000000000E+00 -0.11906777426E+04  0.11906777426E+04  0.25500000920E-02 0.  1.
    10030    2    1    2    0    0  0.00000000000E+00  0.00000000000E+00 -0.10263568390E+04  0.13549986462E+04  0.88465415296E+03 0.  0.
        2    1    3    3  502    0  0.41364631708E+03 -0.15466803369E+03 -0.47480200982E+03  0.64843074018E+03  0.25500000920E-02 0. -1.
       -2    1    3    3    0  502 -0.41364631708E+03  0.15466803369E+03 -0.55155482918E+03  0.70656790606E+03  0.25500000920E-02 0.  1.
</event>
<event>
 5   0  0.2414128E-02  0.9142391E+03  0.7818609E-02  0.9407955E-01
       -2   -1    0    0    0  501  0.00000000000E+00  0.00000000000E+00  0.43735475373E+03  0.43735475373E+03  0.25500000920E-02 0. -1.
        2   -1    0    0  501    0  0.00000000000E+00  0.00000000000E+00 -0.47777757895E+03  0.47777757895E+03  0.25500000920E-02 0.  1.
    10030    2    1    2    0    0  0.00000000000E+00  0.00000000000E+00 -0.40422825219E+02  0.91513233269E+03  0.91423912710E+03 0.  0.
        3    1    3    3  502    0  0.13898012935E+03  0.43394303598E+03 -0.56801884652E+02  0.45918242467E+03  0.10100000352E+00 0.  1.
       -3    1    3    3    0  502 -0.13898012935E+03 -0.43394303598E+03  0.16379059433E+02  0.45594990801E+03  0.10100000352E+00 0. -1.
</event>
<event>
 5   0  0.1497410E-02  0.8740006E+03  0.7818609E-02  0.9458678E-01
        1   -1    0    0  501    0  0.00000000000E+00  0.00000000000E+00  0.35283954477E+03  0.35283954481E+03  0.50400001928E-02 0. -1.
       -1   -1    0    0    0  501  0.00000000000E+00  0.00000000000E+00 -0.54123548274E+03  0.54123548277E+03  0.50400001928E-02 0.  1.
    10030    2    1    2    0    0  0.00000000000E+00  0.00000000000E+00 -0.18839593797E+03  0.89407502758E+03  0.87400064388E+03 0.  0.
        3    1    3    3  502    0  0.23928396832E+03 -0.11814267079E+03  0.25980639027E+03  0.37244312154E+03  0.10100000352E+00 0. -1.
       -3    1    3    3    0  502 -0.23928396832E+03  0.11814267079E+03 -0.44820232824E+03  0.52163190604E+03  0.10100000352E+00 0.  1.
</event>
<event>
 5   0  0.2803717E-02  0.9420087E+03  0.7818609E-02  0.9374540E-01
       -2   -1    0    0    0  501  0.00000000000E+00  0.00000000000E+00  0.32551683091E+03  0.32551683092E+03  0.25500000920E-02 0.  1.
        2   -1    0    0  501    0  0.00000000000E+00  0.00000000000E+00 -0.68151645588E+03  0.68151645588E+03  0.25500000920E-02 0. -1.
    10030    2    1    2    0    0  0.00000000000E+00  0.00000000000E+00 -0.35599962497E+03  0.10070332868E+04  0.94200865587E+03 0.  0.
        5    1    3    3  502    0 -0.93876201385E+02  0.32293876931E+03  0.17448892598E+03  0.37890719866E+03  0.46999998093E+01 0.  1.
       -5    1    3    3    0  502  0.93876201385E+02 -0.32293876931E+03 -0.53048855095E+03  0.62812608814E+03  0.46999998093E+01 0. -1.
</event>
<event>
 5   0  0.2803717E-02  0.9095018E+03  0.7818609E-02  0.9413781E-01
        2   -1    0    0  501    0  0.00000000000E+00  0.00000000000E+00  0.77219485960E+03  0.77219485960E+03  0.25500000920E-02 0. -1.
       -2   -1    0    0    0  501  0.00000000000E+00  0.00000000000E+00 -0.26780595721E+03  0.26780595722E+03  0.25500000920E-02 0.  1.
    10030    2    1    2    0    0  0.00000000000E+00  0.00000000000E+00  0.50438890239E+03  0.10400008168E+04  0.90950180546E+03 0.  0.
        5    1    3    3  502    0  0.18195246436E+01  0.21630984483E+03 -0.20517492146E+03  0.29818131738E+03  0.46999998093E+01 0.  1.
       -5    1    3    3    0  502 -0.18195246436E+01 -0.21630984483E+03  0.70956382385E+03  0.74181949944E+03  0.46999998093E+01 0. -1.
</event>
<event>
 5   0  0.2803717E-02  0.8732168E+03  0.7818609E-02  0.9459695E-01
       -2   -1    0    0    0  501  0.00000000000E+00  0.00000000000E+00  0.68757157593E+03  0.68757157593E+03  0.25500000920E-02 0.  1.
        2   -1    0    0  501    0  0.00000000000E+00  0.00000000000E+00 -0.27724662919E+03  0.27724662920E+03  0.25500000920E-02 0. -1.
    10030    2    1    2    0    0  0.00000000000E+00  0.00000000000E+00  0.41032494674E+03  0.96481820513E+03  0.87321681560E+03 0.  0.
        5    1    3    3  502    0  0.36401786125E+03  0.16929265541E+03  0.15596074553E+02  0.40178891725E+03  0.46999998093E+01 0. -1.
       -5    1    3    3    0  502 -0.36401786125E+03 -0.16929265541E+03  0.39472887219E+03  0.56302928789E+03  0.46999998093E+01 0.  1.
</event>
<event>
 5   0  0.1560728E-02  0.9116911E+03  0.7818609E-02  0.9411084E-01
       -1   -1    0    0    0  501  0.00000000000E+00  0.00000000000E+00  0.29111275003E+03  0.29111275007E+03  0.50400001928E-02 0.  1.
        1   -1    0    0  501    0  0.00000000000E+00  0.00000000000E+00 -0.71379619411E+03  0.71379619413E+03  0.50400001928E-02 0. -1.
    10030    2    1    2    0    0  0.00000000000E+00  0.00000000000E+00 -0.42268344408E+03  0.10049089442E+04  0.91169111668E+03 0.  0.
        4    1    3    3  502    0  0.41836784102E+03 -0.12154795647E+03 -0.63509033010E+02  0.44027328592E+03  0.12699999809E+01 0.  1.
       -4    1    3    3    0  502 -0.41836784102E+03  0.12154795647E+03 -0.35917441107E+03  0.56463565827E+03  0.12699999809E+01 0. -1.
</event>
<event>
 5   0  0.2705111E-02  0.9542017E+03  0.7818609E-02  0.9360253E-01
        2   -1    0    0  501    0  0.00000000000E+00  0.00000000000E+00  0.33897662184E+03  0.33897662185E+03  0.25500000920E-02 0. -1.
       -2   -1    0    0    0  501  0.00000000000E+00  0.00000000000E+00 -0.67150709222E+03  0.67150709222E+03  0.25500000920E-02 0.  1.
    10030    2    1    2    0    0  0.00000000000E+00  0.00000000000E+00 -0.33253047038E+03  0.10104837141E+04  0.95420166772E+03 0.  0.
        4    1    3    3  502    0 -0.41014635431E+03 -0.18956581448E+03 -0.40354684448E+01  0.45185520677E+03  0.12699999809E+01 0. -1.
       -4    1    3    3    0  502  0.41014635431E+03  0.18956581448E+03 -0.32849500193E+03  0.55862850730E+03  0.12699999809E+01 0.  1.
</event>
<event>
 5   0  0.1560728E-02  0.8814660E+03  0.7818609E-02  0.9449051E-01
       -1   -1    0    0    0  501  0.00000000000E+00  0.00000000000E+00  0.33425893221E+03  0.33425893225E+03  0.50400001928E-02 0.  1.
        1   -1    0    0  501    0  0.00000000000E+00  0.00000000000E+00 -0.58112304245E+03  0.58112304247E+03  0.50400001928E-02 0. -1.
    10030    2    1    2    0    0  0.00000000000E+00  0.00000000000E+00 -0.24686411024E+03  0.91538197473E+03  0.88146597820E+03 0.  0.
        4    1    3    3  502    0 -0.55982139188E+02  0.53717947496E+02 -0.57397344005E+03  0.57919490724E+03  0.12699999809E+01 0. -1.
       -4    1    3    3    0  502  0.55982139188E+02 -0.53717947496E+02  0.32710932981E+03  0.33618706748E+03  0.12699999809E+01 0.  1.
</event>
<event>
 5   0  0.1040163E-02  0.9275043E+03  0.7818609E-02  0.9391838E-01
       -3   -1    0    0    0  501  0.00000000000E+00  0.00000000000E+00  0.28425174812E+03  0.28425176606E+03  0.10100000352E+00 0. -1.
        3   -1    0    0  501    0  0.00000000000E+00  0.00000000000E+00 -0.75660416436E+03  0.75660417110E+03  0.10100000352E+00 0.  1.
    10030    2    1    2    0    0  0.00000000000E+00  0.00000000000E+00 -0.47235241624E+03  0.10408559372E+04  0.92750432711E+03 0.  0.
        4    1    3    3  502    0 -0.37768231212E+03  0.16939395182E+03 -0.15126617110E+01  0.41393494761E+03  0.12699999809E+01 0. -1.
       -4    1    3    3    0  502  0.37768231212E+03 -0.16939395182E+03 -0.47083975453E+03  0.62692098956E+03  0.12699999809E+01 0.  1.
</event>
<event>
 5   0  0.1559275E-02  0.9031531E+03  0.7818609E-02  0.9421648E-01
        1   -1    0    0  501    0  0.00000000000E+00  0.00000000000E+00  0.56545958857E+03  0.56545958859E+03  0.50400001928E-02 0.  1.
       -1   -1    0    0    0  501  0.00000000000E+00  0.00000000000E+00 -0.36062947653E+03  0.36062947657E+03  0.50400001928E-02 0. -1.
    10030    2    1    2    0    0  0.00000000000E+00  0.00000000000E+00  0.20483011204E+03  0.92608906516E+03  0.90315313309E+03 0.  0.
        1    1    3    3  502    0 -0.11136025341E+03 -0.23992215025E+02  0.55048429078E+03  0.56214738889E+03  0.50400001928E-02 0.  1.
       -1    1    3    3    0  502  0.11136025341E+03  0.23992215025E+02 -0.34565417874E+03  0.36394167627E+03  0.50400001928E-02 0. -1.
</event>
<event>
 5   0  0.1459111E-02  0.8984056E+03  0.7818609E-02  0.9427577E-01
       -1   -1    0    0    0  501  0.00000000000E+00  0.00000000000E+00  0.31537260712E+03  0.31537260716E+03  0.50400001928E-02 0.  1.
        1   -1    0    0  501    0  0.00000000000E+00  0.00000000000E+00 -0.63982460540E+03  0.63982460542E+03  0.50400001928E-02 0. -1.
    10030    2    1    2    0    0  0.00000000000E+00  0.00000000000E+00 -0.32445199827E+03  0.95519721258E+03  0.89840559645E+03 0.  0.
        2    1    3    3  502    0 -0.10395839380E+03  0.32840239073E+03  0.14431842255E+03  0.37347461088E+03  0.25500000920E-02 0.  1.
       -2    1    3    3    0  502  0.10395839380E+03 -0.32840239073E+03 -0.46877042082E+03  0.58172260170E+03  0.25500000920E-02 0. -1.
</event>
<event>
 5   0  0.2705111E-02  0.9006733E+03  0.7818609E-02  0.9424740E-01
       -2   -1    0    0    0  501  0.00000000000E+00  0.00000000000E+00  0.18713105622E+03  0.18713105624E+03  0.25500000920E-02 0.  1.
        2   -1    0    0  501    0  0.00000000000E+00  0.00000000000E+00 -0.10837490791E+04  0.10837490791E+04  0.25500000920E-02 0. -1.
    10030    2    1    2    0    0  0.00000000000E+00  0.00000000000E+00 -0.89661802284E+03  0.12708801353E+04  0.90067332560E+03 0.  0.
        4    1    3    3  502    0 -0.11886651900E+03  0.74719848970E+02  0.15545697681E+03  0.20947742052E+03  0.12699999809E+01 0.  1.
       -4    1    3    3    0  502  0.11886651900E+03 -0.74719848970E+02 -0.10520749997E+04  0.10614027148E+04  0.12699999809E+01 0. -1.
</event>
<event>
 5   0  0.1560728E-02  0.9241454E+03  0.7818609E-02  0.9395892E-01
        1   -1    0    0  501    0  0.00000000000E+00  0.00000000000E+00  0.99048296739E+03  0.99048296741E+03  0.50400001928E-02 0. -1.
       -1   -1    0    0    0  501  0.00000000000E+00  0.00000000000E+00 -0.21556270145E+03  0.21556270151E+03  0.50400001928E-02 0.  1.
    10030    2    1    2    0    0  0.00000000000E+00  0.00000000000E+00  0.77492026594E+03  0.12060456689E+04  0.92414540899E+03 0.  0.
        4    1    3    3  502    0  0.11136504909E+03  0.21899075816E+02  0.97200658442E+03  0.97861134101E+03  0.12699999809E+01 0. -1.
       -4    1    3    3    0  502 -0.11136504909E+03 -0.21899075816E+02 -0.19708631848E+03  0.22743432791E+03  0.12699999809E+01 0.  1.
</event>
<event>
 5   0  0.1559275E-02  0.9274160E+03  0.7818609E-02  0.9391944E-01
       -1   -1    0    0    0  501  0.00000000000E+00  0.00000000000E+00  0.23628029190E+03  0.23628029196E+03  0.50400001928E-02 0.  1.
        1   -1    0    0  501    0  0.00000000000E+00  0.00000000000E+00 -0.91004259610E+03  0.91004259611E+03  0.50400001928E-02 0. -1.
    10030    2    1    2    0    0  0.00000000000E+00  0.00000000000E+00 -0.67376230420E+03  0.11463228881E+04  0.92741604534E+03 0.  0.
        1    1    3    3  502    0  0.35727386772E+03 -0.25114465527E+03 -0.52958790328E+03  0.68642669073E+03  0.50400001928E-02 0. -1.
       -1    1    3    3    0  502 -0.35727386772E+03  0.25114465527E+03 -0.14417440092E+03  0.45989619734E+03  0.50400001928E-02 0.  1.
</event>
<event>
 5   0  0.2679861E-02  0.8937493E+03  0.7818609E-02  0.9433429E-01
        2   -1    0    0  501    0  0.00000000000E+00  0.00000000000E+00  0.70868181659E+03  0.70868181659E+03  0.25500000920E-02 0.  1.
       -2   -1    0    0    0  501  0.00000000000E+00  0.00000000000E+00 -0.28178644813E+03  0.28178644814E+03  0.25500000920E-02 0. -1.
    10030    2    1    2    0    0  0.00000000000E+00  0.00000000000E+00  0.42689536846E+03  0.99046826473E+03  0.89374925333E+03 0.  0.
        1    1    3    3  502    0 -0.12186233906E+03 -0.17712966976E+03 -0.22070136918E+03  0.30811433588E+03  0.50400001928E-02 0. -1.
       -1    1    3    3    0  502  0.12186233906E+03  0.17712966976E+03  0.64759673764E+03  0.68235392885E+03  0.50400001928E-02 0.  1.
</event>
<event>
 5   0  0.2803717E-02  0.9066617E+03  0.7818609E-02  0.9417292E-01
        2   -1    0    0  501    0  0.00000000000E+00  0.00000000000E+00  0.15947126525E+04  0.15947126525E+04  0.25500000920E-02 0.  1.
       -2   -1    0    0    0  501  0.00000000000E+00  0.00000000000E+00 -0.12886890308E+03  0.12886890310E+03  0.25500000920E-02 0. -1.
    10030    2    1    2    0    0  0.00000000000E+00  0.00000000000E+00  0.14658437495E+04  0.17235815556E+04  0.90666172365E+03 0.  0.
        5    1    3    3  502    0 -0.23339750294E+03  0.16337669274E+03  0.14032042955E+04  0.14318417241E+04  0.46999998093E+01 0.  1.
       -5    1    3    3    0  502  0.23339750294E+03 -0.16337669274E+03  0.62639453999E+02  0.29173983153E+03  0.46999998093E+01 0. -1.
</event>
<event>
 5   0  0.1560728E-02  0.8885390E+03  0.7818609E-02  0.9440023E-01
       -1   -1    0    0    0  501  0.00000000000E+00  0.00000000000E+00  0.14785855566E+03  0.14785855574E+03  0.50400001928E-02 0.  1.
        1   -1    0    0  501    0  0.00000000000E+00  0.00000000000E+00 -0.13348932094E+04  0.13348932094E+04  0.50400001928E-02 0. -1.
    10030    2    1    2    0    0  0.00000000000E+00  0.00000000000E+00 -0.11870346537E+04  0.14827517652E+04  0.88853898501E+03 0.  0.
        4    1    3    3  502    0  0.39626168226E+03  0.17979802828E+02 -0.25965345017E+03  0.47409716433E+03  0.12699999809E+01 0.  1.
       -4    1    3    3    0  502 -0.39626168226E+03 -0.17979802828E+02 -0.92738120357E+03  0.10086546008E+04  0.12699999809E+01 0. -1.
</event>
<event>
 5   0  0.2705111E-02  0.9337018E+03  0.7818609E-02  0.9384406E-01
        2   -1    0    0  501    0  0.00000000000E+00  0.00000000000E+00  0.29433488384E+03  0.29433488385E+03  0.25500000920E-02 0. -1.
       -2   -1    0    0    0  501  0.00000000000E+00  0.00000000000E+00 -0.74048229505E+03  0.74048229505E+03  0.25500000920E-02 0.  1.
    10030    2    1    2    0    0  0.00000000000E+00  0.00000000000E+00 -0.44614741121E+03  0.10348171789E+04  0.93370181601E+03 0.  0.
        4    1    3    3  502    0 -0.46077888232E+03 -0.61500180567E+02 -0.17542079347E+03  0.49686368179E+03  0.12699999809E+01 0.  1.
       -4    1    3    3    0  502  0.46077888232E+03  0.61500180567E+02 -0.27072661773E+03  0.53795349711E+03  0.12699999809E+01 0. -1.
</event>
<event>
 5   0  0.2628383E-02  0.8913754E+03  0.7818609E-02  0.9436427E-01
       -2   -1    0    0    0  501  0.00000000000E+00  0.00000000000E+00  0.12197102155E+03  0.12197102158E+03  0.25500000920E-02 0.  1.
        2   -1    0    0  501    0  0.00000000000E+00  0.00000000000E+00 -0.16285632959E+04  0.16285632959E+04  0.25500000920E-02 0. -1.
    10030    2    1    2    0    0  0.00000000000E+00  0.00000000000E+00 -0.15065922744E+04  0.17505343175E+04  0.89137540664E+03 0.  0.
        2    1    3    3  502    0 -0.53321974244E+02 -0.18500615050E+02 -0.16215166986E+04  0.16224986624E+04  0.25500000920E-02 0. -1.
       -2    1    3    3    0  502  0.53321974244E+02  0.18500615050E+02  0.11492442421E+03  0.12803565511E+03  0.25500000920E-02 0.  1.
</event>
<event>
 5   0  0.1559275E-02  0.9463761E+03  0.7818609E-02  0.9369396E-01
       -1   -1    0    0    0  501  0.00000000000E+00  0.00000000000E+00  0.40045852072E+03  0.40045852075E+03  0.50400001928E-02 0. -1.
        1   -1    0    0  501    0  0.00000000000E+00  0.00000000000E+00 -0.55912644732E+03  0.55912644735E+03  0.50400001928E-02 0.  1.
    10030    2    1    2    0    0  0.00000000000E+00  0.00000000000E+00 -0.15866792661E+03  0.95958496809E+03  0.94637614090E+03 0.  0.
        1    1    3    3  502    0  0.42014428420E+03  0.71325260568E+02 -0.28787033671E+03  0.51427409338E+03  0.50400001928E-02 0.  1.
       -1    1    3    3    0  502 -0.42014428420E+03 -0.71325260568E+02  0.12920241010E+03  0.44531087471E+03  0.50400001928E-02 0. -1.
</event>
<event>
 5   0  0.2628383E-02  0.8952009E+03  0.7818609E-02  0.9431601E-01
       -2   -1    0    0    0  501  0.00000000000E+00  0.00000000000E+00  0.20112225448E+03  0.20112225450E+03  0.25500000920E-02 0.  1.
        2   -1    0    0  501    0  0.00000000000E+00  0.00000000000E+00 -0.99614108838E+03  0.99614108838E+03  0.25500000920E-02 0. -1.
    10030    2    1    2    0    0  0.00000000000E+00  0.00000000000E+00 -0.79501883390E+03  0.11972633429E+04  0.89520085229E+03 0.  0.
        2    1    3    3  502    0 -0.21962980418E+03 -0.35284476465E+03 -0.61973710899E+03  0.74619753624E+03  0.25500000920E-02 0. -1.
       -2    1    3    3    0  502  0.21962980418E+03  0.35284476465E+03 -0.17528172491E+03  0.45106580664E+03  0.25500000920E-02 0.  1.
</event>
<event>
 5   0  0.1459111E-02  0.8896312E+03  0.7818609E-02  0.9438637E-01
        1   -1    0    0  501    0  0.00000000000E+00  0.00000000000E+00  0.31602612346E+03  0.31602612350E+03  0.50400001928E-02 0. -1.
       -1   -1    0    0    0  501  0.00000000000E+00  0.00000000000E+00 -0.62609042046E+03  0.62609042048E+03  0.50400001928E-02 0.  1.
    10030    2    1    2    0    0  0.00000000000E+00  0.00000000000E+00 -0.31006429700E+03  0.94211654398E+03  0.88963122369E+03 0.  0.
        2    1    3    3  502    0 -0.26414027789E+03  0.31209088452E+03  0.30489211836E+02  0.41000048616E+03  0.25500000920E-02 0. -1.
       -2    1    3    3    0  502  0.26414027789E+03 -0.31209088452E+03 -0.34055350884E+03  0.53211605782E+03  0.25500000920E-02 0.  1.
</event>
<event>
 5   0  0.1560728E-02  0.8996600E+03  0.7818609E-02  0.9426007E-01
        1   -1    0    0  501    0  0.00000000000E+00  0.00000000000E+00  0.31128138510E+03  0.31128138514E+03  0.50400001928E-02 0. -1.
       -1   -1    0    0    0  501  0.00000000000E+00  0.00000000000E+00 -0.65004536626E+03  0.65004536628E+03  0.50400001928E-02 0.  1.
    10030    2    1    2    0    0  0.00000000000E+00  0.00000000000E+00 -0.33876398116E+03  0.96132675142E+03  0.89965998470E+03 0.  0.
        4    1    3    3  502    0 -0.52823190641E+02 -0.40701497318E+03  0.27340310504E+02  0.41133998510E+03  0.12699999809E+01 0. -1.
       -4    1    3    3    0  502  0.52823190641E+02  0.40701497318E+03 -0.36610429167E+03  0.54998676633E+03  0.12699999809E+01 0.  1.
</event>
<event>
 5   0  0.2679861E-02  0.8106750E+03  0.7818609E-02  0.9544693E-01
       -2   -1    0    0    0  501  0.00000000000E+00  0.00000000000E+00  0.19826282168E+03  0.19826282170E+03  0.25500000920E-02 0.  1.
        2   -1    0    0  501    0  0.00000000000E+00  0.00000000000E+00 -0.82869040326E+03  0.82869040327E+03  0.25500000920E-02 0. -1.
    10030    2    1    2    0    0  0.00000000000E+00  0.00000000000E+00 -0.63042758158E+03  0.10269532250E+04  0.81067502160E+03 0.  0.
        1    1    3    3  502    0 -0.11122640830E+03 -0.37221867043E+03 -0.46174804277E+03  0.60343127823E+03  0.50400001928E-02 0.  1.
       -1    1    3    3    0  502  0.11122640830E+03  0.37221867043E+03 -0.16867953881E+03  0.42352194673E+03  0.50400001928E-02 0. -1.
</event>
<event>
 5   0  0.2628383E-02  0.9428173E+03  0.7818609E-02  0.9373586E-01
       -2   -1    0    0    0  501  0.00000000000E+00  0.00000000000E+00  0.17414659382E+03  0.17414659384E+03  0.25500000920E-02 0. -1.
        2   -1    0    0  501    0  0.00000000000E+00  0.00000000000E+00 -0.12760863967E+04  0.12760863967E+04  0.25500000920E-02 0.  1.
    10030    2    1    2    0    0  0.00000000000E+00  0.00000000000E+00 -0.11019398029E+04  0.14502329905E+04  0.94281726634E+03 0.  0.
        2    1    3    3  502    0 -0.10953000060E+03  0.90676181752E+02  0.14037311325E+03  0.19980891346E+03  0.25500000920E-02 0. -1.
       -2    1    3    3    0  502  0.10953000060E+03 -0.90676181752E+02 -0.12423129161E+04  0.12504240771E+04  0.25500000920E-02 0.  1.
</event>
<event>
 5   0  0.1559275E-02  0.9071541E+03  0.7818609E-02  0.9416682E-01
       -1   -1    0    0    0  501  0.00000000000E+00  0.00000000000E+00  0.25674663314E+03  0.25674663319E+03  0.50400001928E-02 0. -1.
        1   -1    0    0  501    0  0.00000000000E+00  0.00000000000E+00 -0.80130412327E+03  0.80130412329E+03  0.50400001928E-02 0.  1.
    10030    2    1    2    0    0  0.00000000000E+00  0.00000000000E+00 -0.54455749013E+03  0.10580507565E+04  0.90715409013E+03 0.  0.
        1    1    3    3  502    0  0.37734905346E+03  0.12363263139E+03 -0.16600470711E+02  0.39743290169E+03  0.50400001928E-02 0. -1.
       -1    1    3    3    0  502 -0.37734905346E+03 -0.12363263139E+03 -0.52795701942E+03  0.66061785479E+03  0.50400001928E-02 0.  1.
</event>
<event>
 5   0  0.1459111E-02  0.8818967E+03  0.7818609E-02  0.9448499E-01
        1   -1    0    0  501    0  0.00000000000E+00  0.00000000000E+00  0.69104737886E+03  0.69104737888E+03  0.50400001928E-02 0. -1.
       -1   -1    0    0    0  501  0.00000000000E+00  0.00000000000E+00 -0.28136340990E+03  0.28136340994E+03  0.50400001928E-02 0.  1.
    10030    2    1    2    0    0  0.00000000000E+00  0.00000000000E+00  0.40968396896E+03  0.97241078882E+03  0.88189669905E+03 0.  0.
        2    1    3    3  502    0 -0.29720946871E+01  0.21071833105E+03  0.63192568671E+03  0.66613896592E+03  0.25500000920E-02 0. -1.
       -2    1    3    3    0  502  0.29720946871E+01 -0.21071833105E+03 -0.22224171775E+03  0.30627182290E+03  0.25500000920E-02 0.  1.
</event>
<event>
 5   0  0.2679861E-02  0.8972719E+03  0.7818609E-02  0.9428998E-01
        2   -1    0    0  501    0  0.00000000000E+00  0.00000000000E+00  0.10240190084E+04  0.10240190084E+04  0.25500000920E-02 0. -1.
       -2   -1    0    0    0  501  0.00000000000E+00  0.00000000000E+00 -0.19655319745E+03  0.19655319747E+03  0.25500000920E-02 0.  1.
    10030    2    1    2    0    0  0.00000000000E+00  0.00000000000E+00  0.82746581090E+03  0.12205722058E+04  0.89727188824E+03 0.  0.
        1    1    3    3  502    0  0.24624465155E+03  0.27095787900E+03  0.76641824573E+03  0.84938302786E+03  0.50400001928E-02 0. -1.
       -1    1    3    3    0  502 -0.24624465155E+03 -0.27095787900E+03  0.61047565176E+02  0.37118917797E+03  0.50400001928E-02 0.  1.
</event>
<event>
 5   0  0.1459111E-02  0.8529111E+03  0.7818609E-02  0.9486438E-01
        1   -1    0    0  501    0  0.00000000000E+00  0.00000000000E+00  0.86042326081E+03  0.86042326083E+03  0.50400001928E-02 0. -1.
       -1   -1    0    0    0  501  0.00000000000E+00  0.00000000000E+00 -0.21136611983E+03  0.21136611989E+03  0.50400001928E-02 0.  1.
    10030    2    1    2    0    0  0.00000000000E+00  0.00000000000E+00  0.64905714099E+03  0.10717893807E+04  0.85291107646E+03 0.  0.
        2    1    3    3  502    0  0.16459030193E+03 -0.74636510096E+02  0.80992386788E+03  0.82984170050E+03  0.25500000920E-02 0. -1.
       -2    1    3    3    0  502 -0.16459030193E+03  0.74636510096E+02 -0.16086672689E+03  0.24194768021E+03  0.25500000920E-02 0.  1.
</event>
<event>
 5   0  0.1559275E-02  0.9384543E+03  0.7818609E-02  0.9378748E-01
        1   -1    0    0  501    0  0.00000000000E+00  0.00000000000E+00  0.59290405877E+03  0.59290405880E+03  0.50400001928E-02 0. -1.
       -1   -1    0    0    0  501  0.00000000000E+00  0.00000000000E+00 -0.37134866372E+03  0.37134866375E+03  0.50400001928E-02 0.  1.
    10030    2    1    2    0    0  0.00000000000E+00  0.00000000000E+00  0.22155539506E+03  0.96425272255E+03  0.93845432487E+03 0.  0.
        1    1    3    3  502    0  0.26687090656E+03 -0.37266735411E+03  0.21390155299E+03  0.50582102762E+03  0.50400001928E-02 0. -1.
       -1    1    3    3    0  502 -0.26687090656E+03  0.37266735411E+03  0.76538420673E+01  0.45843169493E+03  0.50400001928E-02 0.  1.
</event>
<event>
 5   0  0.1040163E-02  0.9061292E+03  0.7818609E-02  0.9417952E-01
       -3   -1    0    0    0  501  0.00000000000E+00  0.00000000000E+00  0.62977182506E+03  0.62977183316E+03  0.10100000352E+00 0. -1.
        3   -1    0    0  501    0  0.00000000000E+00  0.00000000000E+00 -0.32593948554E+03  0.32593950119E+03  0.10100000352E+00 0.  1.
    10030    2    1    2    0    0  0.00000000000E+00  0.00000000000E+00  0.30383233952E+03  0.95571133435E+03  0.90612916522E+03 0.  0.
        5    1    3    3  502    0  0.36351123163E+03 -0.11733897093E+03  0.40883614406E+03  0.55953367397E+03  0.46999998093E+01 0. -1.
       -5    1    3    3    0  502 -0.36351123163E+03  0.11733897093E+03 -0.10500380454E+03  0.39617766038E+03  0.46999998093E+01 0.  1.
</event>
<event>
 5   0  0.2705111E-02  0.9174926E+03  0.7818609E-02  0.9403975E-01
        2   -1    0    0  501    0  0.00000000000E+00  0.00000000000E+00  0.20722032374E+03  0.20722032376E+03  0.25500000920E-02 0. -1.
       -2   -1    0    0    0  501  0.00000000000E+00  0.00000000000E+00 -0.10155768760E+04  0.10155768760E+04  0.25500000920E-02 0.  1.
    10030    2    1    2    0    0  0.00000000000E+00  0.00000000000E+00 -0.80835655229E+03  0.12227971998E+04  0.91749260280E+03 0.  0.
        4    1    3    3  502    0 -0.22709623285E+03 -0.33402914939E+03 -0.69402941955E+03  0.80301097110E+03  0.12699999809E+01 0.  1.
       -4    1    3    3    0  502  0.22709623285E+03  0.33402914939E+03 -0.11432713275E+03  0.41978622869E+03  0.12699999809E+01 0. -1.
</event>
<event>
 5   0  0.2705111E-02  0.9001054E+03  0.7818609E-02  0.9425450E-01
        2   -1    0    0  501    0  0.00000000000E+00  0.00000000000E+00  0.56588721213E+03  0.56588721214E+03  0.25500000920E-02 0. -1.
       -2   -1    0    0    0  501  0.00000000000E+00  0.00000000000E+00 -0.35792899460E+03  0.35792899461E+03  0.25500000920E-02 0.  1.
    10030    2    1    2    0    0  0.00000000000E+00  0.00000000000E+00  0.20795821753E+03  0.92381620674E+03  0.90010541805E+03 0.  0.
        4    1    3    3  502    0 -0.17593366971E+03 -0.33950338662E+03  0.34757192460E+03  0.51674274192E+03  0.12699999809E+01 0. -1.
       -4    1    3    3    0  502  0.17593366971E+03  0.33950338662E+03 -0.13961370706E+03  0.40707346482E+03  0.12699999809E+01 0.  1.
</event>
<event>
 5   0  0.2705111E-02  0.8411777E+03  0.7818609E-02  0.9502255E-01
       -2   -1    0    0    0  501  0.00000000000E+00  0.00000000000E+00  0.22287524698E+03  0.22287524699E+03  0.25500000920E-02 0. -1.
        2   -1    0    0  501    0  0.00000000000E+00  0.00000000000E+00 -0.79369513845E+03  0.79369513845E+03  0.25500000920E-02 0.  1.
    10030    2    1    2    0    0  0.00000000000E+00  0.00000000000E+00 -0.57081989147E+03  0.10165703854E+04  0.84117774582E+03 0.  0.
        4    1    3    3  502    0  0.10932036465E+03  0.39917554647E+03 -0.37585715786E+03  0.55907269209E+03  0.12699999809E+01 0.  1.
       -4    1    3    3    0  502 -0.10932036465E+03 -0.39917554647E+03 -0.19496273361E+03  0.45749769336E+03  0.12699999809E+01 0. -1.
</event>
<event>
 5   0  0.2414128E-02  0.8382132E+03  0.7818609E-02  0.9506295E-01
        2   -1    0    0  501    0  0.00000000000E+00  0.00000000000E+00  0.78364489361E+03  0.78364489361E+03  0.25500000920E-02 0. -1.
       -2   -1    0    0    0  501  0.00000000000E+00  0.00000000000E+00 -0.22414533801E+03  0.22414533802E+03  0.25500000920E-02 0.  1.
    10030    2    1    2    0    0  0.00000000000E+00  0.00000000000E+00  0.55949955560E+03  0.10077902316E+04  0.83821321766E+03 0.  0.
        3    1    3    3  502    0 -0.12504627571E+02  0.31861412089E+03 -0.47266908688E+02  0.32234375223E+03  0.10100000352E+00 0.  1.
       -3    1    3    3    0  502  0.12504627571E+02 -0.31861412089E+03  0.60676646429E+03  0.68544647940E+03  0.10100000352E+00 0. -1.
</event>
<event>
 5   0  0.1559275E-02  0.9245213E+03  0.7818609E-02  0.9395437E-01
       -1   -1    0    0    0  501  0.00000000000E+00  0.00000000000E+00  0.17754617956E+03  0.17754617963E+03  0.50400001928E-02 0.  1.
        1   -1    0    0  501    0  0.00000000000E+00  0.00000000000E+00 -0.12035454612E+04  0.12035454612E+04  0.50400001928E-02 0. -1.
    10030    2    1    2    0    0  0.00000000000E+00  0.00000000000E+00 -0.10259992816E+04  0.13810916408E+04  0.92452127853E+03 0.  0.
        1    1    3    3  502    0 -0.27334709374E+03  0.20186222218E+03 -0.98116677840E+03  0.10383425434E+04  0.50400001928E-02 0. -1.
       -1    1    3    3    0  502  0.27334709374E+03 -0.20186222218E+03 -0.44832503214E+02  0.34274909740E+03  0.50400001928E-02 0.  1.
</event>
<event>
 5   0  0.2628383E-02  0.8746696E+03  0.7818609E-02  0.9457812E-01
       -2   -1    0    0    0  501  0.00000000000E+00  0.00000000000E+00  0.25053507293E+03  0.25053507294E+03  0.25500000920E-02 0. -1.
        2   -1    0    0  501    0  0.00000000000E+00  0.00000000000E+00 -0.76341295632E+03  0.76341295633E+03  0.25500000920E-02 0.  1.
    10030    2    1    2    0    0  0.00000000000E+00  0.00000000000E+00 -0.51287788340E+03  0.10139480293E+04  0.87466958491E+03 0.  0.
        2    1    3    3  502    0  0.16858231964E+03 -0.36944184422E+03 -0.44462984010E+03  0.60216523436E+03  0.25500000920E-02 0.  1.
       -2    1    3    3    0  502 -0.16858231964E+03  0.36944184422E+03 -0.68248043294E+02  0.41178279490E+03  0.25500000920E-02 0. -1.
</event>
<event>
 5   0  0.2679861E-02  0.9814574E+03  0.7818609E-02  0.9329119E-01
       -2   -1    0    0    0  501  0.00000000000E+00  0.00000000000E+00  0.35344871966E+03  0.35344871967E+03  0.25500000920E-02 0. -1.
        2   -1    0    0  501    0  0.00000000000E+00  0.00000000000E+00 -0.68132848410E+03  0.68132848410E+03  0.25500000920E-02 0.  1.
    10030    2    1    2    0    0  0.00000000000E+00  0.00000000000E+00 -0.32787976444E+03  0.10347772038E+04  0.98145744763E+03 0.  0.
        1    1    3    3  502    0 -0.44806963371E+03 -0.17916730797E+03 -0.25793099813E+03  0.54717065046E+03  0.50400001928E-02 0.  1.
       -1    1    3    3    0  502  0.44806963371E+03  0.17916730797E+03 -0.69948766309E+02  0.48760655331E+03  0.50400001928E-02 0. -1.
</event>
<event>
 5   0  0.1459111E-02  0.9102161E+03  0.7818609E-02  0.9412900E-01
        1   -1    0    0  501    0  0.00000000000E+00  0.00000000000E+00  0.77533466289E+03  0.77533466291E+03  0.50400001928E-02 0. -1.
       -1   -1    0    0    0  501  0.00000000000E+00  0.00000000000E+00 -0.26714053273E+03  0.26714053277E+03  0.50400001928E-02 0.  1.
    10030    2    1    2    0    0  0.00000000000E+00  0.00000000000E+00  0.50819413016E+03  0.10424751957E+04  0.91021605110E+03 0.  0.
        2    1    3    3  502    0  0.79504644295E+02  0.38093804899E+03 -0.16176838837E+02  0.38948231764E+03  0.25500000920E-02 0.  1.
       -2    1    3    3    0  502 -0.79504644295E+02 -0.38093804899E+03  0.52437096900E+03  0.65299287804E+03  0.25500000920E-02 0. -1.
</event>
<event>
 5   0  0.1459111E-02  0.9017886E+03  0.7818609E-02  0.9423348E-01
        1   -1    0    0  501    0  0.00000000000E+00  0.00000000000E+00  0.42228067192E+03  0.42228067195E+03  0.50400001928E-02 0.  1.
       -1   -1    0    0    0  501  0.00000000000E+00  0.00000000000E+00 -0.48144680094E+03  0.48144680096E+03  0.50400001928E-02 0. -1.
    10030    2    1    2    0    0  0.00000000000E+00  0.00000000000E+00 -0.59166129019E+02  0.90372747291E+03  0.90178861962E+03 0.  0.
        2    1    3    3  502    0 -0.35221371223E+03  0.27631004683E+03 -0.83587119513E+02  0.45539932764E+03  0.25500000920E-02 0.  1.
       -2    1    3    3    0  502  0.35221371223E+03 -0.27631004683E+03  0.24420990494E+02  0.44832814527E+03  0.25500000920E-02 0. -1.
</event>
<event>
 5   0  0.2679861E-02  0.8983542E+03  0.7818609E-02  0.9427641E-01
        2   -1    0    0  501    0  0.00000000000E+00  0.00000000000E+00  0.85057168029E+03  0.85057168030E+03  0.25500000920E-02 0.  1.
       -2   -1    0    0    0  501  0.00000000000E+00  0.00000000000E+00 -0.23720523922E+03  0.23720523924E+03  0.25500000920E-02 0. -1.
    10030    2    1    2    0    0  0.00000000000E+00  0.00000000000E+00  0.61336644107E+03  0.10877769195E+04  0.89835418162E+03 0.  0.
        1    1    3    3  502    0 -0.36771068995E+02  0.29673190329E+03  0.71256026338E+03  0.77275097083E+03  0.50400001928E-02 0.  1.
       -1    1    3    3    0  502  0.36771068995E+02 -0.29673190329E+03 -0.99193822313E+02  0.31502594870E+03  0.50400001928E-02 0. -1.
</event>
<event>
 5   0  0.2705111E-02  0.8864562E+03  0.7818609E-02  0.9442672E-01
        2   -1    0    0  501    0  0.00000000000E+00  0.00000000000E+00  0.21264558414E+04  0.21264558414E+04  0.25500000920E-02 0.  1.
       -2   -1    0    0    0  501  0.00000000000E+00  0.00000000000E+00 -0.92384298934E+02  0.92384298969E+02  0.25500000920E-02 0. -1.
    10030    2    1    2    0    0  0.00000000000E+00  0.00000000000E+00  0.20340715425E+04  0.22188401404E+04  0.88645616285E+03 0.  0.
        4    1    3    3  502    0 -0.82014444119E+02  0.39505237103E+03  0.14762390665E+04  0.15303843109E+04  0.12699999809E+01 0.  1.
       -4    1    3    3    0  502  0.82014444119E+02 -0.39505237103E+03  0.55783247602E+03  0.68845582945E+03  0.12699999809E+01 0. -1.
</event>
<event>
 5   0  0.2705111E-02  0.9147192E+03  0.7818609E-02  0.9407366E-01
        2   -1    0    0  501    0  0.00000000000E+00  0.00000000000E+00  0.70472382036E+03  0.70472382036E+03  0.25500000920E-02 0.  1.
       -2   -1    0    0    0  501  0.00000000000E+00  0.00000000000E+00 -0.29682238043E+03  0.29682238044E+03  0.25500000920E-02 0. -1.
    10030    2    1    2    0    0  0.00000000000E+00  0.00000000000E+00  0.40790143993E+03  0.10015462008E+04  0.91471919606E+03 0.  0.
        4    1    3    3  502    0 -0.32550184480E+03  0.12181475905E+03  0.52946848508E+03  0.63334727921E+03  0.12699999809E+01 0.  1.
       -4    1    3    3    0  502  0.32550184480E+03 -0.12181475905E+03 -0.12156704515E+03  0.36819892159E+03  0.12699999809E+01 0. -1.
</event>
<event>
 5   0  0.1497410E-02  0.9068929E+03  0.7818609E-02  0.9417006E-01
       -1   -1    0    0    0  501  0.00000000000E+00  0.00000000000E+00  0.12806775681E+03  0.12806775691E+03  0.50400001928E-02 0. -1.
        1   -1    0    0  501    0  0.00000000000E+00  0.00000000000E+00 -0.16055071973E+04  0.16055071973E+04  0.50400001928E-02 0.  1.
    10030    2    1    2    0    0  0.00000000000E+00  0.00000000000E+00 -0.14774394405E+04  0.17335749542E+04  0.90689294935E+03 0.  0.
        3    1    3    3  502    0  0.22223556275E+03  0.10385279371E+03 -0.14677205195E+04  0.14880784864E+04  0.10100000352E+00 0.  1.
       -3    1    3    3    0  502 -0.22223556275E+03 -0.10385279371E+03 -0.97189210436E+01  0.24549646788E+03  0.10100000352E+00 0. -1.
</event>
<event>
 5   0  0.1040163E-02  0.8947419E+03  0.7818609E-02  0.9432178E-01
        3   -1    0    0  501    0  0.00000000000E+00  0.00000000000E+00  0.15604733573E+03  0.15604736841E+03  0.10100000352E+00 0.  1.
       -3   -1    0    0    0  501  0.00000000000E+00  0.00000000000E+00 -0.12825644233E+04  0.12825644273E+04  0.10100000352E+00 0. -1.
    10030    2    1    2    0    0  0.00000000000E+00  0.00000000000E+00 -0.11265170876E+04  0.14386117957E+04  0.89474194611E+03 0.  0.
        2    1    3    3  502    0 -0.35317807382E+03  0.23472589528E+03 -0.79239729045E+03  0.89873492402E+03  0.25500000920E-02 0. -1.
       -2    1    3    3    0  502  0.35317807382E+03 -0.23472589528E+03 -0.33411979715E+03  0.53987687169E+03  0.25500000920E-02 0.  1.
</event>
<event>
 5   0  0.1497410E-02  0.8700438E+03  0.7818609E-02  0.9463823E-01
        1   -1    0    0  501    0  0.00000000000E+00  0.00000000000E+00  0.37104780458E+03  0.37104780461E+03  0.50400001928E-02 0. -1.
       -1   -1    0    0    0  501  0.00000000000E+00  0.00000000000E+00 -0.51002606941E+03  0.51002606944E+03  0.50400001928E-02 0.  1.
    10030    2    1    2    0    0  0.00000000000E+00  0.00000000000E+00 -0.13897826483E+03  0.88107387405E+03  0.87004379972E+03 0.  0.
        3    1    3    3  502    0  0.23606552084E+03 -0.14523195544E+03  0.27005970968E+03  0.38697739986E+03  0.10100000352E+00 0. -1.
       -3    1    3    3    0  502 -0.23606552084E+03  0.14523195544E+03 -0.40903797451E+03  0.49409647419E+03  0.10100000352E+00 0.  1.
</event>
<event>
 5   0  0.2628383E-02  0.9184850E+03  0.7818609E-02  0.9402765E-01
        2   -1    0    0  501    0  0.00000000000E+00  0.00000000000E+00  0.19920275786E+04  0.19920275786E+04  0.25500000920E-02 0. -1.
       -2   -1    0    0    0  501  0.00000000000E+00  0.00000000000E+00 -0.10587388288E+03  0.10587388291E+03  0.25500000920E-02 0.  1.
    10030    2    1    2    0    0  0.00000000000E+00  0.00000000000E+00  0.18861536957E+04  0.20979014615E+04  0.91848504523E+03 0.  0.
        2    1    3    3  502    0 -0.30437197374E+03  0.13606837577E+03  0.22169955561E+03  0.40038430819E+03  0.25500000920E-02 0.  1.
       -2    1    3    3    0  502  0.30437197374E+03 -0.13606837577E+03  0.16644541401E+04  0.16975171533E+04  0.25500000920E-02 0. -1.
</event>
<event>
 5   0  0.1459111E-02  0.9175514E+03  0.7818609E-02  0.9403903E-01
        1   -1    0    0  501    0  0.00000000000E+00  0.00000000000E+00  0.47827172460E+03  0.47827172463E+03  0.50400001928E-02 0. -1.
       -1   -1    0    0    0  501  0.00000000000E+00  0.00000000000E+00 -0.44007437790E+03  0.44007437793E+03  0.50400001928E-02 0.  1.
    10030    2    1    2    0    0  0.00000000000E+00  0.00000000000E+00  0.38197346701E+02  0.91834610256E+03  0.91755137556E+03 0.  0.
        2    1    3    3  502    0  0.29225869323E+03  0.15162296139E+03 -0.30066273221E+03  0.44587301414E+03  0.25500000920E-02 0.  1.
       -2    1    3    3    0  502 -0.29225869323E+03 -0.15162296139E+03  0.33886007891E+03  0.47247308842E+03  0.25500000920E-02 0. -1.
</event>
<event>
 5   0  0.1459111E-02  0.8919757E+03  0.7818609E-02  0.9435668E-01
       -1   -1    0    0    0  501  0.00000000000E+00  0.00000000000E+00  0.63257336717E+03  0.63257336719E+03  0.50400001928E-02 0. -1.
        1   -1    0    0  501    0  0.00000000000E+00  0.00000000000E+00 -0.31443812110E+03  0.31443812114E+03  0.50400001928E-02 0.  1.
    10030    2    1    2    0    0  0.00000000000E+00  0.00000000000E+00  0.31813524607E+03  0.94701148833E+03  0.89197574196E+03 0.  0.
        2    1    3    3  502    0 -0.13124779283E+03  0.29936193338E+03  0.48120530988E+03  0.58172338834E+03  0.25500000920E-02 0. -1.
       -2    1    3    3    0  502  0.13124779283E+03 -0.29936193338E+03 -0.16307006381E+03  0.36528809999E+03  0.25500000920E-02 0.  1.
</event>
<event>
 5   0  0.1559275E-02  0.9146962E+03  0.7818609E-02  0.9407395E-01
       -1   -1    0    0    0  501  0.00000000000E+00  0.00000000000E+00  0.22215032357E+03  0.22215032363E+03  0.50400001928E-02 0. -1.
        1   -1    0    0  501    0  0.00000000000E+00  0.00000000000E+00 -0.94155733230E+03  0.94155733231E+03  0.50400001928E-02 0.  1.
    10030    2    1    2    0    0  0.00000000000E+00  0.00000000000E+00 -0.71940700873E+03  0.11637076559E+04  0.91469615955E+03 0.  0.
        1    1    3    3  502    0 -0.33853357606E+03 -0.62313906425E+02  0.23404320068E+02  0.34501560440E+03  0.50400001928E-02 0. -1.
       -1    1    3    3    0  502  0.33853357606E+03  0.62313906425E+02 -0.74281132879E+03  0.81869205155E+03  0.50400001928E-02 0.  1.
</event>
<event>
 5   0  0.2628383E-02  0.8951681E+03  0.7818609E-02  0.9431642E-01
       -2   -1    0    0    0  501  0.00000000000E+00  0.00000000000E+00  0.11438326123E+03  0.11438326125E+03  0.25500000920E-02 0. -1.
        2   -1    0    0  501    0  0.00000000000E+00  0.00000000000E+00 -0.17514054500E+04  0.17514054500E+04  0.25500000920E-02 0.  1.
    10030    2    1    2    0    0  0.00000000000E+00  0.00000000000E+00 -0.16370221888E+04  0.18657887113E+04  0.89516806719E+03 0.  0.
        2    1    3    3  502    0  0.21684978771E+03  0.31467510872E+03 -0.13041423734E+04  0.13589818191E+04  0.25500000920E-02 0.  1.
       -2    1    3    3    0  502 -0.21684978771E+03 -0.31467510872E+03 -0.33287981541E+03  0.50680689221E+03  0.25500000920E-02 0. -1.
</event>
<event>
 5   0  0.2705111E-02  0.9035851E+03  0.7818609E-02  0.9421111E-01
        2   -1    0    0  501    0  0.00000000000E+00  0.00000000000E+00  0.67521972281E+03  0.67521972282E+03  0.25500000920E-02 0. -1.
       -2   -1    0    0    0  501  0.00000000000E+00  0.00000000000E+00 -0.30229642933E+03  0.30229642934E+03  0.25500000920E-02 0.  1.
    10030    2    1    2    0    0  0.00000000000E+00  0.00000000000E+00  0.37292329348E+03  0.97751615216E+03  0.90358510663E+03 0.  0.
        4    1    3    3  502    0 -0.27291159827E+02 -0.43588660276E+03  0.31156491583E+03  0.53648508604E+03  0.12699999809E+01 0. -1.
       -4    1    3    3    0  502  0.27291159827E+02  0.43588660276E+03  0.61358377651E+02  0.44103106612E+03  0.12699999809E+01 0.  1.
</event>
<event>
 5   0  0.1559275E-02  0.7153588E+03  0.7818609E-02  0.9691321E-01
        1   -1    0    0  501    0  0.00000000000E+00  0.00000000000E+00  0.28783288471E+03  0.28783288476E+03  0.50400001928E-02 0. -1.
       -1   -1    0    0    0  501  0.00000000000E+00  0.00000000000E+00 -0.44447516339E+03  0.44447516342E+03  0.50400001928E-02 0.  1.
    10030    2    1    2    0    0  0.00000000000E+00  0.00000000000E+00 -0.15664227868E+03  0.73230804817E+03  0.71535884278E+03 0.  0.
        1    1    3    3  502    0  0.74959388761E+02 -0.24752495054E+03  0.17460995580E+03  0.31205151465E+03  0.50400001928E-02 0. -1.
       -1    1    3    3    0  502 -0.74959388761E+02  0.24752495054E+03 -0.33125223447E+03  0.42025653353E+03  0.50400001928E-02 0.  1.
</event>
<event>
 5   0  0.2679861E-02  0.9081220E+03  0.7818609E-02  0.9415485E-01
        2   -1    0    0  501    0  0.00000000000E+00  0.00000000000E+00  0.42977196505E+03  0.42977196506E+03  0.25500000920E-02 0.  1.
       -2   -1    0    0    0  501  0.00000000000E+00  0.00000000000E+00 -0.47972280493E+03  0.47972280493E+03  0.25500000920E-02 0. -1.
    10030    2    1    2    0    0  0.00000000000E+00  0.00000000000E+00 -0.49950839879E+02  0.90949476999E+03  0.90812204589E+03 0.  0.
        1    1    3    3  502    0  0.15108720925E+03  0.19912719186E+03  0.35466542433E+03  0.43389693082E+03  0.50400001928E-02 0.  1.
       -1    1    3    3    0  502 -0.15108720925E+03 -0.19912719186E+03 -0.40461626421E+03  0.47559783917E+03  0.50400001928E-02 0. -1.
</event>
<event>
 5   0  0.1459111E-02  0.9370243E+03  0.7818609E-02  0.9380447E-01
       -1   -1    0    0    0  501  0.00000000000E+00  0.00000000000E+00  0.70169519271E+03  0.70169519272E+03  0.50400001928E-02 0.  1.
        1   -1    0    0  501    0  0.00000000000E+00  0.00000000000E+00 -0.31281903343E+03  0.31281903347E+03  0.50400001928E-02 0. -1.
    10030    2    1    2    0    0  0.00000000000E+00  0.00000000000E+00  0.38887615927E+03  0.10145142262E+04  0.93702425150E+03 0.  0.
        2    1    3    3  502    0 -0.31738433027E+03 -0.34219277199E+03  0.23874815476E+03  0.52424172641E+03  0.25500000920E-02 0. -1.
       -2    1    3    3    0  502  0.31738433027E+03  0.34219277199E+03  0.15012800451E+03  0.49027249979E+03  0.25500000920E-02 0.  1.
</event>
<event>
 5   0  0.1560728E-02  0.8648937E+03  0.7818609E-02  0.9470562E-01
       -1   -1    0    0    0  501  0.00000000000E+00  0.00000000000E+00  0.17536649380E+03  0.17536649387E+03  0.50400001928E-02 0. -1.
        1   -1    0    0  501    0  0.00000000000E+00  0.00000000000E+00 -0.10663968639E+04  0.10663968639E+04  0.50400001928E-02 0.  1.
    10030    2    1    2    0    0  0.00000000000E+00  0.00000000000E+00 -0.89103037014E+03  0.12417633578E+04  0.86489370231E+03 0.  0.
        4    1    3    3  502    0  0.22979959927E+03 -0.36437145558E+03 -0.39114147779E+03  0.58186569070E+03  0.12699999809E+01 0.  1.
       -4    1    3    3    0  502 -0.22979959927E+03  0.36437145558E+03 -0.49988889235E+03  0.65989766711E+03  0.12699999809E+01 0. -1.
</event>
<event>
 5   0  0.1559275E-02  0.9168138E+03  0.7818609E-02  0.9404804E-01
       -1   -1    0    0    0  501  0.00000000000E+00  0.00000000000E+00  0.39598814545E+03  0.39598814548E+03  0.50400001928E-02 0.  1.
        1   -1    0    0  501    0  0.00000000000E+00  0.00000000000E+00 -0.53066459333E+03  0.53066459335E+03  0.50400001928E-02 0. -1.
    10030    2    1    2    0    0  0.00000000000E+00  0.00000000000E+00 -0.13467644788E+03  0.92665273883E+03  0.91681380485E+03 0.  0.
        1    1    3    3  502    0 -0.33486655417E+03  0.87676823399E+02  0.23640985336E+03  0.41918069285E+03  0.50400001928E-02 0.  1.
       -1    1    3    3    0  502  0.33486655417E+03 -0.87676823399E+02 -0.37108630124E+03  0.50747204599E+03  0.50400001928E-02 0. -1.
</event>
<event>
 5   0  0.1559275E-02  0.9050749E+03  0.7818609E-02  0.9419260E-01
        1   -1    0    0  501    0  0.00000000000E+00  0.00000000000E+00  0.95852928096E+03  0.95852928097E+03  0.50400001928E-02 0.  1.
       -1   -1    0    0    0  501  0.00000000000E+00  0.00000000000E+00 -0.21365037832E+03  0.21365037838E+03  0.50400001928E-02 0. -1.
    10030    2    1    2    0    0  0.00000000000E+00  0.00000000000E+00  0.74487890264E+03  0.11721796594E+04  0.90507489977E+03 0.  0.
        1    1    3    3  502    0  0.34743930022E+03 -0.12702951503E+03  0.71001507918E+03  0.80060725559E+03  0.50400001928E-02 0.  1.
       -1    1    3    3    0  502 -0.34743930022E+03  0.12702951503E+03  0.34863823463E+02  0.37157240376E+03  0.50400001928E-02 0. -1.
</event>
<event>
 5   0  0.1559275E-02  0.8888827E+03  0.7818609E-02  0.9439586E-01
        1   -1    0    0  501    0  0.00000000000E+00  0.00000000000E+00  0.99960816584E+03  0.99960816585E+03  0.50400001928E-02 0. -1.
       -1   -1    0    0    0  501  0.00000000000E+00  0.00000000000E+00 -0.19760554563E+03  0.19760554569E+03  0.50400001928E-02 0.  1.
    10030    2    1    2    0    0  0.00000000000E+00  0.00000000000E+00  0.80200262022E+03  0.11972137115E+04  0.88888270783E+03 0.  0.
        1    1    3    3  502    0 -0.38888214361E+03  0.20806110963E+03  0.47488779818E+03  0.64810274482E+03  0.50400001928E-02 0.  1.
       -1    1    3    3    0  502  0.38888214361E+03 -0.20806110963E+03  0.32711482204E+03  0.54911096673E+03  0.50400001928E-02 0. -1.
</event>
<event>
 5   0  0.1040163E-02  0.9114647E+03  0.7818609E-02  0.9411362E-01
        3   -1    0    0  501    0  0.00000000000E+00  0.00000000000E+00  0.60937314656E+03  0.60937315493E+03  0.10100000352E+00 0.  1.
       -3   -1    0    0    0  501  0.00000000000E+00  0.00000000000E+00 -0.34082890848E+03  0.34082892345E+03  0.10100000352E+00 0. -1.
    10030    2    1    2    0    0  0.00000000000E+00  0.00000000000E+00  0.26854423808E+03  0.95020207838E+03  0.91146474531E+03 0.  0.
        5    1    3    3  502    0  0.12527266155E+03  0.23030791505E+03 -0.25430911591E+03  0.36528097665E+03  0.46999998093E+01 0. -1.
       -5    1    3    3    0  502 -0.12527266155E+03 -0.23030791505E+03  0.52285335399E+03  0.58492110173E+03  0.46999998093E+01 0.  1.
</event>
<event>
 5   0  0.1459111E-02  0.8888303E+03  0.7818609E-02  0.9439653E-01
        1   -1    0    0  501    0  0.00000000000E+00  0.00000000000E+00  0.71218473725E+03  0.71218473727E+03  0.50400001928E-02 0.  1.
       -1   -1    0    0    0  501  0.00000000000E+00  0.00000000000E+00 -0.27732243806E+03  0.27732243811E+03  0.50400001928E-02 0. -1.
    10030    2    1    2    0    0  0.00000000000E+00  0.00000000000E+00  0.43486229919E+03  0.98950717537E+03  0.88883025987E+03 0.  0.
        2    1    3    3  502    0 -0.11771292397E+03 -0.37429626074E+03  0.44975730583E+03  0.59685480431E+03  0.25500000920E-02 0.  1.
       -2    1    3    3    0  502  0.11771292397E+03  0.37429626074E+03 -0.14895006641E+02  0.39265237106E+03  0.25500000920E-02 0. -1.
</event>
<event>
 5   0  0.1560728E-02  0.8974457E+03  0.7818609E-02  0.9428780E-01
       -1   -1    0    0    0  501  0.00000000000E+00  0.00000000000E+00  0.28643279542E+03  0.28643279547E+03  0.50400001928E-02 0.  1.
        1   -1    0    0  501    0  0.00000000000E+00  0.00000000000E+00 -0.70296487130E+03  0.70296487131E+03  0.50400001928E-02 0. -1.
    10030    2    1    2    0    0  0.00000000000E+00  0.00000000000E+00 -0.41653207587E+03  0.98939766678E+03  0.89744569351E+03 0.  0.
        4    1    3    3  502    0 -0.39458101014E+03  0.12892953615E+03 -0.20415254881E+02  0.41561447808E+03  0.12699999809E+01 0.  1.
       -4    1    3    3    0  502  0.39458101014E+03 -0.12892953615E+03 -0.39611682099E+03  0.57378318870E+03  0.12699999809E+01 0. -1.
</event>
<event>
 5   0  0.2628383E-02  0.8419681E+03  0.7818609E-02  0.9501181E-01
        2   -1    0    0  501    0  0.00000000000E+00  0.00000000000E+00  0.11629588593E+04  0.11629588593E+04  0.25500000920E-02 0. -1.
       -2   -1    0    0    0  501  0.00000000000E+00  0.00000000000E+00 -0.15239366167E+03  0.15239366170E+03  0.25500000920E-02 0.  1.
    10030    2    1    2    0    0  0.00000000000E+00  0.00000000000E+00  0.10105651976E+04  0.13153525210E+04  0.84196807292E+03 0.  0.
        2    1    3    3  502    0  0.99963254690E+02 -0.32053351536E+03  0.10854495716E+03  0.35286880634E+03  0.25500000920E-02 0.  1.
       -2    1    3    3    0  502 -0.99963254690E+02  0.32053351536E+03  0.90202024042E+03  0.96248371461E+03  0.25500000920E-02 0. -1.
</event>
<event>
 5   0  0.1459111E-02  0.8725203E+03  0.7818609E-02  0.9460600E-01
        1   -1    0    0  501    0  0.00000000000E+00  0.00000000000E+00  0.13163770327E+04  0.13163770327E+04  0.50400001928E-02 0.  1.
       -1   -1    0    0    0  501  0.00000000000E+00  0.00000000000E+00 -0.14458085574E+03  0.14458085582E+03  0.50400001928E-02 0. -1.
    10030    2    1    2    0    0  0.00000000000E+00  0.00000000000E+00  0.11717961769E+04  0.14609578885E+04  0.87252029874E+03 0.  0.
        2    1    3    3  502    0  0.11700784725E+03 -0.42004298558E+03  0.56245801180E+03  0.71167827077E+03  0.25500000920E-02 0. -1.
       -2    1    3    3    0  502 -0.11700784725E+03  0.42004298558E+03  0.60933816515E+03  0.74927961774E+03  0.25500000920E-02 0.  1.
</event>
<event>
 5   0  0.1497410E-02  0.8788906E+03  0.7818609E-02  0.9452361E-01
        1   -1    0    0  501    0  0.00000000000E+00  0.00000000000E+00  0.18951536656E+03  0.18951536663E+03  0.50400001928E-02 0. -1.
       -1   -1    0    0    0  501  0.00000000000E+00  0.00000000000E+00 -0.10189790304E+04  0.10189790304E+04  0.50400001928E-02 0.  1.
    10030    2    1    2    0    0  0.00000000000E+00  0.00000000000E+00 -0.82946366381E+03  0.12084943970E+04  0.87889062916E+03 0.  0.
        3    1    3    3  502    0 -0.21659094614E+03 -0.33323432208E+03 -0.15691814431E+03  0.42729388666E+03  0.10100000352E+00 0. -1.
       -3    1    3    3    0  502  0.21659094614E+03  0.33323432208E+03 -0.67254551950E+03  0.78120051034E+03  0.10100000352E+00 0.  1.
</event>
<event>
 5   0  0.2679861E-02  0.9018602E+03  0.7818609E-02  0.9423259E-01
       -2   -1    0    0    0  501  0.00000000000E+00  0.00000000000E+00  0.31977392995E+03  0.31977392996E+03  0.25500000920E-02 0.  1.
        2   -1    0    0  501    0  0.00000000000E+00  0.00000000000E+00 -0.63588039860E+03  0.63588039861E+03  0.25500000920E-02 0. -1.
    10030    2    1    2    0    0  0.00000000000E+00  0.00000000000E+00 -0.31610646865E+03  0.95565432857E+03  0.90186024205E+03 0.  0.
        1    1    3    3  502    0  0.13360649222E+03 -0.45610817766E+02 -0.61185842933E+03  0.62793453403E+03  0.50400001928E-02 0. -1.
       -1    1    3    3    0  502 -0.13360649222E+03  0.45610817766E+02  0.29575196068E+03  0.32771979454E+03  0.50400001928E-02 0.  1.
</event>
<event>
 5   0  0.2679861E-02  0.8894920E+03  0.7818609E-02  0.9438813E-01
       -2   -1    0    0    0  501  0.00000000000E+00  0.00000000000E+00  0.12967704812E+03  0.12967704815E+03  0.25500000920E-02 0. -1.
        2   -1    0    0  501    0  0.00000000000E+00  0.00000000000E+00 -0.15253200737E+04  0.15253200737E+04  0.25500000920E-02 0.  1.
    10030    2    1    2    0    0  0.00000000000E+00  0.00000000000E+00 -0.13956430256E+04  0.16549971219E+04  0.88949200024E+03 0.  0.
        1    1    3    3  502    0 -0.15585694251E+03  0.67925109769E+02 -0.14624703751E+04  0.14723195323E+04  0.50400001928E-02 0.  1.
       -1    1    3    3    0  502  0.15585694251E+03 -0.67925109769E+02  0.66827349516E+02  0.18267758958E+03  0.50400001928E-02 0. -1.
</event>
<event>
 5   0  0.2628383E-02  0.9073131E+03  0.7818609E-02  0.9416486E-01
        2   -1    0    0  501    0  0.00000000000E+00  0.00000000000E+00  0.15163491994E+04  0.15163491994E+04  0.25500000920E-02 0.  1.
       -2   -1    0    0    0  501  0.00000000000E+00  0.00000000000E+00 -0.13572351666E+03  0.13572351668E+03  0.25500000920E-02 0. -1.
    10030    2    1    2    0    0  0.00000000000E+00  0.00000000000E+00  0.13806256828E+04  0.16520727161E+04  0.90731305698E+03 0.  0.
        2    1    3    3  502    0 -0.35238822024E+03  0.52514050866E+02  0.12016711743E+04  0.12533749616E+04  0.25500000920E-02 0.  1.
       -2    1    3    3    0  502  0.35238822024E+03 -0.52514050866E+02  0.17895450845E+03  0.39869775445E+03  0.25500000920E-02 0. -1.
</event>
<event>
 5   0  0.2803717E-02  0.8845630E+03  0.7818609E-02  0.9445087E-01
        2   -1    0    0  501    0  0.00000000000E+00  0.00000000000E+00  0.41855794091E+03  0.41855794092E+03  0.25500000920E-02 0.  1.
       -2   -1    0    0    0  501  0.00000000000E+00  0.00000000000E+00 -0.46734968021E+03  0.46734968021E+03  0.25500000920E-02 0. -1.
    10030    2    1    2    0    0  0.00000000000E+00  0.00000000000E+00 -0.48791739294E+02  0.88590762113E+03  0.88456298778E+03 0.  0.
        5    1    3    3  502    0 -0.43735721699E+02  0.30535903273E+03 -0.34179065670E+03  0.46043446355E+03  0.46999998093E+01 0. -1.
       -5    1    3    3    0  502  0.43735721699E+02 -0.30535903273E+03  0.29299891740E+03  0.42547315758E+03  0.46999998093E+01 0.  1.
</event>
<event>
 5   0  0.1459111E-02  0.8999505E+03  0.7818609E-02  0.9425643E-01
       -1   -1    0    0    0  501  0.00000000000E+00  0.00000000000E+00  0.45757171351E+03  0.45757171354E+03  0.50400001928E-02 0. -1.
        1   -1    0    0  501    0  0.00000000000E+00  0.00000000000E+00 -0.44250494571E+03  0.44250494574E+03  0.50400001928E-02 0.  1.
    10030    2    1    2    0    0  0.00000000000E+00  0.00000000000E+00  0.15066767806E+02  0.90007665928E+03  0.89995054591E+03 0.  0.
        2    1    3    3  502    0 -0.74796136794E+02 -0.41404939212E+03  0.16707496896E+03  0.45270896440E+03  0.25500000920E-02 0. -1.
       -2    1    3    3    0  502  0.74796136794E+02  0.41404939212E+03 -0.15200820115E+03  0.44736769487E+03  0.25500000920E-02 0.  1.
</event>
<event>
 5   0  0.2679861E-02  0.9126459E+03  0.7818609E-02  0.9409910E-01
        2   -1    0    0  501    0  0.00000000000E+00  0.00000000000E+00  0.46727285709E+03  0.46727285710E+03  0.25500000920E-02 0.  1.
       -2   -1    0    0    0  501  0.00000000000E+00  0.00000000000E+00 -0.44562965141E+03  0.44562965141E+03  0.25500000920E-02 0. -1.
    10030    2    1    2    0    0  0.00000000000E+00  0.00000000000E+00  0.21643205687E+02  0.91290250851E+03  0.91264591255E+03 0.  0.
        1    1    3    3  502    0  0.32575525508E+03 -0.25125787785E+03  0.20831984855E+03  0.46113356711E+03  0.50400001928E-02 0.  1.
       -1    1    3    3    0  502 -0.32575525508E+03  0.25125787785E+03 -0.18667664286E+03  0.45176894140E+03  0.50400001928E-02 0. -1.
</event>
<event>
 5   0  0.1559275E-02  0.8694896E+03  0.7818609E-02  0.9464546E-01
        1   -1    0    0  501    0  0.00000000000E+00  0.00000000000E+00  0.32903222287E+03  0.32903222291E+03  0.50400001928E-02 0. -1.
       -1   -1    0    0    0  501  0.00000000000E+00  0.00000000000E+00 -0.57442102063E+03  0.57442102065E+03  0.50400001928E-02 0.  1.
    10030    2    1    2    0    0  0.00000000000E+00  0.00000000000E+00 -0.24538879776E+03  0.90345324356E+03  0.86948956362E+03 0.  0.
        1    1    3    3  502    0 -0.16950218043E+03 -0.34140247679E+03 -0.33994622151E+03  0.51073483714E+03  0.50400001928E-02 0.  1.
       -1    1    3    3    0  502  0.16950218043E+03  0.34140247679E+03  0.94557423747E+02  0.39271840642E+03  0.50400001928E-02 0. -1.
</event>
<event>
 5   0  0.1040163E-02  0.9136249E+03  0.7818609E-02  0.9408708E-01
        4   -1    0    0  501    0  0.00000000000E+00  0.00000000000E+00  0.55344640414E+03  0.55344786128E+03  0.12699999809E+01 0.  1.
       -4   -1    0    0    0  501  0.00000000000E+00  0.00000000000E+00 -0.37704818814E+03  0.37705032699E+03  0.12699999809E+01 0. -1.
    10030    2    1    2    0    0  0.00000000000E+00  0.00000000000E+00  0.17639821600E+03  0.93049818827E+03  0.91362494918E+03 0.  0.
        1    1    3    3  502    0  0.54539438717E+02 -0.14255647856E+03 -0.35031127732E+03  0.38211894875E+03  0.50400001928E-02 0. -1.
       -1    1    3    3    0  502 -0.54539438717E+02  0.14255647856E+03  0.52670949331E+03  0.54837923951E+03  0.50400001928E-02 0.  1.
</event>
<event>
 5   0  0.1559275E-02  0.8999853E+03  0.7818609E-02  0.9425600E-01
       -1   -1    0    0    0  501  0.00000000000E+00  0.00000000000E+00  0.10111069819E+03  0.10111069831E+03  0.50400001928E-02 0.  1.
        1   -1    0    0  501    0  0.00000000000E+00  0.00000000000E+00 -0.20026900796E+04  0.20026900796E+04  0.50400001928E-02 0. -1.
    10030    2    1    2    0    0  0.00000000000E+00  0.00000000000E+00 -0.19015793814E+04  0.21038007779E+04  0.89998531619E+03 0.  0.
        1    1    3    3  502    0 -0.24528155983E+03  0.27264585608E+03 -0.34124387524E+03  0.50094529526E+03  0.50400001928E-02 0.  1.
       -1    1    3    3    0  502  0.24528155983E+03 -0.27264585608E+03 -0.15603355062E+04  0.16028554827E+04  0.50400001928E-02 0. -1.
</event>
<event>
 5   0  0.1537870E-02  0.9169569E+03  0.7818609E-02  0.9404629E-01
       -1   -1    0    0    0  501  0.00000000000E+00  0.00000000000E+00  0.41298607166E+03  0.41298607169E+03  0.50400001928E-02 0. -1.
        1   -1    0    0  501    0  0.00000000000E+00  0.00000000000E+00 -0.50898202645E+03  0.50898202648E+03  0.50400001928E-02 0.  1.
    10030    2    1    2    0    0  0.00000000000E+00  0.00000000000E+00 -0.95995954795E+02  0.92196809817E+03  0.91695689686E+03 0.  0.
        5    1    3    3  502    0  0.64494851340E+02  0.34089035421E+02  0.40708881465E+03  0.41360009816E+03  0.46999998093E+01 0. -1.
       -5    1    3    3    0  502 -0.64494851340E+02 -0.34089035421E+02 -0.50308476945E+03  0.50836800001E+03  0.46999998093E+01 0.  1.
</event>
<event>
 5   0  0.1040163E-02  0.8988728E+03  0.7818609E-02  0.9426992E-01
        4   -1    0    0  501    0  0.00000000000E+00  0.00000000000E+00  0.15069109886E+04  0.15069115237E+04  0.12699999809E+01 0. -1.
       -4   -1    0    0    0  501  0.00000000000E+00  0.00000000000E+00 -0.13404088350E+03  0.13404689981E+03  0.12699999809E+01 0.  1.
    10030    2    1    2    0    0  0.00000000000E+00  0.00000000000E+00  0.13728701051E+04  0.16409584236E+04  0.89887275097E+03 0.  0.
        5    1    3    3  502    0 -0.27506806844E+03  0.13129545559E+03  0.83525628767E+02  0.31606891589E+03  0.46999998093E+01 0.  1.
       -5    1    3    3    0  502  0.27506806844E+03 -0.13129545559E+03  0.12893444763E+04  0.13248895077E+04  0.46999998093E+01 0. -1.
</event>
<event>
 5   0  0.2679861E-02  0.9016580E+03  0.7818609E-02  0.9423511E-01
       -2   -1    0    0    0  501  0.00000000000E+00  0.00000000000E+00  0.55750205575E+03  0.55750205575E+03  0.25500000920E-02 0. -1.
        2   -1    0    0  501    0  0.00000000000E+00  0.00000000000E+00 -0.36456690867E+03  0.36456690868E+03  0.25500000920E-02 0.  1.
    10030    2    1    2    0    0  0.00000000000E+00  0.00000000000E+00  0.19293514707E+03  0.92206896443E+03  0.90165803063E+03 0.  0.
        1    1    3    3  502    0  0.37222567084E+02  0.10150467546E+03  0.54404872563E+03  0.55468705999E+03  0.50400001928E-02 0.  1.
       -1    1    3    3    0  502 -0.37222567084E+02 -0.10150467546E+03 -0.35111357855E+03  0.36738190444E+03  0.50400001928E-02 0. -1.
</event>
<event>
 5   0  0.2414128E-02  0.8460098E+03  0.7818609E-02  0.9495708E-01
        2   -1    0    0  501    0  0.00000000000E+00  0.00000000000E+00  0.15474778476E+04  0.15474778476E+04  0.25500000920E-02 0.  1.
       -2   -1    0    0    0  501  0.00000000000E+00  0.00000000000E+00 -0.11562889075E+03  0.11562889077E+03  0.25500000920E-02 0. -1.
    10030    2    1    2    0    0  0.00000000000E+00  0.00000000000E+00  0.14318489568E+04  0.16631067383E+04  0.84600980371E+03 0.  0.
        3    1    3    3  502    0 -0.29119098784E+03  0.70659990568E+02  0.12897489285E+03  0.32622010798E+03  0.10100000352E+00 0. -1.
       -3    1    3    3    0  502  0.29119098784E+03 -0.70659990568E+02  0.13028740640E+04  0.13368866304E+04  0.10100000352E+00 0.  1.
</event>
<event>
 5   0  0.1559275E-02  0.9298074E+03  0.7818609E-02  0.9389069E-01
       -1   -1    0    0    0  501  0.00000000000E+00  0.00000000000E+00  0.13111447038E+03  0.13111447048E+03  0.50400001928E-02 0.  1.
        1   -1    0    0  501    0  0.00000000000E+00  0.00000000000E+00 -0.16484484573E+04  0.16484484573E+04  0.50400001928E-02 0. -1.
    10030    2    1    2    0    0  0.00000000000E+00  0.00000000000E+00 -0.15173339870E+04  0.17795629278E+04  0.92980739194E+03 0.  0.
        1    1    3    3  502    0  0.44792346401E+03  0.10902251828E+03 -0.64360791743E+03  0.79167701148E+03  0.50400001928E-02 0. -1.
       -1    1    3    3    0  502 -0.44792346401E+03 -0.10902251828E+03 -0.87372606953E+03  0.98788591634E+03  0.50400001928E-02 0.  1.
</event>
<event>
 5   0  0.1459111E-02  0.7428466E+03  0.7818609E-02  0.9646640E-01
        1   -1    0    0  501    0  0.00000000000E+00  0.00000000000E+00  0.57894870747E+03  0.57894870749E+03  0.50400001928E-02 0.  1.
       -1   -1    0    0    0  501  0.00000000000E+00  0.00000000000E+00 -0.23828584712E+03  0.23828584717E+03  0.50400001928E-02 0. -1.
    10030    2    1    2    0    0  0.00000000000E+00  0.00000000000E+00  0.34066286035E+03  0.81723455466E+03  0.74284664158E+03 0.  0.
        2    1    3    3  502    0  0.27019515696E+03  0.80375391356E+02  0.43639602923E+03  0.51952586145E+03  0.25500000920E-02 0.  1.
       -2    1    3    3    0  502 -0.27019515696E+03 -0.80375391356E+02 -0.95733168883E+02  0.29770869321E+03  0.25500000920E-02 0. -1.
</event>
<event>
 5   0  0.1537870E-02  0.9130897E+03  0.7818609E-02  0.9409365E-01
       -1   -1    0    0    0  501  0.00000000000E+00  0.00000000000E+00  0.55746534347E+03  0.55746534350E+03  0.50400001928E-02 0.  1.
        1   -1    0    0  501    0  0.00000000000E+00  0.00000000000E+00 -0.37389447729E+03  0.37389447733E+03  0.50400001928E-02 0. -1.
    10030    2    1    2    0    0  0.00000000000E+00  0.00000000000E+00  0.18357086618E+03  0.93135982082E+03  0.91308972885E+03 0.  0.
        5    1    3    3  502    0  0.11229736558E+03  0.14035101837E+02  0.54290564536E+03  0.55459562941E+03  0.46999998093E+01 0.  1.
       -5    1    3    3    0  502 -0.11229736558E+03 -0.14035101837E+02 -0.35933477918E+03  0.37676419141E+03  0.46999998093E+01 0. -1.
</event>
<event>
 5   0  0.1560728E-02  0.9737650E+03  0.7818609E-02  0.9337796E-01
       -1   -1    0    0    0  501  0.00000000000E+00  0.00000000000E+00  0.21550546166E+03  0.21550546172E+03  0.50400001928E-02 0. -1.
        1   -1    0    0  501    0  0.00000000000E+00  0.00000000000E+00 -0.10999934221E+04  0.10999934221E+04  0.50400001928E-02 0.  1.
    10030    2    1    2    0    0  0.00000000000E+00  0.00000000000E+00 -0.88448796042E+03  0.13154988838E+04  0.97376504414E+03 0.  0.
        4    1    3    3  502    0  0.14926880845E+03 -0.41848773921E+03 -0.71121289984E+03  0.83859320701E+03  0.12699999809E+01 0. -1.
       -4    1    3    3    0  502 -0.14926880845E+03  0.41848773921E+03 -0.17327506058E+03  0.47690567680E+03  0.12699999809E+01 0.  1.
</event>
<event>
 5   0  0.1459111E-02  0.8676534E+03  0.7818609E-02  0.9466945E-01
        1   -1    0    0  501    0  0.00000000000E+00  0.00000000000E+00  0.10642506764E+04  0.10642506765E+04  0.50400001928E-02 0.  1.
       -1   -1    0    0    0  501  0.00000000000E+00  0.00000000000E+00 -0.17684330162E+03  0.17684330169E+03  0.50400001928E-02 0. -1.
    10030    2    1    2    0    0  0.00000000000E+00  0.00000000000E+00  0.88740737482E+03  0.12410939781E+04  0.86765339492E+03 0.  0.
        2    1    3    3  502    0  0.40606714646E+03 -0.14341908788E+03  0.36874673444E+03  0.56695124691E+03  0.25500000920E-02 0. -1.
       -2    1    3    3    0  502 -0.40606714646E+03  0.14341908788E+03  0.51866064038E+03  0.67414273124E+03  0.25500000920E-02 0.  1.
</event>
<event>
 5   0  0.1497410E-02  0.8958828E+03  0.7818609E-02  0.9430743E-01
       -1   -1    0    0    0  501  0.00000000000E+00  0.00000000000E+00  0.12494427376E+03  0.12494427386E+03  0.50400001928E-02 0.  1.
        1   -1    0    0  501    0  0.00000000000E+00  0.00000000000E+00 -0.16059280135E+04  0.16059280135E+04  0.50400001928E-02 0. -1.
    10030    2    1    2    0    0  0.00000000000E+00  0.00000000000E+00 -0.14809837397E+04  0.17308722873E+04  0.89588282592E+03 0.  0.
        3    1    3    3  502    0  0.33386106547E+03  0.29841866081E+03 -0.71807773575E+03  0.84625797068E+03  0.10100000352E+00 0. -1.
       -3    1    3    3    0  502 -0.33386106547E+03 -0.29841866081E+03 -0.76290600396E+03  0.88461431666E+03  0.10100000352E+00 0.  1.
</event>
<event>
 5   0  0.2679861E-02  0.8951315E+03  0.7818609E-02  0.9431688E-01
        2   -1    0    0  501    0  0.00000000000E+00  0.00000000000E+00  0.60763032961E+03  0.60763032961E+03  0.25500000920E-02 0. -1.
       -2   -1    0    0    0  501  0.00000000000E+00  0.00000000000E+00 -0.32966609576E+03  0.32966609577E+03  0.25500000920E-02 0.  1.
    10030    2    1    2    0    0  0.00000000000E+00  0.00000000000E+00  0.27796423384E+03  0.93729642539E+03  0.89513153991E+03 0.  0.
        1    1    3    3  502    0  0.15965314268E+03 -0.37098496150E+03  0.34092990502E+03  0.52853776383E+03  0.50400001928E-02 0. -1.
       -1    1    3    3    0  502 -0.15965314268E+03  0.37098496150E+03 -0.62965671172E+02  0.40875866156E+03  0.50400001928E-02 0.  1.
</event>
<event>
 5   0  0.1537870E-02  0.8415154E+03  0.7818609E-02  0.9501796E-01
       -1   -1    0    0    0  501  0.00000000000E+00  0.00000000000E+00  0.11656452323E+04  0.11656452324E+04  0.50400001928E-02 0. -1.
        1   -1    0    0  501    0  0.00000000000E+00  0.00000000000E+00 -0.15187901730E+03  0.15187901739E+03  0.50400001928E-02 0.  1.
    10030    2    1    2    0    0  0.00000000000E+00  0.00000000000E+00  0.10137662150E+04  0.13175242497E+04  0.84151542464E+03 0.  0.
        5    1    3    3  502    0  0.13214904828E+03 -0.10967879322E+02 -0.11826558375E+03  0.17774280192E+03  0.46999998093E+01 0.  1.
       -5    1    3    3    0  502 -0.13214904828E+03  0.10967879322E+02  0.11320317988E+04  0.11397814478E+04  0.46999998093E+01 0. -1.
</event>
<event>
 5   0  0.2628383E-02  0.8839953E+03  0.7818609E-02  0.9445812E-01
        2   -1    0    0  501    0  0.00000000000E+00  0.00000000000E+00  0.17241494082E+03  0.17241494084E+03  0.25500000920E-02 0. -1.
       -2   -1    0    0    0  501  0.00000000000E+00  0.00000000000E+00 -0.11330915879E+04  0.11330915879E+04  0.25500000920E-02 0.  1.
    10030    2    1    2    0    0  0.00000000000E+00  0.00000000000E+00 -0.96067664710E+03  0.13055065288E+04  0.88399529205E+03 0.  0.
        2    1    3    3  502    0  0.17173356971E+03  0.21874015752E+03 -0.98769225395E+03  0.10260972975E+04  0.25500000920E-02 0.  1.
       -2    1    3    3    0  502 -0.17173356971E+03 -0.21874015752E+03  0.27015606852E+02  0.27940923123E+03  0.25500000920E-02 0. -1.
</event>
<event>
 5   0  0.1459111E-02  0.6535988E+03  0.7818609E-02  0.9800050E-01
        1   -1    0    0  501    0  0.00000000000E+00  0.00000000000E+00  0.11758028671E+04  0.11758028671E+04  0.50400001928E-02 0. -1.
       -1   -1    0    0    0  501  0.00000000000E+00  0.00000000000E+00 -0.90829718936E+02  0.90829719076E+02  0.50400001928E-02 0.  1.
    10030    2    1    2    0    0  0.00000000000E+00  0.00000000000E+00  0.10849731481E+04  0.12666325862E+04  0.65359878836E+03 0.  0.
        2    1    3    3  502    0  0.22093665529E+03 -0.92087518889E+02  0.97367069053E+03  0.10026603265E+04  0.25500000920E-02 0. -1.
       -2    1    3    3    0  502 -0.22093665529E+03  0.92087518889E+02  0.11130245762E+03  0.26397225964E+03  0.25500000920E-02 0.  1.
</event>
<event>
 5   0  0.2414128E-02  0.8993790E+03  0.7818609E-02  0.9426358E-01
        2   -1    0    0  501    0  0.00000000000E+00  0.00000000000E+00  0.11905203247E+04  0.11905203247E+04  0.25500000920E-02 0.  1.
       -2   -1    0    0    0  501  0.00000000000E+00  0.00000000000E+00 -0.16985904619E+03  0.16985904621E+03  0.25500000920E-02 0. -1.
    10030    2    1    2    0    0  0.00000000000E+00  0.00000000000E+00  0.10206612785E+04  0.13603793709E+04  0.89937900095E+03 0.  0.
        3    1    3    3  502    0  0.26977789049E+03 -0.22534905618E+03  0.93454918734E+03  0.99847108174E+03  0.10100000352E+00 0.  1.
       -3    1    3    3    0  502 -0.26977789049E+03  0.22534905618E+03  0.86112091161E+02  0.36190828916E+03  0.10100000352E+00 0. -1.
</event>
<event>
 5   0  0.1559275E-02  0.8980698E+03  0.7818609E-02  0.9427997E-01
        1   -1    0    0  501    0  0.00000000000E+00  0.00000000000E+00  0.21926203424E+03  0.21926203430E+03  0.50400001928E-02 0.  1.
       -1   -1    0    0    0  501  0.00000000000E+00  0.00000000000E+00 -0.91959540962E+03  0.91959540964E+03  0.50400001928E-02 0. -1.
    10030    2    1    2    0    0  0.00000000000E+00  0.00000000000E+00 -0.70033337539E+03  0.11388574439E+04  0.89806984190E+03 0.  0.
        1    1    3    3  502    0  0.29717003886E+03 -0.27128054176E+02 -0.77566928219E+03  0.83108892345E+03  0.50400001928E-02 0. -1.
       -1    1    3    3    0  502 -0.29717003886E+03  0.27128054176E+02  0.75335906807E+02  0.30776852048E+03  0.50400001928E-02 0.  1.
</event>
<event>
 5   0  0.2414128E-02  0.8253643E+03  0.7818609E-02  0.9524012E-01
        2   -1    0    0  501    0  0.00000000000E+00  0.00000000000E+00  0.10390573023E+04  0.10390573023E+04  0.25500000920E-02 0. -1.
       -2   -1    0    0    0  501  0.00000000000E+00  0.00000000000E+00 -0.16390486567E+03  0.16390486569E+03  0.25500000920E-02 0.  1.
    10030    2    1    2    0    0  0.00000000000E+00  0.00000000000E+00  0.87515243667E+03  0.12029621680E+04  0.82536427734E+03 0.  0.
        3    1    3    3  502    0 -0.12055287409E+03 -0.37004340392E+03  0.23751489846E+03  0.45593689632E+03  0.10100000352E+00 0.  1.
       -3    1    3    3    0  502  0.12055287409E+03  0.37004340392E+03  0.63763753821E+03  0.74702527171E+03  0.10100000352E+00 0. -1.
</event>
<event>
 5   0  0.1497410E-02  0.9032982E+03  0.7818609E-02  0.9421468E-01
        1   -1    0    0  501    0  0.00000000000E+00  0.00000000000E+00  0.96760964036E+03  0.96760964037E+03  0.50400001928E-02 0. -1.
       -1   -1    0    0    0  501  0.00000000000E+00  0.00000000000E+00 -0.21081528860E+03  0.21081528866E+03  0.50400001928E-02 0.  1.
    10030    2    1    2    0    0  0.00000000000E+00  0.00000000000E+00  0.75679435177E+03  0.11784249290E+04  0.90329819135E+03 0.  0.
        3    1    3    3  502    0 -0.75857080459E+02  0.31988077615E+03 -0.25620352984E+02  0.32974902622E+03  0.10100000352E+00 0.  1.
       -3    1    3    3    0  502  0.75857080459E+02 -0.31988077615E+03  0.78241470475E+03  0.84867590281E+03  0.10100000352E+00 0. -1.
</event>
<event>
 5   0  0.1537870E-02  0.9101795E+03  0.7818609E-02  0.9412945E-01
       -1   -1    0    0    0  501  0.00000000000E+00  0.00000000000E+00  0.25189557117E+03  0.25189557122E+03  0.50400001928E-02 0.  1.
        1   -1    0    0  501    0  0.00000000000E+00  0.00000000000E+00 -0.82219268472E+03  0.82219268473E+03  0.50400001928E-02 0. -1.
    10030    2    1    2    0    0  0.00000000000E+00  0.00000000000E+00 -0.57029711354E+03  0.10740882560E+04  0.91017953387E+03 0.  0.
        5    1    3    3  502    0 -0.11189484876E+03 -0.35339610782E+03 -0.59664453934E+03  0.70243580669E+03  0.46999998093E+01 0. -1.
       -5    1    3    3    0  502  0.11189484876E+03  0.35339610782E+03  0.26347425800E+02  0.37165244926E+03  0.46999998093E+01 0.  1.
</event>
<event>
 5   0  0.1497410E-02  0.9056942E+03  0.7818609E-02  0.9418491E-01
       -1   -1    0    0    0  501  0.00000000000E+00  0.00000000000E+00  0.49311449261E+03  0.49311449264E+03  0.50400001928E-02 0. -1.
        1   -1    0    0  501    0  0.00000000000E+00  0.00000000000E+00 -0.41586794879E+03  0.41586794883E+03  0.50400001928E-02 0.  1.
    10030    2    1    2    0    0  0.00000000000E+00  0.00000000000E+00  0.77246543818E+02  0.90898244146E+03  0.90569423668E+03 0.  0.
        3    1    3    3  502    0  0.16886670672E+03 -0.41729590833E+03  0.87981724730E+02  0.45868576808E+03  0.10100000352E+00 0. -1.
       -3    1    3    3    0  502 -0.16886670672E+03  0.41729590833E+03 -0.10735180913E+02  0.45029667338E+03  0.10100000352E+00 0.  1.
</event>
<event>
 5   0  0.2803717E-02  0.8190709E+03  0.7818609E-02  0.9532816E-01
        2   -1    0    0  501    0  0.00000000000E+00  0.00000000000E+00  0.30190739946E+03  0.30190739947E+03  0.25500000920E-02 0.  1.
       -2   -1    0    0    0  501  0.00000000000E+00  0.00000000000E+00 -0.55553215570E+03  0.55553215571E+03  0.25500000920E-02 0. -1.
    10030    2    1    2    0    0  0.00000000000E+00  0.00000000000E+00 -0.25362475624E+03  0.85743955518E+03  0.81907086007E+03 0.  0.
        5    1    3    3  502    0 -0.61912804212E+02  0.22939422668E+03 -0.47596633160E+03  0.53199712910E+03  0.46999998093E+01 0. -1.
       -5    1    3    3    0  502  0.61912804212E+02 -0.22939422668E+03  0.22234157536E+03  0.32544242608E+03  0.46999998093E+01 0.  1.
</event>
<event>
 5   0  0.2679861E-02  0.9167866E+03  0.7818609E-02  0.9404837E-01
       -2   -1    0    0    0  501  0.00000000000E+00  0.00000000000E+00  0.29672254012E+03  0.29672254013E+03  0.25500000920E-02 0. -1.
        2   -1    0    0  501    0  0.00000000000E+00  0.00000000000E+00 -0.70815116197E+03  0.70815116197E+03  0.25500000920E-02 0.  1.
    10030    2    1    2    0    0  0.00000000000E+00  0.00000000000E+00 -0.41142862185E+03  0.10048737021E+04  0.91678658711E+03 0.  0.
        1    1    3    3  502    0 -0.25347928308E+03  0.37156327887E+03 -0.30260077430E+03  0.54210538255E+03  0.50400001928E-02 0.  1.
       -1    1    3    3    0  502  0.25347928308E+03 -0.37156327887E+03 -0.10882784755E+03  0.46276831956E+03  0.50400001928E-02 0. -1.
</event>
<event>
 5   0  0.2679861E-02  0.9157166E+03  0.7818609E-02  0.9406145E-01
       -2   -1    0    0    0  501  0.00000000000E+00  0.00000000000E+00  0.18397891215E+03  0.18397891216E+03  0.25500000920E-02 0.  1.
        2   -1    0    0  501    0  0.00000000000E+00  0.00000000000E+00 -0.11394470689E+04  0.11394470689E+04  0.25500000920E-02 0. -1.
    10030    2    1    2    0    0  0.00000000000E+00  0.00000000000E+00 -0.95546815678E+03  0.13234259811E+04  0.91571662037E+03 0.  0.
        1    1    3    3  502    0  0.30621405582E+03  0.66866947969E+02  0.46282123828E+01  0.31346396457E+03  0.50400001928E-02 0.  1.
       -1    1    3    3    0  502 -0.30621405582E+03 -0.66866947969E+02 -0.96009636917E+03  0.10099620165E+04  0.50400001928E-02 0. -1.
</event>
<event>
 5   0  0.1459111E-02  0.8056123E+03  0.7818609E-02  0.9551929E-01
        1   -1    0    0  501    0  0.00000000000E+00  0.00000000000E+00  0.13072180264E+04  0.13072180265E+04  0.50400001928E-02 0. -1.
       -1   -1    0    0    0  501  0.00000000000E+00  0.00000000000E+00 -0.12412066806E+03  0.12412066816E+03  0.50400001928E-02 0.  1.
    10030    2    1    2    0    0  0.00000000000E+00  0.00000000000E+00  0.11830973584E+04  0.14313386946E+04  0.80561225120E+03 0.  0.
        2    1    3    3  502    0 -0.34449082908E+03 -0.13891025581E+03  0.86841210689E+03  0.94451552548E+03  0.25500000920E-02 0. -1.
       -2    1    3    3    0  502  0.34449082908E+03  0.13891025581E+03  0.31468525149E+03  0.48682316913E+03  0.25500000920E-02 0.  1.
</event>
<event>
 5   0  0.1040163E-02  0.4610816E+03  0.7818609E-02  0.1024468E+00
        4   -1    0    0  501    0  0.00000000000E+00  0.00000000000E+00  0.14111543052E+04  0.14111548767E+04  0.12699999809E+01 0.  1.
       -4   -1    0    0    0  501  0.00000000000E+00  0.00000000000E+00 -0.37652256956E+02  0.37673669238E+02  0.12699999809E+01 0. -1.
    10030    2    1    2    0    0  0.00000000000E+00  0.00000000000E+00  0.13735020483E+04  0.14488285460E+04  0.46108164022E+03 0.  0.
        2    1    3    3  502    0 -0.16458753804E+02  0.19346311326E+03  0.29617438934E+03  0.35414423005E+03  0.25500000920E-02 0.  1.
       -2    1    3    3    0  502  0.16458753804E+02 -0.19346311326E+03  0.10773276589E+04  0.10946843159E+04  0.25500000920E-02 0. -1.
</event>
<event>
 5   0  0.2628383E-02  0.9427537E+03  0.7818609E-02  0.9373661E-01
        2   -1    0    0  501    0  0.00000000000E+00  0.00000000000E+00  0.97307466724E+03  0.97307466724E+03  0.25500000920E-02 0.  1.
       -2   -1    0    0    0  501  0.00000000000E+00  0.00000000000E+00 -0.22834440608E+03  0.22834440610E+03  0.25500000920E-02 0. -1.
    10030    2    1    2    0    0  0.00000000000E+00  0.00000000000E+00  0.74473026115E+03  0.12014190733E+04  0.94275374723E+03 0.  0.
        2    1    3    3  502    0  0.59233599419E+02  0.43410271562E+03  0.59398268907E+03  0.73808483383E+03  0.25500000920E-02 0.  1.
       -2    1    3    3    0  502 -0.59233599419E+02 -0.43410271562E+03  0.15074757208E+03  0.46333423951E+03  0.25500000920E-02 0. -1.
</event>
<event>
 5   0  0.1537870E-02  0.9131800E+03  0.7818609E-02  0.9409254E-01
       -1   -1    0    0    0  501  0.00000000000E+00  0.00000000000E+00  0.35725831166E+03  0.35725831170E+03  0.50400001928E-02 0. -1.
        1   -1    0    0  501    0  0.00000000000E+00  0.00000000000E+00 -0.58353971288E+03  0.58353971290E+03  0.50400001928E-02 0.  1.
    10030    2    1    2    0    0  0.00000000000E+00  0.00000000000E+00 -0.22628140122E+03  0.94079802460E+03  0.91317996613E+03 0.  0.
        5    1    3    3  502    0  0.20211285436E+01 -0.79230017968E+02  0.35009207676E+03  0.35898193954E+03  0.46999998093E+01 0. -1.
       -5    1    3    3    0  502 -0.20211285436E+01  0.79230017968E+02 -0.57637347798E+03  0.58181608506E+03  0.46999998093E+01 0.  1.
</event>
<event>
 5   0  0.1560728E-02  0.8640781E+03  0.7818609E-02  0.9471634E-01
       -1   -1    0    0    0  501  0.00000000000E+00  0.00000000000E+00  0.29532717550E+03  0.29532717554E+03  0.50400001928E-02 0.  1.
        1   -1    0    0  501    0  0.00000000000E+00  0.00000000000E+00 -0.63203710474E+03  0.63203710476E+03  0.50400001928E-02 0. -1.
    10030    2    1    2    0    0  0.00000000000E+00  0.00000000000E+00 -0.33670992924E+03  0.92736428030E+03  0.86407808208E+03 0.  0.
        4    1    3    3  502    0  0.25418785005E+03 -0.13068703612E+03  0.17935791626E+03  0.33743360761E+03  0.12699999809E+01 0.  1.
       -4    1    3    3    0  502 -0.25418785005E+03  0.13068703612E+03 -0.51606784549E+03  0.58993067269E+03  0.12699999809E+01 0. -1.
</event>
<event>
 5   0  0.1497410E-02  0.9163911E+03  0.7818609E-02  0.9405321E-01
        1   -1    0    0  501    0  0.00000000000E+00  0.00000000000E+00  0.56870006120E+03  0.56870006122E+03  0.50400001928E-02 0. -1.
       -1   -1    0    0    0  501  0.00000000000E+00  0.00000000000E+00 -0.36916321497E+03  0.36916321500E+03  0.50400001928E-02 0.  1.
    10030    2    1    2    0    0  0.00000000000E+00  0.00000000000E+00  0.19953684624E+03  0.93786327622E+03  0.91639105838E+03 0.  0.
        3    1    3    3  502    0  0.34235685644E+03 -0.11548610387E+03  0.38814708904E+03  0.53028617771E+03  0.10100000352E+00 0. -1.
       -3    1    3    3    0  502 -0.34235685644E+03  0.11548610387E+03 -0.18861024281E+03  0.40757709851E+03  0.10100000352E+00 0.  1.
</event>
<event>
 5   0  0.1497410E-02  0.9134196E+03  0.7818609E-02  0.9408960E-01
        1   -1    0    0  501    0  0.00000000000E+00  0.00000000000E+00  0.25338150412E+03  0.25338150417E+03  0.50400001928E-02 0. -1.
       -1   -1    0    0    0  501  0.00000000000E+00  0.00000000000E+00 -0.82320075904E+03  0.82320075906E+03  0.50400001928E-02 0.  1.
    10030    2    1    2    0    0  0.00000000000E+00  0.00000000000E+00 -0.56981925492E+03  0.10765822632E+04  0.91341961124E+03 0.  0.
        3    1    3    3  502    0 -0.25324471205E+03  0.22216874239E+03  0.78543896767E+02  0.34592049404E+03  0.10100000352E+00 0. -1.
       -3    1    3    3    0  502  0.25324471205E+03 -0.22216874239E+03 -0.64836315169E+03  0.73066176918E+03  0.10100000352E+00 0.  1.
</event>
<event>
 5   0  0.2628383E-02  0.8953601E+03  0.7818609E-02  0.9431400E-01
        2   -1    0    0  501    0  0.00000000000E+00  0.00000000000E+00  0.83810407907E+03  0.83810407908E+03  0.25500000920E-02 0.  1.
       -2   -1    0    0    0  501  0.00000000000E+00  0.00000000000E+00 -0.23913192186E+03  0.23913192187E+03  0.25500000920E-02 0. -1.
    10030    2    1    2    0    0  0.00000000000E+00  0.00000000000E+00  0.59897215721E+03  0.10772360010E+04  0.89536012678E+03 0.  0.
        2    1    3    3  502    0  0.40057903468E+03  0.15856518384E+03  0.44590752512E+03  0.62003225845E+03  0.25500000920E-02 0.  1.
       -2    1    3    3    0  502 -0.40057903468E+03 -0.15856518384E+03  0.15306463210E+03  0.45720374250E+03  0.25500000920E-02 0. -1.
</event>
<event>
 5   0  0.2628383E-02  0.8789756E+03  0.7818609E-02  0.9452251E-01
        2   -1    0    0  501    0  0.00000000000E+00  0.00000000000E+00  0.90838208576E+03  0.90838208576E+03  0.25500000920E-02 0. -1.
       -2   -1    0    0    0  501  0.00000000000E+00  0.00000000000E+00 -0.21263028213E+03  0.21263028215E+03  0.25500000920E-02 0.  1.
    10030    2    1    2    0    0  0.00000000000E+00  0.00000000000E+00  0.69575180363E+03  0.11210123679E+04  0.87897562922E+03 0.  0.
        2    1    3    3  502    0 -0.28207471250E+03  0.10957322626E+03 -0.58596892710E+02  0.30823048387E+03  0.25500000920E-02 0.  1.
       -2    1    3    3    0  502  0.28207471250E+03 -0.10957322626E+03  0.75434869634E+03  0.81278188404E+03  0.25500000920E-02 0. -1.
</event>
<event>
 5   0  0.1560728E-02  0.9077300E+03  0.7818609E-02  0.9415970E-01
        1   -1    0    0  501    0  0.00000000000E+00  0.00000000000E+00  0.82222165057E+03  0.82222165059E+03  0.50400001928E-02 0. -1.
       -1   -1    0    0    0  501  0.00000000000E+00  0.00000000000E+00 -0.25053270688E+03  0.25053270693E+03  0.50400001928E-02 0.  1.
    10030    2    1    2    0    0  0.00000000000E+00  0.00000000000E+00  0.57168894369E+03  0.10727543575E+04  0.90772995061E+03 0.  0.
        4    1    3    3  502    0 -0.98721286006E+02 -0.10290566538E+03  0.79505632934E+03  0.80774479138E+03  0.12699999809E+01 0. -1.
       -4    1    3    3    0  502  0.98721286006E+02  0.10290566538E+03 -0.22336738564E+03  0.26500956614E+03  0.12699999809E+01 0.  1.
</event>
<event>
 5   0  0.1559275E-02  0.9318889E+03  0.7818609E-02  0.9386574E-01
       -1   -1    0    0    0  501  0.00000000000E+00  0.00000000000E+00  0.22209524967E+03  0.22209524973E+03  0.50400001928E-02 0.  1.
        1   -1    0    0  501    0  0.00000000000E+00  0.00000000000E+00 -0.97752767263E+03  0.97752767264E+03  0.50400001928E-02 0. -1.
    10030    2    1    2    0    0  0.00000000000E+00  0.00000000000E+00 -0.75543242296E+03  0.11996229224E+04  0.93188894737E+03 0.  0.
        1    1    3    3  502    0 -0.35033651480E+03  0.28876788280E+03 -0.51261720892E+03  0.68476197810E+03  0.50400001928E-02 0.  1.
       -1    1    3    3    0  502  0.35033651480E+03 -0.28876788280E+03 -0.24281521404E+03  0.51486094427E+03  0.50400001928E-02 0. -1.
</event>
<event>
 5   0  0.1560728E-02  0.9124449E+03  0.7818609E-02  0.9410157E-01
        1   -1    0    0  501    0  0.00000000000E+00  0.00000000000E+00  0.16850009758E+04  0.16850009758E+04  0.50400001928E-02 0. -1.
       -1   -1    0    0    0  501  0.00000000000E+00  0.00000000000E+00 -0.12352451047E+03  0.12352451058E+03  0.50400001928E-02 0.  1.
    10030    2    1    2    0    0  0.00000000000E+00  0.00000000000E+00  0.15614764654E+04  0.18085254864E+04  0.91244489321E+03 0.  0.
        4    1    3    3  502    0  0.12952304122E+03  0.20489720252E+03  0.14680258993E+02  0.24285016926E+03  0.12699999809E+01 0.  1.
       -4    1    3    3    0  502 -0.12952304122E+03 -0.20489720252E+03  0.15467962064E+04  0.15656753172E+04  0.12699999809E+01 0. -1.
</event>
<event>
 5   0  0.1040163E-02  0.9143323E+03  0.7818609E-02  0.9407841E-01
       -3   -1    0    0    0  501  0.00000000000E+00  0.00000000000E+00  0.15337787502E+03  0.15337790828E+03  0.10100000352E+00 0. -1.
        3   -1    0    0  501    0  0.00000000000E+00  0.00000000000E+00 -0.13626532745E+04  0.13626532782E+04  0.10100000352E+00 0.  1.
    10030    2    1    2    0    0  0.00000000000E+00  0.00000000000E+00 -0.12092753994E+04  0.15160311865E+04  0.91433230650E+03 0.  0.
        3    1    3    3  502    0 -0.25149851261E+03  0.34798578437E+03 -0.34428686016E+03  0.55034449233E+03  0.10100000352E+00 0. -1.
       -3    1    3    3    0  502  0.25149851261E+03 -0.34798578437E+03 -0.86498853928E+03  0.96568669414E+03  0.10100000352E+00 0.  1.
</event>
<event>
 5   0  0.1040163E-02  0.8946278E+03  0.7818609E-02  0.9432322E-01
       -3   -1    0    0    0  501  0.00000000000E+00  0.00000000000E+00  0.38268103929E+03  0.38268105262E+03  0.10100000352E+00 0. -1.
        3   -1    0    0  501    0  0.00000000000E+00  0.00000000000E+00 -0.52286287115E+03  0.52286288090E+03  0.10100000352E+00 0.  1.
    10030    2    1    2    0    0  0.00000000000E+00  0.00000000000E+00 -0.14018183186E+03  0.90554393352E+03  0.89462778269E+03 0.  0.
        2    1    3    3  502    0 -0.47112137205E+02 -0.22139679303E+03  0.32043229417E+03  0.39231740796E+03  0.25500000920E-02 0. -1.
       -2    1    3    3    0  502  0.47112137205E+02  0.22139679303E+03 -0.46061412603E+03  0.51322652556E+03  0.25500000920E-02 0.  1.
</event>
<event>
 5   0  0.1497410E-02  0.8938573E+03  0.7818609E-02  0.9433293E-01
        1   -1    0    0  501    0  0.00000000000E+00  0.00000000000E+00  0.96924472538E+02  0.96924472669E+02  0.50400001928E-02 0.  1.
       -1   -1    0    0    0  501  0.00000000000E+00  0.00000000000E+00 -0.20608335191E+04  0.20608335191E+04  0.50400001928E-02 0. -1.
    10030    2    1    2    0    0  0.00000000000E+00  0.00000000000E+00 -0.19639090466E+04  0.21577579918E+04  0.89385726372E+03 0.  0.
        3    1    3    3  502    0 -0.42633244617E+03  0.10354531213E+03 -0.11876992057E+04  0.12661399606E+04  0.10100000352E+00 0.  1.
       -3    1    3    3    0  502  0.42633244617E+03 -0.10354531213E+03 -0.77620984085E+03  0.89161803120E+03  0.10100000352E+00 0. -1.
</event>
<event>
 5   0  0.2679861E-02  0.9078561E+03  0.7818609E-02  0.9415814E-01
       -2   -1    0    0    0  501  0.00000000000E+00  0.00000000000E+00  0.51364420777E+03  0.51364420778E+03  0.25500000920E-02 0. -1.
        2   -1    0    0  501    0  0.00000000000E+00  0.00000000000E+00 -0.40115443736E+03  0.40115443737E+03  0.25500000920E-02 0.  1.
    10030    2    1    2    0    0  0.00000000000E+00  0.00000000000E+00  0.11248977041E+03  0.91479864514E+03  0.90785605286E+03 0.  0.
        1    1    3    3  502    0 -0.42499550461E+03  0.15946485487E+03  0.56908921032E+02  0.45748097687E+03  0.50400001928E-02 0. -1.
       -1    1    3    3    0  502  0.42499550461E+03 -0.15946485487E+03  0.55580849378E+02  0.45731766828E+03  0.50400001928E-02 0.  1.
</event>
<event>
 5   0  0.2414128E-02  0.8735285E+03  0.7818609E-02  0.9459291E-01
        2   -1    0    0  501    0  0.00000000000E+00  0.00000000000E+00  0.63754243271E+03  0.63754243272E+03  0.25500000920E-02 0. -1.
       -2   -1    0    0    0  501  0.00000000000E+00  0.00000000000E+00 -0.29921617734E+03  0.29921617735E+03  0.25500000920E-02 0.  1.
    10030    2    1    2    0    0  0.00000000000E+00  0.00000000000E+00  0.33832625538E+03  0.93675861007E+03  0.87352849894E+03 0.  0.
        3    1    3    3  502    0 -0.13192943701E+03  0.41362601319E+03  0.11805699981E+03  0.44992146041E+03  0.10100000352E+00 0.  1.
       -3    1    3    3    0  502  0.13192943701E+03 -0.41362601319E+03  0.22026925556E+03  0.48683714965E+03  0.10100000352E+00 0. -1.
</event>
<event>
 5   0  0.2679861E-02  0.9032313E+03  0.7818609E-02  0.9421551E-01
       -2   -1    0    0    0  501  0.00000000000E+00  0.00000000000E+00  0.26488606725E+03  0.26488606726E+03  0.25500000920E-02 0.  1.
        2   -1    0    0  501    0  0.00000000000E+00  0.00000000000E+00 -0.76997897489E+03  0.76997897489E+03  0.25500000920E-02 0. -1.
    10030    2    1    2    0    0  0.00000000000E+00  0.00000000000E+00 -0.50509290764E+03  0.10348650421E+04  0.90323131595E+03 0.  0.
        1    1    3    3  502    0  0.40561783465E+03  0.17597857458E+03 -0.35794434357E+03  0.56887471346E+03  0.50400001928E-02 0. -1.
       -1    1    3    3    0  502 -0.40561783465E+03 -0.17597857458E+03 -0.14714856407E+03  0.46599032869E+03  0.50400001928E-02 0.  1.
</event>
<event>
 5   0  0.1040163E-02  0.9022251E+03  0.7818609E-02  0.9422804E-01
       -3   -1    0    0    0  501  0.00000000000E+00  0.00000000000E+00  0.37441675409E+03  0.37441676772E+03  0.10100000352E+00 0. -1.
        3   -1    0    0  501    0  0.00000000000E+00  0.00000000000E+00 -0.54351871339E+03  0.54351872277E+03  0.10100000352E+00 0.  1.
    10030    2    1    2    0    0  0.00000000000E+00  0.00000000000E+00 -0.16910195929E+03  0.91793549049E+03  0.90222507838E+03 0.  0.
        1    1    3    3  502    0  0.13074257385E+03  0.19214196936E+03  0.30882140581E+03  0.38650073443E+03  0.50400001928E-02 0. -1.
       -1    1    3    3    0  502 -0.13074257385E+03 -0.19214196936E+03 -0.47792336510E+03  0.53143475605E+03  0.50400001928E-02 0.  1.
</event>
<event>
 5   0  0.2414128E-02  0.8261084E+03  0.7818609E-02  0.9522977E-01
       -2   -1    0    0    0  501  0.00000000000E+00  0.00000000000E+00  0.40053529846E+03  0.40053529847E+03  0.25500000920E-02 0. -1.
        2   -1    0    0  501    0  0.00000000000E+00  0.00000000000E+00 -0.42596439039E+03  0.42596439040E+03  0.25500000920E-02 0.  1.
    10030    2    1    2    0    0  0.00000000000E+00  0.00000000000E+00 -0.25429091928E+02  0.82649968887E+03  0.82610840510E+03 0.  0.
        3    1    3    3  502    0  0.11345601811E+03  0.28863097990E+03  0.26023999365E+03  0.40485179399E+03  0.10100000352E+00 0. -1.
       -3    1    3    3    0  502 -0.11345601811E+03 -0.28863097990E+03 -0.28566908557E+03  0.42164789488E+03  0.10100000352E+00 0.  1.
</event>
<event>
 5   0  0.2803717E-02  0.9655118E+03  0.7818609E-02  0.9347201E-01
       -2   -1    0    0    0  501  0.00000000000E+00  0.00000000000E+00  0.34540071177E+03  0.34540071178E+03  0.25500000920E-02 0.  1.
        2   -1    0    0  501    0  0.00000000000E+00  0.00000000000E+00 -0.67473304838E+03  0.67473304838E+03  0.25500000920E-02 0. -1.
    10030    2    1    2    0    0  0.00000000000E+00  0.00000000000E+00 -0.32933233661E+03  0.10201337602E+04  0.96551183353E+03 0.  0.
        5    1    3    3  502    0  0.26476841390E+03 -0.29678485551E+03 -0.45372651678E+03  0.60338495630E+03  0.46999998093E+01 0.  1.
       -5    1    3    3    0  502 -0.26476841390E+03  0.29678485551E+03  0.12439418018E+03  0.41674880386E+03  0.46999998093E+01 0. -1.
</event>
<event>
 5   0  0.1040163E-02  0.9850535E+03  0.7818609E-02  0.9325091E-01
       -4   -1    0    0    0  501  0.00000000000E+00  0.00000000000E+00  0.91249060701E+03  0.91249149080E+03  0.12699999809E+01 0. -1.
        4   -1    0    0  501    0  0.00000000000E+00  0.00000000000E+00 -0.26584413477E+03  0.26584716830E+03  0.12699999809E+01 0.  1.
    10030    2    1    2    0    0  0.00000000000E+00  0.00000000000E+00  0.64664647223E+03  0.11783386591E+04  0.98505346833E+03 0.  0.
        2    1    3    3  502    0  0.25875026350E+03  0.63250965263E+02 -0.17224923859E+03  0.31720999932E+03  0.25500000920E-02 0.  1.
       -2    1    3    3    0  502 -0.25875026350E+03 -0.63250965263E+02  0.81889571082E+03  0.86112865977E+03  0.25500000920E-02 0. -1.
</event>
<event>
 5   0  0.1559275E-02  0.8736921E+03  0.7818609E-02  0.9459079E-01
       -1   -1    0    0    0  501  0.00000000000E+00  0.00000000000E+00  0.90413388507E+02  0.90413388648E+02  0.50400001928E-02 0.  1.
        1   -1    0    0  501    0  0.00000000000E+00  0.00000000000E+00 -0.21106882723E+04  0.21106882723E+04  0.50400001928E-02 0. -1.
    10030    2    1    2    0    0  0.00000000000E+00  0.00000000000E+00 -0.20202748838E+04  0.22011016609E+04  0.87369211726E+03 0.  0.
        1    1    3    3  502    0 -0.31665614723E+02  0.33591200115E+03 -0.17091945408E+04  0.17421783956E+04  0.50400001928E-02 0. -1.
       -1    1    3    3    0  502  0.31665614723E+02 -0.33591200115E+03 -0.31108034294E+03  0.45892326533E+03  0.50400001928E-02 0.  1.
</event>
<event>
 5   0  0.2679861E-02  0.6997330E+03  0.7818609E-02  0.9717689E-01
       -2   -1    0    0    0  501  0.00000000000E+00  0.00000000000E+00  0.57069849759E+03  0.57069849760E+03  0.25500000920E-02 0. -1.
        2   -1    0    0  501    0  0.00000000000E+00  0.00000000000E+00 -0.21448553717E+03  0.21448553718E+03  0.25500000920E-02 0.  1.
    10030    2    1    2    0    0  0.00000000000E+00  0.00000000000E+00  0.35621296042E+03  0.78518403478E+03  0.69973301716E+03 0.  0.
        1    1    3    3  502    0  0.31866596560E+03  0.97523733941E+02  0.29764089743E+03  0.44682097104E+03  0.50400001928E-02 0. -1.
       -1    1    3    3    0  502 -0.31866596560E+03 -0.97523733941E+02  0.58572062991E+02  0.33836306374E+03  0.50400001928E-02 0.  1.
</event>
<event>
 5   0  0.1497410E-02  0.9043269E+03  0.7818609E-02  0.9420189E-01
       -1   -1    0    0    0  501  0.00000000000E+00  0.00000000000E+00  0.15855497166E+03  0.15855497174E+03  0.50400001928E-02 0.  1.
        1   -1    0    0  501    0  0.00000000000E+00  0.00000000000E+00 -0.12894694154E+04  0.12894694154E+04  0.50400001928E-02 0. -1.
    10030    2    1    2    0    0  0.00000000000E+00  0.00000000000E+00 -0.11309144438E+04  0.14480243872E+04  0.90432690258E+03 0.  0.
        3    1    3    3  502    0 -0.46450636478E+02 -0.32141230916E+03 -0.61675702434E+02  0.33055625327E+03  0.10100000352E+00 0.  1.
       -3    1    3    3    0  502  0.46450636478E+02  0.32141230916E+03 -0.10692387413E+04  0.11174681339E+04  0.10100000352E+00 0. -1.
</event>
<event>
 5   0  0.1459111E-02  0.8981352E+03  0.7818609E-02  0.9427916E-01
       -1   -1    0    0    0  501  0.00000000000E+00  0.00000000000E+00  0.22676877456E+03  0.22676877462E+03  0.50400001928E-02 0. -1.
        1   -1    0    0  501    0  0.00000000000E+00  0.00000000000E+00 -0.88928339079E+03  0.88928339080E+03  0.50400001928E-02 0.  1.
    10030    2    1    2    0    0  0.00000000000E+00  0.00000000000E+00 -0.66251461622E+03  0.11160521654E+04  0.89813518984E+03 0.  0.
        2    1    3    3  502    0  0.34475626436E+03 -0.55133324147E+02  0.19696004717E+02  0.34969200428E+03  0.25500000920E-02 0. -1.
       -2    1    3    3    0  502 -0.34475626436E+03  0.55133324147E+02 -0.68221062094E+03  0.76636016114E+03  0.25500000920E-02 0.  1.
</event>
<event>
 5   0  0.1560728E-02  0.9087695E+03  0.7818609E-02  0.9414685E-01
       -1   -1    0    0    0  501  0.00000000000E+00  0.00000000000E+00  0.28646446352E+03  0.28646446357E+03  0.50400001928E-02 0.  1.
        1   -1    0    0  501    0  0.00000000000E+00  0.00000000000E+00 -0.72073685039E+03  0.72073685041E+03  0.50400001928E-02 0. -1.
    10030    2    1    2    0    0  0.00000000000E+00  0.00000000000E+00 -0.43427238687E+03  0.10072013140E+04  0.90876948721E+03 0.  0.
        4    1    3    3  502    0  0.43214776720E+03 -0.11558108178E+03 -0.12879588354E+03  0.46551119394E+03  0.12699999809E+01 0. -1.
       -4    1    3    3    0  502 -0.43214776720E+03  0.11558108178E+03 -0.30547650333E+03  0.54169012004E+03  0.12699999809E+01 0.  1.
</event>
<event>
 5   0  0.2705111E-02  0.8851567E+03  0.7818609E-02  0.9444329E-01
        2   -1    0    0  501    0  0.00000000000E+00  0.00000000000E+00  0.74947528608E+03  0.74947528608E+03  0.25500000920E-02 0. -1.
       -2   -1    0    0    0  501  0.00000000000E+00  0.00000000000E+00 -0.26135027732E+03  0.26135027733E+03  0.25500000920E-02 0.  1.
    10030    2    1    2    0    0  0.00000000000E+00  0.00000000000E+00  0.48812500876E+03  0.10108255634E+04  0.88515665024E+03 0.  0.
        4    1    3    3  502    0  0.34255605076E+03 -0.26210588748E+03  0.13084103369E+03  0.45073843098E+03  0.12699999809E+01 0. -1.
       -4    1    3    3    0  502 -0.34255605076E+03  0.26210588748E+03  0.35728397508E+03  0.56008713243E+03  0.12699999809E+01 0.  1.
</event>
<event>
 5   0  0.1537870E-02  0.8962397E+03  0.7818609E-02  0.9430294E-01
       -1   -1    0    0    0  501  0.00000000000E+00  0.00000000000E+00  0.11488737140E+03  0.11488737151E+03  0.50400001928E-02 0.  1.
        1   -1    0    0  501    0  0.00000000000E+00  0.00000000000E+00 -0.17478977524E+04  0.17478977524E+04  0.50400001928E-02 0. -1.
    10030    2    1    2    0    0  0.00000000000E+00  0.00000000000E+00 -0.16330103810E+04  0.18627851239E+04  0.89623965179E+03 0.  0.
        5    1    3    3  502    0 -0.10601358345E+03  0.35195195628E+02  0.85434017636E+02  0.14070765096E+03  0.46999998093E+01 0.  1.
       -5    1    3    3    0  502  0.10601358345E+03 -0.35195195628E+02 -0.17184443986E+04  0.17220774729E+04  0.46999998093E+01 0. -1.
</event>
<event>
 5   0  0.1497410E-02  0.9107245E+03  0.7818609E-02  0.9412274E-01
        1   -1    0    0  501    0  0.00000000000E+00  0.00000000000E+00  0.45685696158E+03  0.45685696160E+03  0.50400001928E-02 0. -1.
       -1   -1    0    0    0  501  0.00000000000E+00  0.00000000000E+00 -0.45387240347E+03  0.45387240349E+03  0.50400001928E-02 0.  1.
    10030    2    1    2    0    0  0.00000000000E+00  0.00000000000E+00  0.29845581107E+01  0.91072936510E+03  0.91072447473E+03 0.  0.
        3    1    3    3  502    0 -0.57051693282E+01 -0.39697282837E+03 -0.22152188131E+03  0.45463384115E+03  0.10100000352E+00 0.  1.
       -3    1    3    3    0  502  0.57051693282E+01  0.39697282837E+03  0.22450643942E+03  0.45609552395E+03  0.10100000352E+00 0. -1.
</event>
<event>
 5   0  0.1537870E-02  0.8964719E+03  0.7818609E-02  0.9430003E-01
        1   -1    0    0  501    0  0.00000000000E+00  0.00000000000E+00  0.29314436929E+03  0.29314436933E+03  0.50400001928E-02 0.  1.
       -1   -1    0    0    0  501  0.00000000000E+00  0.00000000000E+00 -0.68538058154E+03  0.68538058156E+03  0.50400001928E-02 0. -1.
    10030    2    1    2    0    0  0.00000000000E+00  0.00000000000E+00 -0.39223621225E+03  0.97852495089E+03  0.89647188093E+03 0.  0.
        5    1    3    3  502    0  0.44055959447E+03  0.81808815306E+02 -0.20745791914E+03  0.49380797559E+03  0.46999998093E+01 0.  1.
       -5    1    3    3    0  502 -0.44055959447E+03 -0.81808815306E+02 -0.18477829311E+03  0.48471697530E+03  0.46999998093E+01 0. -1.
</event>
<event>
 5   0  0.2803717E-02  0.9143646E+03  0.7818609E-02  0.9407801E-01
       -2   -1    0    0    0  501  0.00000000000E+00  0.00000000000E+00  0.17833814312E+03  0.17833814314E+03  0.25500000920E-02 0. -1.
        2   -1    0    0  501    0  0.00000000000E+00  0.00000000000E+00 -0.11720188063E+04  0.11720188063E+04  0.25500000920E-02 0.  1.
    10030    2    1    2    0    0  0.00000000000E+00  0.00000000000E+00 -0.99368066315E+03  0.13503569494E+04  0.91436460479E+03 0.  0.
        5    1    3    3  502    0  0.44914682434E+03 -0.76464437407E+02 -0.55237147597E+03  0.71604191041E+03  0.46999998093E+01 0. -1.
       -5    1    3    3    0  502 -0.44914682434E+03  0.76464437407E+02 -0.44130918718E+03  0.63431503899E+03  0.46999998093E+01 0.  1.
</event>
<event>
 5   0  0.2679861E-02  0.9056118E+03  0.7818609E-02  0.9418593E-01
       -2   -1    0    0    0  501  0.00000000000E+00  0.00000000000E+00  0.30546268499E+03  0.30546268500E+03  0.25500000920E-02 0. -1.
        2   -1    0    0  501    0  0.00000000000E+00  0.00000000000E+00 -0.67122169871E+03  0.67122169872E+03  0.25500000920E-02 0.  1.
    10030    2    1    2    0    0  0.00000000000E+00  0.00000000000E+00 -0.36575901373E+03  0.97668438372E+03  0.90561179833E+03 0.  0.
        1    1    3    3  502    0 -0.10879466351E+03 -0.43702593417E+03 -0.23352487627E+03  0.50730840108E+03  0.50400001928E-02 0.  1.
       -1    1    3    3    0  502  0.10879466351E+03  0.43702593417E+03 -0.13223413746E+03  0.46937598264E+03  0.50400001928E-02 0. -1.
</event>
<event>
 5   0  0.1459111E-02  0.8949308E+03  0.7818609E-02  0.9431940E-01
       -1   -1    0    0    0  501  0.00000000000E+00  0.00000000000E+00  0.46058080128E+03  0.46058080130E+03  0.50400001928E-02 0.  1.
        1   -1    0    0  501    0  0.00000000000E+00  0.00000000000E+00 -0.43472345786E+03  0.43472345789E+03  0.50400001928E-02 0. -1.
    10030    2    1    2    0    0  0.00000000000E+00  0.00000000000E+00  0.25857343417E+02  0.89530425919E+03  0.89493078745E+03 0.  0.
        2    1    3    3  502    0 -0.36205569989E+03 -0.23116132842E+03  0.13830211405E+03  0.45127304854E+03  0.25500000920E-02 0.  1.
       -2    1    3    3    0  502  0.36205569989E+03  0.23116132842E+03 -0.11244477064E+03  0.44403121065E+03  0.25500000920E-02 0. -1.
</event>
<event>
 5   0  0.2803717E-02  0.5751985E+03  0.7818609E-02  0.9958241E-01
       -2   -1    0    0    0  501  0.00000000000E+00  0.00000000000E+00  0.11057635802E+03  0.11057635805E+03  0.25500000920E-02 0. -1.
        2   -1    0    0  501    0  0.00000000000E+00  0.00000000000E+00 -0.74801990092E+03  0.74801990092E+03  0.25500000920E-02 0.  1.
    10030    2    1    2    0    0  0.00000000000E+00  0.00000000000E+00 -0.63744354290E+03  0.85859625897E+03  0.57519845752E+03 0.  0.
        5    1    3    3  502    0 -0.27505328519E+03 -0.54595286073E+02 -0.22365367823E+03  0.35871717654E+03  0.46999998093E+01 0. -1.
       -5    1    3    3    0  502  0.27505328519E+03  0.54595286073E+02 -0.41378986467E+03  0.49987908244E+03  0.46999998093E+01 0.  1.
</event>
<event>
 5   0  0.2679861E-02  0.9108860E+03  0.7818609E-02  0.9412075E-01
        2   -1    0    0  501    0  0.00000000000E+00  0.00000000000E+00  0.20512081094E+04  0.20512081094E+04  0.25500000920E-02 0. -1.
       -2   -1    0    0    0  501  0.00000000000E+00  0.00000000000E+00 -0.10112496281E+03  0.10112496284E+03  0.25500000920E-02 0.  1.
    10030    2    1    2    0    0  0.00000000000E+00  0.00000000000E+00  0.19500831466E+04  0.21523330722E+04  0.91088603855E+03 0.  0.
        1    1    3    3  502    0 -0.30818727745E+03 -0.33383064532E+03  0.10499885920E+04  0.11440709511E+04  0.50400001928E-02 0. -1.
       -1    1    3    3    0  502  0.30818727745E+03  0.33383064532E+03  0.90009455457E+03  0.10082621211E+04  0.50400001928E-02 0.  1.
</event>
<event>
 5   0  0.1537870E-02  0.9066527E+03  0.7818609E-02  0.9417303E-01
        1   -1    0    0  501    0  0.00000000000E+00  0.00000000000E+00  0.26066269851E+03  0.26066269856E+03  0.50400001928E-02 0.  1.
       -1   -1    0    0    0  501  0.00000000000E+00  0.00000000000E+00 -0.78839346189E+03  0.78839346190E+03  0.50400001928E-02 0. -1.
    10030    2    1    2    0    0  0.00000000000E+00  0.00000000000E+00 -0.52773076338E+03  0.10490561605E+04  0.90665267286E+03 0.  0.
        5    1    3    3  502    0  0.10782052515E+03  0.42829003810E+03 -0.14572538128E+03  0.46509740821E+03  0.46999998093E+01 0.  1.
       -5    1    3    3    0  502 -0.10782052515E+03 -0.42829003810E+03 -0.38200538210E+03  0.58395875225E+03  0.46999998093E+01 0. -1.
</event>
<event>
 5   0  0.2679861E-02  0.8249550E+03  0.7818609E-02  0.9524582E-01
        2   -1    0    0  501    0  0.00000000000E+00  0.00000000000E+00  0.13316949347E+03  0.13316949349E+03  0.25500000920E-02 0. -1.
       -2   -1    0    0    0  501  0.00000000000E+00  0.00000000000E+00 -0.12776025028E+04  0.12776025028E+04  0.25500000920E-02 0.  1.
    10030    2    1    2    0    0  0.00000000000E+00  0.00000000000E+00 -0.11444330093E+04  0.14107719963E+04  0.82495497614E+03 0.  0.
        1    1    3    3  502    0  0.12532509717E+03  0.22638956528E+03 -0.22900347278E+02  0.25977498182E+03  0.50400001928E-02 0. -1.
       -1    1    3    3    0  502 -0.12532509717E+03 -0.22638956528E+03 -0.11215326620E+04  0.11509970144E+04  0.50400001928E-02 0.  1.
</event>
<event>
 5   0  0.2414128E-02  0.8052433E+03  0.7818609E-02  0.9552458E-01
        2   -1    0    0  501    0  0.00000000000E+00  0.00000000000E+00  0.75022335308E+03  0.75022335308E+03  0.25500000920E-02 0.  1.
       -2   -1    0    0    0  501  0.00000000000E+00  0.00000000000E+00 -0.21607458796E+03  0.21607458798E+03  0.25500000920E-02 0. -1.
    10030    2    1    2    0    0  0.00000000000E+00  0.00000000000E+00  0.53414876511E+03  0.96629794106E+03  0.80524332200E+03 0.  0.
        3    1    3    3  502    0  0.37718454513E+03  0.13326045871E+03  0.21237640838E+03  0.45291310422E+03  0.10100000352E+00 0.  1.
       -3    1    3    3    0  502 -0.37718454513E+03 -0.13326045871E+03  0.32177235673E+03  0.51338483684E+03  0.10100000352E+00 0. -1.
</event>
<event>
 5   0  0.1560728E-02  0.8872372E+03  0.7818609E-02  0.9441678E-01
       -1   -1    0    0    0  501  0.00000000000E+00  0.00000000000E+00  0.19169757043E+03  0.19169757050E+03  0.50400001928E-02 0. -1.
        1   -1    0    0  501    0  0.00000000000E+00  0.00000000000E+00 -0.10266039243E+04  0.10266039243E+04  0.50400001928E-02 0.  1.
    10030    2    1    2    0    0  0.00000000000E+00  0.00000000000E+00 -0.83490635384E+03  0.12183014948E+04  0.88723723575E+03 0.  0.
        4    1    3    3  502    0 -0.65430979524E+02 -0.38485058304E+03 -0.12809924139E+03  0.41085546472E+03  0.12699999809E+01 0. -1.
       -4    1    3    3    0  502  0.65430979524E+02  0.38485058304E+03 -0.70680711245E+03  0.80744603006E+03  0.12699999809E+01 0.  1.
</event>
<event>
 5   0  0.1560728E-02  0.8866226E+03  0.7818609E-02  0.9442460E-01
       -1   -1    0    0    0  501  0.00000000000E+00  0.00000000000E+00  0.31136637070E+03  0.31136637075E+03  0.50400001928E-02 0. -1.
        1   -1    0    0  501    0  0.00000000000E+00  0.00000000000E+00 -0.63116932110E+03  0.63116932112E+03  0.50400001928E-02 0.  1.
    10030    2    1    2    0    0  0.00000000000E+00  0.00000000000E+00 -0.31980295039E+03  0.94253569186E+03  0.88662258225E+03 0.  0.
        4    1    3    3  502    0 -0.32497157412E+03 -0.18604472809E+03 -0.41215027930E+03  0.55685602310E+03  0.12699999809E+01 0.  1.
       -4    1    3    3    0  502  0.32497157412E+03  0.18604472809E+03  0.92347328908E+02  0.38567966876E+03  0.12699999809E+01 0. -1.
</event>
<event>
 5   0  0.1559275E-02  0.8479242E+03  0.7818609E-02  0.9493127E-01
       -1   -1    0    0    0  501  0.00000000000E+00  0.00000000000E+00  0.10354110345E+03  0.10354110358E+03  0.50400001928E-02 0. -1.
        1   -1    0    0  501    0  0.00000000000E+00  0.00000000000E+00 -0.17359662508E+04  0.17359662508E+04  0.50400001928E-02 0.  1.
    10030    2    1    2    0    0  0.00000000000E+00  0.00000000000E+00 -0.16324251474E+04  0.18395073544E+04  0.84792419777E+03 0.  0.
        1    1    3    3  502    0  0.18685543466E+03  0.37571367014E+03 -0.68482091397E+03  0.80315340977E+03  0.50400001928E-02 0.  1.
       -1    1    3    3    0  502 -0.18685543466E+03 -0.37571367014E+03 -0.94760423341E+03  0.10363539447E+04  0.50400001928E-02 0. -1.
</event>
<event>
 5   0  0.2803717E-02  0.8544896E+03  0.7818609E-02  0.9484331E-01
        2   -1    0    0  501    0  0.00000000000E+00  0.00000000000E+00  0.12799109380E+04  0.12799109380E+04  0.25500000920E-02 0.  1.
       -2   -1    0    0    0  501  0.00000000000E+00  0.00000000000E+00 -0.14261783899E+03  0.14261783901E+03  0.25500000920E-02 0. -1.
    10030    2    1    2    0    0  0.00000000000E+00  0.00000000000E+00  0.11372930990E+04  0.14225287770E+04  0.85448963033E+03 0.  0.
        5    1    3    3  502    0  0.12683261924E+03  0.45759828373E+02  0.12435164326E+04  0.12508140083E+04  0.46999998093E+01 0.  1.
       -5    1    3    3    0  502 -0.12683261924E+03 -0.45759828373E+02 -0.10622333359E+03  0.17171476871E+03  0.46999998093E+01 0. -1.
</event>
<event>
 5   0  0.1559275E-02  0.8980050E+03  0.7818609E-02  0.9428079E-01
        1   -1    0    0  501    0  0.00000000000E+00  0.00000000000E+00  0.13039629230E+04  0.13039629231E+04  0.50400001928E-02 0.  1.
       -1   -1    0    0    0  501  0.00000000000E+00  0.00000000000E+00 -0.15460812833E+03  0.15460812841E+03  0.50400001928E-02 0. -1.
    10030    2    1    2    0    0  0.00000000000E+00  0.00000000000E+00  0.11493547947E+04  0.14585710515E+04  0.89800504901E+03 0.  0.
        1    1    3    3  502    0 -0.70569618455E+02  0.39356598118E+03  0.90647089826E+03  0.99073898783E+03  0.50400001928E-02 0.  1.
       -1    1    3    3    0  502  0.70569618455E+02 -0.39356598118E+03  0.24288389646E+03  0.46783206364E+03  0.50400001928E-02 0. -1.
</event>
<event>
 5   0  0.1537870E-02  0.8978571E+03  0.7818609E-02  0.9428264E-01
        1   -1    0    0  501    0  0.00000000000E+00  0.00000000000E+00  0.14947972873E+04  0.14947972873E+04  0.50400001928E-02 0.  1.
       -1   -1    0    0    0  501  0.00000000000E+00  0.00000000000E+00 -0.13482554190E+03  0.13482554199E+03  0.50400001928E-02 0. -1.
    10030    2    1    2    0    0  0.00000000000E+00  0.00000000000E+00  0.13599717454E+04  0.16296228293E+04  0.89785712530E+03 0.  0.
        5    1    3    3  502    0  0.27646357358E+03 -0.53791638749E+02  0.45537732359E+02  0.28534439364E+03  0.46999998093E+01 0. -1.
       -5    1    3    3    0  502 -0.27646357358E+03  0.53791638749E+02  0.13144340130E+04  0.13442784356E+04  0.46999998093E+01 0.  1.
</event>
<event>
 5   0  0.2803717E-02  0.8956434E+03  0.7818609E-02  0.9431044E-01
        2   -1    0    0  501    0  0.00000000000E+00  0.00000000000E+00  0.77687043890E+03  0.77687043890E+03  0.25500000920E-02 0.  1.
       -2   -1    0    0    0  501  0.00000000000E+00  0.00000000000E+00 -0.25814379488E+03  0.25814379490E+03  0.25500000920E-02 0. -1.
    10030    2    1    2    0    0  0.00000000000E+00  0.00000000000E+00  0.51872664401E+03  0.10350142338E+04  0.89564341842E+03 0.  0.
        5    1    3    3  502    0  0.28940672699E+03  0.25958779300E+03  0.51615872343E+03  0.64620739215E+03  0.46999998093E+01 0.  1.
       -5    1    3    3    0  502 -0.28940672699E+03 -0.25958779300E+03  0.25679205865E+01  0.38880684165E+03  0.46999998093E+01 0. -1.
</event>
<event>
 5   0  0.2679861E-02  0.8998598E+03  0.7818609E-02  0.9425757E-01
       -2   -1    0    0    0  501  0.00000000000E+00  0.00000000000E+00  0.10276217948E+03  0.10276217951E+03  0.25500000920E-02 0. -1.
        2   -1    0    0  501    0  0.00000000000E+00  0.00000000000E+00 -0.19699554064E+04  0.19699554064E+04  0.25500000920E-02 0.  1.
    10030    2    1    2    0    0  0.00000000000E+00  0.00000000000E+00 -0.18671932269E+04  0.20727175859E+04  0.89985979148E+03 0.  0.
        1    1    3    3  502    0  0.25855725432E+03 -0.16494709415E+02 -0.17808923436E+04  0.17996392608E+04  0.50400001928E-02 0.  1.
       -1    1    3    3    0  502 -0.25855725432E+03  0.16494709415E+02 -0.86300883297E+02  0.27307832518E+03  0.50400001928E-02 0. -1.
</event>
<event>
 5   0  0.2705111E-02  0.8540014E+03  0.7818609E-02  0.9484982E-01
       -2   -1    0    0    0  501  0.00000000000E+00  0.00000000000E+00  0.34116788542E+03  0.34116788543E+03  0.25500000920E-02 0.  1.
        2   -1    0    0  501    0  0.00000000000E+00  0.00000000000E+00 -0.53442782870E+03  0.53442782870E+03  0.25500000920E-02 0. -1.
    10030    2    1    2    0    0  0.00000000000E+00  0.00000000000E+00 -0.19325994328E+03  0.87559571413E+03  0.85400143379E+03 0.  0.
        4    1    3    3  502    0  0.32829975108E+03  0.18720960824E+03 -0.30040110921E+03  0.48277386352E+03  0.12699999809E+01 0.  1.
       -4    1    3    3    0  502 -0.32829975108E+03 -0.18720960824E+03  0.10714116593E+03  0.39282185061E+03  0.12699999809E+01 0. -1.
</event>
<event>
 5   0  0.2803717E-02  0.9084222E+03  0.7818609E-02  0.9415114E-01
        2   -1    0    0  501    0  0.00000000000E+00  0.00000000000E+00  0.83359747819E+03  0.83359747819E+03  0.25500000920E-02 0. -1.
       -2   -1    0    0    0  501  0.00000000000E+00  0.00000000000E+00 -0.24749084295E+03  0.24749084296E+03  0.25500000920E-02 0.  1.
    10030    2    1    2    0    0  0.00000000000E+00  0.00000000000E+00  0.58610663524E+03  0.10810883212E+04  0.90842224228E+03 0.  0.
        5    1    3    3  502    0 -0.12895092020E+03 -0.43547218685E+03  0.28756255151E+03  0.53756736915E+03  0.46999998093E+01 0.  1.
       -5    1    3    3    0  502  0.12895092020E+03  0.43547218685E+03  0.29854408373E+03  0.54352095201E+03  0.46999998093E+01 0. -1.
</event>
<event>
 5   0  0.1560728E-02  0.9051073E+03  0.7818609E-02  0.9419219E-01
       -1   -1    0    0    0  501  0.00000000000E+00  0.00000000000E+00  0.92984274261E+03  0.92984274262E+03  0.50400001928E-02 0.  1.
        1   -1    0    0  501    0  0.00000000000E+00  0.00000000000E+00 -0.22025746397E+03  0.22025746402E+03  0.50400001928E-02 0. -1.
    10030    2    1    2    0    0  0.00000000000E+00  0.00000000000E+00  0.70958527864E+03  0.11501002066E+04  0.90510729622E+03 0.  0.
        4    1    3    3  502    0  0.10704602320E+03  0.40872696831E+03  0.56080955071E+03  0.70215778196E+03  0.12699999809E+01 0.  1.
       -4    1    3    3    0  502 -0.10704602320E+03 -0.40872696831E+03  0.14877572793E+03  0.44794242468E+03  0.12699999809E+01 0. -1.
</event>
<event>
 5   0  0.2679861E-02  0.8997664E+03  0.7818609E-02  0.9425873E-01
       -2   -1    0    0    0  501  0.00000000000E+00  0.00000000000E+00  0.18158304815E+03  0.18158304816E+03  0.25500000920E-02 0.  1.
        2   -1    0    0  501    0  0.00000000000E+00  0.00000000000E+00 -0.11146134007E+04  0.11146134007E+04  0.25500000920E-02 0. -1.
    10030    2    1    2    0    0  0.00000000000E+00  0.00000000000E+00 -0.93303035253E+03  0.12961964488E+04  0.89976641149E+03 0.  0.
        1    1    3    3  502    0  0.35471728286E+03 -0.16037445343E+03 -0.14166057876E+03  0.41426083049E+03  0.50400001928E-02 0.  1.
       -1    1    3    3    0  502 -0.35471728286E+03  0.16037445343E+03 -0.79136977376E+03  0.88193561836E+03  0.50400001928E-02 0. -1.
</event>
<event>
 5   0  0.1560728E-02  0.8924520E+03  0.7818609E-02  0.9435066E-01
        1   -1    0    0  501    0  0.00000000000E+00  0.00000000000E+00  0.33912312428E+03  0.33912312432E+03  0.50400001928E-02 0.  1.
       -1   -1    0    0    0  501  0.00000000000E+00  0.00000000000E+00 -0.58715440551E+03  0.58715440553E+03  0.50400001928E-02 0. -1.
    10030    2    1    2    0    0  0.00000000000E+00  0.00000000000E+00 -0.24803128123E+03  0.92627752985E+03  0.89245198517E+03 0.  0.
        4    1    3    3  502    0  0.29177244821E+03  0.72179865303E+02 -0.46632649721E+03  0.55480006254E+03  0.12699999809E+01 0. -1.
       -4    1    3    3    0  502 -0.29177244821E+03 -0.72179865303E+02  0.21829521599E+03  0.37147746731E+03  0.12699999809E+01 0.  1.
</event>
<event>
 5   0  0.1459111E-02  0.8883330E+03  0.7818609E-02  0.9440284E-01
       -1   -1    0    0    0  501  0.00000000000E+00  0.00000000000E+00  0.12680861660E+03  0.12680861670E+03  0.50400001928E-02 0.  1.
        1   -1    0    0  501    0  0.00000000000E+00  0.00000000000E+00 -0.15557609586E+04  0.15557609586E+04  0.50400001928E-02 0. -1.
    10030    2    1    2    0    0  0.00000000000E+00  0.00000000000E+00 -0.14289523420E+04  0.16825695753E+04  0.88833303442E+03 0.  0.
        2    1    3    3  502    0 -0.27300507687E+03 -0.23082630157E+03 -0.12137054657E+04  0.12652642060E+04  0.25500000920E-02 0. -1.
       -2    1    3    3    0  502  0.27300507687E+03  0.23082630157E+03 -0.21524687629E+03  0.41730536931E+03  0.25500000920E-02 0.  1.
</event>
<event>
 5   0  0.1040163E-02  0.8910248E+03  0.7818609E-02  0.9436871E-01
        4   -1    0    0  501    0  0.00000000000E+00  0.00000000000E+00  0.99709397631E+03  0.99709478511E+03  0.12699999809E+01 0. -1.
       -4   -1    0    0    0  501  0.00000000000E+00  0.00000000000E+00 -0.19905687708E+03  0.19906092840E+03  0.12699999809E+01 0.  1.
    10030    2    1    2    0    0  0.00000000000E+00  0.00000000000E+00  0.79803709923E+03  0.11961557135E+04  0.89102484770E+03 0.  0.
        1    1    3    3  502    0  0.14149350872E+03 -0.39460778822E+03  0.60148198652E+03  0.73315503113E+03  0.50400001928E-02 0. -1.
       -1    1    3    3    0  502 -0.14149350872E+03  0.39460778822E+03  0.19655511271E+03  0.46300068238E+03  0.50400001928E-02 0.  1.
</event>
<event>
 5   0  0.1560728E-02  0.9032744E+03  0.7818609E-02  0.9421498E-01
       -1   -1    0    0    0  501  0.00000000000E+00  0.00000000000E+00  0.15753633243E+03  0.15753633251E+03  0.50400001928E-02 0. -1.
        1   -1    0    0  501    0  0.00000000000E+00  0.00000000000E+00 -0.12947879993E+04  0.12947879993E+04  0.50400001928E-02 0.  1.
    10030    2    1    2    0    0  0.00000000000E+00  0.00000000000E+00 -0.11372516669E+04  0.14523243318E+04  0.90327438302E+03 0.  0.
        4    1    3    3  502    0 -0.28610222522E+02 -0.42990539518E+03 -0.78635277000E+03  0.89665460765E+03  0.12699999809E+01 0. -1.
       -4    1    3    3    0  502  0.28610222522E+02  0.42990539518E+03 -0.35089889689E+03  0.55566972419E+03  0.12699999809E+01 0.  1.
</event>
<event>
 5   0  0.1560728E-02  0.9015950E+03  0.7818609E-02  0.9423590E-01
        1   -1    0    0  501    0  0.00000000000E+00  0.00000000000E+00  0.12964554896E+04  0.12964554896E+04  0.50400001928E-02 0. -1.
       -1   -1    0    0    0  501  0.00000000000E+00  0.00000000000E+00 -0.15674920906E+03  0.15674920914E+03  0.50400001928E-02 0.  1.
    10030    2    1    2    0    0  0.00000000000E+00  0.00000000000E+00  0.11397062805E+04  0.14532046987E+04  0.90159497034E+03 0.  0.
        4    1    3    3  502    0 -0.26195079028E+03 -0.34686556110E+03  0.37722382458E+03  0.57552876621E+03  0.12699999809E+01 0. -1.
       -4    1    3    3    0  502  0.26195079028E+03  0.34686556110E+03  0.76248245594E+03  0.87767593252E+03  0.12699999809E+01 0.  1.
</event>
<event>
 5   0  0.2705111E-02  0.9027409E+03  0.7818609E-02  0.9422162E-01
       -2   -1    0    0    0  501  0.00000000000E+00  0.00000000000E+00  0.92174088610E+02  0.92174088645E+02  0.25500000920E-02 0.  1.
        2   -1    0    0  501    0  0.00000000000E+00  0.00000000000E+00 -0.22103312544E+04  0.22103312544E+04  0.25500000920E-02 0. -1.
    10030    2    1    2    0    0  0.00000000000E+00  0.00000000000E+00 -0.21181571658E+04  0.23025053430E+04  0.90274086856E+03 0.  0.
        4    1    3    3  502    0  0.11555284942E+03 -0.42505238873E+03 -0.13104317253E+04  0.13824814334E+04  0.12699999809E+01 0. -1.
       -4    1    3    3    0  502 -0.11555284942E+03  0.42505238873E+03 -0.80772544052E+03  0.92002390966E+03  0.12699999809E+01 0.  1.
</event>
<event>
 5   0  0.2628383E-02  0.8981199E+03  0.7818609E-02  0.9427935E-01
        2   -1    0    0  501    0  0.00000000000E+00  0.00000000000E+00  0.22056705197E+03  0.22056705198E+03  0.25500000920E-02 0. -1.
       -2   -1    0    0    0  501  0.00000000000E+00  0.00000000000E+00 -0.91425643255E+03  0.91425643255E+03  0.25500000920E-02 0.  1.
    10030    2    1    2    0    0  0.00000000000E+00  0.00000000000E+00 -0.69368938058E+03  0.11348234845E+04  0.89811991645E+03 0.  0.
        2    1    3    3  502    0  0.65335910306E+02 -0.73540063622E+02 -0.90047471234E+03  0.90583200965E+03  0.25500000920E-02 0.  1.
       -2    1    3    3    0  502 -0.65335910306E+02  0.73540063622E+02  0.20678533176E+03  0.22899147489E+03  0.25500000920E-02 0. -1.
</event>
<event>
 5   0  0.1497410E-02  0.9282015E+03  0.7818609E-02  0.9390999E-01
       -1   -1    0    0    0  501  0.00000000000E+00  0.00000000000E+00  0.32515679047E+03  0.32515679051E+03  0.50400001928E-02 0. -1.
        1   -1    0    0  501    0  0.00000000000E+00  0.00000000000E+00 -0.66241739351E+03  0.66241739353E+03  0.50400001928E-02 0.  1.
    10030    2    1    2    0    0  0.00000000000E+00  0.00000000000E+00 -0.33726060303E+03  0.98757418404E+03  0.92820151617E+03 0.  0.
        3    1    3    3  502    0 -0.34504397914E+03 -0.16361463309E+03  0.11199123689E+03  0.39795369459E+03  0.10100000352E+00 0. -1.
       -3    1    3    3    0  502  0.34504397914E+03  0.16361463309E+03 -0.44925183992E+03  0.58962048945E+03  0.10100000352E+00 0.  1.
</event>
<event>
 5   0  0.2628383E-02  0.8980308E+03  0.7818609E-02  0.9428046E-01
       -2   -1    0    0    0  501  0.00000000000E+00  0.00000000000E+00  0.15426053714E+03  0.15426053717E+03  0.25500000920E-02 0. -1.
        2   -1    0    0  501    0  0.00000000000E+00  0.00000000000E+00 -0.13069761756E+04  0.13069761756E+04  0.25500000920E-02 0.  1.
    10030    2    1    2    0    0  0.00000000000E+00  0.00000000000E+00 -0.11527156384E+04  0.14612367127E+04  0.89803083888E+03 0.  0.
        2    1    3    3  502    0  0.61851980070E+02 -0.16552610029E+03  0.95305675413E+02  0.20076784874E+03  0.25500000920E-02 0. -1.
       -2    1    3    3    0  502 -0.61851980070E+02  0.16552610029E+03 -0.12480213138E+04  0.12604688640E+04  0.25500000920E-02 0.  1.
</event>
<event>
 5   0  0.1537870E-02  0.9064660E+03  0.7818609E-02  0.9417534E-01
       -1   -1    0    0    0  501  0.00000000000E+00  0.00000000000E+00  0.13486329894E+03  0.13486329903E+03  0.50400001928E-02 0. -1.
        1   -1    0    0  501    0  0.00000000000E+00  0.00000000000E+00 -0.15231732580E+04  0.15231732580E+04  0.50400001928E-02 0.  1.
    10030    2    1    2    0    0  0.00000000000E+00  0.00000000000E+00 -0.13883099591E+04  0.16580365570E+04  0.90646604020E+03 0.  0.
        5    1    3    3  502    0 -0.42573176247E+03  0.96713194389E+02 -0.91665545361E+03  0.10153227498E+04  0.46999998093E+01 0.  1.
       -5    1    3    3    0  502  0.42573176247E+03 -0.96713194389E+02 -0.47165450544E+03  0.64271380727E+03  0.46999998093E+01 0. -1.
</event>
<event>
 5   0  0.2679861E-02  0.9197430E+03  0.7818609E-02  0.9401233E-01
       -2   -1    0    0    0  501  0.00000000000E+00  0.00000000000E+00  0.94459264298E+03  0.94459264299E+03  0.25500000920E-02 0. -1.
        2   -1    0    0  501    0  0.00000000000E+00  0.00000000000E+00 -0.22388677938E+03  0.22388677940E+03  0.25500000920E-02 0.  1.
    10030    2    1    2    0    0  0.00000000000E+00  0.00000000000E+00  0.72070586360E+03  0.11684794224E+04  0.91974301775E+03 0.  0.
        1    1    3    3  502    0 -0.36926667568E+03 -0.85959402517E+02  0.29708782977E+02  0.38030186491E+03  0.50400001928E-02 0.  1.
       -1    1    3    3    0  502  0.36926667568E+03  0.85959402517E+02  0.69099708062E+03  0.78817755747E+03  0.50400001928E-02 0. -1.
</event>
<event>
 5   0  0.2705111E-02  0.9179000E+03  0.7818609E-02  0.9403478E-01
       -2   -1    0    0    0  501  0.00000000000E+00  0.00000000000E+00  0.32729772964E+03  0.32729772965E+03  0.25500000920E-02 0. -1.
        2   -1    0    0  501    0  0.00000000000E+00  0.00000000000E+00 -0.64355809466E+03  0.64355809467E+03  0.25500000920E-02 0.  1.
    10030    2    1    2    0    0  0.00000000000E+00  0.00000000000E+00 -0.31626036503E+03  0.97085582432E+03  0.91790000170E+03 0.  0.
        4    1    3    3  502    0  0.25500000484E+03 -0.26270586498E+03 -0.45085333589E+03  0.58078370961E+03  0.12699999809E+01 0.  1.
       -4    1    3    3    0  502 -0.25500000484E+03  0.26270586498E+03  0.13459297086E+03  0.39007211471E+03  0.12699999809E+01 0. -1.
</event>
<event>
 5   0  0.1497410E-02  0.9564659E+03  0.7818609E-02  0.9357625E-01
       -1   -1    0    0    0  501  0.00000000000E+00  0.00000000000E+00  0.48229782303E+03  0.48229782305E+03  0.50400001928E-02 0.  1.
        1   -1    0    0  501    0  0.00000000000E+00  0.00000000000E+00 -0.47420237966E+03  0.47420237969E+03  0.50400001928E-02 0. -1.
    10030    2    1    2    0    0  0.00000000000E+00  0.00000000000E+00  0.80954433650E+01  0.95650020274E+03  0.95646594379E+03 0.  0.
        3    1    3    3  502    0 -0.46751871142E+03  0.70831683804E+02  0.75575749363E+02  0.47885548660E+03  0.10100000352E+00 0. -1.
       -3    1    3    3    0  502  0.46751871142E+03 -0.70831683804E+02 -0.67480305998E+02  0.47764471614E+03  0.10100000352E+00 0.  1.
</event>
<event>
 5   0  0.2705111E-02  0.8931630E+03  0.7818609E-02  0.9434169E-01
        2   -1    0    0  501    0  0.00000000000E+00  0.00000000000E+00  0.63525026117E+03  0.63525026118E+03  0.25500000920E-02 0.  1.
       -2   -1    0    0    0  501  0.00000000000E+00  0.00000000000E+00 -0.31394719229E+03  0.31394719231E+03  0.25500000920E-02 0. -1.
    10030    2    1    2    0    0  0.00000000000E+00  0.00000000000E+00  0.32130306888E+03  0.94919745348E+03  0.89316299947E+03 0.  0.
        4    1    3    3  502    0  0.34454458181E+03  0.30003719618E+02 -0.13960175345E+03  0.37296307392E+03  0.12699999809E+01 0. -1.
       -4    1    3    3    0  502 -0.34454458181E+03 -0.30003719618E+02  0.46090482233E+03  0.57623437956E+03  0.12699999809E+01 0.  1.
</event>
<event>
 5   0  0.2803717E-02  0.8949063E+03  0.7818609E-02  0.9431971E-01
       -2   -1    0    0    0  501  0.00000000000E+00  0.00000000000E+00  0.13703146649E+03  0.13703146651E+03  0.25500000920E-02 0. -1.
        2   -1    0    0  501    0  0.00000000000E+00  0.00000000000E+00 -0.14610828352E+04  0.14610828352E+04  0.25500000920E-02 0.  1.
    10030    2    1    2    0    0  0.00000000000E+00  0.00000000000E+00 -0.13240513688E+04  0.15981143018E+04  0.89490630481E+03 0.  0.
        5    1    3    3  502    0 -0.34237315025E+03 -0.95899500016E+02 -0.11470776300E+04  0.12009268368E+04  0.46999998093E+01 0.  1.
       -5    1    3    3    0  502  0.34237315025E+03  0.95899500016E+02 -0.17697373877E+03  0.39718746497E+03  0.46999998093E+01 0. -1.
</event>
<event>
 5   0  0.2679861E-02  0.7596401E+03  0.7818609E-02  0.9620347E-01
       -2   -1    0    0    0  501  0.00000000000E+00  0.00000000000E+00  0.66840931166E+02  0.66840931214E+02  0.25500000920E-02 0.  1.
        2   -1    0    0  501    0  0.00000000000E+00  0.00000000000E+00 -0.21583071319E+04  0.21583071319E+04  0.25500000920E-02 0. -1.
    10030    2    1    2    0    0  0.00000000000E+00  0.00000000000E+00 -0.20914662007E+04  0.22251480631E+04  0.75964006870E+03 0.  0.
        1    1    3    3  502    0  0.35990357539E+03 -0.61676935147E+02 -0.13519533617E+04  0.14003972722E+04  0.50400001928E-02 0.  1.
       -1    1    3    3    0  502 -0.35990357539E+03  0.61676935147E+02 -0.73951283908E+03  0.82475079090E+03  0.50400001928E-02 0. -1.
</event>
<event>
 5   0  0.1560728E-02  0.8973179E+03  0.7818609E-02  0.9428940E-01
        1   -1    0    0  501    0  0.00000000000E+00  0.00000000000E+00  0.40515818324E+03  0.40515818327E+03  0.50400001928E-02 0.  1.
       -1   -1    0    0    0  501  0.00000000000E+00  0.00000000000E+00 -0.49683031588E+03  0.49683031591E+03  0.50400001928E-02 0. -1.
    10030    2    1    2    0    0  0.00000000000E+00  0.00000000000E+00 -0.91672132647E+02  0.90198849918E+03  0.89731793292E+03 0.  0.
        4    1    3    3  502    0  0.10437230991E+03 -0.18490356256E+03 -0.44312782284E+03  0.49137235046E+03  0.12699999809E+01 0. -1.
       -4    1    3    3    0  502 -0.10437230991E+03  0.18490356256E+03  0.35145569019E+03  0.41061614872E+03  0.12699999809E+01 0.  1.
</event>
<event>
 5   0  0.2679861E-02  0.8063948E+03  0.7818609E-02  0.9550807E-01
        2   -1    0    0  501    0  0.00000000000E+00  0.00000000000E+00  0.56170834948E+03  0.56170834949E+03  0.25500000920E-02 0.  1.
       -2   -1    0    0    0  501  0.00000000000E+00  0.00000000000E+00 -0.28941734618E+03  0.28941734619E+03  0.25500000920E-02 0. -1.
    10030    2    1    2    0    0  0.00000000000E+00  0.00000000000E+00  0.27229100330E+03  0.85112569568E+03  0.80639479126E+03 0.  0.
        1    1    3    3  502    0 -0.12318337615E+03 -0.23856144190E+03  0.45363409440E+03  0.52713337719E+03  0.50400001928E-02 0.  1.
       -1    1    3    3    0  502  0.12318337615E+03  0.23856144190E+03 -0.18134309110E+03  0.32399231848E+03  0.50400001928E-02 0. -1.
</event>
<event>
 5   0  0.1459111E-02  0.9836830E+03  0.7818609E-02  0.9326624E-01
       -1   -1    0    0    0  501  0.00000000000E+00  0.00000000000E+00  0.29337632863E+03  0.29337632868E+03  0.50400001928E-02 0.  1.
        1   -1    0    0  501    0  0.00000000000E+00  0.00000000000E+00 -0.82456578647E+03  0.82456578649E+03  0.50400001928E-02 0. -1.
    10030    2    1    2    0    0  0.00000000000E+00  0.00000000000E+00 -0.53118945784E+03  0.11179421152E+04  0.98368304486E+03 0.  0.
        2    1    3    3  502    0 -0.30756078575E+03 -0.35941644080E+03 -0.41863796855E+03  0.63168945184E+03  0.25500000920E-02 0. -1.
       -2    1    3    3    0  502  0.30756078575E+03  0.35941644080E+03 -0.11255148929E+03  0.48625266333E+03  0.25500000920E-02 0.  1.
</event>
<event>
 5   0  0.2414128E-02  0.9185712E+03  0.7818609E-02  0.9402660E-01
        2   -1    0    0  501    0  0.00000000000E+00  0.00000000000E+00  0.48710932671E+03  0.48710932671E+03  0.25500000920E-02 0.  1.
       -2   -1    0    0    0  501  0.00000000000E+00  0.00000000000E+00 -0.43305119748E+03  0.43305119749E+03  0.25500000920E-02 0. -1.
    10030    2    1    2    0    0  0.00000000000E+00  0.00000000000E+00  0.54058129228E+02  0.92016052420E+03  0.91857123238E+03 0.  0.
        3    1    3    3  502    0 -0.13208669395E+03 -0.19043293427E+03 -0.37018148172E+03  0.43674470436E+03  0.10100000352E+00 0. -1.
       -3    1    3    3    0  502  0.13208669395E+03  0.19043293427E+03  0.42423961095E+03  0.48341581984E+03  0.10100000352E+00 0.  1.
</event>
<event>
 5   0  0.1560728E-02  0.8821029E+03  0.7818609E-02  0.9448234E-01
        1   -1    0    0  501    0  0.00000000000E+00  0.00000000000E+00  0.67177277444E+03  0.67177277446E+03  0.50400001928E-02 0. -1.
       -1   -1    0    0    0  501  0.00000000000E+00  0.00000000000E+00 -0.28957167490E+03  0.28957167495E+03  0.50400001928E-02 0.  1.
    10030    2    1    2    0    0  0.00000000000E+00  0.00000000000E+00  0.38220109954E+03  0.96134444941E+03  0.88210286811E+03 0.  0.
        4    1    3    3  502    0  0.21119617029E+03 -0.14969014126E+03 -0.19806857046E+03  0.32595050581E+03  0.12699999809E+01 0.  1.
       -4    1    3    3    0  502 -0.21119617029E+03  0.14969014126E+03  0.58026967000E+03  0.63539394360E+03  0.12699999809E+01 0. -1.
</event>
<event>
 5   0  0.1560728E-02  0.8769758E+03  0.7818609E-02  0.9454829E-01
        1   -1    0    0  501    0  0.00000000000E+00  0.00000000000E+00  0.30339227083E+03  0.30339227087E+03  0.50400001928E-02 0. -1.
       -1   -1    0    0    0  501  0.00000000000E+00  0.00000000000E+00 -0.63373942660E+03  0.63373942662E+03  0.50400001928E-02 0.  1.
    10030    2    1    2    0    0  0.00000000000E+00  0.00000000000E+00 -0.33034715577E+03  0.93713169748E+03  0.87697581215E+03 0.  0.
        4    1    3    3  502    0  0.34003439626E+03  0.19407438133E+03  0.45807650337E+02  0.39419311239E+03  0.12699999809E+01 0. -1.
       -4    1    3    3    0  502 -0.34003439626E+03 -0.19407438133E+03 -0.37615480611E+03  0.54293858509E+03  0.12699999809E+01 0.  1.
</event>
<event>
 5   0  0.2679861E-02  0.8972921E+03  0.7818609E-02  0.9428973E-01
        2   -1    0    0  501    0  0.00000000000E+00  0.00000000000E+00  0.33723510911E+03  0.33723510912E+03  0.25500000920E-02 0. -1.
       -2   -1    0    0    0  501  0.00000000000E+00  0.00000000000E+00 -0.59686341177E+03  0.59686341177E+03  0.25500000920E-02 0.  1.
    10030    2    1    2    0    0  0.00000000000E+00  0.00000000000E+00 -0.25962830266E+03  0.93409852089E+03  0.89729214372E+03 0.  0.
        1    1    3    3  502    0  0.18982575166E+03 -0.38976956858E+03 -0.25000192604E+03  0.50045488871E+03  0.50400001928E-02 0.  1.
       -1    1    3    3    0  502 -0.18982575166E+03  0.38976956858E+03 -0.96263766193E+01  0.43364363218E+03  0.50400001928E-02 0. -1.
</event>
<event>
 5   0  0.2705111E-02  0.9179750E+03  0.7818609E-02  0.9403387E-01
        2   -1    0    0  501    0  0.00000000000E+00  0.00000000000E+00  0.53680309663E+03  0.53680309663E+03  0.25500000920E-02 0.  1.
       -2   -1    0    0    0  501  0.00000000000E+00  0.00000000000E+00 -0.39245214406E+03  0.39245214406E+03  0.25500000920E-02 0. -1.
    10030    2    1    2    0    0  0.00000000000E+00  0.00000000000E+00  0.14435095257E+03  0.92925524070E+03  0.91797500231E+03 0.  0.
        4    1    3    3  502    0  0.32351669054E+03 -0.68971908052E+02 -0.24992905425E+03  0.41459174885E+03  0.12699999809E+01 0.  1.
       -4    1    3    3    0  502 -0.32351669054E+03  0.68971908052E+02  0.39428000683E+03  0.51466349185E+03  0.12699999809E+01 0. -1.
</event>
<event>
 5   0  0.1537870E-02  0.9046107E+03  0.7818609E-02  0.9419836E-01
       -1   -1    0    0    0  501  0.00000000000E+00  0.00000000000E+00  0.14682188583E+04  0.14682188583E+04  0.50400001928E-02 0. -1.
        1   -1    0    0  501    0  0.00000000000E+00  0.00000000000E+00 -0.13933899227E+03  0.13933899236E+03  0.50400001928E-02 0.  1.
    10030    2    1    2    0    0  0.00000000000E+00  0.00000000000E+00  0.13288798660E+04  0.16075578507E+04  0.90461071457E+03 0.  0.
        5    1    3    3  502    0  0.37883970067E+03 -0.21184438308E+03  0.89034817485E+03  0.99052487294E+03  0.46999998093E+01 0. -1.
       -5    1    3    3    0  502 -0.37883970067E+03  0.21184438308E+03  0.43853169116E+03  0.61703297772E+03  0.46999998093E+01 0.  1.
</event>
<event>
 5   0  0.2679861E-02  0.9008905E+03  0.7818609E-02  0.9424469E-01
        2   -1    0    0  501    0  0.00000000000E+00  0.00000000000E+00  0.19321992187E+04  0.19321992187E+04  0.25500000920E-02 0. -1.
       -2   -1    0    0    0  501  0.00000000000E+00  0.00000000000E+00 -0.10501035440E+03  0.10501035443E+03  0.25500000920E-02 0.  1.
    10030    2    1    2    0    0  0.00000000000E+00  0.00000000000E+00  0.18271888643E+04  0.20372095732E+04  0.90089050335E+03 0.  0.
        1    1    3    3  502    0  0.28207776393E+03 -0.30061589018E+03  0.50303311396E+03  0.65036919676E+03  0.50400001928E-02 0.  1.
       -1    1    3    3    0  502 -0.28207776393E+03  0.30061589018E+03  0.13241557504E+04  0.13868403764E+04  0.50400001928E-02 0. -1.
</event>
<event>
 5   0  0.2414128E-02  0.8954452E+03  0.7818609E-02  0.9431293E-01
       -2   -1    0    0    0  501  0.00000000000E+00  0.00000000000E+00  0.19647094557E+03  0.19647094558E+03  0.25500000920E-02 0. -1.
        2   -1    0    0  501    0  0.00000000000E+00  0.00000000000E+00 -0.10202807527E+04  0.10202807527E+04  0.25500000920E-02 0.  1.
    10030    2    1    2    0    0  0.00000000000E+00  0.00000000000E+00 -0.82380980709E+03  0.12167516982E+04  0.89544519482E+03 0.  0.
        3    1    3    3  502    0 -0.43451817133E+03 -0.56676114211E+02 -0.28709057004E+03  0.52386947682E+03  0.10100000352E+00 0. -1.
       -3    1    3    3    0  502  0.43451817133E+03  0.56676114211E+02 -0.53671923705E+03  0.69288222142E+03  0.10100000352E+00 0.  1.
</event>
<event>
 5   0  0.1559275E-02  0.8964571E+03  0.7818609E-02  0.9430021E-01
        1   -1    0    0  501    0  0.00000000000E+00  0.00000000000E+00  0.99875123310E+03  0.99875123311E+03  0.50400001928E-02 0.  1.
       -1   -1    0    0    0  501  0.00000000000E+00  0.00000000000E+00 -0.20116005290E+03  0.20116005297E+03  0.50400001928E-02 0. -1.
    10030    2    1    2    0    0  0.00000000000E+00  0.00000000000E+00  0.79759118019E+03  0.11999112861E+04  0.89645713993E+03 0.  0.
        1    1    3    3  502    0  0.31434902220E+02 -0.34678145593E+03  0.21007025793E+02  0.34883638917E+03  0.50400001928E-02 0. -1.
       -1    1    3    3    0  502 -0.31434902220E+02  0.34678145593E+03  0.77658415440E+03  0.85107489690E+03  0.50400001928E-02 0.  1.
</event>
<event>
 5   0  0.1560728E-02  0.8977565E+03  0.7818609E-02  0.9428390E-01
        1   -1    0    0  501    0  0.00000000000E+00  0.00000000000E+00  0.42503339957E+03  0.42503339960E+03  0.50400001928E-02 0. -1.
       -1   -1    0    0    0  501  0.00000000000E+00  0.00000000000E+00 -0.47406077795E+03  0.47406077797E+03  0.50400001928E-02 0.  1.
    10030    2    1    2    0    0  0.00000000000E+00  0.00000000000E+00 -0.49027378381E+02  0.89909417757E+03  0.89775645713E+03 0.  0.
        4    1    3    3  502    0 -0.10662806964E+03 -0.18640889503E+03 -0.41927387707E+03  0.47107326211E+03  0.12699999809E+01 0.  1.
       -4    1    3    3    0  502  0.10662806964E+03  0.18640889503E+03  0.37024649869E+03  0.42802091546E+03  0.12699999809E+01 0. -1.
</event>
<event>
 5   0  0.1559275E-02  0.8962981E+03  0.7818609E-02  0.9430221E-01
       -1   -1    0    0    0  501  0.00000000000E+00  0.00000000000E+00  0.31601863698E+03  0.31601863702E+03  0.50400001928E-02 0.  1.
        1   -1    0    0  501    0  0.00000000000E+00  0.00000000000E+00 -0.63552450651E+03  0.63552450653E+03  0.50400001928E-02 0. -1.
    10030    2    1    2    0    0  0.00000000000E+00  0.00000000000E+00 -0.31950586953E+03  0.95154314355E+03  0.89629813866E+03 0.  0.
        1    1    3    3  502    0 -0.37192924311E+03 -0.15203092364E+03  0.50956776220E+02  0.40502019294E+03  0.50400001928E-02 0.  1.
       -1    1    3    3    0  502  0.37192924311E+03  0.15203092364E+03 -0.37046264575E+03  0.54652295061E+03  0.50400001928E-02 0. -1.
</event>
<event>
 5   0  0.1497410E-02  0.9224047E+03  0.7818609E-02  0.9398000E-01
       -1   -1    0    0    0  501  0.00000000000E+00  0.00000000000E+00  0.71063801655E+03  0.71063801657E+03  0.50400001928E-02 0.  1.
        1   -1    0    0  501    0  0.00000000000E+00  0.00000000000E+00 -0.29931922416E+03  0.29931922421E+03  0.50400001928E-02 0. -1.
    10030    2    1    2    0    0  0.00000000000E+00  0.00000000000E+00  0.41131879238E+03  0.10099572408E+04  0.92240472637E+03 0.  0.
        3    1    3    3  502    0  0.40387126402E+03 -0.21741108437E+03  0.15282996316E+03  0.48346311684E+03  0.10100000352E+00 0. -1.
       -3    1    3    3    0  502 -0.40387126402E+03  0.21741108437E+03  0.25848882922E+03  0.52649412393E+03  0.10100000352E+00 0.  1.
</event>
<event>
 5   0  0.1040163E-02  0.9000288E+03  0.7818609E-02  0.9425545E-01
        3   -1    0    0  501    0  0.00000000000E+00  0.00000000000E+00  0.53227254279E+03  0.53227255237E+03  0.10100000352E+00 0. -1.
       -3   -1    0    0    0  501  0.00000000000E+00  0.00000000000E+00 -0.38046854245E+03  0.38046855585E+03  0.10100000352E+00 0.  1.
    10030    2    1    2    0    0  0.00000000000E+00  0.00000000000E+00  0.15180400034E+03  0.91274110823E+03  0.90002881961E+03 0.  0.
        5    1    3    3  502    0  0.13135325228E+03  0.40035772227E+03 -0.84287582867E+02  0.42972836686E+03  0.46999998093E+01 0.  1.
       -5    1    3    3    0  502 -0.13135325228E+03 -0.40035772227E+03  0.23609158321E+03  0.48301274137E+03  0.46999998093E+01 0. -1.
</event>
<event>
 5   0  0.1040163E-02  0.8048405E+03  0.7818609E-02  0.9553037E-01
        3   -1    0    0  501    0  0.00000000000E+00  0.00000000000E+00  0.10654176761E+04  0.10654176808E+04  0.10100000352E+00 0.  1.
       -3   -1    0    0    0  501  0.00000000000E+00  0.00000000000E+00 -0.15199863527E+03  0.15199866882E+03  0.10100000352E+00 0. -1.
    10030    2    1    2    0    0  0.00000000000E+00  0.00000000000E+00  0.91341904078E+03  0.12174163497E+04  0.80484049622E+03 0.  0.
        4    1    3    3  502    0  0.29918458245E+03  0.12149435643E+03  0.81995257587E+03  0.88124691919E+03  0.12699999809E+01 0.  1.
       -4    1    3    3    0  502 -0.29918458245E+03 -0.12149435643E+03  0.93466464916E+02  0.33616943047E+03  0.12699999809E+01 0. -1.
</event>
<event>
 5   0  0.1497410E-02  0.8738829E+03  0.7818609E-02  0.9458831E-01
       -1   -1    0    0    0  501  0.00000000000E+00  0.00000000000E+00  0.21062001305E+03  0.21062001311E+03  0.50400001928E-02 0. -1.
        1   -1    0    0  501    0  0.00000000000E+00  0.00000000000E+00 -0.90645636283E+03  0.90645636285E+03  0.50400001928E-02 0.  1.
    10030    2    1    2    0    0  0.00000000000E+00  0.00000000000E+00 -0.69583634978E+03  0.11170763760E+04  0.87388294642E+03 0.  0.
        3    1    3    3  502    0  0.58816278521E+02  0.62801594467E+02 -0.89551980404E+03  0.89964388761E+03  0.10100000352E+00 0.  1.
       -3    1    3    3    0  502 -0.58816278521E+02 -0.62801594467E+02  0.19968345426E+03  0.21743248835E+03  0.10100000352E+00 0. -1.
</event>
<event>
 5   0  0.2705111E-02  0.8885011E+03  0.7818609E-02  0.9440071E-01
        2   -1    0    0  501    0  0.00000000000E+00  0.00000000000E+00  0.11846682276E+04  0.11846682276E+04  0.25500000920E-02 0. -1.
       -2   -1    0    0    0  501  0.00000000000E+00  0.00000000000E+00 -0.16659394203E+03  0.16659394205E+03  0.25500000920E-02 0.  1.
    10030    2    1    2    0    0  0.00000000000E+00  0.00000000000E+00  0.10180742856E+04  0.13512621696E+04  0.88850109745E+03 0.  0.
        4    1    3    3  502    0  0.13501988614E+02  0.55587073746E+02 -0.16096672838E+03  0.17083362376E+03  0.12699999809E+01 0.  1.
       -4    1    3    3    0  502 -0.13501988614E+02 -0.55587073746E+02  0.11790410139E+04  0.11804285459E+04  0.12699999809E+01 0. -1.
</event>
<event>
 5   0  0.2679861E-02  0.8978996E+03  0.7818609E-02  0.9428211E-01
        2   -1    0    0  501    0  0.00000000000E+00  0.00000000000E+00  0.10256827203E+04  0.10256827203E+04  0.25500000920E-02 0. -1.
       -2   -1    0    0    0  501  0.00000000000E+00  0.00000000000E+00 -0.19650901471E+03  0.19650901472E+03  0.25500000920E-02 0.  1.
    10030    2    1    2    0    0  0.00000000000E+00  0.00000000000E+00  0.82917370559E+03  0.12221917350E+04  0.89789955068E+03 0.  0.
        1    1    3    3  502    0 -0.19421357019E+03 -0.16437282718E+03  0.91806903004E+03  0.95267417363E+03  0.50400001928E-02 0. -1.
       -1    1    3    3    0  502  0.19421357019E+03  0.16437282718E+03 -0.88895324449E+02  0.26951756139E+03  0.50400001928E-02 0.  1.
</event>
<event>
 5   0  0.1459111E-02  0.8937495E+03  0.7818609E-02  0.9433429E-01
        1   -1    0    0  501    0  0.00000000000E+00  0.00000000000E+00  0.42037833673E+03  0.42037833676E+03  0.50400001928E-02 0.  1.
       -1   -1    0    0    0  501  0.00000000000E+00  0.00000000000E+00 -0.47504125342E+03  0.47504125345E+03  0.50400001928E-02 0. -1.
    10030    2    1    2    0    0  0.00000000000E+00  0.00000000000E+00 -0.54662916696E+02  0.89541959021E+03  0.89374952200E+03 0.  0.
        2    1    3    3  502    0 -0.31810534575E+03  0.18813290318E+03 -0.27902201358E+03  0.46307481504E+03  0.25500000920E-02 0. -1.
       -2    1    3    3    0  502  0.31810534575E+03 -0.18813290318E+03  0.22435909689E+03  0.43234477517E+03  0.25500000920E-02 0.  1.
</event>
<event>
 5   0  0.2803717E-02  0.9038861E+03  0.7818609E-02  0.9420737E-01
        2   -1    0    0  501    0  0.00000000000E+00  0.00000000000E+00  0.62304730561E+03  0.62304730561E+03  0.25500000920E-02 0.  1.
       -2   -1    0    0    0  501  0.00000000000E+00  0.00000000000E+00 -0.32782825865E+03  0.32782825866E+03  0.25500000920E-02 0. -1.
    10030    2    1    2    0    0  0.00000000000E+00  0.00000000000E+00  0.29521904696E+03  0.95087556427E+03  0.90388608410E+03 0.  0.
        5    1    3    3  502    0 -0.35772739312E+03  0.19325783803E+02 -0.14218934286E+03  0.38546371156E+03  0.46999998093E+01 0. -1.
       -5    1    3    3    0  502  0.35772739312E+03 -0.19325783803E+02  0.43740838982E+03  0.56541185271E+03  0.46999998093E+01 0.  1.
</event>
<event>
 5   0  0.1040163E-02  0.8730620E+03  0.7818609E-02  0.9459896E-01
       -3   -1    0    0    0  501  0.00000000000E+00  0.00000000000E+00  0.14628558021E+04  0.14628558056E+04  0.10100000352E+00 0. -1.
        3   -1    0    0  501    0  0.00000000000E+00  0.00000000000E+00 -0.13026524526E+03  0.13026528442E+03  0.10100000352E+00 0.  1.
    10030    2    1    2    0    0  0.00000000000E+00  0.00000000000E+00  0.13325905569E+04  0.15931210900E+04  0.87306197676E+03 0.  0.
        3    1    3    3  502    0 -0.23802442604E+03 -0.19721686214E+02 -0.46280462835E+00  0.23884052564E+03  0.10100000352E+00 0. -1.
       -3    1    3    3    0  502  0.23802442604E+03  0.19721686214E+02  0.13330533615E+04  0.13542805644E+04  0.10100000352E+00 0.  1.
</event>
<event>
 5   0  0.1040163E-02  0.9148560E+03  0.7818609E-02  0.9407199E-01
       -3   -1    0    0    0  501  0.00000000000E+00  0.00000000000E+00  0.35716267847E+03  0.35716269275E+03  0.10100000352E+00 0. -1.
        3   -1    0    0  501    0  0.00000000000E+00  0.00000000000E+00 -0.58584048654E+03  0.58584049525E+03  0.10100000352E+00 0.  1.
    10030    2    1    2    0    0  0.00000000000E+00  0.00000000000E+00 -0.22867780808E+03  0.94300318800E+03  0.91485598466E+03 0.  0.
        5    1    3    3  502    0  0.32754282057E+03 -0.27029001318E+03  0.60822584369E+02  0.42902501944E+03  0.46999998093E+01 0. -1.
       -5    1    3    3    0  502 -0.32754282057E+03  0.27029001318E+03 -0.28950039245E+03  0.51397816856E+03  0.46999998093E+01 0.  1.
</event>
<event>
 5   0  0.1459111E-02  0.9073593E+03  0.7818609E-02  0.9416428E-01
       -1   -1    0    0    0  501  0.00000000000E+00  0.00000000000E+00  0.19181476454E+03  0.19181476461E+03  0.50400001928E-02 0.  1.
        1   -1    0    0  501    0  0.00000000000E+00  0.00000000000E+00 -0.10730415942E+04  0.10730415942E+04  0.50400001928E-02 0. -1.
    10030    2    1    2    0    0  0.00000000000E+00  0.00000000000E+00 -0.88122682961E+03  0.12648563588E+04  0.90735929108E+03 0.  0.
        2    1    3    3  502    0  0.29540096128E+02 -0.14077658154E+03  0.15918548398E+03  0.21454762061E+03  0.25500000920E-02 0.  1.
       -2    1    3    3    0  502 -0.29540096128E+02  0.14077658154E+03 -0.10404123136E+04  0.10503087382E+04  0.25500000920E-02 0. -1.
</event>
<event>
 5   0  0.2628383E-02  0.8995894E+03  0.7818609E-02  0.9426095E-01
       -2   -1    0    0    0  501  0.00000000000E+00  0.00000000000E+00  0.33168791943E+03  0.33168791943E+03  0.25500000920E-02 0.  1.
        2   -1    0    0  501    0  0.00000000000E+00  0.00000000000E+00 -0.60995668488E+03  0.60995668488E+03  0.25500000920E-02 0. -1.
    10030    2    1    2    0    0  0.00000000000E+00  0.00000000000E+00 -0.27826876545E+03  0.94164460432E+03  0.89958938134E+03 0.  0.
        2    1    3    3  502    0 -0.36388381214E+03 -0.24941593220E+03 -0.47309177690E+02  0.44368670734E+03  0.25500000920E-02 0.  1.
       -2    1    3    3    0  502  0.36388381214E+03  0.24941593220E+03 -0.23095958776E+03  0.49795789697E+03  0.25500000920E-02 0. -1.
</event>
<event>
 5   0  0.2414128E-02  0.1114001E+04  0.7818609E-02  0.9191652E-01
        2   -1    0    0  501    0  0.00000000000E+00  0.00000000000E+00  0.51340267073E+03  0.51340267073E+03  0.25500000920E-02 0. -1.
       -2   -1    0    0    0  501  0.00000000000E+00  0.00000000000E+00 -0.60430039771E+03  0.60430039771E+03  0.25500000920E-02 0.  1.
    10030    2    1    2    0    0  0.00000000000E+00  0.00000000000E+00 -0.90897726980E+02  0.11177030684E+04  0.11140007866E+04 0.  0.
        3    1    3    3  502    0 -0.14013332954E+03  0.48776643324E+03 -0.27576783202E+03  0.57758233251E+03  0.10100000352E+00 0.  1.
       -3    1    3    3    0  502  0.14013332954E+03 -0.48776643324E+03  0.18487010504E+03  0.54012073594E+03  0.10100000352E+00 0. -1.
</event>
<event>
 5   0  0.1537870E-02  0.8962443E+03  0.7818609E-02  0.9430288E-01
       -1   -1    0    0    0  501  0.00000000000E+00  0.00000000000E+00  0.13651834498E+03  0.13651834508E+03  0.50400001928E-02 0.  1.
        1   -1    0    0  501    0  0.00000000000E+00  0.00000000000E+00 -0.14709631195E+04  0.14709631195E+04  0.50400001928E-02 0. -1.
    10030    2    1    2    0    0  0.00000000000E+00  0.00000000000E+00 -0.13344447745E+04  0.16074814645E+04  0.89624427626E+03 0.  0.
        5    1    3    3  502    0  0.13058857289E+03  0.42855556770E+03 -0.65137072265E+03  0.79058153172E+03  0.46999998093E+01 0.  1.
       -5    1    3    3    0  502 -0.13058857289E+03 -0.42855556770E+03 -0.68307405182E+03  0.81689993282E+03  0.46999998093E+01 0. -1.
</event>
<event>
 5   0  0.2679861E-02  0.8769912E+03  0.7818609E-02  0.9454810E-01
       -2   -1    0    0    0  501  0.00000000000E+00  0.00000000000E+00  0.13200356907E+03  0.13200356910E+03  0.25500000920E-02 0.  1.
        2   -1    0    0  501    0  0.00000000000E+00  0.00000000000E+00 -0.14566151199E+04  0.14566151199E+04  0.25500000920E-02 0. -1.
    10030    2    1    2    0    0  0.00000000000E+00  0.00000000000E+00 -0.13246115508E+04  0.15886186890E+04  0.87699120773E+03 0.  0.
        1    1    3    3  502    0 -0.29609762979E+03 -0.95699229704E+02 -0.12219394679E+04  0.12609394166E+04  0.50400001928E-02 0. -1.
       -1    1    3    3    0  502  0.29609762979E+03  0.95699229704E+02 -0.10267208284E+03  0.32767927239E+03  0.50400001928E-02 0.  1.
</event>
<event>
 5   0  0.2705111E-02  0.9264089E+03  0.7818609E-02  0.9393158E-01
       -2   -1    0    0    0  501  0.00000000000E+00  0.00000000000E+00  0.30240087069E+03  0.30240087070E+03  0.25500000920E-02 0. -1.
        2   -1    0    0  501    0  0.00000000000E+00  0.00000000000E+00 -0.70951639430E+03  0.70951639430E+03  0.25500000920E-02 0.  1.
    10030    2    1    2    0    0  0.00000000000E+00  0.00000000000E+00 -0.40711552361E+03  0.10119172650E+04  0.92640892788E+03 0.  0.
        4    1    3    3  502    0 -0.37879522270E+02 -0.14756408392E+02  0.30044665257E+03  0.30318709361E+03  0.12699999809E+01 0. -1.
       -4    1    3    3    0  502  0.37879522270E+02  0.14756408392E+02 -0.70756217617E+03  0.70873017140E+03  0.12699999809E+01 0.  1.
</event>
<event>
 5   0  0.1537870E-02  0.8934684E+03  0.7818609E-02  0.9433783E-01
        1   -1    0    0  501    0  0.00000000000E+00  0.00000000000E+00  0.51776413514E+03  0.51776413516E+03  0.50400001928E-02 0. -1.
       -1   -1    0    0    0  501  0.00000000000E+00  0.00000000000E+00 -0.38544858361E+03  0.38544858365E+03  0.50400001928E-02 0.  1.
    10030    2    1    2    0    0  0.00000000000E+00  0.00000000000E+00  0.13231555153E+03  0.90321271881E+03  0.89346841592E+03 0.  0.
        5    1    3    3  502    0 -0.21983027427E+03  0.35743241104E+03 -0.88699336342E+02  0.42892066890E+03  0.46999998093E+01 0. -1.
       -5    1    3    3    0  502  0.21983027427E+03 -0.35743241104E+03  0.22101488787E+03  0.47429204991E+03  0.46999998093E+01 0.  1.
</event>
<event>
 5   0  0.1459111E-02  0.9068243E+03  0.7818609E-02  0.9417091E-01
        1   -1    0    0  501    0  0.00000000000E+00  0.00000000000E+00  0.25546786162E+03  0.25546786167E+03  0.50400001928E-02 0. -1.
       -1   -1    0    0    0  501  0.00000000000E+00  0.00000000000E+00 -0.80472962829E+03  0.80472962830E+03  0.50400001928E-02 0.  1.
    10030    2    1    2    0    0  0.00000000000E+00  0.00000000000E+00 -0.54926176667E+03  0.10601974900E+04  0.90682425497E+03 0.  0.
        2    1    3    3  502    0  0.28709864435E+03  0.29488913302E+03 -0.49706524731E+03  0.64533641804E+03  0.25500000920E-02 0.  1.
       -2    1    3    3    0  502 -0.28709864435E+03 -0.29488913302E+03 -0.52196519357E+02  0.41486107193E+03  0.25500000920E-02 0. -1.
</event>
<event>
 5   0  0.1537870E-02  0.9078231E+03  0.7818609E-02  0.9415855E-01
        1   -1    0    0  501    0  0.00000000000E+00  0.00000000000E+00  0.28087246499E+03  0.28087246503E+03  0.50400001928E-02 0. -1.
       -1   -1    0    0    0  501  0.00000000000E+00  0.00000000000E+00 -0.73355603824E+03  0.73355603825E+03  0.50400001928E-02 0.  1.
    10030    2    1    2    0    0  0.00000000000E+00  0.00000000000E+00 -0.45268357325E+03  0.10144285033E+04  0.90782309444E+03 0.  0.
        5    1    3    3  502    0  0.19003646103E+03 -0.32102416321E+03 -0.51524271654E+03  0.63613482598E+03  0.46999998093E+01 0.  1.
       -5    1    3    3    0  502 -0.19003646103E+03  0.32102416321E+03  0.62559143293E+02  0.37829367731E+03  0.46999998093E+01 0. -1.
</event>
<event>
 5   0  0.2414128E-02  0.8851621E+03  0.7818609E-02  0.9444322E-01
        2   -1    0    0  501    0  0.00000000000E+00  0.00000000000E+00  0.11547769764E+04  0.11547769764E+04  0.25500000920E-02 0.  1.
       -2   -1    0    0    0  501  0.00000000000E+00  0.00000000000E+00 -0.16962408523E+03  0.16962408525E+03  0.25500000920E-02 0. -1.
    10030    2    1    2    0    0  0.00000000000E+00  0.00000000000E+00  0.98515289114E+03  0.13244010616E+04  0.88516210556E+03 0.  0.
        3    1    3    3  502    0 -0.42174370058E+03  0.10513300842E+03  0.36777591348E+03  0.56936792250E+03  0.10100000352E+00 0. -1.
       -3    1    3    3    0  502  0.42174370058E+03 -0.10513300842E+03  0.61737697766E+03  0.75503313913E+03  0.10100000352E+00 0.  1.
</event>
<event>
 5   0  0.2628383E-02  0.9512912E+03  0.7818609E-02  0.9363643E-01
        2   -1    0    0  501    0  0.00000000000E+00  0.00000000000E+00  0.11624794135E+04  0.11624794135E+04  0.25500000920E-02 0.  1.
       -2   -1    0    0    0  501  0.00000000000E+00  0.00000000000E+00 -0.19461739606E+03  0.19461739608E+03  0.25500000920E-02 0. -1.
    10030    2    1    2    0    0  0.00000000000E+00  0.00000000000E+00  0.96786201748E+03  0.13570968096E+04  0.95129115722E+03 0.  0.
        2    1    3    3  502    0  0.18307279674E+03  0.14175782568E+03 -0.10879327507E+03  0.25582593058E+03  0.25500000920E-02 0. -1.
       -2    1    3    3    0  502 -0.18307279674E+03 -0.14175782568E+03  0.10766552926E+04  0.11012708790E+04  0.25500000920E-02 0.  1.
</event>
<event>
 5   0  0.2803717E-02  0.8910021E+03  0.7818609E-02  0.9436900E-01
       -2   -1    0    0    0  501  0.00000000000E+00  0.00000000000E+00  0.29261870223E+03  0.29261870224E+03  0.25500000920E-02 0.  1.
        2   -1    0    0  501    0  0.00000000000E+00  0.00000000000E+00 -0.67825874709E+03  0.67825874710E+03  0.25500000920E-02 0. -1.
    10030    2    1    2    0    0  0.00000000000E+00  0.00000000000E+00 -0.38564004487E+03  0.97087744934E+03  0.89100211977E+03 0.  0.
        5    1    3    3  502    0 -0.85009364134E+01  0.29256675956E+03 -0.55875562665E+03  0.63079118179E+03  0.46999998093E+01 0. -1.
       -5    1    3    3    0  502  0.85009364134E+01 -0.29256675956E+03  0.17311558178E+03  0.34008626755E+03  0.46999998093E+01 0.  1.
</event>
<event>
 5   0  0.1560728E-02  0.4919671E+03  0.7818609E-02  0.1015897E+00
       -1   -1    0    0    0  501  0.00000000000E+00  0.00000000000E+00  0.11821108198E+03  0.11821108209E+03  0.50400001928E-02 0. -1.
        1   -1    0    0  501    0  0.00000000000E+00  0.00000000000E+00 -0.51186328900E+03  0.51186328902E+03  0.50400001928E-02 0.  1.
    10030    2    1    2    0    0  0.00000000000E+00  0.00000000000E+00 -0.39365220702E+03  0.63007437111E+03  0.49196712598E+03 0.  0.
        4    1    3    3  502    0  0.22363242281E+03 -0.95645768392E+02 -0.24382584673E+03  0.34440126303E+03  0.12699999809E+01 0.  1.
       -4    1    3    3    0  502 -0.22363242281E+03  0.95645768392E+02 -0.14982636028E+03  0.28567310808E+03  0.12699999809E+01 0. -1.
</event>
<event>
 5   0  0.1559275E-02  0.9112365E+03  0.7818609E-02  0.9411643E-01
        1   -1    0    0  501    0  0.00000000000E+00  0.00000000000E+00  0.15875325903E+03  0.15875325911E+03  0.50400001928E-02 0.  1.
       -1   -1    0    0    0  501  0.00000000000E+00  0.00000000000E+00 -0.13076141076E+04  0.13076141076E+04  0.50400001928E-02 0. -1.
    10030    2    1    2    0    0  0.00000000000E+00  0.00000000000E+00 -0.11488608486E+04  0.14663673667E+04  0.91123652517E+03 0.  0.
        1    1    3    3  502    0  0.22622602648E+03 -0.13863145163E+03 -0.11704693834E+04  0.12001647686E+04  0.50400001928E-02 0. -1.
       -1    1    3    3    0  502 -0.22622602648E+03  0.13863145163E+03  0.21608534770E+02  0.26620259811E+03  0.50400001928E-02 0.  1.
</event>
<event>
 5   0  0.2628383E-02  0.8929875E+03  0.7818609E-02  0.9434390E-01
        2   -1    0    0  501    0  0.00000000000E+00  0.00000000000E+00  0.88913021727E+03  0.88913021728E+03  0.25500000920E-02 0. -1.
       -2   -1    0    0    0  501  0.00000000000E+00  0.00000000000E+00 -0.22421539246E+03  0.22421539248E+03  0.25500000920E-02 0.  1.
    10030    2    1    2    0    0  0.00000000000E+00  0.00000000000E+00  0.66491482481E+03  0.11133456098E+04  0.89298752651E+03 0.  0.
        2    1    3    3  502    0 -0.23411692207E+03  0.21052340190E+03  0.72716408731E+03  0.79240043275E+03  0.25500000920E-02 0. -1.
       -2    1    3    3    0  502  0.23411692207E+03 -0.21052340190E+03 -0.62249262501E+02  0.32094517700E+03  0.25500000920E-02 0.  1.
</event>
<event>
 5   0  0.1537870E-02  0.9462068E+03  0.7818609E-02  0.9369595E-01
       -1   -1    0    0    0  501  0.00000000000E+00  0.00000000000E+00  0.44246820199E+03  0.44246820202E+03  0.50400001928E-02 0. -1.
        1   -1    0    0  501    0  0.00000000000E+00  0.00000000000E+00 -0.50585968152E+03  0.50585968155E+03  0.50400001928E-02 0.  1.
    10030    2    1    2    0    0  0.00000000000E+00  0.00000000000E+00 -0.63391479534E+02  0.94832788357E+03  0.94620679297E+03 0.  0.
        5    1    3    3  502    0  0.43885202482E+02  0.25834502497E+03  0.36306112621E+03  0.44777621005E+03  0.46999998093E+01 0. -1.
       -5    1    3    3    0  502 -0.43885202482E+02 -0.25834502497E+03 -0.42645260574E+03  0.50055167352E+03  0.46999998093E+01 0.  1.
</event>
<event>
 5   0  0.1560728E-02  0.8345434E+03  0.7818609E-02  0.9511320E-01
        1   -1    0    0  501    0  0.00000000000E+00  0.00000000000E+00  0.49618943140E+03  0.49618943143E+03  0.50400001928E-02 0. -1.
       -1   -1    0    0    0  501  0.00000000000E+00  0.00000000000E+00 -0.35090561655E+03  0.35090561659E+03  0.50400001928E-02 0.  1.
    10030    2    1    2    0    0  0.00000000000E+00  0.00000000000E+00  0.14528381485E+03  0.84709504802E+03  0.83454336827E+03 0.  0.
        4    1    3    3  502    0 -0.28032387309E+02 -0.31835195311E+03  0.34496843740E+03  0.47025377882E+03  0.12699999809E+01 0. -1.
       -4    1    3    3    0  502  0.28032387309E+02  0.31835195311E+03 -0.19968462256E+03  0.37684126920E+03  0.12699999809E+01 0.  1.
</event>
<event>
 5   0  0.2705111E-02  0.9091075E+03  0.7818609E-02  0.9414268E-01
       -2   -1    0    0    0  501  0.00000000000E+00  0.00000000000E+00  0.22835907330E+03  0.22835907331E+03  0.25500000920E-02 0.  1.
        2   -1    0    0  501    0  0.00000000000E+00  0.00000000000E+00 -0.90479925951E+03  0.90479925951E+03  0.25500000920E-02 0. -1.
    10030    2    1    2    0    0  0.00000000000E+00  0.00000000000E+00 -0.67644018621E+03  0.11331583328E+04  0.90910751935E+03 0.  0.
        4    1    3    3  502    0 -0.16731281078E+03  0.42227872828E+03 -0.31646580138E+03  0.55359291664E+03  0.12699999809E+01 0. -1.
       -4    1    3    3    0  502  0.16731281078E+03 -0.42227872828E+03 -0.35997438482E+03  0.57956541619E+03  0.12699999809E+01 0.  1.
</event>
<event>
 5   0  0.1537870E-02  0.8861783E+03  0.7818609E-02  0.9443026E-01
       -1   -1    0    0    0  501  0.00000000000E+00  0.00000000000E+00  0.52822145872E+03  0.52822145875E+03  0.50400001928E-02 0.  1.
        1   -1    0    0  501    0  0.00000000000E+00  0.00000000000E+00 -0.37167744253E+03  0.37167744256E+03  0.50400001928E-02 0. -1.
    10030    2    1    2    0    0  0.00000000000E+00  0.00000000000E+00  0.15654401620E+03  0.89989890131E+03  0.88617831364E+03 0.  0.
        5    1    3    3  502    0  0.25263788168E+03 -0.22993237578E+03 -0.20825096886E+03  0.40010667667E+03  0.46999998093E+01 0. -1.
       -5    1    3    3    0  502 -0.25263788168E+03  0.22993237578E+03  0.36479498505E+03  0.49979222464E+03  0.46999998093E+01 0.  1.
</event>
<event>
 5   0  0.2414128E-02  0.8720254E+03  0.7818609E-02  0.9461243E-01
        2   -1    0    0  501    0  0.00000000000E+00  0.00000000000E+00  0.55767555511E+03  0.55767555511E+03  0.25500000920E-02 0.  1.
       -2   -1    0    0    0  501  0.00000000000E+00  0.00000000000E+00 -0.34089188155E+03  0.34089188156E+03  0.25500000920E-02 0. -1.
    10030    2    1    2    0    0  0.00000000000E+00  0.00000000000E+00  0.21678367356E+03  0.89856743667E+03  0.87202538789E+03 0.  0.
        3    1    3    3  502    0  0.13437113166E+03 -0.20549538046E+03  0.47966840899E+03  0.53885595960E+03  0.10100000352E+00 0.  1.
       -3    1    3    3    0  502 -0.13437113166E+03  0.20549538046E+03 -0.26288473543E+03  0.35971147707E+03  0.10100000352E+00 0. -1.
</event>
<event>
 5   0  0.2679861E-02  0.9003753E+03  0.7818609E-02  0.9425112E-01
        2   -1    0    0  501    0  0.00000000000E+00  0.00000000000E+00  0.86775654691E+03  0.86775654691E+03  0.25500000920E-02 0. -1.
       -2   -1    0    0    0  501  0.00000000000E+00  0.00000000000E+00 -0.23355505035E+03  0.23355505037E+03  0.25500000920E-02 0.  1.
    10030    2    1    2    0    0  0.00000000000E+00  0.00000000000E+00  0.63420149656E+03  0.11013115973E+04  0.90037530845E+03 0.  0.
        1    1    3    3  502    0  0.42030476756E+03 -0.14295787249E+03  0.22576451973E+03  0.49805890147E+03  0.50400001928E-02 0.  1.
       -1    1    3    3    0  502 -0.42030476756E+03  0.14295787249E+03  0.40843697683E+03  0.60325269581E+03  0.50400001928E-02 0. -1.
</event>
<event>
 5   0  0.1559275E-02  0.6683497E+03  0.7818609E-02  0.9772944E-01
       -1   -1    0    0    0  501  0.00000000000E+00  0.00000000000E+00  0.12281215007E+03  0.12281215017E+03  0.50400001928E-02 0.  1.
        1   -1    0    0  501    0  0.00000000000E+00  0.00000000000E+00 -0.90929801746E+03  0.90929801747E+03  0.50400001928E-02 0. -1.
    10030    2    1    2    0    0  0.00000000000E+00  0.00000000000E+00 -0.78648586739E+03  0.10321101676E+04  0.66834974269E+03 0.  0.
        1    1    3    3  502    0  0.16724531827E+03  0.35438129768E+02 -0.83665451514E+03  0.85394240746E+03  0.50400001928E-02 0. -1.
       -1    1    3    3    0  502 -0.16724531827E+03 -0.35438129768E+02  0.50168647752E+02  0.17816776018E+03  0.50400001928E-02 0.  1.
</event>
<event>
 5   0  0.1040163E-02  0.9031728E+03  0.7818609E-02  0.9421624E-01
        3   -1    0    0  501    0  0.00000000000E+00  0.00000000000E+00  0.54419336530E+03  0.54419337467E+03  0.10100000352E+00 0.  1.
       -3   -1    0    0    0  501  0.00000000000E+00  0.00000000000E+00 -0.37473859983E+03  0.37473861344E+03  0.10100000352E+00 0. -1.
    10030    2    1    2    0    0  0.00000000000E+00  0.00000000000E+00  0.16945476547E+03  0.91893198811E+03  0.90317278592E+03 0.  0.
        4    1    3    3  502    0  0.25083237417E+03 -0.37003413115E+03  0.14976869599E+03  0.47145987459E+03  0.12699999809E+01 0. -1.
       -4    1    3    3    0  502 -0.25083237417E+03  0.37003413115E+03  0.19686069481E+02  0.44747211352E+03  0.12699999809E+01 0.  1.
</event>
<event>
 5   0  0.1459111E-02  0.9345138E+03  0.7818609E-02  0.9383437E-01
       -1   -1    0    0    0  501  0.00000000000E+00  0.00000000000E+00  0.52605196013E+03  0.52605196015E+03  0.50400001928E-02 0. -1.
        1   -1    0    0  501    0  0.00000000000E+00  0.00000000000E+00 -0.41503314933E+03  0.41503314936E+03  0.50400001928E-02 0.  1.
    10030    2    1    2    0    0  0.00000000000E+00  0.00000000000E+00  0.11101881079E+03  0.94108510952E+03  0.93451378107E+03 0.  0.
        2    1    3    3  502    0  0.24700965663E+03 -0.30595988844E+03  0.30968028155E+03  0.50052682305E+03  0.25500000920E-02 0.  1.
       -2    1    3    3    0  502 -0.24700965663E+03  0.30595988844E+03 -0.19866147076E+03  0.44055828647E+03  0.25500000920E-02 0. -1.
</event>
<event>
 5   0  0.1560728E-02  0.9384460E+03  0.7818609E-02  0.9378758E-01
       -1   -1    0    0    0  501  0.00000000000E+00  0.00000000000E+00  0.12111045353E+04  0.12111045353E+04  0.50400001928E-02 0. -1.
        1   -1    0    0  501    0  0.00000000000E+00  0.00000000000E+00 -0.18179289593E+03  0.18179289600E+03  0.50400001928E-02 0.  1.
    10030    2    1    2    0    0  0.00000000000E+00  0.00000000000E+00  0.10293116394E+04  0.13928974313E+04  0.93844595114E+03 0.  0.
        4    1    3    3  502    0 -0.43730402304E+03 -0.72094248001E+02  0.74332911876E+03  0.86543178868E+03  0.12699999809E+01 0. -1.
       -4    1    3    3    0  502  0.43730402304E+03  0.72094248001E+02  0.28598252061E+03  0.52746564264E+03  0.12699999809E+01 0.  1.
</event>
<event>
 5   0  0.1560728E-02  0.7843610E+03  0.7818609E-02  0.9582934E-01
        1   -1    0    0  501    0  0.00000000000E+00  0.00000000000E+00  0.56445951152E+03  0.56445951154E+03  0.50400001928E-02 0.  1.
       -1   -1    0    0    0  501  0.00000000000E+00  0.00000000000E+00 -0.27248284519E+03  0.27248284524E+03  0.50400001928E-02 0. -1.
    10030    2    1    2    0    0  0.00000000000E+00  0.00000000000E+00  0.29197666633E+03  0.83694235678E+03  0.78436097231E+03 0.  0.
        4    1    3    3  502    0  0.35762228090E+03 -0.15968774947E+03  0.12438121947E+03  0.41093329603E+03  0.12699999809E+01 0.  1.
       -4    1    3    3    0  502 -0.35762228090E+03  0.15968774947E+03  0.16759544686E+03  0.42600906075E+03  0.12699999809E+01 0. -1.
</event>
<event>
 5   0  0.1559275E-02  0.7511784E+03  0.7818609E-02  0.9633503E-01
       -1   -1    0    0    0  501  0.00000000000E+00  0.00000000000E+00  0.11067372412E+04  0.11067372412E+04  0.50400001928E-02 0. -1.
        1   -1    0    0  501    0  0.00000000000E+00  0.00000000000E+00 -0.12746228772E+03  0.12746228782E+03  0.50400001928E-02 0.  1.
    10030    2    1    2    0    0  0.00000000000E+00  0.00000000000E+00  0.97927495347E+03  0.12341995290E+04  0.75117843615E+03 0.  0.
        1    1    3    3  502    0  0.26669955582E+02 -0.11855388737E+03  0.10735470191E+04  0.10804024773E+04  0.50400001928E-02 0. -1.
       -1    1    3    3    0  502 -0.26669955582E+02  0.11855388737E+03 -0.94272065608E+02  0.15379705173E+03  0.50400001928E-02 0.  1.
</event>
<event>
 5   0  0.2803717E-02  0.9053251E+03  0.7818609E-02  0.9418949E-01
        2   -1    0    0  501    0  0.00000000000E+00  0.00000000000E+00  0.27879079798E+03  0.27879079799E+03  0.25500000920E-02 0.  1.
       -2   -1    0    0    0  501  0.00000000000E+00  0.00000000000E+00 -0.73497191008E+03  0.73497191008E+03  0.25500000920E-02 0. -1.
    10030    2    1    2    0    0  0.00000000000E+00  0.00000000000E+00 -0.45618111210E+03  0.10137627081E+04  0.90532514671E+03 0.  0.
        5    1    3    3  502    0  0.17127360259E+03 -0.81053094422E+02 -0.68839546658E+03  0.71401306673E+03  0.46999998093E+01 0. -1.
       -5    1    3    3    0  502 -0.17127360259E+03  0.81053094422E+02  0.23221435449E+03  0.29974964134E+03  0.46999998093E+01 0.  1.
</event>
<event>
 5   0  0.2628383E-02  0.1012341E+04  0.7818609E-02  0.9295112E-01
        2   -1    0    0  501    0  0.00000000000E+00  0.00000000000E+00  0.10171118037E+04  0.10171118037E+04  0.25500000920E-02 0. -1.
       -2   -1    0    0    0  501  0.00000000000E+00  0.00000000000E+00 -0.25189804648E+03  0.25189804649E+03  0.25500000920E-02 0.  1.
    10030    2    1    2    0    0  0.00000000000E+00  0.00000000000E+00  0.76521375726E+03  0.12690098502E+04  0.10123408051E+04 0.  0.
        2    1    3    3  502    0 -0.19055543487E+03 -0.45222284598E+03  0.53812469080E+03  0.72828226605E+03  0.25500000920E-02 0. -1.
       -2    1    3    3    0  502  0.19055543487E+03  0.45222284598E+03  0.22708906646E+03  0.54072758419E+03  0.25500000920E-02 0.  1.
</event>
<event>
 5   0  0.1459111E-02  0.8716321E+03  0.7818609E-02  0.9461754E-01
        1   -1    0    0  501    0  0.00000000000E+00  0.00000000000E+00  0.20000257375E+04  0.20000257375E+04  0.50400001928E-02 0.  1.
       -1   -1    0    0    0  501  0.00000000000E+00  0.00000000000E+00 -0.94966592719E+02  0.94966592852E+02  0.50400001928E-02 0. -1.
    10030    2    1    2    0    0  0.00000000000E+00  0.00000000000E+00  0.19050591448E+04  0.20949923304E+04  0.87163210080E+03 0.  0.
        2    1    3    3  502    0 -0.24153906475E+03  0.22340658977E+03  0.16394678779E+04  0.16721562567E+04  0.25500000920E-02 0.  1.
       -2    1    3    3    0  502  0.24153906475E+03 -0.22340658977E+03  0.26559126693E+03  0.42283607371E+03  0.25500000920E-02 0. -1.
</event>
<event>
 5   0  0.1560728E-02  0.9401038E+03  0.7818609E-02  0.9376793E-01
        1   -1    0    0  501    0  0.00000000000E+00  0.00000000000E+00  0.68516135637E+03  0.68516135639E+03  0.50400001928E-02 0.  1.
       -1   -1    0    0    0  501  0.00000000000E+00  0.00000000000E+00 -0.32247698400E+03  0.32247698404E+03  0.50400001928E-02 0. -1.
    10030    2    1    2    0    0  0.00000000000E+00  0.00000000000E+00  0.36268437237E+03  0.10076383404E+04  0.94010375552E+03 0.  0.
        4    1    3    3  502    0  0.37488629810E+03  0.69130138486E+01  0.48518422171E+03  0.61318257327E+03  0.12699999809E+01 0.  1.
       -4    1    3    3    0  502 -0.37488629810E+03 -0.69130138486E+01 -0.12249984934E+03  0.39445576716E+03  0.12699999809E+01 0. -1.
</event>
<event>
 5   0  0.1559275E-02  0.9028174E+03  0.7818609E-02  0.9422066E-01
       -1   -1    0    0    0  501  0.00000000000E+00  0.00000000000E+00  0.31811501518E+03  0.31811501522E+03  0.50400001928E-02 0. -1.
        1   -1    0    0  501    0  0.00000000000E+00  0.00000000000E+00 -0.64055391871E+03  0.64055391873E+03  0.50400001928E-02 0.  1.
    10030    2    1    2    0    0  0.00000000000E+00  0.00000000000E+00 -0.32243890352E+03  0.95866893395E+03  0.90281741145E+03 0.  0.
        1    1    3    3  502    0  0.23582342902E+03 -0.90854606550E+02 -0.55839415050E+03  0.61292028564E+03  0.50400001928E-02 0.  1.
       -1    1    3    3    0  502 -0.23582342902E+03  0.90854606550E+02  0.23595524698E+03  0.34574864831E+03  0.50400001928E-02 0. -1.
</event>
<event>
 5   0  0.1559275E-02  0.9089487E+03  0.7818609E-02  0.9414464E-01
       -1   -1    0    0    0  501  0.00000000000E+00  0.00000000000E+00  0.15254226390E+03  0.15254226398E+03  0.50400001928E-02 0.  1.
        1   -1    0    0  501    0  0.00000000000E+00  0.00000000000E+00 -0.13540307309E+04  0.13540307309E+04  0.50400001928E-02 0. -1.
    10030    2    1    2    0    0  0.00000000000E+00  0.00000000000E+00 -0.12014884670E+04  0.15065729949E+04  0.90894865233E+03 0.  0.
        1    1    3    3  502    0  0.28117850287E+03  0.30474165941E+03 -0.29235277564E+03  0.50734502550E+03  0.50400001928E-02 0.  1.
       -1    1    3    3    0  502 -0.28117850287E+03 -0.30474165941E+03 -0.90913569135E+03  0.99922796937E+03  0.50400001928E-02 0. -1.
</event>
<event>
 5   0  0.1040163E-02  0.9006689E+03  0.7818609E-02  0.9424746E-01
       -3   -1    0    0    0  501  0.00000000000E+00  0.00000000000E+00  0.46269082855E+03  0.46269083957E+03  0.10100000352E+00 0.  1.
        3   -1    0    0  501    0  0.00000000000E+00  0.00000000000E+00 -0.43830803386E+03  0.43830804550E+03  0.10100000352E+00 0. -1.
    10030    2    1    2    0    0  0.00000000000E+00  0.00000000000E+00  0.24382794682E+02  0.90099888507E+03  0.90066890155E+03 0.  0.
        5    1    3    3  502    0  0.86434348490E+02 -0.29989823768E+03  0.33691651436E+03  0.45928714026E+03  0.46999998093E+01 0.  1.
       -5    1    3    3    0  502 -0.86434348490E+02  0.29989823768E+03 -0.31253371968E+03  0.44171174480E+03  0.46999998093E+01 0. -1.
</event>
<event>
 5   0  0.1459111E-02  0.9218775E+03  0.7818609E-02  0.9398639E-01
       -1   -1    0    0    0  501  0.00000000000E+00  0.00000000000E+00  0.78530914301E+03  0.78530914303E+03  0.50400001928E-02 0.  1.
        1   -1    0    0  501    0  0.00000000000E+00  0.00000000000E+00 -0.27054893635E+03  0.27054893639E+03  0.50400001928E-02 0. -1.
    10030    2    1    2    0    0  0.00000000000E+00  0.00000000000E+00  0.51476020667E+03  0.10558580794E+04  0.92187754800E+03 0.  0.
        2    1    3    3  502    0 -0.37335069320E+03 -0.26322713315E+03  0.18691373864E+03  0.49357472528E+03  0.25500000920E-02 0. -1.
       -2    1    3    3    0  502  0.37335069320E+03  0.26322713315E+03  0.32784646802E+03  0.56228335414E+03  0.25500000920E-02 0.  1.
</event>
<event>
 5   0  0.1560728E-02  0.8817031E+03  0.7818609E-02  0.9448747E-01
       -1   -1    0    0    0  501  0.00000000000E+00  0.00000000000E+00  0.19354094333E+03  0.19354094339E+03  0.50400001928E-02 0.  1.
        1   -1    0    0  501    0  0.00000000000E+00  0.00000000000E+00 -0.10041806342E+04  0.10041806343E+04  0.50400001928E-02 0. -1.
    10030    2    1    2    0    0  0.00000000000E+00  0.00000000000E+00 -0.81063969091E+03  0.11977215777E+04  0.88170305040E+03 0.  0.
        4    1    3    3  502    0  0.15711244694E+02 -0.38023216999E+03 -0.10301420783E+03  0.39425484933E+03  0.12699999809E+01 0.  1.
       -4    1    3    3    0  502 -0.15711244694E+02  0.38023216999E+03 -0.70762548308E+03  0.80346672832E+03  0.12699999809E+01 0. -1.
</event>
<event>
 5   0  0.1497410E-02  0.8974020E+03  0.7818609E-02  0.9428835E-01
        1   -1    0    0  501    0  0.00000000000E+00  0.00000000000E+00  0.10774437585E+04  0.10774437585E+04  0.50400001928E-02 0. -1.
       -1   -1    0    0    0  501  0.00000000000E+00  0.00000000000E+00 -0.18686135302E+03  0.18686135308E+03  0.50400001928E-02 0.  1.
    10030    2    1    2    0    0  0.00000000000E+00  0.00000000000E+00  0.89058240544E+03  0.12643051116E+04  0.89740202486E+03 0.  0.
        3    1    3    3  502    0 -0.16896111634E+03  0.10778191743E+03 -0.12030172595E+03  0.23374626420E+03  0.10100000352E+00 0.  1.
       -3    1    3    3    0  502  0.16896111634E+03 -0.10778191743E+03  0.10108841314E+04  0.10305588474E+04  0.10100000352E+00 0. -1.
</event>
<event>
 5   0  0.2628383E-02  0.8953833E+03  0.7818609E-02  0.9431371E-01
        2   -1    0    0  501    0  0.00000000000E+00  0.00000000000E+00  0.23524460246E+03  0.23524460247E+03  0.25500000920E-02 0. -1.
       -2   -1    0    0    0  501  0.00000000000E+00  0.00000000000E+00 -0.85199743733E+03  0.85199743733E+03  0.25500000920E-02 0.  1.
    10030    2    1    2    0    0  0.00000000000E+00  0.00000000000E+00 -0.61675283487E+03  0.10872420398E+04  0.89538326643E+03 0.  0.
        2    1    3    3  502    0 -0.43514725823E+03 -0.84166014588E+02 -0.23166779164E+03  0.50010700859E+03  0.25500000920E-02 0.  1.
       -2    1    3    3    0  502  0.43514725823E+03  0.84166014588E+02 -0.38508504323E+03  0.58713503122E+03  0.25500000920E-02 0. -1.
</event>
<event>
 5   0  0.1537870E-02  0.9092713E+03  0.7818609E-02  0.9414065E-01
       -1   -1    0    0    0  501  0.00000000000E+00  0.00000000000E+00  0.11399738528E+03  0.11399738539E+03  0.50400001928E-02 0. -1.
        1   -1    0    0  501    0  0.00000000000E+00  0.00000000000E+00 -0.18131431526E+04  0.18131431526E+04  0.50400001928E-02 0.  1.
    10030    2    1    2    0    0  0.00000000000E+00  0.00000000000E+00 -0.16991457673E+04  0.19271405380E+04  0.90927130968E+03 0.  0.
        5    1    3    3  502    0  0.41483326476E+03 -0.18309986481E+03 -0.78059220533E+03  0.90275050765E+03  0.46999998093E+01 0. -1.
       -5    1    3    3    0  502 -0.41483326476E+03  0.18309986481E+03 -0.91855356201E+03  0.10243900304E+04  0.46999998093E+01 0.  1.
</event>
<event>
 5   0  0.2679861E-02  0.9055819E+03  0.7818609E-02  0.9418631E-01
        2   -1    0    0  501    0  0.00000000000E+00  0.00000000000E+00  0.14456768961E+04  0.14456768961E+04  0.25500000920E-02 0.  1.
       -2   -1    0    0    0  501  0.00000000000E+00  0.00000000000E+00 -0.14181567029E+03  0.14181567031E+03  0.25500000920E-02 0. -1.
    10030    2    1    2    0    0  0.00000000000E+00  0.00000000000E+00  0.13038612258E+04  0.15874925664E+04  0.90558188598E+03 0.  0.
        1    1    3    3  502    0  0.13316072628E+03 -0.36553785675E+02  0.14078648690E+04  0.14146206020E+04  0.50400001928E-02 0.  1.
       -1    1    3    3    0  502 -0.13316072628E+03  0.36553785675E+02 -0.10400364315E+03  0.17287196443E+03  0.50400001928E-02 0. -1.
</event>
<event>
 5   0  0.1497410E-02  0.8764892E+03  0.7818609E-02  0.9455458E-01
        1   -1    0    0  501    0  0.00000000000E+00  0.00000000000E+00  0.91891909787E+03  0.91891909788E+03  0.50400001928E-02 0.  1.
       -1   -1    0    0    0  501  0.00000000000E+00  0.00000000000E+00 -0.20900460669E+03  0.20900460676E+03  0.50400001928E-02 0. -1.
    10030    2    1    2    0    0  0.00000000000E+00  0.00000000000E+00  0.70991449117E+03  0.11279237046E+04  0.87648918916E+03 0.  0.
        3    1    3    3  502    0  0.31399800522E+03  0.17442456605E+03  0.67805952012E+03  0.76732222668E+03  0.10100000352E+00 0.  1.
       -3    1    3    3    0  502 -0.31399800522E+03 -0.17442456605E+03  0.31854971052E+02  0.36060147796E+03  0.10100000352E+00 0. -1.
</event>
<event>
 5   0  0.2679861E-02  0.9011949E+03  0.7818609E-02  0.9424089E-01
       -2   -1    0    0    0  501  0.00000000000E+00  0.00000000000E+00  0.10729539372E+03  0.10729539375E+03  0.25500000920E-02 0. -1.
        2   -1    0    0  501    0  0.00000000000E+00  0.00000000000E+00 -0.18923280419E+04  0.18923280419E+04  0.25500000920E-02 0.  1.
    10030    2    1    2    0    0  0.00000000000E+00  0.00000000000E+00 -0.17850326482E+04  0.19996234357E+04  0.90119494526E+03 0.  0.
        1    1    3    3  502    0  0.42719977985E+03 -0.11151946092E+03 -0.69279643844E+03  0.82152489141E+03  0.50400001928E-02 0. -1.
       -1    1    3    3    0  502 -0.42719977985E+03  0.11151946092E+03 -0.10922362098E+04  0.11780985443E+04  0.50400001928E-02 0.  1.
</event>
<event>
 5   0  0.1559275E-02  0.9099850E+03  0.7818609E-02  0.9413185E-01
       -1   -1    0    0    0  501  0.00000000000E+00  0.00000000000E+00  0.33888527055E+03  0.33888527058E+03  0.50400001928E-02 0. -1.
        1   -1    0    0  501    0  0.00000000000E+00  0.00000000000E+00 -0.61087984525E+03  0.61087984527E+03  0.50400001928E-02 0.  1.
    10030    2    1    2    0    0  0.00000000000E+00  0.00000000000E+00 -0.27199457470E+03  0.94976511585E+03  0.90998501450E+03 0.  0.
        1    1    3    3  502    0 -0.90693059377E+02  0.30236104098E+03 -0.47799639286E+03  0.57282456453E+03  0.50400001928E-02 0.  1.
       -1    1    3    3    0  502  0.90693059377E+02 -0.30236104098E+03  0.20600181816E+03  0.37694055132E+03  0.50400001928E-02 0. -1.
</event>
<event>
 5   0  0.2803717E-02  0.9182499E+03  0.7818609E-02  0.9403051E-01
        2   -1    0    0  501    0  0.00000000000E+00  0.00000000000E+00  0.43410652987E+03  0.43410652988E+03  0.25500000920E-02 0. -1.
       -2   -1    0    0    0  501  0.00000000000E+00  0.00000000000E+00 -0.48558521102E+03  0.48558521103E+03  0.25500000920E-02 0.  1.
    10030    2    1    2    0    0  0.00000000000E+00  0.00000000000E+00 -0.51478681155E+02  0.91969174090E+03  0.91824988085E+03 0.  0.
        5    1    3    3  502    0 -0.13934848350E+00 -0.40456338770E+03  0.19163155162E+03  0.44767878625E+03  0.46999998093E+01 0. -1.
       -5    1    3    3    0  502  0.13934848350E+00  0.40456338770E+03 -0.24311023277E+03  0.47201295465E+03  0.46999998093E+01 0.  1.
</event>
<event>
 5   0  0.1459111E-02  0.8997017E+03  0.7818609E-02  0.9425954E-01
       -1   -1    0    0    0  501  0.00000000000E+00  0.00000000000E+00  0.10548322014E+03  0.10548322026E+03  0.50400001928E-02 0.  1.
        1   -1    0    0  501    0  0.00000000000E+00  0.00000000000E+00 -0.19184641966E+04  0.19184641967E+04  0.50400001928E-02 0. -1.
    10030    2    1    2    0    0  0.00000000000E+00  0.00000000000E+00 -0.18129809765E+04  0.20239474169E+04  0.89970168683E+03 0.  0.
        2    1    3    3  502    0 -0.32286624887E+03 -0.28914562726E+03 -0.63543782363E+03  0.76917425602E+03  0.25500000920E-02 0.  1.
       -2    1    3    3    0  502  0.32286624887E+03  0.28914562726E+03 -0.11775431529E+04  0.12547731609E+04  0.25500000920E-02 0. -1.
</event>
<event>
 5   0  0.2414128E-02  0.8857401E+03  0.7818609E-02  0.9443585E-01
       -2   -1    0    0    0  501  0.00000000000E+00  0.00000000000E+00  0.28084799611E+03  0.28084799612E+03  0.25500000920E-02 0.  1.
        2   -1    0    0  501    0  0.00000000000E+00  0.00000000000E+00 -0.69836308973E+03  0.69836308974E+03  0.25500000920E-02 0. -1.
    10030    2    1    2    0    0  0.00000000000E+00  0.00000000000E+00 -0.41751509362E+03  0.97921108586E+03  0.88574008449E+03 0.  0.
        3    1    3    3  502    0 -0.36874173079E+03  0.21633075647E+03 -0.33656165628E+03  0.54409853785E+03  0.10100000352E+00 0.  1.
       -3    1    3    3    0  502  0.36874173079E+03 -0.21633075647E+03 -0.80953437343E+02  0.43511254801E+03  0.10100000352E+00 0. -1.
</event>
<event>
 5   0  0.2628383E-02  0.8906925E+03  0.7818609E-02  0.9437292E-01
       -2   -1    0    0    0  501  0.00000000000E+00  0.00000000000E+00  0.24910741841E+03  0.24910741842E+03  0.25500000920E-02 0.  1.
        2   -1    0    0  501    0  0.00000000000E+00  0.00000000000E+00 -0.79617580319E+03  0.79617580320E+03  0.25500000920E-02 0. -1.
    10030    2    1    2    0    0  0.00000000000E+00  0.00000000000E+00 -0.54706838478E+03  0.10452832216E+04  0.89069253717E+03 0.  0.
        2    1    3    3  502    0 -0.19205305358E+03 -0.32296764745E+03  0.69958702088E+01  0.37582099315E+03  0.25500000920E-02 0.  1.
       -2    1    3    3    0  502  0.19205305358E+03  0.32296764745E+03 -0.55406425499E+03  0.66946222847E+03  0.25500000920E-02 0. -1.
</event>
<event>
 5   0  0.1040163E-02  0.8985976E+03  0.7818609E-02  0.9427336E-01
       -4   -1    0    0    0  501  0.00000000000E+00  0.00000000000E+00  0.39155468427E+03  0.39155674387E+03  0.12699999809E+01 0. -1.
        4   -1    0    0  501    0  0.00000000000E+00  0.00000000000E+00 -0.51555451529E+03  0.51555607952E+03  0.12699999809E+01 0.  1.
    10030    2    1    2    0    0  0.00000000000E+00  0.00000000000E+00 -0.12399983102E+03  0.90711282340E+03  0.89859763870E+03 0.  0.
        1    1    3    3  502    0  0.20843234202E+03 -0.23960910315E+03 -0.38283686544E+03  0.49741394138E+03  0.50400001928E-02 0.  1.
       -1    1    3    3    0  502 -0.20843234202E+03  0.23960910315E+03  0.25883703442E+03  0.40969888202E+03  0.50400001928E-02 0. -1.
</event>
<event>
 5   0  0.2803717E-02  0.9025864E+03  0.7818609E-02  0.9422354E-01
       -2   -1    0    0    0  501  0.00000000000E+00  0.00000000000E+00  0.33311551834E+03  0.33311551835E+03  0.25500000920E-02 0.  1.
        2   -1    0    0  501    0  0.00000000000E+00  0.00000000000E+00 -0.61139613129E+03  0.61139613130E+03  0.25500000920E-02 0. -1.
    10030    2    1    2    0    0  0.00000000000E+00  0.00000000000E+00 -0.27828061296E+03  0.94451164965E+03  0.90258637081E+03 0.  0.
        5    1    3    3  502    0  0.62415171764E+02 -0.44388337681E+03 -0.84610880989E+02  0.45618986952E+03  0.46999998093E+01 0.  1.
       -5    1    3    3    0  502 -0.62415171764E+02  0.44388337681E+03 -0.19366973197E+03  0.48832178013E+03  0.46999998093E+01 0. -1.
</event>
<event>
 5   0  0.2803717E-02  0.9326849E+03  0.7818609E-02  0.9385621E-01
        2   -1    0    0  501    0  0.00000000000E+00  0.00000000000E+00  0.47969619913E+03  0.47969619913E+03  0.25500000920E-02 0.  1.
       -2   -1    0    0    0  501  0.00000000000E+00  0.00000000000E+00 -0.45336042292E+03  0.45336042292E+03  0.25500000920E-02 0. -1.
    10030    2    1    2    0    0  0.00000000000E+00  0.00000000000E+00  0.26335776211E+02  0.93305662206E+03  0.93268488079E+03 0.  0.
        5    1    3    3  502    0  0.78650060195E+02  0.29958878664E+03 -0.33555950090E+03  0.45668538590E+03  0.46999998093E+01 0. -1.
       -5    1    3    3    0  502 -0.78650060195E+02 -0.29958878664E+03  0.36189527711E+03  0.47637123616E+03  0.46999998093E+01 0.  1.
</event>
<event>
 5   0  0.2414128E-02  0.8883115E+03  0.7818609E-02  0.9440312E-01
       -2   -1    0    0    0  501  0.00000000000E+00  0.00000000000E+00  0.21268137557E+03  0.21268137558E+03  0.25500000920E-02 0.  1.
        2   -1    0    0  501    0  0.00000000000E+00  0.00000000000E+00 -0.92755819296E+03  0.92755819296E+03  0.25500000920E-02 0. -1.
    10030    2    1    2    0    0  0.00000000000E+00  0.00000000000E+00 -0.71487681739E+03  0.11402395685E+04  0.88831154987E+03 0.  0.
        3    1    3    3  502    0  0.49229817056E+02  0.67752267798E+02  0.20245454107E+03  0.21909312194E+03  0.10100000352E+00 0.  1.
       -3    1    3    3    0  502 -0.49229817056E+02 -0.67752267798E+02 -0.91733135846E+03  0.92114644661E+03  0.10100000352E+00 0. -1.
</event>
<event>
 5   0  0.2679861E-02  0.8873176E+03  0.7818609E-02  0.9441575E-01
        2   -1    0    0  501    0  0.00000000000E+00  0.00000000000E+00  0.15198161016E+03  0.15198161018E+03  0.25500000920E-02 0.  1.
       -2   -1    0    0    0  501  0.00000000000E+00  0.00000000000E+00 -0.12951113653E+04  0.12951113653E+04  0.25500000920E-02 0. -1.
    10030    2    1    2    0    0  0.00000000000E+00  0.00000000000E+00 -0.11431297552E+04  0.14470929755E+04  0.88731755456E+03 0.  0.
        1    1    3    3  502    0  0.12614891699E+03 -0.37585607657E+03 -0.24681525362E+03  0.46701082321E+03  0.50400001928E-02 0.  1.
       -1    1    3    3    0  502 -0.12614891699E+03  0.37585607657E+03 -0.89631450156E+03  0.98008215231E+03  0.50400001928E-02 0. -1.
</event>
<event>
 5   0  0.1537870E-02  0.8778921E+03  0.7818609E-02  0.9453647E-01
        1   -1    0    0  501    0  0.00000000000E+00  0.00000000000E+00  0.18234308824E+03  0.18234308831E+03  0.50400001928E-02 0. -1.
       -1   -1    0    0    0  501  0.00000000000E+00  0.00000000000E+00 -0.10566544937E+04  0.10566544937E+04  0.50400001928E-02 0.  1.
    10030    2    1    2    0    0  0.00000000000E+00  0.00000000000E+00 -0.87431140549E+03  0.12389975821E+04  0.87789212012E+03 0.  0.
        5    1    3    3  502    0  0.49833449237E+02 -0.10216154387E+03 -0.10354860694E+04  0.10417167771E+04  0.46999998093E+01 0.  1.
       -5    1    3    3    0  502 -0.49833449237E+02  0.10216154387E+03  0.16117466394E+03  0.19728080495E+03  0.46999998093E+01 0. -1.
</event>
<event>
 5   0  0.1559275E-02  0.8939408E+03  0.7818609E-02  0.9433188E-01
       -1   -1    0    0    0  501  0.00000000000E+00  0.00000000000E+00  0.15736314259E+03  0.15736314267E+03  0.50400001928E-02 0.  1.
        1   -1    0    0  501    0  0.00000000000E+00  0.00000000000E+00 -0.12695638600E+04  0.12695638600E+04  0.50400001928E-02 0. -1.
    10030    2    1    2    0    0  0.00000000000E+00  0.00000000000E+00 -0.11122007174E+04  0.14269270027E+04  0.89394084545E+03 0.  0.
        1    1    3    3  502    0 -0.36298584318E+03 -0.22739336582E+03 -0.75999277339E+03  0.87238493843E+03  0.50400001928E-02 0.  1.
       -1    1    3    3    0  502  0.36298584318E+03  0.22739336582E+03 -0.35220794402E+03  0.55454206425E+03  0.50400001928E-02 0. -1.
</event>
<event>
 5   0  0.1040163E-02  0.8836391E+03  0.7818609E-02  0.9446268E-01
        3   -1    0    0  501    0  0.00000000000E+00  0.00000000000E+00  0.43455184886E+03  0.43455186060E+03  0.10100000352E+00 0. -1.
       -3   -1    0    0    0  501  0.00000000000E+00  0.00000000000E+00 -0.44920877950E+03  0.44920879086E+03  0.10100000352E+00 0.  1.
    10030    2    1    2    0    0  0.00000000000E+00  0.00000000000E+00 -0.14656930641E+02  0.88376065146E+03  0.88363910249E+03 0.  0.
        2    1    3    3  502    0 -0.36052868172E+02  0.39458661993E+03 -0.20281917490E+03  0.44512248611E+03  0.25500000920E-02 0.  1.
       -2    1    3    3    0  502  0.36052868172E+02 -0.39458661993E+03  0.18816224426E+03  0.43863816535E+03  0.25500000920E-02 0. -1.
</event>
<event>
 5   0  0.2628383E-02  0.7509691E+03  0.7818609E-02  0.9633831E-01
       -2   -1    0    0    0  501  0.00000000000E+00  0.00000000000E+00  0.16102057725E+03  0.16102057727E+03  0.25500000920E-02 0. -1.
        2   -1    0    0  501    0  0.00000000000E+00  0.00000000000E+00 -0.87559394722E+03  0.87559394723E+03  0.25500000920E-02 0.  1.
    10030    2    1    2    0    0  0.00000000000E+00  0.00000000000E+00 -0.71457336997E+03  0.10366145245E+04  0.75096908812E+03 0.  0.
        2    1    3    3  502    0 -0.27149957377E+03  0.12630742032E+03 -0.44569679038E+02  0.30274087811E+03  0.25500000920E-02 0. -1.
       -2    1    3    3    0  502  0.27149957377E+03 -0.12630742032E+03 -0.67000369094E+03  0.73387364638E+03  0.25500000920E-02 0.  1.
</event>
<event>
 5   0  0.1459111E-02  0.9466689E+03  0.7818609E-02  0.9369053E-01
        1   -1    0    0  501    0  0.00000000000E+00  0.00000000000E+00  0.79996415524E+03  0.79996415526E+03  0.50400001928E-02 0. -1.
       -1   -1    0    0    0  501  0.00000000000E+00  0.00000000000E+00 -0.28006945241E+03  0.28006945246E+03  0.50400001928E-02 0.  1.
    10030    2    1    2    0    0  0.00000000000E+00  0.00000000000E+00  0.51989470283E+03  0.10800336077E+04  0.94666894518E+03 0.  0.
        2    1    3    3  502    0 -0.40278586554E+03 -0.95721085702E+02 -0.18251779770E+01  0.41400762192E+03  0.25500000920E-02 0.  1.
       -2    1    3    3    0  502  0.40278586554E+03  0.95721085702E+02  0.52171988081E+03  0.66602598580E+03  0.25500000920E-02 0. -1.
</event>
<event>
 5   0  0.2679861E-02  0.1046201E+04  0.7818609E-02  0.9259275E-01
       -2   -1    0    0    0  501  0.00000000000E+00  0.00000000000E+00  0.52581459310E+03  0.52581459311E+03  0.25500000920E-02 0. -1.
        2   -1    0    0  501    0  0.00000000000E+00  0.00000000000E+00 -0.52040088975E+03  0.52040088976E+03  0.25500000920E-02 0.  1.
    10030    2    1    2    0    0  0.00000000000E+00  0.00000000000E+00  0.54137033468E+01  0.10462154829E+04  0.10462014760E+04 0.  0.
        1    1    3    3  502    0 -0.44662125904E+03  0.43155637081E+02 -0.26618598950E+03  0.52171633966E+03  0.50400001928E-02 0.  1.
       -1    1    3    3    0  502  0.44662125904E+03 -0.43155637081E+02  0.27159969285E+03  0.52449914320E+03  0.50400001928E-02 0. -1.
</event>
<event>
 5   0  0.2803717E-02  0.7321087E+03  0.7818609E-02  0.9663845E-01
        2   -1    0    0  501    0  0.00000000000E+00  0.00000000000E+00  0.91182994019E+03  0.91182994019E+03  0.25500000920E-02 0.  1.
       -2   -1    0    0    0  501  0.00000000000E+00  0.00000000000E+00 -0.14695261915E+03  0.14695261917E+03  0.25500000920E-02 0. -1.
    10030    2    1    2    0    0  0.00000000000E+00  0.00000000000E+00  0.76487732104E+03  0.10587825594E+04  0.73210872946E+03 0.  0.
        5    1    3    3  502    0 -0.24498419500E+03  0.22108804947E+03  0.61145416407E+03  0.69483484813E+03  0.46999998093E+01 0.  1.
       -5    1    3    3    0  502  0.24498419500E+03 -0.22108804947E+03  0.15342315697E+03  0.36394771123E+03  0.46999998093E+01 0. -1.
</event>
<event>
 5   0  0.1040163E-02  0.9161340E+03  0.7818609E-02  0.9405635E-01
       -3   -1    0    0    0  501  0.00000000000E+00  0.00000000000E+00  0.39664280429E+03  0.39664281715E+03  0.10100000352E+00 0.  1.
        3   -1    0    0  501    0  0.00000000000E+00  0.00000000000E+00 -0.52900330979E+03  0.52900331943E+03  0.10100000352E+00 0. -1.
    10030    2    1    2    0    0  0.00000000000E+00  0.00000000000E+00 -0.13236050550E+03  0.92564613658E+03  0.91613397860E+03 0.  0.
        2    1    3    3  502    0  0.41706753713E+03 -0.80774760067E+01  0.12503265664E+03  0.43548104595E+03  0.25500000920E-02 0.  1.
       -2    1    3    3    0  502 -0.41706753713E+03  0.80774760067E+01 -0.25739316214E+03  0.49016509063E+03  0.25500000920E-02 0. -1.
</event>
<event>
 5   0  0.1497410E-02  0.9021566E+03  0.7818609E-02  0.9422890E-01
       -1   -1    0    0    0  501  0.00000000000E+00  0.00000000000E+00  0.53455043728E+03  0.53455043730E+03  0.50400001928E-02 0.  1.
        1   -1    0    0  501    0  0.00000000000E+00  0.00000000000E+00 -0.38064065370E+03  0.38064065373E+03  0.50400001928E-02 0. -1.
    10030    2    1    2    0    0  0.00000000000E+00  0.00000000000E+00  0.15390978358E+03  0.91519109103E+03  0.90215658931E+03 0.  0.
        3    1    3    3  502    0 -0.18376366368E+03 -0.11971194009E+03  0.47682197647E+03  0.52484210972E+03  0.10100000352E+00 0.  1.
       -3    1    3    3    0  502  0.18376366368E+03  0.11971194009E+03 -0.32291219289E+03  0.39034898131E+03  0.10100000352E+00 0. -1.
</event>
<event>
 5   0  0.1537870E-02  0.8800034E+03  0.7818609E-02  0.9450929E-01
        1   -1    0    0  501    0  0.00000000000E+00  0.00000000000E+00  0.35311699648E+03  0.35311699651E+03  0.50400001928E-02 0. -1.
       -1   -1    0    0    0  501  0.00000000000E+00  0.00000000000E+00 -0.54826448384E+03  0.54826448387E+03  0.50400001928E-02 0.  1.
    10030    2    1    2    0    0  0.00000000000E+00  0.00000000000E+00 -0.19514748737E+03  0.90138148038E+03  0.88000342689E+03 0.  0.
        5    1    3    3  502    0  0.23249506827E+03 -0.37276776879E+03 -0.73126554479E+02  0.44539796721E+03  0.46999998093E+01 0.  1.
       -5    1    3    3    0  502 -0.23249506827E+03  0.37276776879E+03 -0.12202093289E+03  0.45598351317E+03  0.46999998093E+01 0. -1.
</event>
<event>
 5   0  0.2679861E-02  0.7764973E+03  0.7818609E-02  0.9594673E-01
       -2   -1    0    0    0  501  0.00000000000E+00  0.00000000000E+00  0.10145949961E+03  0.10145949965E+03  0.25500000920E-02 0.  1.
        2   -1    0    0  501    0  0.00000000000E+00  0.00000000000E+00 -0.14856867074E+04  0.14856867075E+04  0.25500000920E-02 0. -1.
    10030    2    1    2    0    0  0.00000000000E+00  0.00000000000E+00 -0.13842272078E+04  0.15871462071E+04  0.77649734049E+03 0.  0.
        1    1    3    3  502    0 -0.27456064626E+03  0.27057254140E+03 -0.59747083049E+03  0.71103054923E+03  0.50400001928E-02 0.  1.
       -1    1    3    3    0  502  0.27456064626E+03 -0.27057254140E+03 -0.78675637734E+03  0.87611565786E+03  0.50400001928E-02 0. -1.
</event>
<event>
 5   0  0.2705111E-02  0.9140036E+03  0.7818609E-02  0.9408244E-01
        2   -1    0    0  501    0  0.00000000000E+00  0.00000000000E+00  0.73940774051E+03  0.73940774052E+03  0.25500000920E-02 0. -1.
       -2   -1    0    0    0  501  0.00000000000E+00  0.00000000000E+00 -0.28245668865E+03  0.28245668866E+03  0.25500000920E-02 0.  1.
    10030    2    1    2    0    0  0.00000000000E+00  0.00000000000E+00  0.45695105187E+03  0.10218644292E+04  0.91400363665E+03 0.  0.
        4    1    3    3  502    0 -0.41669467803E+03  0.67787831046E+01  0.18811867167E+02  0.41717610891E+03  0.12699999809E+01 0.  1.
       -4    1    3    3    0  502  0.41669467803E+03 -0.67787831046E+01  0.43813918470E+03  0.60468832027E+03  0.12699999809E+01 0. -1.
</event>
<event>
 5   0  0.1040163E-02  0.9343499E+03  0.7818609E-02  0.9383633E-01
        4   -1    0    0  501    0  0.00000000000E+00  0.00000000000E+00  0.16022146232E+04  0.16022151265E+04  0.12699999809E+01 0. -1.
       -4   -1    0    0    0  501  0.00000000000E+00  0.00000000000E+00 -0.13621574185E+03  0.13622166211E+03  0.12699999809E+01 0.  1.
    10030    2    1    2    0    0  0.00000000000E+00  0.00000000000E+00  0.14659988814E+04  0.17384367887E+04  0.93434990663E+03 0.  0.
        4    1    3    3  502    0 -0.15745748136E+03 -0.35429057116E+03  0.24804622327E+03  0.46026428172E+03  0.12699999809E+01 0. -1.
       -4    1    3    3    0  502  0.15745748136E+03  0.35429057116E+03  0.12179526581E+04  0.12781725069E+04  0.12699999809E+01 0.  1.
</event>
<event>
 5   0  0.1459111E-02  0.9240206E+03  0.7818609E-02  0.9396043E-01
       -1   -1    0    0    0  501  0.00000000000E+00  0.00000000000E+00  0.50609869214E+03  0.50609869217E+03  0.50400001928E-02 0. -1.
        1   -1    0    0  501    0  0.00000000000E+00  0.00000000000E+00 -0.42176259704E+03  0.42176259707E+03  0.50400001928E-02 0.  1.
    10030    2    1    2    0    0  0.00000000000E+00  0.00000000000E+00  0.84336095107E+02  0.92786128923E+03  0.92402055990E+03 0.  0.
        2    1    3    3  502    0  0.36573792146E+03  0.27910951618E+03  0.84618455767E+02  0.46778908952E+03  0.25500000920E-02 0. -1.
       -2    1    3    3    0  502 -0.36573792146E+03 -0.27910951618E+03 -0.28236065968E+00  0.46007219971E+03  0.25500000920E-02 0.  1.
</event>
<event>
 5   0  0.2414128E-02  0.9014649E+03  0.7818609E-02  0.9423752E-01
       -2   -1    0    0    0  501  0.00000000000E+00  0.00000000000E+00  0.19681708649E+03  0.19681708651E+03  0.25500000920E-02 0.  1.
        2   -1    0    0  501    0  0.00000000000E+00  0.00000000000E+00 -0.10322260275E+04  0.10322260275E+04  0.25500000920E-02 0. -1.
    10030    2    1    2    0    0  0.00000000000E+00  0.00000000000E+00 -0.83540894097E+03  0.12290431140E+04  0.90146485087E+03 0.  0.
        3    1    3    3  502    0  0.10277606006E+03 -0.30452032113E+03 -0.84855155342E+03  0.90737825272E+03  0.10100000352E+00 0. -1.
       -3    1    3    3    0  502 -0.10277606006E+03  0.30452032113E+03  0.13142612446E+02  0.32166486125E+03  0.10100000352E+00 0.  1.
</event>
<event>
 5   0  0.1560728E-02  0.9174453E+03  0.7818609E-02  0.9404033E-01
        1   -1    0    0  501    0  0.00000000000E+00  0.00000000000E+00  0.72938585501E+03  0.72938585503E+03  0.50400001928E-02 0.  1.
       -1   -1    0    0    0  501  0.00000000000E+00  0.00000000000E+00 -0.28849814654E+03  0.28849814658E+03  0.50400001928E-02 0. -1.
    10030    2    1    2    0    0  0.00000000000E+00  0.00000000000E+00  0.44088770847E+03  0.10178840016E+04  0.91744529497E+03 0.  0.
        4    1    3    3  502    0  0.18596844350E+03  0.15889258729E+03  0.65099184574E+03  0.69543016356E+03  0.12699999809E+01 0.  1.
       -4    1    3    3    0  502 -0.18596844350E+03 -0.15889258729E+03 -0.21010413727E+03  0.32245383805E+03  0.12699999809E+01 0. -1.
</event>
<event>
 5   0  0.2414128E-02  0.8926314E+03  0.7818609E-02  0.9434840E-01
        2   -1    0    0  501    0  0.00000000000E+00  0.00000000000E+00  0.21695444422E+04  0.21695444422E+04  0.25500000920E-02 0. -1.
       -2   -1    0    0    0  501  0.00000000000E+00  0.00000000000E+00 -0.91815442279E+02  0.91815442314E+02  0.25500000920E-02 0.  1.
    10030    2    1    2    0    0  0.00000000000E+00  0.00000000000E+00  0.20777289999E+04  0.22613598845E+04  0.89263135177E+03 0.  0.
        3    1    3    3  502    0 -0.52684983937E+02 -0.33781492855E+03  0.31208029099E+03  0.46291333067E+03  0.10100000352E+00 0.  1.
       -3    1    3    3    0  502  0.52684983937E+02  0.33781492855E+03  0.17656487089E+04  0.17984465538E+04  0.10100000352E+00 0. -1.
</event>
<event>
 5   0  0.1459111E-02  0.9855458E+03  0.7818609E-02  0.9324541E-01
        1   -1    0    0  501    0  0.00000000000E+00  0.00000000000E+00  0.96550423466E+03  0.96550423468E+03  0.50400001928E-02 0. -1.
       -1   -1    0    0    0  501  0.00000000000E+00  0.00000000000E+00 -0.25150084860E+03  0.25150084865E+03  0.50400001928E-02 0.  1.
    10030    2    1    2    0    0  0.00000000000E+00  0.00000000000E+00  0.71400338607E+03  0.12170050833E+04  0.98554580691E+03 0.  0.
        2    1    3    3  502    0 -0.30868301731E+03 -0.24857217510E+03 -0.46056223181E+01  0.39635153989E+03  0.25500000920E-02 0.  1.
       -2    1    3    3    0  502  0.30868301731E+03  0.24857217510E+03  0.71860900839E+03  0.82065354343E+03  0.25500000920E-02 0. -1.
</event>
<event>
 5   0  0.2679861E-02  0.9443828E+03  0.7818609E-02  0.9371740E-01
       -2   -1    0    0    0  501  0.00000000000E+00  0.00000000000E+00  0.43481446183E+03  0.43481446183E+03  0.25500000920E-02 0. -1.
        2   -1    0    0  501    0  0.00000000000E+00  0.00000000000E+00 -0.51278133863E+03  0.51278133864E+03  0.25500000920E-02 0.  1.
    10030    2    1    2    0    0  0.00000000000E+00  0.00000000000E+00 -0.77966876808E+02  0.94759580048E+03  0.94438284991E+03 0.  0.
        1    1    3    3  502    0 -0.19301137350E+03 -0.24039792782E+02  0.39275177375E+03  0.43827532185E+03  0.50400001928E-02 0. -1.
       -1    1    3    3    0  502  0.19301137350E+03  0.24039792782E+02 -0.47071865055E+03  0.50932047862E+03  0.50400001928E-02 0.  1.
</event>
<event>
 5   0  0.2628383E-02  0.9023951E+03  0.7818609E-02  0.9422592E-01
       -2   -1    0    0    0  501  0.00000000000E+00  0.00000000000E+00  0.38290738199E+03  0.38290738200E+03  0.25500000920E-02 0.  1.
        2   -1    0    0  501    0  0.00000000000E+00  0.00000000000E+00 -0.53166699075E+03  0.53166699076E+03  0.25500000920E-02 0. -1.
    10030    2    1    2    0    0  0.00000000000E+00  0.00000000000E+00 -0.14875960876E+03  0.91457437276E+03  0.90239506986E+03 0.  0.
        2    1    3    3  502    0  0.19531175667E+03 -0.12979550313E+02  0.33763377381E+03  0.39027133669E+03  0.25500000920E-02 0.  1.
       -2    1    3    3    0  502 -0.19531175667E+03  0.12979550313E+02 -0.48639338257E+03  0.52430303607E+03  0.25500000920E-02 0. -1.
</event>
<event>
 5   0  0.1537870E-02  0.9277222E+03  0.7818609E-02  0.9391576E-01
       -1   -1    0    0    0  501  0.00000000000E+00  0.00000000000E+00  0.58356689127E+03  0.58356689129E+03  0.50400001928E-02 0. -1.
        1   -1    0    0  501    0  0.00000000000E+00  0.00000000000E+00 -0.36871029675E+03  0.36871029679E+03  0.50400001928E-02 0.  1.
    10030    2    1    2    0    0  0.00000000000E+00  0.00000000000E+00  0.21485659451E+03  0.95227718808E+03  0.92772220342E+03 0.  0.
        5    1    3    3  502    0  0.30220751978E+03  0.60023032276E+01 -0.25370705205E+03  0.39465778962E+03  0.46999998093E+01 0.  1.
       -5    1    3    3    0  502 -0.30220751978E+03 -0.60023032276E+01  0.46856364656E+03  0.55761939845E+03  0.46999998093E+01 0. -1.
</event>
<event>
 5   0  0.1560728E-02  0.8636633E+03  0.7818609E-02  0.9472180E-01
       -1   -1    0    0    0  501  0.00000000000E+00  0.00000000000E+00  0.13803073209E+03  0.13803073218E+03  0.50400001928E-02 0.  1.
        1   -1    0    0  501    0  0.00000000000E+00  0.00000000000E+00 -0.13509929985E+04  0.13509929985E+04  0.50400001928E-02 0. -1.
    10030    2    1    2    0    0  0.00000000000E+00  0.00000000000E+00 -0.12129622664E+04  0.14890237307E+04  0.86366325083E+03 0.  0.
        4    1    3    3  502    0  0.21388069652E+03  0.27572538858E+03 -0.10450466496E+04  0.11017683763E+04  0.12699999809E+01 0. -1.
       -4    1    3    3    0  502 -0.21388069652E+03 -0.27572538858E+03 -0.16791561682E+03  0.38725535441E+03  0.12699999809E+01 0.  1.
</event>
<event>
 5   0  0.1537870E-02  0.9365557E+03  0.7818609E-02  0.9381004E-01
       -1   -1    0    0    0  501  0.00000000000E+00  0.00000000000E+00  0.21800842555E+03  0.21800842561E+03  0.50400001928E-02 0.  1.
        1   -1    0    0  501    0  0.00000000000E+00  0.00000000000E+00 -0.10058517463E+04  0.10058517463E+04  0.50400001928E-02 0. -1.
    10030    2    1    2    0    0  0.00000000000E+00  0.00000000000E+00 -0.78784332076E+03  0.12238601719E+04  0.93655572304E+03 0.  0.
        5    1    3    3  502    0  0.87453354970E+02 -0.43738964893E+03 -0.58012689409E+03  0.73179716967E+03  0.46999998093E+01 0.  1.
       -5    1    3    3    0  502 -0.87453354970E+02  0.43738964893E+03 -0.20771642666E+03  0.49206300226E+03  0.46999998093E+01 0. -1.
</event>
<event>
 5   0  0.2705111E-02  0.8819251E+03  0.7818609E-02  0.9448462E-01
       -2   -1    0    0    0  501  0.00000000000E+00  0.00000000000E+00  0.15244038960E+03  0.15244038962E+03  0.25500000920E-02 0.  1.
        2   -1    0    0  501    0  0.00000000000E+00  0.00000000000E+00 -0.12755671903E+04  0.12755671903E+04  0.25500000920E-02 0. -1.
    10030    2    1    2    0    0  0.00000000000E+00  0.00000000000E+00 -0.11231268007E+04  0.14280075800E+04  0.88192507498E+03 0.  0.
        4    1    3    3  502    0 -0.12652400685E+03 -0.38435637406E+03 -0.84530695304E+03  0.93716786349E+03  0.12699999809E+01 0. -1.
       -4    1    3    3    0  502  0.12652400685E+03  0.38435637406E+03 -0.27781984769E+03  0.49083971647E+03  0.12699999809E+01 0.  1.
</event>
<event>
 5   0  0.2803717E-02  0.8983354E+03  0.7818609E-02  0.9427665E-01
       -2   -1    0    0    0  501  0.00000000000E+00  0.00000000000E+00  0.12303877899E+03  0.12303877902E+03  0.25500000920E-02 0. -1.
        2   -1    0    0  501    0  0.00000000000E+00  0.00000000000E+00 -0.16397400369E+04  0.16397400369E+04  0.25500000920E-02 0.  1.
    10030    2    1    2    0    0  0.00000000000E+00  0.00000000000E+00 -0.15167012579E+04  0.17627788159E+04  0.89833537619E+03 0.  0.
        5    1    3    3  502    0  0.29251377120E+03  0.32963762682E+03 -0.58836469457E+03  0.73513289627E+03  0.46999998093E+01 0. -1.
       -5    1    3    3    0  502 -0.29251377120E+03 -0.32963762682E+03 -0.92833656332E+03  0.10276459196E+04  0.46999998093E+01 0.  1.
</event>
<event>
 5   0  0.1560728E-02  0.9404792E+03  0.7818609E-02  0.9376349E-01
        1   -1    0    0  501    0  0.00000000000E+00  0.00000000000E+00  0.23434711873E+04  0.23434711873E+04  0.50400001928E-02 0. -1.
       -1   -1    0    0    0  501  0.00000000000E+00  0.00000000000E+00 -0.94358007299E+02  0.94358007434E+02  0.50400001928E-02 0.  1.
    10030    2    1    2    0    0  0.00000000000E+00  0.00000000000E+00  0.22491131800E+04  0.24378291947E+04  0.94047917907E+03 0.  0.
        4    1    3    3  502    0  0.42682545560E+02 -0.42995418071E+03  0.64350283025E+03  0.77509993075E+03  0.12699999809E+01 0. -1.
       -4    1    3    3    0  502 -0.42682545560E+02  0.42995418071E+03  0.16056103497E+04  0.16627292640E+04  0.12699999809E+01 0.  1.
</event>
<event>
 5   0  0.2705111E-02  0.9071849E+03  0.7818609E-02  0.9416644E-01
       -2   -1    0    0    0  501  0.00000000000E+00  0.00000000000E+00  0.18967856680E+03  0.18967856681E+03  0.25500000920E-02 0.  1.
        2   -1    0    0  501    0  0.00000000000E+00  0.00000000000E+00 -0.10847093137E+04  0.10847093137E+04  0.25500000920E-02 0. -1.
    10030    2    1    2    0    0  0.00000000000E+00  0.00000000000E+00 -0.89503074694E+03  0.12743878806E+04  0.90718489413E+03 0.  0.
        4    1    3    3  502    0  0.20674027474E+03 -0.23684978761E+03  0.11793779283E+02  0.31461098077E+03  0.12699999809E+01 0.  1.
       -4    1    3    3    0  502 -0.20674027474E+03  0.23684978761E+03 -0.90682452622E+03  0.95977689978E+03  0.12699999809E+01 0. -1.
</event>
<event>
 5   0  0.1537870E-02  0.8916186E+03  0.7818609E-02  0.9436120E-01
       -1   -1    0    0    0  501  0.00000000000E+00  0.00000000000E+00  0.11604103120E+03  0.11604103131E+03  0.50400001928E-02 0. -1.
        1   -1    0    0  501    0  0.00000000000E+00  0.00000000000E+00 -0.17127212831E+04  0.17127212831E+04  0.50400001928E-02 0.  1.
    10030    2    1    2    0    0  0.00000000000E+00  0.00000000000E+00 -0.15966802519E+04  0.18287623145E+04  0.89161862690E+03 0.  0.
        5    1    3    3  502    0  0.10114289181E+03 -0.28177308869E+03 -0.14758042759E+04  0.15058706149E+04  0.46999998093E+01 0.  1.
       -5    1    3    3    0  502 -0.10114289181E+03  0.28177308869E+03 -0.12087597609E+03  0.32289169959E+03  0.46999998093E+01 0. -1.
</event>
<event>
 5   0  0.1497410E-02  0.9027251E+03  0.7818609E-02  0.9422181E-01
        1   -1    0    0  501    0  0.00000000000E+00  0.00000000000E+00  0.70487171583E+03  0.70487171585E+03  0.50400001928E-02 0.  1.
       -1   -1    0    0    0  501  0.00000000000E+00  0.00000000000E+00 -0.28902866342E+03  0.28902866346E+03  0.50400001928E-02 0. -1.
    10030    2    1    2    0    0  0.00000000000E+00  0.00000000000E+00  0.41584305241E+03  0.99390037931E+03  0.90272505213E+03 0.  0.
        3    1    3    3  502    0 -0.31682905929E+03  0.30625495383E+02  0.56025798221E+03  0.64436603775E+03  0.10100000352E+00 0.  1.
       -3    1    3    3    0  502  0.31682905929E+03 -0.30625495383E+02 -0.14441492979E+03  0.34953434156E+03  0.10100000352E+00 0. -1.
</event>
<event>
 5   0  0.1459111E-02  0.9075228E+03  0.7818609E-02  0.9416226E-01
        1   -1    0    0  501    0  0.00000000000E+00  0.00000000000E+00  0.82154385693E+03  0.82154385695E+03  0.50400001928E-02 0. -1.
       -1   -1    0    0    0  501  0.00000000000E+00  0.00000000000E+00 -0.25062496149E+03  0.25062496154E+03  0.50400001928E-02 0.  1.
    10030    2    1    2    0    0  0.00000000000E+00  0.00000000000E+00  0.57091889544E+03  0.10721688185E+04  0.90752277667E+03 0.  0.
        2    1    3    3  502    0  0.23901281925E+02 -0.14846796877E+03  0.79124865882E+03  0.80541197478E+03  0.25500000920E-02 0. -1.
       -2    1    3    3    0  502 -0.23901281925E+02  0.14846796877E+03 -0.22032976338E+03  0.26675684371E+03  0.25500000920E-02 0.  1.
</event>
<event>
 5   0  0.1459111E-02  0.7513030E+03  0.7818609E-02  0.9633308E-01
       -1   -1    0    0    0  501  0.00000000000E+00  0.00000000000E+00  0.11353041615E+03  0.11353041626E+03  0.50400001928E-02 0.  1.
        1   -1    0    0  501    0  0.00000000000E+00  0.00000000000E+00 -0.12429626204E+04  0.12429626204E+04  0.50400001928E-02 0. -1.
    10030    2    1    2    0    0  0.00000000000E+00  0.00000000000E+00 -0.11294322043E+04  0.13564930367E+04  0.75130303777E+03 0.  0.
        2    1    3    3  502    0 -0.16833239293E+03 -0.18905517234E+03 -0.10658461506E+04  0.10954933453E+04  0.25500000920E-02 0.  1.
       -2    1    3    3    0  502  0.16833239293E+03  0.18905517234E+03 -0.63586053627E+02  0.26099969142E+03  0.25500000920E-02 0. -1.
</event>
<event>
 5   0  0.1559275E-02  0.8789062E+03  0.7818609E-02  0.9452341E-01
       -1   -1    0    0    0  501  0.00000000000E+00  0.00000000000E+00  0.20239810522E+03  0.20239810529E+03  0.50400001928E-02 0.  1.
        1   -1    0    0  501    0  0.00000000000E+00  0.00000000000E+00 -0.95415432643E+03  0.95415432644E+03  0.50400001928E-02 0. -1.
    10030    2    1    2    0    0  0.00000000000E+00  0.00000000000E+00 -0.75175622120E+03  0.11565524317E+04  0.87890620160E+03 0.  0.
        1    1    3    3  502    0  0.26607029833E+03 -0.25601899014E+03 -0.68943771796E+03  0.78208918542E+03  0.50400001928E-02 0. -1.
       -1    1    3    3    0  502 -0.26607029833E+03  0.25601899014E+03 -0.62318503239E+02  0.37446324631E+03  0.50400001928E-02 0.  1.
</event>
<event>
 5   0  0.1537870E-02  0.5203890E+03  0.7818609E-02  0.1008590E+00
       -1   -1    0    0    0  501  0.00000000000E+00  0.00000000000E+00  0.67466785018E+02  0.67466785207E+02  0.50400001928E-02 0.  1.
        1   -1    0    0  501    0  0.00000000000E+00  0.00000000000E+00 -0.10034742565E+04  0.10034742565E+04  0.50400001928E-02 0. -1.
    10030    2    1    2    0    0  0.00000000000E+00  0.00000000000E+00 -0.93600747148E+03  0.10709410417E+04  0.52038901619E+03 0.  0.
        5    1    3    3  502    0 -0.20891522574E+03  0.88524365263E+02 -0.20609248229E+03  0.30655886228E+03  0.46999998093E+01 0. -1.
       -5    1    3    3    0  502  0.20891522574E+03 -0.88524365263E+02 -0.72991498919E+03  0.76438217944E+03  0.46999998093E+01 0.  1.
</event>
<event>
 5   0  0.1459111E-02  0.8997321E+03  0.7818609E-02  0.9425916E-01
       -1   -1    0    0    0  501  0.00000000000E+00  0.00000000000E+00  0.45918402444E+03  0.45918402446E+03  0.50400001928E-02 0. -1.
        1   -1    0    0  501    0  0.00000000000E+00  0.00000000000E+00 -0.44073720728E+03  0.44073720731E+03  0.50400001928E-02 0.  1.
    10030    2    1    2    0    0  0.00000000000E+00  0.00000000000E+00  0.18446817158E+02  0.89992123177E+03  0.89973214810E+03 0.  0.
        2    1    3    3  502    0  0.29087529744E+02 -0.44000918131E+03  0.98266386965E+02  0.45178584179E+03  0.25500000920E-02 0. -1.
       -2    1    3    3    0  502 -0.29087529744E+02  0.44000918131E+03 -0.79819569807E+02  0.44813538998E+03  0.25500000920E-02 0.  1.
</event>
<event>
 5   0  0.2705111E-02  0.8832266E+03  0.7818609E-02  0.9446795E-01
       -2   -1    0    0    0  501  0.00000000000E+00  0.00000000000E+00  0.10713773082E+03  0.10713773085E+03  0.25500000920E-02 0.  1.
        2   -1    0    0  501    0  0.00000000000E+00  0.00000000000E+00 -0.18202954487E+04  0.18202954487E+04  0.25500000920E-02 0. -1.
    10030    2    1    2    0    0  0.00000000000E+00  0.00000000000E+00 -0.17131577179E+04  0.19274331796E+04  0.88322663871E+03 0.  0.
        4    1    3    3  502    0 -0.31991079774E+02  0.13238795729E+03 -0.17733131754E+04  0.17785362609E+04  0.12699999809E+01 0. -1.
       -4    1    3    3    0  502  0.31991079774E+02 -0.13238795729E+03  0.60155457502E+02  0.14889691867E+03  0.12699999809E+01 0.  1.
</event>
<event>
 5   0  0.2705111E-02  0.8939965E+03  0.7818609E-02  0.9433117E-01
       -2   -1    0    0    0  501  0.00000000000E+00  0.00000000000E+00  0.22522589612E+03  0.22522589613E+03  0.25500000920E-02 0.  1.
        2   -1    0    0  501    0  0.00000000000E+00  0.00000000000E+00 -0.88714234198E+03  0.88714234198E+03  0.25500000920E-02 0. -1.
    10030    2    1    2    0    0  0.00000000000E+00  0.00000000000E+00 -0.66191644586E+03  0.11123682381E+04  0.89399648538E+03 0.  0.
        4    1    3    3  502    0 -0.63599986389E+02 -0.25609650464E+03 -0.77988684192E+03  0.82331979027E+03  0.12699999809E+01 0. -1.
       -4    1    3    3    0  502  0.63599986389E+02  0.25609650464E+03  0.11797039606E+03  0.28904844784E+03  0.12699999809E+01 0.  1.
</event>
<event>
 5   0  0.2679861E-02  0.9258934E+03  0.7818609E-02  0.9393780E-01
        2   -1    0    0  501    0  0.00000000000E+00  0.00000000000E+00  0.76468565965E+03  0.76468565966E+03  0.25500000920E-02 0. -1.
       -2   -1    0    0    0  501  0.00000000000E+00  0.00000000000E+00 -0.28027156405E+03  0.28027156406E+03  0.25500000920E-02 0.  1.
    10030    2    1    2    0    0  0.00000000000E+00  0.00000000000E+00  0.48441409560E+03  0.10449572237E+04  0.92589339742E+03 0.  0.
        1    1    3    3  502    0  0.38694007914E+03 -0.25081531440E+03  0.28858522259E+03  0.54397828772E+03  0.50400001928E-02 0. -1.
       -1    1    3    3    0  502 -0.38694007914E+03  0.25081531440E+03  0.19582887301E+03  0.50097893600E+03  0.50400001928E-02 0.  1.
</event>
<event>
 5   0  0.1560728E-02  0.8859021E+03  0.7818609E-02  0.9443378E-01
       -1   -1    0    0    0  501  0.00000000000E+00  0.00000000000E+00  0.37424502334E+03  0.37424502338E+03  0.50400001928E-02 0.  1.
        1   -1    0    0  501    0  0.00000000000E+00  0.00000000000E+00 -0.52427057696E+03  0.52427057698E+03  0.50400001928E-02 0. -1.
    10030    2    1    2    0    0  0.00000000000E+00  0.00000000000E+00 -0.15002555362E+03  0.89851560036E+03  0.88590214886E+03 0.  0.
        4    1    3    3  502    0  0.34240513209E+03  0.27973290583E+03 -0.47944432619E+02  0.44473818659E+03  0.12699999809E+01 0. -1.
       -4    1    3    3    0  502 -0.34240513209E+03 -0.27973290583E+03 -0.10208112100E+03  0.45377741378E+03  0.12699999809E+01 0.  1.
</event>
<event>
 5   0  0.1560728E-02  0.9076251E+03  0.7818609E-02  0.9416100E-01
        1   -1    0    0  501    0  0.00000000000E+00  0.00000000000E+00  0.10172403654E+04  0.10172403654E+04  0.50400001928E-02 0. -1.
       -1   -1    0    0    0  501  0.00000000000E+00  0.00000000000E+00 -0.20245540865E+03  0.20245540871E+03  0.50400001928E-02 0.  1.
    10030    2    1    2    0    0  0.00000000000E+00  0.00000000000E+00  0.81478495674E+03  0.12196957741E+04  0.90762506337E+03 0.  0.
        4    1    3    3  502    0  0.62304108274E+02  0.82859465295E+02 -0.18632698147E+03  0.21322957070E+03  0.12699999809E+01 0.  1.
       -4    1    3    3    0  502 -0.62304108274E+02 -0.82859465295E+02  0.10011119382E+04  0.10064662034E+04  0.12699999809E+01 0. -1.
</event>
<event>
 5   0  0.2803717E-02  0.9096568E+03  0.7818609E-02  0.9413590E-01
        2   -1    0    0  501    0  0.00000000000E+00  0.00000000000E+00  0.11858297110E+04  0.11858297110E+04  0.25500000920E-02 0. -1.
       -2   -1    0    0    0  501  0.00000000000E+00  0.00000000000E+00 -0.17445072678E+03  0.17445072680E+03  0.25500000920E-02 0.  1.
    10030    2    1    2    0    0  0.00000000000E+00  0.00000000000E+00  0.10113789842E+04  0.13602804378E+04  0.90965675931E+03 0.  0.
        5    1    3    3  502    0  0.29315930267E+03 -0.30982896239E+03  0.74170539771E+03  0.85561986282E+03  0.46999998093E+01 0. -1.
       -5    1    3    3    0  502 -0.29315930267E+03  0.30982896239E+03  0.26967358650E+03  0.50466057497E+03  0.46999998093E+01 0.  1.
</event>
<event>
 5   0  0.1537870E-02  0.9009410E+03  0.7818609E-02  0.9424406E-01
        1   -1    0    0  501    0  0.00000000000E+00  0.00000000000E+00  0.42843661919E+03  0.42843661922E+03  0.50400001928E-02 0. -1.
       -1   -1    0    0    0  501  0.00000000000E+00  0.00000000000E+00 -0.47363759755E+03  0.47363759758E+03  0.50400001928E-02 0.  1.
    10030    2    1    2    0    0  0.00000000000E+00  0.00000000000E+00 -0.45200978361E+02  0.90207421680E+03  0.90094104367E+03 0.  0.
        5    1    3    3  502    0 -0.61378510840E+02  0.32625205034E+03 -0.32744011945E+03  0.46631195971E+03  0.46999998093E+01 0.  1.
       -5    1    3    3    0  502  0.61378510840E+02 -0.32625205034E+03  0.28223914109E+03  0.43576225709E+03  0.46999998093E+01 0. -1.
</event>
<event>
 5   0  0.1537870E-02  0.9028204E+03  0.7818609E-02  0.9422063E-01
        1   -1    0    0  501    0  0.00000000000E+00  0.00000000000E+00  0.81057129068E+03  0.81057129070E+03  0.50400001928E-02 0.  1.
       -1   -1    0    0    0  501  0.00000000000E+00  0.00000000000E+00 -0.25139204325E+03  0.25139204330E+03  0.50400001928E-02 0. -1.
    10030    2    1    2    0    0  0.00000000000E+00  0.00000000000E+00  0.55917924743E+03  0.10619633340E+04  0.90282040961E+03 0.  0.
        5    1    3    3  502    0  0.47838287979E+02 -0.28968908600E+03 -0.12368649265E+03  0.31863569607E+03  0.46999998093E+01 0. -1.
       -5    1    3    3    0  502 -0.47838287979E+02  0.28968908600E+03  0.68286574008E+03  0.74332763794E+03  0.46999998093E+01 0.  1.
</event>
<event>
 5   0  0.2628383E-02  0.8239010E+03  0.7818609E-02  0.9526052E-01
       -2   -1    0    0    0  501  0.00000000000E+00  0.00000000000E+00  0.17474719508E+03  0.17474719510E+03  0.25500000920E-02 0. -1.
        2   -1    0    0  501    0  0.00000000000E+00  0.00000000000E+00 -0.97113544514E+03  0.97113544515E+03  0.25500000920E-02 0.  1.
    10030    2    1    2    0    0  0.00000000000E+00  0.00000000000E+00 -0.79638825007E+03  0.11458826402E+04  0.82390095301E+03 0.  0.
        2    1    3    3  502    0 -0.20427996434E+03  0.27763843906E+03 -0.71194175758E+03  0.79099587411E+03  0.25500000920E-02 0.  1.
       -2    1    3    3    0  502  0.20427996434E+03 -0.27763843906E+03 -0.84446492491E+02  0.35488676613E+03  0.25500000920E-02 0. -1.
</event>
<event>
 5   0  0.1497410E-02  0.9330919E+03  0.7818609E-02  0.9385135E-01
        1   -1    0    0  501    0  0.00000000000E+00  0.00000000000E+00  0.85474577349E+03  0.85474577351E+03  0.50400001928E-02 0. -1.
       -1   -1    0    0    0  501  0.00000000000E+00  0.00000000000E+00 -0.25465481856E+03  0.25465481861E+03  0.50400001928E-02 0.  1.
    10030    2    1    2    0    0  0.00000000000E+00  0.00000000000E+00  0.60009095493E+03  0.11094005921E+04  0.93309191380E+03 0.  0.
        3    1    3    3  502    0  0.11434409426E+03  0.27699958898E+03  0.72518779234E+03  0.78466597259E+03  0.10100000352E+00 0. -1.
       -3    1    3    3    0  502 -0.11434409426E+03 -0.27699958898E+03 -0.12509683741E+03  0.32473461952E+03  0.10100000352E+00 0.  1.
</event>
<event>
 5   0  0.2414128E-02  0.9002532E+03  0.7818609E-02  0.9425265E-01
        2   -1    0    0  501    0  0.00000000000E+00  0.00000000000E+00  0.16690173345E+03  0.16690173347E+03  0.25500000920E-02 0.  1.
       -2   -1    0    0    0  501  0.00000000000E+00  0.00000000000E+00 -0.12139715788E+04  0.12139715788E+04  0.25500000920E-02 0. -1.
    10030    2    1    2    0    0  0.00000000000E+00  0.00000000000E+00 -0.10470698454E+04  0.13808733123E+04  0.90025321080E+03 0.  0.
        3    1    3    3  502    0 -0.34483316802E+03 -0.60561520843E+02 -0.89591844773E+02  0.36139219752E+03  0.10100000352E+00 0.  1.
       -3    1    3    3    0  502  0.34483316802E+03  0.60561520843E+02 -0.95747800061E+03  0.10194811148E+04  0.10100000352E+00 0. -1.
</event>
<event>
 5   0  0.1537870E-02  0.8922005E+03  0.7818609E-02  0.9435384E-01
       -1   -1    0    0    0  501  0.00000000000E+00  0.00000000000E+00  0.92074479311E+03  0.92074479313E+03  0.50400001928E-02 0. -1.
        1   -1    0    0  501    0  0.00000000000E+00  0.00000000000E+00 -0.21613530220E+03  0.21613530226E+03  0.50400001928E-02 0.  1.
    10030    2    1    2    0    0  0.00000000000E+00  0.00000000000E+00  0.70460949091E+03  0.11368800954E+04  0.89220054730E+03 0.  0.
        5    1    3    3  502    0 -0.31472701909E+03  0.20686537570E+03  0.65689137380E+03  0.75721512609E+03  0.46999998093E+01 0. -1.
       -5    1    3    3    0  502  0.31472701909E+03 -0.20686537570E+03  0.47718117116E+02  0.37966496930E+03  0.46999998093E+01 0.  1.
</event>
<event>
 5   0  0.2705111E-02  0.9085812E+03  0.7818609E-02  0.9414918E-01
       -2   -1    0    0    0  501  0.00000000000E+00  0.00000000000E+00  0.23653357878E+03  0.23653357879E+03  0.25500000920E-02 0. -1.
        2   -1    0    0  501    0  0.00000000000E+00  0.00000000000E+00 -0.87251866654E+03  0.87251866654E+03  0.25500000920E-02 0.  1.
    10030    2    1    2    0    0  0.00000000000E+00  0.00000000000E+00 -0.63598508776E+03  0.11090522453E+04  0.90858122974E+03 0.  0.
        4    1    3    3  502    0 -0.34345810906E+02  0.42332661635E+03 -0.12119536002E+03  0.44167294125E+03  0.12699999809E+01 0. -1.
       -4    1    3    3    0  502  0.34345810906E+02 -0.42332661635E+03 -0.51478972774E+03  0.66737930409E+03  0.12699999809E+01 0.  1.
</event>
<event>
 5   0  0.2705111E-02  0.8978021E+03  0.7818609E-02  0.9428333E-01
        2   -1    0    0  501    0  0.00000000000E+00  0.00000000000E+00  0.20007316676E+04  0.20007316676E+04  0.25500000920E-02 0.  1.
       -2   -1    0    0    0  501  0.00000000000E+00  0.00000000000E+00 -0.10071923460E+03  0.10071923463E+03  0.25500000920E-02 0. -1.
    10030    2    1    2    0    0  0.00000000000E+00  0.00000000000E+00  0.19000124330E+04  0.21014509022E+04  0.89780212125E+03 0.  0.
        4    1    3    3  502    0  0.34157051028E+03 -0.41547932810E+02  0.27520560946E+03  0.44060910635E+03  0.12699999809E+01 0. -1.
       -4    1    3    3    0  502 -0.34157051028E+03  0.41547932810E+02  0.16248068236E+04  0.16608417959E+04  0.12699999809E+01 0.  1.
</event>
<event>
 5   0  0.1459111E-02  0.9004182E+03  0.7818609E-02  0.9425059E-01
        1   -1    0    0  501    0  0.00000000000E+00  0.00000000000E+00  0.36354525713E+03  0.36354525716E+03  0.50400001928E-02 0. -1.
       -1   -1    0    0    0  501  0.00000000000E+00  0.00000000000E+00 -0.55753228143E+03  0.55753228145E+03  0.50400001928E-02 0.  1.
    10030    2    1    2    0    0  0.00000000000E+00  0.00000000000E+00 -0.19398702430E+03  0.92107753861E+03  0.90041816204E+03 0.  0.
        2    1    3    3  502    0  0.29557221500E+03  0.12849997933E+03  0.22456430398E+03  0.39281586729E+03  0.25500000920E-02 0. -1.
       -2    1    3    3    0  502 -0.29557221500E+03 -0.12849997933E+03 -0.41855132828E+03  0.52826167132E+03  0.25500000920E-02 0.  1.
</event>
<event>
 5   0  0.2679861E-02  0.8836394E+03  0.7818609E-02  0.9446267E-01
       -2   -1    0    0    0  501  0.00000000000E+00  0.00000000000E+00  0.92361454026E+02  0.92361454061E+02  0.25500000920E-02 0.  1.
        2   -1    0    0  501    0  0.00000000000E+00  0.00000000000E+00 -0.21134861055E+04  0.21134861055E+04  0.25500000920E-02 0. -1.
    10030    2    1    2    0    0  0.00000000000E+00  0.00000000000E+00 -0.20211246515E+04  0.22058475596E+04  0.88363940566E+03 0.  0.
        1    1    3    3  502    0  0.11685908329E+02  0.42886389456E+03 -0.74703962308E+03  0.86146909346E+03  0.50400001928E-02 0.  1.
       -1    1    3    3    0  502 -0.11685908329E+02 -0.42886389456E+03 -0.12740850284E+04  0.13443784661E+04  0.50400001928E-02 0. -1.
</event>
<event>
 5   0  0.1559275E-02  0.8899509E+03  0.7818609E-02  0.9438231E-01
       -1   -1    0    0    0  501  0.00000000000E+00  0.00000000000E+00  0.51969231517E+03  0.51969231519E+03  0.50400001928E-02 0. -1.
        1   -1    0    0  501    0  0.00000000000E+00  0.00000000000E+00 -0.38100068828E+03  0.38100068832E+03  0.50400001928E-02 0.  1.
    10030    2    1    2    0    0  0.00000000000E+00  0.00000000000E+00  0.13869162688E+03  0.90069300351E+03  0.88995085213E+03 0.  0.
        1    1    3    3  502    0 -0.40611615454E+03 -0.93946963237E+02 -0.88247462936E+02  0.42607977846E+03  0.50400001928E-02 0.  1.
       -1    1    3    3    0  502  0.40611615454E+03  0.93946963237E+02  0.22693908982E+03  0.47461322505E+03  0.50400001928E-02 0. -1.
</event>
<event>
 5   0  0.1537870E-02  0.8975585E+03  0.7818609E-02  0.9428639E-01
        1   -1    0    0  501    0  0.00000000000E+00  0.00000000000E+00  0.69198913151E+03  0.69198913153E+03  0.50400001928E-02 0.  1.
       -1   -1    0    0    0  501  0.00000000000E+00  0.00000000000E+00 -0.29104912249E+03  0.29104912254E+03  0.50400001928E-02 0. -1.
    10030    2    1    2    0    0  0.00000000000E+00  0.00000000000E+00  0.40094000901E+03  0.98303825407E+03  0.89755853187E+03 0.  0.
        5    1    3    3  502    0 -0.39035736652E+02  0.37778985753E+03 -0.61316042285E+02  0.38474759548E+03  0.46999998093E+01 0. -1.
       -5    1    3    3    0  502  0.39035736652E+02 -0.37778985753E+03  0.46225605130E+03  0.59829065858E+03  0.46999998093E+01 0.  1.
</event>
<event>
 5   0  0.2679861E-02  0.8714748E+03  0.7818609E-02  0.9461959E-01
       -2   -1    0    0    0  501  0.00000000000E+00  0.00000000000E+00  0.19020635874E+03  0.19020635876E+03  0.25500000920E-02 0.  1.
        2   -1    0    0  501    0  0.00000000000E+00  0.00000000000E+00 -0.99821634122E+03  0.99821634122E+03  0.25500000920E-02 0. -1.
    10030    2    1    2    0    0  0.00000000000E+00  0.00000000000E+00 -0.80800998248E+03  0.11884227000E+04  0.87147483156E+03 0.  0.
        1    1    3    3  502    0 -0.40021375170E+03 -0.14198200102E+03 -0.27082909755E+03  0.50366490424E+03  0.50400001928E-02 0.  1.
       -1    1    3    3    0  502  0.40021375170E+03  0.14198200102E+03 -0.53718088493E+03  0.68475779573E+03  0.50400001928E-02 0. -1.
</event>
<event>
 5   0  0.1537870E-02  0.8847445E+03  0.7818609E-02  0.9444855E-01
       -1   -1    0    0    0  501  0.00000000000E+00  0.00000000000E+00  0.57328974009E+03  0.57328974011E+03  0.50400001928E-02 0.  1.
        1   -1    0    0  501    0  0.00000000000E+00  0.00000000000E+00 -0.34135131544E+03  0.34135131548E+03  0.50400001928E-02 0. -1.
    10030    2    1    2    0    0  0.00000000000E+00  0.00000000000E+00  0.23193842465E+03  0.91464105559E+03  0.88474449856E+03 0.  0.
        5    1    3    3  502    0  0.23278962398E+03 -0.17081970309E+03 -0.23046767188E+03  0.36946964392E+03  0.46999998093E+01 0. -1.
       -5    1    3    3    0  502 -0.23278962398E+03  0.17081970309E+03  0.46240609653E+03  0.54517141167E+03  0.46999998093E+01 0.  1.
</event>
<event>
 5   0  0.1497410E-02  0.8941994E+03  0.7818609E-02  0.9432862E-01
       -1   -1    0    0    0  501  0.00000000000E+00  0.00000000000E+00  0.29484596154E+03  0.29484596158E+03  0.50400001928E-02 0. -1.
        1   -1    0    0  501    0  0.00000000000E+00  0.00000000000E+00 -0.67797488516E+03  0.67797488518E+03  0.50400001928E-02 0.  1.
    10030    2    1    2    0    0  0.00000000000E+00  0.00000000000E+00 -0.38312892362E+03  0.97282084677E+03  0.89419943401E+03 0.  0.
        3    1    3    3  502    0 -0.14455047959E+03 -0.73528298297E+02 -0.64484748570E+03  0.66492822305E+03  0.10100000352E+00 0.  1.
       -3    1    3    3    0  502  0.14455047959E+03  0.73528298297E+02  0.26171856207E+03  0.30789262371E+03  0.10100000352E+00 0. -1.
</event>
<event>
 5   0  0.1560728E-02  0.8366647E+03  0.7818609E-02  0.9508412E-01
        1   -1    0    0  501    0  0.00000000000E+00  0.00000000000E+00  0.33447402417E+03  0.33447402421E+03  0.50400001928E-02 0.  1.
       -1   -1    0    0    0  501  0.00000000000E+00  0.00000000000E+00 -0.52321542142E+03  0.52321542144E+03  0.50400001928E-02 0. -1.
    10030    2    1    2    0    0  0.00000000000E+00  0.00000000000E+00 -0.18874139725E+03  0.85768944565E+03  0.83666472983E+03 0.  0.
        4    1    3    3  502    0  0.31251842137E+03 -0.77656389327E+02 -0.36810529651E+03  0.48908220242E+03  0.12699999809E+01 0. -1.
       -4    1    3    3    0  502 -0.31251842137E+03  0.77656389327E+02  0.17936389926E+03  0.36860724323E+03  0.12699999809E+01 0.  1.
</event>
<event>
 5   0  0.2803717E-02  0.7955005E+03  0.7818609E-02  0.9566553E-01
       -2   -1    0    0    0  501  0.00000000000E+00  0.00000000000E+00  0.13834522330E+03  0.13834522332E+03  0.25500000920E-02 0.  1.
        2   -1    0    0  501    0  0.00000000000E+00  0.00000000000E+00 -0.11435543194E+04  0.11435543194E+04  0.25500000920E-02 0. -1.
    10030    2    1    2    0    0  0.00000000000E+00  0.00000000000E+00 -0.10052090961E+04  0.12818995427E+04  0.79550054101E+03 0.  0.
        5    1    3    3  502    0  0.13433795483E+03  0.11001207990E+03  0.73997134509E+02  0.18880415712E+03  0.46999998093E+01 0.  1.
       -5    1    3    3    0  502 -0.13433795483E+03 -0.11001207990E+03 -0.10792062306E+04  0.10930953856E+04  0.46999998093E+01 0. -1.
</event>
<event>
 5   0  0.2679861E-02  0.9173078E+03  0.7818609E-02  0.9404201E-01
        2   -1    0    0  501    0  0.00000000000E+00  0.00000000000E+00  0.34128774801E+03  0.34128774802E+03  0.25500000920E-02 0. -1.
       -2   -1    0    0    0  501  0.00000000000E+00  0.00000000000E+00 -0.61638138024E+03  0.61638138025E+03  0.25500000920E-02 0.  1.
    10030    2    1    2    0    0  0.00000000000E+00  0.00000000000E+00 -0.27509363223E+03  0.95766912826E+03  0.91730782878E+03 0.  0.
        1    1    3    3  502    0 -0.15740217734E+03  0.21572482212E+03  0.25175558724E+03  0.36700615804E+03  0.50400001928E-02 0. -1.
       -1    1    3    3    0  502  0.15740217734E+03 -0.21572482212E+03 -0.52684921947E+03  0.59066297022E+03  0.50400001928E-02 0.  1.
</event>
<event>
 5   0  0.1459111E-02  0.8490513E+03  0.7818609E-02  0.9491611E-01
       -1   -1    0    0    0  501  0.00000000000E+00  0.00000000000E+00  0.30218679143E+03  0.30218679147E+03  0.50400001928E-02 0.  1.
        1   -1    0    0  501    0  0.00000000000E+00  0.00000000000E+00 -0.59639277312E+03  0.59639277315E+03  0.50400001928E-02 0. -1.
    10030    2    1    2    0    0  0.00000000000E+00  0.00000000000E+00 -0.29420598170E+03  0.89857956462E+03  0.84905127895E+03 0.  0.
        2    1    3    3  502    0 -0.23744458014E+03  0.14069692747E+02  0.22503959857E+03  0.32744572958E+03  0.25500000920E-02 0.  1.
       -2    1    3    3    0  502  0.23744458014E+03 -0.14069692747E+02 -0.51924558026E+03  0.57113383503E+03  0.25500000920E-02 0. -1.
</event>
<event>
 5   0  0.1537870E-02  0.8717089E+03  0.7818609E-02  0.9461654E-01
        1   -1    0    0  501    0  0.00000000000E+00  0.00000000000E+00  0.67402879206E+03  0.67402879207E+03  0.50400001928E-02 0. -1.
       -1   -1    0    0    0  501  0.00000000000E+00  0.00000000000E+00 -0.28184124580E+03  0.28184124585E+03  0.50400001928E-02 0.  1.
    10030    2    1    2    0    0  0.00000000000E+00  0.00000000000E+00  0.39218754625E+03  0.95587003792E+03  0.87170892961E+03 0.  0.
        5    1    3    3  502    0  0.22379921885E+03  0.33249394853E+03  0.83672255231E+01  0.40091198115E+03  0.46999998093E+01 0.  1.
       -5    1    3    3    0  502 -0.22379921885E+03 -0.33249394853E+03  0.38382032073E+03  0.55495805677E+03  0.46999998093E+01 0. -1.
</event>
<event>
 5   0  0.2414128E-02  0.9132530E+03  0.7818609E-02  0.9409164E-01
        2   -1    0    0  501    0  0.00000000000E+00  0.00000000000E+00  0.24059680598E+04  0.24059680598E+04  0.25500000920E-02 0. -1.
       -2   -1    0    0    0  501  0.00000000000E+00  0.00000000000E+00 -0.86662731504E+02  0.86662731542E+02  0.25500000920E-02 0.  1.
    10030    2    1    2    0    0  0.00000000000E+00  0.00000000000E+00  0.23193053283E+04  0.24926307913E+04  0.91325300771E+03 0.  0.
        3    1    3    3  502    0  0.59586137877E+02 -0.42671349116E+03  0.74686480668E+03  0.86223080497E+03  0.10100000352E+00 0.  1.
       -3    1    3    3    0  502 -0.59586137877E+02  0.42671349116E+03  0.15724405216E+04  0.16303999864E+04  0.10100000352E+00 0. -1.
</event>
<event>
 5   0  0.2679861E-02  0.9071714E+03  0.7818609E-02  0.9416661E-01
        2   -1    0    0  501    0  0.00000000000E+00  0.00000000000E+00  0.59958785394E+03  0.59958785394E+03  0.25500000920E-02 0. -1.
       -2   -1    0    0    0  501  0.00000000000E+00  0.00000000000E+00 -0.34313570472E+03  0.34313570473E+03  0.25500000920E-02 0.  1.
    10030    2    1    2    0    0  0.00000000000E+00  0.00000000000E+00  0.25645214922E+03  0.94272355867E+03  0.90717142991E+03 0.  0.
        1    1    3    3  502    0 -0.10743333256E+03 -0.43577936209E+03  0.19632615574E+03  0.48988726542E+03  0.50400001928E-02 0. -1.
       -1    1    3    3    0  502  0.10743333256E+03  0.43577936209E+03  0.60125993475E+02  0.45283629325E+03  0.50400001928E-02 0.  1.
</event>
<event>
 5   0  0.1040163E-02  0.9348300E+03  0.7818609E-02  0.9383060E-01
        3   -1    0    0  501    0  0.00000000000E+00  0.00000000000E+00  0.64405368502E+03  0.64405369294E+03  0.10100000352E+00 0. -1.
       -3   -1    0    0    0  501  0.00000000000E+00  0.00000000000E+00 -0.33922138396E+03  0.33922139900E+03  0.10100000352E+00 0.  1.
    10030    2    1    2    0    0  0.00000000000E+00  0.00000000000E+00  0.30483230106E+03  0.98327509194E+03  0.93483002447E+03 0.  0.
        4    1    3    3  502    0 -0.29853318146E+03  0.10680656338E+03 -0.20881320267E+03  0.37965019284E+03  0.12699999809E+01 0.  1.
       -4    1    3    3    0  502  0.29853318146E+03 -0.10680656338E+03  0.51364550373E+03  0.60362489910E+03  0.12699999809E+01 0. -1.
</event>
<event>
 5   0  0.1537870E-02  0.9825788E+03  0.7818609E-02  0.9327861E-01
       -1   -1    0    0    0  501  0.00000000000E+00  0.00000000000E+00  0.57516190549E+03  0.57516190551E+03  0.50400001928E-02 0.  1.
        1   -1    0    0  501    0  0.00000000000E+00  0.00000000000E+00 -0.41964756827E+03  0.41964756830E+03  0.50400001928E-02 0. -1.
    10030    2    1    2    0    0  0.00000000000E+00  0.00000000000E+00  0.15551433722E+03  0.99480947381E+03  0.98257884167E+03 0.  0.
        5    1    3    3  502    0  0.37014617918E+03  0.31930976042E+03  0.12711113250E+03  0.50512003233E+03  0.46999998093E+01 0.  1.
       -5    1    3    3    0  502 -0.37014617918E+03 -0.31930976042E+03  0.28403204725E+02  0.48968944148E+03  0.46999998093E+01 0. -1.
</event>
<event>
 5   0  0.1459111E-02  0.9565459E+03  0.7818609E-02  0.9357532E-01
        1   -1    0    0  501    0  0.00000000000E+00  0.00000000000E+00  0.22487215658E+03  0.22487215664E+03  0.50400001928E-02 0. -1.
       -1   -1    0    0    0  501  0.00000000000E+00  0.00000000000E+00 -0.10172224155E+04  0.10172224155E+04  0.50400001928E-02 0.  1.
    10030    2    1    2    0    0  0.00000000000E+00  0.00000000000E+00 -0.79235025894E+03  0.12420945722E+04  0.95654586580E+03 0.  0.
        2    1    3    3  502    0  0.10184713272E+03 -0.13393092985E+03 -0.97752192541E+03  0.99189689337E+03  0.25500000920E-02 0.  1.
       -2    1    3    3    0  502 -0.10184713272E+03  0.13393092985E+03  0.18517166646E+03  0.25019767881E+03  0.25500000920E-02 0. -1.
</event>
<event>
 5   0  0.1537870E-02  0.8313721E+03  0.7818609E-02  0.9515685E-01
        1   -1    0    0  501    0  0.00000000000E+00  0.00000000000E+00  0.22330993230E+04  0.22330993230E+04  0.50400001928E-02 0.  1.
       -1   -1    0    0    0  501  0.00000000000E+00  0.00000000000E+00 -0.77378960708E+02  0.77378960872E+02  0.50400001928E-02 0. -1.
    10030    2    1    2    0    0  0.00000000000E+00  0.00000000000E+00  0.21557203623E+04  0.23104782839E+04  0.83137213079E+03 0.  0.
        5    1    3    3  502    0  0.17888925961E+03  0.17269863846E+03  0.20035457273E+04  0.20189214344E+04  0.46999998093E+01 0.  1.
       -5    1    3    3    0  502 -0.17888925961E+03 -0.17269863846E+03  0.15217463497E+03  0.29155684945E+03  0.46999998093E+01 0. -1.
</event>
<event>
 5   0  0.1459111E-02  0.9061574E+03  0.7818609E-02  0.9417917E-01
        1   -1    0    0  501    0  0.00000000000E+00  0.00000000000E+00  0.52695971578E+03  0.52695971580E+03  0.50400001928E-02 0.  1.
       -1   -1    0    0    0  501  0.00000000000E+00  0.00000000000E+00 -0.38955597331E+03  0.38955597335E+03  0.50400001928E-02 0. -1.
    10030    2    1    2    0    0  0.00000000000E+00  0.00000000000E+00  0.13740374247E+03  0.91651568915E+03  0.90615739252E+03 0.  0.
        2    1    3    3  502    0 -0.32194686050E+01 -0.12647499715E+03  0.50873134128E+03  0.52422692366E+03  0.25500000920E-02 0.  1.
       -2    1    3    3    0  502  0.32194686050E+01  0.12647499715E+03 -0.37132759881E+03  0.39228876549E+03  0.25500000920E-02 0. -1.
</event>
<event>
 5   0  0.1537870E-02  0.9008146E+03  0.7818609E-02  0.9424564E-01
       -1   -1    0    0    0  501  0.00000000000E+00  0.00000000000E+00  0.53094767408E+03  0.53094767410E+03  0.50400001928E-02 0. -1.
        1   -1    0    0  501    0  0.00000000000E+00  0.00000000000E+00 -0.38208420530E+03  0.38208420533E+03  0.50400001928E-02 0.  1.
    10030    2    1    2    0    0  0.00000000000E+00  0.00000000000E+00  0.14886346878E+03  0.91303187943E+03  0.90081456500E+03 0.  0.
        5    1    3    3  502    0 -0.35110597663E+03 -0.28170722245E+03  0.89128884612E+02  0.45891220737E+03  0.46999998093E+01 0. -1.
       -5    1    3    3    0  502  0.35110597663E+03  0.28170722245E+03  0.59734584168E+02  0.45411967206E+03  0.46999998093E+01 0.  1.
</event>
<event>
 5   0  0.1040163E-02  0.8550388E+03  0.7818609E-02  0.9483599E-01
       -4   -1    0    0    0  501  0.00000000000E+00  0.00000000000E+00  0.18889054969E+03  0.18889481904E+03  0.12699999809E+01 0. -1.
        4   -1    0    0  501    0  0.00000000000E+00  0.00000000000E+00 -0.96759688123E+03  0.96759771469E+03  0.12699999809E+01 0.  1.
    10030    2    1    2    0    0  0.00000000000E+00  0.00000000000E+00 -0.77870633154E+03  0.11564925337E+04  0.85503884695E+03 0.  0.
        1    1    3    3  502    0 -0.13834097259E+03 -0.63603348527E+02 -0.92968281543E+03  0.94206886583E+03  0.50400001928E-02 0.  1.
       -1    1    3    3    0  502  0.13834097259E+03  0.63603348527E+02  0.15097648389E+03  0.21442366790E+03  0.50400001928E-02 0. -1.
</event>
<event>
 5   0  0.2414128E-02  0.8979933E+03  0.7818609E-02  0.9428093E-01
        2   -1    0    0  501    0  0.00000000000E+00  0.00000000000E+00  0.98854877393E+03  0.98854877393E+03  0.25500000920E-02 0.  1.
       -2   -1    0    0    0  501  0.00000000000E+00  0.00000000000E+00 -0.20393325992E+03  0.20393325994E+03  0.25500000920E-02 0. -1.
    10030    2    1    2    0    0  0.00000000000E+00  0.00000000000E+00  0.78461551401E+03  0.11924820339E+04  0.89799326071E+03 0.  0.
        3    1    3    3  502    0 -0.74330228270E+02 -0.22094018409E+03  0.90189533130E+03  0.93153354561E+03  0.10100000352E+00 0.  1.
       -3    1    3    3    0  502  0.74330228270E+02  0.22094018409E+03 -0.11727981729E+03  0.26094848826E+03  0.10100000352E+00 0. -1.
</event>
<event>
 5   0  0.2628383E-02  0.8835737E+03  0.7818609E-02  0.9446351E-01
        2   -1    0    0  501    0  0.00000000000E+00  0.00000000000E+00  0.14083005632E+04  0.14083005632E+04  0.25500000920E-02 0.  1.
       -2   -1    0    0    0  501  0.00000000000E+00  0.00000000000E+00 -0.13858945085E+03  0.13858945087E+03  0.25500000920E-02 0. -1.
    10030    2    1    2    0    0  0.00000000000E+00  0.00000000000E+00  0.12697111123E+04  0.15468900141E+04  0.88357365670E+03 0.  0.
        2    1    3    3  502    0 -0.50992180050E+02  0.39177016780E+03  0.98100053665E+03  0.10575661302E+04  0.25500000920E-02 0.  1.
       -2    1    3    3    0  502  0.50992180050E+02 -0.39177016780E+03  0.28871057568E+03  0.48932388386E+03  0.25500000920E-02 0. -1.
</event>
<event>
 5   0  0.2679861E-02  0.9573101E+03  0.7818609E-02  0.9356647E-01
       -2   -1    0    0    0  501  0.00000000000E+00  0.00000000000E+00  0.15310111952E+03  0.15310111954E+03  0.25500000920E-02 0.  1.
        2   -1    0    0  501    0  0.00000000000E+00  0.00000000000E+00 -0.14964662047E+04  0.14964662048E+04  0.25500000920E-02 0. -1.
    10030    2    1    2    0    0  0.00000000000E+00  0.00000000000E+00 -0.13433650852E+04  0.16495673243E+04  0.95731008829E+03 0.  0.
        1    1    3    3  502    0 -0.33404905613E+03  0.17501917558E+03 -0.11796112123E+04  0.12384276708E+04  0.50400001928E-02 0. -1.
       -1    1    3    3    0  502  0.33404905613E+03 -0.17501917558E+03 -0.16375387297E+03  0.41113965347E+03  0.50400001928E-02 0.  1.
</event>
<event>
 5   0  0.1459111E-02  0.8959543E+03  0.7818609E-02  0.9430653E-01
       -1   -1    0    0    0  501  0.00000000000E+00  0.00000000000E+00  0.54975531831E+03  0.54975531833E+03  0.50400001928E-02 0. -1.
        1   -1    0    0  501    0  0.00000000000E+00  0.00000000000E+00 -0.36504154782E+03  0.36504154786E+03  0.50400001928E-02 0.  1.
    10030    2    1    2    0    0  0.00000000000E+00  0.00000000000E+00  0.18471377049E+03  0.91479686619E+03  0.89595431211E+03 0.  0.
        2    1    3    3  502    0 -0.30559254730E+03  0.31876763878E+03  0.15379567102E+02  0.44185534238E+03  0.25500000920E-02 0.  1.
       -2    1    3    3    0  502  0.30559254730E+03 -0.31876763878E+03  0.16933420339E+03  0.47294152381E+03  0.25500000920E-02 0. -1.
</event>
<event>
 5   0  0.2705111E-02  0.9142233E+03  0.7818609E-02  0.9407974E-01
        2   -1    0    0  501    0  0.00000000000E+00  0.00000000000E+00  0.77433569829E+03  0.77433569829E+03  0.25500000920E-02 0.  1.
       -2   -1    0    0    0  501  0.00000000000E+00  0.00000000000E+00 -0.26984557529E+03  0.26984557531E+03  0.25500000920E-02 0. -1.
    10030    2    1    2    0    0  0.00000000000E+00  0.00000000000E+00  0.50449012299E+03  0.10441812736E+04  0.91422330310E+03 0.  0.
        4    1    3    3  502    0 -0.15521874338E+03  0.31929856222E+03  0.58110731217E+03  0.68097852483E+03  0.12699999809E+01 0.  1.
       -4    1    3    3    0  502  0.15521874338E+03 -0.31929856222E+03 -0.76617189178E+02  0.36320274876E+03  0.12699999809E+01 0. -1.
</event>
<event>
 5   0  0.1560728E-02  0.8941528E+03  0.7818609E-02  0.9432920E-01
        1   -1    0    0  501    0  0.00000000000E+00  0.00000000000E+00  0.29923468400E+03  0.29923468405E+03  0.50400001928E-02 0.  1.
       -1   -1    0    0    0  501  0.00000000000E+00  0.00000000000E+00 -0.66796168922E+03  0.66796168924E+03  0.50400001928E-02 0. -1.
    10030    2    1    2    0    0  0.00000000000E+00  0.00000000000E+00 -0.36872700522E+03  0.96719637329E+03  0.89415279462E+03 0.  0.
        4    1    3    3  502    0  0.33994383679E+03 -0.23811006731E+03 -0.46027357092E+01  0.41506748175E+03  0.12699999809E+01 0. -1.
       -4    1    3    3    0  502 -0.33994383679E+03  0.23811006731E+03 -0.36412426951E+03  0.55212889154E+03  0.12699999809E+01 0.  1.
</event>
<event>
 5   0  0.1459111E-02  0.8939554E+03  0.7818609E-02  0.9433169E-01
        1   -1    0    0  501    0  0.00000000000E+00  0.00000000000E+00  0.85624401247E+03  0.85624401249E+03  0.50400001928E-02 0. -1.
       -1   -1    0    0    0  501  0.00000000000E+00  0.00000000000E+00 -0.23333194024E+03  0.23333194030E+03  0.50400001928E-02 0.  1.
    10030    2    1    2    0    0  0.00000000000E+00  0.00000000000E+00  0.62291207223E+03  0.10895759528E+04  0.89395542794E+03 0.  0.
        2    1    3    3  502    0 -0.54747420070E+02 -0.10127168598E+03  0.83786441139E+03  0.84573636924E+03  0.25500000920E-02 0. -1.
       -2    1    3    3    0  502  0.54747420070E+02  0.10127168598E+03 -0.21495233916E+03  0.24383958354E+03  0.25500000920E-02 0.  1.
</event>
<event>
 5   0  0.2414128E-02  0.6832784E+03  0.7818609E-02  0.9746263E-01
        2   -1    0    0  501    0  0.00000000000E+00  0.00000000000E+00  0.16647165649E+04  0.16647165649E+04  0.25500000920E-02 0. -1.
       -2   -1    0    0    0  501  0.00000000000E+00  0.00000000000E+00 -0.70112447804E+02  0.70112447850E+02  0.25500000920E-02 0.  1.
    10030    2    1    2    0    0  0.00000000000E+00  0.00000000000E+00  0.15946041171E+04  0.17348290128E+04  0.68327843024E+03 0.  0.
        3    1    3    3  502    0 -0.75851916194E+02 -0.23453487914E+03  0.13979044153E+04  0.14194706363E+04  0.10100000352E+00 0. -1.
       -3    1    3    3    0  502  0.75851916194E+02  0.23453487914E+03  0.19669970177E+03  0.31535837645E+03  0.10100000352E+00 0.  1.
</event>
<event>
 5   0  0.1497410E-02  0.8977304E+03  0.7818609E-02  0.9428423E-01
       -1   -1    0    0    0  501  0.00000000000E+00  0.00000000000E+00  0.19041034118E+03  0.19041034125E+03  0.50400001928E-02 0.  1.
        1   -1    0    0  501    0  0.00000000000E+00  0.00000000000E+00 -0.10581357103E+04  0.10581357103E+04  0.50400001928E-02 0. -1.
    10030    2    1    2    0    0  0.00000000000E+00  0.00000000000E+00 -0.86772536909E+03  0.12485460515E+04  0.89773043094E+03 0.  0.
        3    1    3    3  502    0 -0.29090709009E+03 -0.26362009760E+03 -0.13120415811E+03  0.41392877676E+03  0.10100000352E+00 0.  1.
       -3    1    3    3    0  502  0.29090709009E+03  0.26362009760E+03 -0.73652121098E+03  0.83461727477E+03  0.10100000352E+00 0. -1.
</event>
<event>
 5   0  0.2414128E-02  0.8573051E+03  0.7818609E-02  0.9480584E-01
        2   -1    0    0  501    0  0.00000000000E+00  0.00000000000E+00  0.18215963646E+04  0.18215963646E+04  0.25500000920E-02 0. -1.
       -2   -1    0    0    0  501  0.00000000000E+00  0.00000000000E+00 -0.10086922789E+03  0.10086922792E+03  0.25500000920E-02 0.  1.
    10030    2    1    2    0    0  0.00000000000E+00  0.00000000000E+00  0.17207271367E+04  0.19224655925E+04  0.85730512387E+03 0.  0.
        3    1    3    3  502    0  0.61874248952E+01 -0.25199957456E+03  0.16378218359E+04  0.16571066490E+04  0.10100000352E+00 0. -1.
       -3    1    3    3    0  502 -0.61874248952E+01  0.25199957456E+03  0.82905300824E+02  0.26535894353E+03  0.10100000352E+00 0.  1.
</event>
<event>
 5   0  0.1040163E-02  0.8907070E+03  0.7818609E-02  0.9437273E-01
       -3   -1    0    0    0  501  0.00000000000E+00  0.00000000000E+00  0.19483442580E+03  0.19483445198E+03  0.10100000352E+00 0. -1.
        3   -1    0    0  501    0  0.00000000000E+00  0.00000000000E+00 -0.10179911210E+04  0.10179911261E+04  0.10100000352E+00 0.  1.
    10030    2    1    2    0    0  0.00000000000E+00  0.00000000000E+00 -0.82315669524E+03  0.12128255780E+04  0.89070698764E+03 0.  0.
        4    1    3    3  502    0 -0.19511206728E+03 -0.92404403410E+01 -0.95654895352E+03  0.97628972028E+03  0.12699999809E+01 0.  1.
       -4    1    3    3    0  502  0.19511206728E+03  0.92404403410E+01  0.13339225828E+03  0.23653585776E+03  0.12699999809E+01 0. -1.
</event>
<event>
 5   0  0.1560728E-02  0.9141184E+03  0.7818609E-02  0.9408103E-01
        1   -1    0    0  501    0  0.00000000000E+00  0.00000000000E+00  0.93728177979E+03  0.93728177980E+03  0.50400001928E-02 0.  1.
       -1   -1    0    0    0  501  0.00000000000E+00  0.00000000000E+00 -0.22288185714E+03  0.22288185720E+03  0.50400001928E-02 0. -1.
    10030    2    1    2    0    0  0.00000000000E+00  0.00000000000E+00  0.71439992265E+03  0.11601636370E+04  0.91411838136E+03 0.  0.
        4    1    3    3  502    0 -0.30834057902E+03  0.21762930558E+03  0.68440013048E+03  0.78156354753E+03  0.12699999809E+01 0.  1.
       -4    1    3    3    0  502  0.30834057902E+03 -0.21762930558E+03  0.29999792168E+02  0.37860008948E+03  0.12699999809E+01 0. -1.
</event>
<event>
 5   0  0.1537870E-02  0.7706371E+03  0.7818609E-02  0.9603519E-01
        1   -1    0    0  501    0  0.00000000000E+00  0.00000000000E+00  0.14199289471E+03  0.14199289480E+03  0.50400001928E-02 0. -1.
       -1   -1    0    0    0  501  0.00000000000E+00  0.00000000000E+00 -0.10456183291E+04  0.10456183291E+04  0.50400001928E-02 0.  1.
    10030    2    1    2    0    0  0.00000000000E+00  0.00000000000E+00 -0.90362543434E+03  0.11876112239E+04  0.77063706986E+03 0.  0.
        5    1    3    3  502    0 -0.28887098941E+03  0.47720778891E+02 -0.65851900739E+02  0.30013710882E+03  0.46999998093E+01 0. -1.
       -5    1    3    3    0  502  0.28887098941E+03 -0.47720778891E+02 -0.83777353360E+03  0.88747411504E+03  0.46999998093E+01 0.  1.
</event>
<event>
 5   0  0.2414128E-02  0.8862346E+03  0.7818609E-02  0.9442954E-01
        2   -1    0    0  501    0  0.00000000000E+00  0.00000000000E+00  0.27931391606E+04  0.27931391606E+04  0.25500000920E-02 0. -1.
       -2   -1    0    0    0  501  0.00000000000E+00  0.00000000000E+00 -0.70298302312E+02  0.70298302359E+02  0.25500000920E-02 0.  1.
    10030    2    1    2    0    0  0.00000000000E+00  0.00000000000E+00  0.27228408583E+04  0.28634374629E+04  0.88623459914E+03 0.  0.
        3    1    3    3  502    0  0.42222201975E+03 -0.13244767060E+03  0.12864002104E+04  0.13603820533E+04  0.10100000352E+00 0. -1.
       -3    1    3    3    0  502 -0.42222201975E+03  0.13244767060E+03  0.14364406479E+04  0.15030554097E+04  0.10100000352E+00 0.  1.
</event>
<event>
 5   0  0.1559275E-02  0.9129502E+03  0.7818609E-02  0.9409536E-01
        1   -1    0    0  501    0  0.00000000000E+00  0.00000000000E+00  0.37606083769E+03  0.37606083772E+03  0.50400001928E-02 0. -1.
       -1   -1    0    0    0  501  0.00000000000E+00  0.00000000000E+00 -0.55408461125E+03  0.55408461128E+03  0.50400001928E-02 0.  1.
    10030    2    1    2    0    0  0.00000000000E+00  0.00000000000E+00 -0.17802377357E+03  0.93014544900E+03  0.91295021350E+03 0.  0.
        1    1    3    3  502    0  0.75240459124E+02  0.41846049764E+03 -0.25827100850E+03  0.49746781668E+03  0.50400001928E-02 0.  1.
       -1    1    3    3    0  502 -0.75240459124E+02 -0.41846049764E+03  0.80247234933E+02  0.43267763232E+03  0.50400001928E-02 0. -1.
</event>
<event>
 5   0  0.2803717E-02  0.8996401E+03  0.7818609E-02  0.9426031E-01
       -2   -1    0    0    0  501  0.00000000000E+00  0.00000000000E+00  0.10584730077E+03  0.10584730081E+03  0.25500000920E-02 0. -1.
        2   -1    0    0  501    0  0.00000000000E+00  0.00000000000E+00 -0.19116033735E+04  0.19116033736E+04  0.25500000920E-02 0.  1.
    10030    2    1    2    0    0  0.00000000000E+00  0.00000000000E+00 -0.18057560728E+04  0.20174506744E+04  0.89964005530E+03 0.  0.
        5    1    3    3  502    0  0.24985637274E+03 -0.10643371612E+03 -0.17069342992E+04  0.17284105805E+04  0.46999998093E+01 0.  1.
       -5    1    3    3    0  502 -0.24985637274E+03  0.10643371612E+03 -0.98821773547E+02  0.28904009385E+03  0.46999998093E+01 0. -1.
</event>
<event>
 5   0  0.1459111E-02  0.9010570E+03  0.7818609E-02  0.9424261E-01
        1   -1    0    0  501    0  0.00000000000E+00  0.00000000000E+00  0.53267225980E+03  0.53267225982E+03  0.50400001928E-02 0. -1.
       -1   -1    0    0    0  501  0.00000000000E+00  0.00000000000E+00 -0.38105214956E+03  0.38105214960E+03  0.50400001928E-02 0.  1.
    10030    2    1    2    0    0  0.00000000000E+00  0.00000000000E+00  0.15162011024E+03  0.91372440942E+03  0.90105695632E+03 0.  0.
        2    1    3    3  502    0 -0.19384090650E+03  0.40538920685E+03  0.10884414397E+03  0.46234376145E+03  0.25500000920E-02 0. -1.
       -2    1    3    3    0  502  0.19384090650E+03 -0.40538920685E+03  0.42775966266E+02  0.45138064797E+03  0.25500000920E-02 0.  1.
</event>
<event>
 5   0  0.1497410E-02  0.9028433E+03  0.7818609E-02  0.9422034E-01
        1   -1    0    0  501    0  0.00000000000E+00  0.00000000000E+00  0.18015009906E+03  0.18015009913E+03  0.50400001928E-02 0.  1.
       -1   -1    0    0    0  501  0.00000000000E+00  0.00000000000E+00 -0.11311763134E+04  0.11311763134E+04  0.50400001928E-02 0. -1.
    10030    2    1    2    0    0  0.00000000000E+00  0.00000000000E+00 -0.95102621431E+03  0.13113264125E+04  0.90284334182E+03 0.  0.
        3    1    3    3  502    0  0.16372424453E+03  0.42026612331E+03 -0.44825237323E+03  0.63589263477E+03  0.10100000352E+00 0.  1.
       -3    1    3    3    0  502 -0.16372424453E+03 -0.42026612331E+03 -0.50277384108E+03  0.67543377775E+03  0.10100000352E+00 0. -1.
</event>
<event>
 5   0  0.1040163E-02  0.9278124E+03  0.7818609E-02  0.9391467E-01
        3   -1    0    0  501    0  0.00000000000E+00  0.00000000000E+00  0.23061274667E+04  0.23061274690E+04  0.10100000352E+00 0.  1.
       -3   -1    0    0    0  501  0.00000000000E+00  0.00000000000E+00 -0.93320462443E+02  0.93320517099E+02  0.10100000352E+00 0. -1.
    10030    2    1    2    0    0  0.00000000000E+00  0.00000000000E+00  0.22128070043E+04  0.23994479861E+04  0.92781237300E+03 0.  0.
        4    1    3    3  502    0 -0.58071177503E+02  0.41557666803E+03  0.59482503723E+03  0.72793864198E+03  0.12699999809E+01 0. -1.
       -4    1    3    3    0  502  0.58071177503E+02 -0.41557666803E+03  0.16179819671E+04  0.16715093441E+04  0.12699999809E+01 0.  1.
</event>
<event>
 5   0  0.1497410E-02  0.9094366E+03  0.7818609E-02  0.9413862E-01
       -1   -1    0    0    0  501  0.00000000000E+00  0.00000000000E+00  0.27415003192E+03  0.27415003196E+03  0.50400001928E-02 0.  1.
        1   -1    0    0  501    0  0.00000000000E+00  0.00000000000E+00 -0.75421739585E+03  0.75421739587E+03  0.50400001928E-02 0. -1.
    10030    2    1    2    0    0  0.00000000000E+00  0.00000000000E+00 -0.48006736393E+03  0.10283674278E+04  0.90943657982E+03 0.  0.
        3    1    3    3  502    0 -0.20324707853E+03  0.79923883520E+02 -0.69102906604E+03  0.72471951981E+03  0.10100000352E+00 0. -1.
       -3    1    3    3    0  502  0.20324707853E+03 -0.79923883520E+02  0.21096170211E+03  0.30364790802E+03  0.10100000352E+00 0.  1.
</event>
<event>
 5   0  0.2628383E-02  0.8991052E+03  0.7818609E-02  0.9426701E-01
       -2   -1    0    0    0  501  0.00000000000E+00  0.00000000000E+00  0.95894333615E+02  0.95894333648E+02  0.25500000920E-02 0. -1.
        2   -1    0    0  501    0  0.00000000000E+00  0.00000000000E+00 -0.21075023829E+04  0.21075023829E+04  0.25500000920E-02 0.  1.
    10030    2    1    2    0    0  0.00000000000E+00  0.00000000000E+00 -0.20116080493E+04  0.22033967166E+04  0.89910519215E+03 0.  0.
        2    1    3    3  502    0  0.19873629827E+03 -0.17977527039E+03 -0.12124899757E+03  0.29413701486E+03  0.25500000920E-02 0. -1.
       -2    1    3    3    0  502 -0.19873629827E+03  0.17977527039E+03 -0.18903590517E+04  0.19092597017E+04  0.25500000920E-02 0.  1.
</event>
<event>
 5   0  0.2679861E-02  0.8871589E+03  0.7818609E-02  0.9441777E-01
       -2   -1    0    0    0  501  0.00000000000E+00  0.00000000000E+00  0.27894352820E+03  0.27894352821E+03  0.25500000920E-02 0. -1.
        2   -1    0    0  501    0  0.00000000000E+00  0.00000000000E+00 -0.70538549688E+03  0.70538549689E+03  0.25500000920E-02 0.  1.
    10030    2    1    2    0    0  0.00000000000E+00  0.00000000000E+00 -0.42644196868E+03  0.98432902510E+03  0.88715887923E+03 0.  0.
        1    1    3    3  502    0  0.11105931509E+03 -0.25456291619E+03 -0.59697432362E+03  0.65841840258E+03  0.50400001928E-02 0.  1.
       -1    1    3    3    0  502 -0.11105931509E+03  0.25456291619E+03  0.17053235494E+03  0.32591062252E+03  0.50400001928E-02 0. -1.
</event>
<event>
 5   0  0.1560728E-02  0.8911327E+03  0.7818609E-02  0.9436734E-01
        1   -1    0    0  501    0  0.00000000000E+00  0.00000000000E+00  0.39289998635E+03  0.39289998639E+03  0.50400001928E-02 0.  1.
       -1   -1    0    0    0  501  0.00000000000E+00  0.00000000000E+00 -0.50529236763E+03  0.50529236766E+03  0.50400001928E-02 0. -1.
    10030    2    1    2    0    0  0.00000000000E+00  0.00000000000E+00 -0.11239238128E+03  0.89819235404E+03  0.89113268232E+03 0.  0.
        4    1    3    3  502    0  0.24450920300E+03  0.16106159010E+03  0.28232487568E+03  0.40673644351E+03  0.12699999809E+01 0.  1.
       -4    1    3    3    0  502 -0.24450920300E+03 -0.16106159010E+03 -0.39471725696E+03  0.49145591053E+03  0.12699999809E+01 0. -1.
</event>
<event>
 5   0  0.1497410E-02  0.8640278E+03  0.7818609E-02  0.9471700E-01
        1   -1    0    0  501    0  0.00000000000E+00  0.00000000000E+00  0.54390803556E+03  0.54390803558E+03  0.50400001928E-02 0.  1.
       -1   -1    0    0    0  501  0.00000000000E+00  0.00000000000E+00 -0.34313887145E+03  0.34313887149E+03  0.50400001928E-02 0. -1.
    10030    2    1    2    0    0  0.00000000000E+00  0.00000000000E+00  0.20076916411E+03  0.88704690707E+03  0.86402775308E+03 0.  0.
        3    1    3    3  502    0  0.22174547762E+03  0.41128107772E+02  0.47867578518E+03  0.52914373814E+03  0.10100000352E+00 0.  1.
       -3    1    3    3    0  502 -0.22174547762E+03 -0.41128107772E+02 -0.27790662107E+03  0.35790316893E+03  0.10100000352E+00 0. -1.
</event>
<event>
 5   0  0.1559275E-02  0.8946514E+03  0.7818609E-02  0.9432292E-01
        1   -1    0    0  501    0  0.00000000000E+00  0.00000000000E+00  0.10913221475E+04  0.10913221475E+04  0.50400001928E-02 0.  1.
       -1   -1    0    0    0  501  0.00000000000E+00  0.00000000000E+00 -0.18335584258E+03  0.18335584265E+03  0.50400001928E-02 0. -1.
    10030    2    1    2    0    0  0.00000000000E+00  0.00000000000E+00  0.90796630487E+03  0.12746779901E+04  0.89465142246E+03 0.  0.
        1    1    3    3  502    0 -0.18998067307E+03 -0.36999891319E+03  0.68856742565E+03  0.80443579706E+03  0.50400001928E-02 0.  1.
       -1    1    3    3    0  502  0.18998067307E+03  0.36999891319E+03  0.21939887922E+03  0.47024219306E+03  0.50400001928E-02 0. -1.
</event>
<event>
 5   0  0.1459111E-02  0.9122881E+03  0.7818609E-02  0.9410350E-01
       -1   -1    0    0    0  501  0.00000000000E+00  0.00000000000E+00  0.17156421038E+03  0.17156421045E+03  0.50400001928E-02 0. -1.
        1   -1    0    0  501    0  0.00000000000E+00  0.00000000000E+00 -0.12127669659E+04  0.12127669659E+04  0.50400001928E-02 0.  1.
    10030    2    1    2    0    0  0.00000000000E+00  0.00000000000E+00 -0.10412027555E+04  0.13843311763E+04  0.91228812758E+03 0.  0.
        2    1    3    3  502    0  0.72678766247E+02 -0.20606937092E+03 -0.11281802538E+04  0.11491464109E+04  0.25500000920E-02 0.  1.
       -2    1    3    3    0  502 -0.72678766247E+02  0.20606937092E+03  0.86977498249E+02  0.23518476546E+03  0.25500000920E-02 0. -1.
</event>
<event>
 5   0  0.2679861E-02  0.9023504E+03  0.7818609E-02  0.9422648E-01
       -2   -1    0    0    0  501  0.00000000000E+00  0.00000000000E+00  0.34537216830E+03  0.34537216831E+03  0.25500000920E-02 0. -1.
        2   -1    0    0  501    0  0.00000000000E+00  0.00000000000E+00 -0.58939043263E+03  0.58939043263E+03  0.25500000920E-02 0.  1.
    10030    2    1    2    0    0  0.00000000000E+00  0.00000000000E+00 -0.24401826433E+03  0.93476260094E+03  0.90235037917E+03 0.  0.
        1    1    3    3  502    0 -0.42606305013E+03 -0.61189241306E+00  0.31743679646E+02  0.42724437775E+03  0.50400001928E-02 0. -1.
       -1    1    3    3    0  502  0.42606305013E+03  0.61189241306E+00 -0.27576194398E+03  0.50751822319E+03  0.50400001928E-02 0.  1.
</event>
<event>
 5   0  0.2414128E-02  0.8825282E+03  0.7818609E-02  0.9447690E-01
       -2   -1    0    0    0  501  0.00000000000E+00  0.00000000000E+00  0.11206702517E+04  0.11206702517E+04  0.25500000920E-02 0.  1.
        2   -1    0    0  501    0  0.00000000000E+00  0.00000000000E+00 -0.17374779968E+03  0.17374779970E+03  0.25500000920E-02 0. -1.
    10030    2    1    2    0    0  0.00000000000E+00  0.00000000000E+00  0.94692245206E+03  0.12944180514E+04  0.88252816481E+03 0.  0.
        3    1    3    3  502    0  0.49583865842E+02 -0.37181918495E+03  0.13260859748E+03  0.39786067457E+03  0.10100000352E+00 0. -1.
       -3    1    3    3    0  502 -0.49583865842E+02  0.37181918495E+03  0.81431385459E+03  0.89655737687E+03  0.10100000352E+00 0.  1.
</event>
<event>
 5   0  0.1497410E-02  0.8925585E+03  0.7818609E-02  0.9434932E-01
       -1   -1    0    0    0  501  0.00000000000E+00  0.00000000000E+00  0.75393696093E+02  0.75393696262E+02  0.50400001928E-02 0.  1.
        1   -1    0    0  501    0  0.00000000000E+00  0.00000000000E+00 -0.26416686143E+04  0.26416686143E+04  0.50400001928E-02 0. -1.
    10030    2    1    2    0    0  0.00000000000E+00  0.00000000000E+00 -0.25662749182E+04  0.27170623106E+04  0.89255848195E+03 0.  0.
        3    1    3    3  502    0  0.35391778199E+03  0.26534169309E+03 -0.11030150823E+04  0.11884049362E+04  0.10100000352E+00 0.  1.
       -3    1    3    3    0  502 -0.35391778199E+03 -0.26534169309E+03 -0.14632598360E+04  0.15286573744E+04  0.10100000352E+00 0. -1.
</event>
<event>
 5   0  0.2705111E-02  0.9062897E+03  0.7818609E-02  0.9417753E-01
        2   -1    0    0  501    0  0.00000000000E+00  0.00000000000E+00  0.24840493735E+03  0.24840493736E+03  0.25500000920E-02 0.  1.
       -2   -1    0    0    0  501  0.00000000000E+00  0.00000000000E+00 -0.82663509569E+03  0.82663509569E+03  0.25500000920E-02 0. -1.
    10030    2    1    2    0    0  0.00000000000E+00  0.00000000000E+00 -0.57823015834E+03  0.10750400331E+04  0.90628966487E+03 0.  0.
        4    1    3    3  502    0  0.21621827707E+03 -0.29433618985E+03  0.29074945397E+02  0.36637562875E+03  0.12699999809E+01 0.  1.
       -4    1    3    3    0  502 -0.21621827707E+03  0.29433618985E+03 -0.60730510374E+03  0.70866440430E+03  0.12699999809E+01 0. -1.
</event>
<event>
 5   0  0.1497410E-02  0.9486409E+03  0.7818609E-02  0.9366741E-01
       -1   -1    0    0    0  501  0.00000000000E+00  0.00000000000E+00  0.10244773973E+04  0.10244773973E+04  0.50400001928E-02 0. -1.
        1   -1    0    0  501    0  0.00000000000E+00  0.00000000000E+00 -0.21960455904E+03  0.21960455910E+03  0.50400001928E-02 0.  1.
    10030    2    1    2    0    0  0.00000000000E+00  0.00000000000E+00  0.80487283826E+03  0.12440819564E+04  0.94864093760E+03 0.  0.
        3    1    3    3  502    0 -0.64285807139E+02 -0.77949668921E+02 -0.20532766335E+03  0.22884115762E+03  0.10100000352E+00 0.  1.
       -3    1    3    3    0  502  0.64285807139E+02  0.77949668921E+02  0.10102005016E+04  0.10152407988E+04  0.10100000352E+00 0. -1.
</event>
<event>
 5   0  0.1497410E-02  0.8561620E+03  0.7818609E-02  0.9482104E-01
        1   -1    0    0  501    0  0.00000000000E+00  0.00000000000E+00  0.21203334987E+03  0.21203334993E+03  0.50400001928E-02 0. -1.
       -1   -1    0    0    0  501  0.00000000000E+00  0.00000000000E+00 -0.86426669971E+03  0.86426669973E+03  0.50400001928E-02 0.  1.
    10030    2    1    2    0    0  0.00000000000E+00  0.00000000000E+00 -0.65223334984E+03  0.10763000497E+04  0.85616204907E+03 0.  0.
        3    1    3    3  502    0  0.51914905401E+02  0.30683743382E+03 -0.69565274814E+03  0.76208734695E+03  0.10100000352E+00 0.  1.
       -3    1    3    3    0  502 -0.51914905401E+02 -0.30683743382E+03  0.43419398300E+02  0.31421270271E+03  0.10100000352E+00 0. -1.
</event>
<event>
 5   0  0.2414128E-02  0.8902403E+03  0.7818609E-02  0.9437864E-01
        2   -1    0    0  501    0  0.00000000000E+00  0.00000000000E+00  0.12961256010E+04  0.12961256010E+04  0.25500000920E-02 0.  1.
       -2   -1    0    0    0  501  0.00000000000E+00  0.00000000000E+00 -0.15286477602E+03  0.15286477604E+03  0.25500000920E-02 0. -1.
    10030    2    1    2    0    0  0.00000000000E+00  0.00000000000E+00  0.11432608250E+04  0.14489903771E+04  0.89024030400E+03 0.  0.
        3    1    3    3  502    0 -0.12641591552E+03  0.12651633054E+03 -0.91809095279E+02  0.20103802070E+03  0.10100000352E+00 0. -1.
       -3    1    3    3    0  502  0.12641591552E+03 -0.12651633054E+03  0.12350699203E+04  0.12479523564E+04  0.10100000352E+00 0.  1.
</event>
<event>
 5   0  0.1560728E-02  0.8927033E+03  0.7818609E-02  0.9434749E-01
       -1   -1    0    0    0  501  0.00000000000E+00  0.00000000000E+00  0.30113122969E+03  0.30113122974E+03  0.50400001928E-02 0.  1.
        1   -1    0    0  501    0  0.00000000000E+00  0.00000000000E+00 -0.66160458203E+03  0.66160458205E+03  0.50400001928E-02 0. -1.
    10030    2    1    2    0    0  0.00000000000E+00  0.00000000000E+00 -0.36047335234E+03  0.96273581179E+03  0.89270331328E+03 0.  0.
        4    1    3    3  502    0 -0.36580388148E+03 -0.31459483611E+02  0.93498491990E+02  0.37887433236E+03  0.12699999809E+01 0.  1.
       -4    1    3    3    0  502  0.36580388148E+03  0.31459483611E+02 -0.45397184433E+03  0.58386147943E+03  0.12699999809E+01 0. -1.
</event>
<event>
 5   0  0.1497410E-02  0.9478923E+03  0.7818609E-02  0.9367618E-01
        1   -1    0    0  501    0  0.00000000000E+00  0.00000000000E+00  0.71815783061E+03  0.71815783062E+03  0.50400001928E-02 0.  1.
       -1   -1    0    0    0  501  0.00000000000E+00  0.00000000000E+00 -0.31277937705E+03  0.31277937709E+03  0.50400001928E-02 0. -1.
    10030    2    1    2    0    0  0.00000000000E+00  0.00000000000E+00  0.40537845355E+03  0.10309372077E+04  0.94789231226E+03 0.  0.
        3    1    3    3  502    0 -0.94696089235E+02 -0.33581511373E+03  0.55154904572E+03  0.65264500301E+03  0.10100000352E+00 0.  1.
       -3    1    3    3    0  502  0.94696089235E+02  0.33581511373E+03 -0.14617059216E+03  0.37829220470E+03  0.10100000352E+00 0. -1.
</event>
<event>
 5   0  0.2628383E-02  0.8961660E+03  0.7818609E-02  0.9430387E-01
        2   -1    0    0  501    0  0.00000000000E+00  0.00000000000E+00  0.10099643577E+04  0.10099643577E+04  0.25500000920E-02 0.  1.
       -2   -1    0    0    0  501  0.00000000000E+00  0.00000000000E+00 -0.19879750758E+03  0.19879750760E+03  0.25500000920E-02 0. -1.
    10030    2    1    2    0    0  0.00000000000E+00  0.00000000000E+00  0.81116685012E+03  0.12087618653E+04  0.89616604951E+03 0.  0.
        2    1    3    3  502    0  0.67693687118E+02 -0.43990275928E+03  0.33573717076E+03  0.55750903198E+03  0.25500000920E-02 0. -1.
       -2    1    3    3    0  502 -0.67693687118E+02  0.43990275928E+03  0.47542967936E+03  0.65125283333E+03  0.25500000920E-02 0.  1.
</event>
<event>
 5   0  0.1560728E-02  0.5115545E+03  0.7818609E-02  0.1010806E+00
        1   -1    0    0  501    0  0.00000000000E+00  0.00000000000E+00  0.91508424612E+03  0.91508424613E+03  0.50400001928E-02 0.  1.
       -1   -1    0    0    0  501  0.00000000000E+00  0.00000000000E+00 -0.71492882471E+02  0.71492882648E+02  0.50400001928E-02 0. -1.
    10030    2    1    2    0    0  0.00000000000E+00  0.00000000000E+00  0.84359136364E+03  0.98657712878E+03  0.51155453493E+03 0.  0.
        4    1    3    3  502    0 -0.48732675815E+02 -0.17333969691E+03  0.71456540651E+02  0.19372448043E+03  0.12699999809E+01 0. -1.
       -4    1    3    3    0  502  0.48732675815E+02  0.17333969691E+03  0.77213482299E+03  0.79285264835E+03  0.12699999809E+01 0.  1.
</event>
<event>
 5   0  0.2679861E-02  0.8718181E+03  0.7818609E-02  0.9461512E-01
        2   -1    0    0  501    0  0.00000000000E+00  0.00000000000E+00  0.19697646680E+04  0.19697646680E+04  0.25500000920E-02 0. -1.
       -2   -1    0    0    0  501  0.00000000000E+00  0.00000000000E+00 -0.96466708433E+02  0.96466708466E+02  0.25500000920E-02 0.  1.
    10030    2    1    2    0    0  0.00000000000E+00  0.00000000000E+00  0.18732979596E+04  0.20662313765E+04  0.87181813229E+03 0.  0.
        1    1    3    3  502    0  0.13677382973E+02 -0.19603952092E+03  0.14473993174E+02  0.19704837242E+03  0.50400001928E-02 0.  1.
       -1    1    3    3    0  502 -0.13677382973E+02  0.19603952092E+03  0.18588239664E+04  0.18691830041E+04  0.50400001928E-02 0. -1.
</event>
<event>
 5   0  0.1040163E-02  0.8865655E+03  0.7818609E-02  0.9442533E-01
       -4   -1    0    0    0  501  0.00000000000E+00  0.00000000000E+00  0.60603769936E+03  0.60603903005E+03  0.12699999809E+01 0.  1.
        4   -1    0    0  501    0  0.00000000000E+00  0.00000000000E+00 -0.32423366956E+03  0.32423615680E+03  0.12699999809E+01 0. -1.
    10030    2    1    2    0    0  0.00000000000E+00  0.00000000000E+00  0.28180402981E+03  0.93027518685E+03  0.88656551481E+03 0.  0.
        3    1    3    3  502    0 -0.18979262323E+03 -0.22681954161E+03 -0.20557632950E+03  0.36018048495E+03  0.10100000352E+00 0. -1.
       -3    1    3    3    0  502  0.18979262323E+03  0.22681954161E+03  0.48738035931E+03  0.57009470190E+03  0.10100000352E+00 0.  1.
</event>
<event>
 5   0  0.1560728E-02  0.8976166E+03  0.7818609E-02  0.9428566E-01
       -1   -1    0    0    0  501  0.00000000000E+00  0.00000000000E+00  0.41554058842E+03  0.41554058845E+03  0.50400001928E-02 0.  1.
        1   -1    0    0  501    0  0.00000000000E+00  0.00000000000E+00 -0.48473935386E+03  0.48473935389E+03  0.50400001928E-02 0. -1.
    10030    2    1    2    0    0  0.00000000000E+00  0.00000000000E+00 -0.69198765443E+02  0.90027994234E+03  0.89761656928E+03 0.  0.
        4    1    3    3  502    0 -0.19940419822E+03  0.33492286823E+03  0.18852846888E+03  0.43298955924E+03  0.12699999809E+01 0.  1.
       -4    1    3    3    0  502  0.19940419822E+03 -0.33492286823E+03 -0.25772723432E+03  0.46729038311E+03  0.12699999809E+01 0. -1.
</event>
<event>
 5   0  0.2414128E-02  0.9041869E+03  0.7818609E-02  0.9420363E-01
        2   -1    0    0  501    0  0.00000000000E+00  0.00000000000E+00  0.95391768684E+03  0.95391768684E+03  0.25500000920E-02 0. -1.
       -2   -1    0    0    0  501  0.00000000000E+00  0.00000000000E+00 -0.21426218596E+03  0.21426218598E+03  0.25500000920E-02 0.  1.
    10030    2    1    2    0    0  0.00000000000E+00  0.00000000000E+00  0.73965550087E+03  0.11681798728E+04  0.90418690284E+03 0.  0.
        3    1    3    3  502    0  0.37389889885E+03  0.19282755929E+03  0.58370833295E+03  0.71951253105E+03  0.10100000352E+00 0.  1.
       -3    1    3    3    0  502 -0.37389889885E+03 -0.19282755929E+03  0.15594716793E+03  0.44866734177E+03  0.10100000352E+00 0. -1.
</event>
<event>
 5   0  0.1497410E-02  0.8896448E+03  0.7818609E-02  0.9438619E-01
       -1   -1    0    0    0  501  0.00000000000E+00  0.00000000000E+00  0.59060858757E+03  0.59060858759E+03  0.50400001928E-02 0. -1.
        1   -1    0    0  501    0  0.00000000000E+00  0.00000000000E+00 -0.33502217412E+03  0.33502217415E+03  0.50400001928E-02 0.  1.
    10030    2    1    2    0    0  0.00000000000E+00  0.00000000000E+00  0.25558641345E+03  0.92563076174E+03  0.88964481246E+03 0.  0.
        3    1    3    3  502    0 -0.99351104817E+02 -0.15870753112E+03 -0.29202311560E+03  0.34689513214E+03  0.10100000352E+00 0.  1.
       -3    1    3    3    0  502  0.99351104817E+02  0.15870753112E+03  0.54760952905E+03  0.57873562960E+03  0.10100000352E+00 0. -1.
</event>
<event>
 5   0  0.2628383E-02  0.8938691E+03  0.7818609E-02  0.9433278E-01
       -2   -1    0    0    0  501  0.00000000000E+00  0.00000000000E+00  0.33407262544E+03  0.33407262545E+03  0.25500000920E-02 0.  1.
        2   -1    0    0  501    0  0.00000000000E+00  0.00000000000E+00 -0.59792534509E+03  0.59792534509E+03  0.25500000920E-02 0. -1.
    10030    2    1    2    0    0  0.00000000000E+00  0.00000000000E+00 -0.26385271964E+03  0.93199797054E+03  0.89386909524E+03 0.  0.
        2    1    3    3  502    0 -0.91153224525E+02 -0.40294250275E+03  0.45872991955E+02  0.41566320773E+03  0.25500000920E-02 0.  1.
       -2    1    3    3    0  502  0.91153224525E+02  0.40294250275E+03 -0.30972571160E+03  0.51633476282E+03  0.25500000920E-02 0. -1.
</event>
<event>
 5   0  0.2414128E-02  0.9166247E+03  0.7818609E-02  0.9405035E-01
        2   -1    0    0  501    0  0.00000000000E+00  0.00000000000E+00  0.71661446089E+03  0.71661446089E+03  0.25500000920E-02 0.  1.
       -2   -1    0    0    0  501  0.00000000000E+00  0.00000000000E+00 -0.29311464047E+03  0.29311464048E+03  0.25500000920E-02 0. -1.
    10030    2    1    2    0    0  0.00000000000E+00  0.00000000000E+00  0.42349982042E+03  0.10097291014E+04  0.91662465615E+03 0.  0.
        3    1    3    3  502    0  0.80444178760E+02  0.41619992272E+03  0.40367840653E+03  0.58536305629E+03  0.10100000352E+00 0.  1.
       -3    1    3    3    0  502 -0.80444178760E+02 -0.41619992272E+03  0.19821413884E+02  0.42436604508E+03  0.10100000352E+00 0. -1.
</event>
<event>
 5   0  0.2628383E-02  0.8431289E+03  0.7818609E-02  0.9499606E-01
        2   -1    0    0  501    0  0.00000000000E+00  0.00000000000E+00  0.92628171662E+03  0.92628171662E+03  0.25500000920E-02 0. -1.
       -2   -1    0    0    0  501  0.00000000000E+00  0.00000000000E+00 -0.19186018694E+03  0.19186018695E+03  0.25500000920E-02 0.  1.
    10030    2    1    2    0    0  0.00000000000E+00  0.00000000000E+00  0.73442152968E+03  0.11181419036E+04  0.84312889482E+03 0.  0.
        2    1    3    3  502    0  0.35710805137E+01 -0.35525365359E+03  0.66256178209E+02  0.36139700077E+03  0.25500000920E-02 0.  1.
       -2    1    3    3    0  502 -0.35710805137E+01  0.35525365359E+03  0.66816535147E+03  0.75674490281E+03  0.25500000920E-02 0. -1.
</event>
<event>
 5   0  0.2628383E-02  0.8993304E+03  0.7818609E-02  0.9426419E-01
        2   -1    0    0  501    0  0.00000000000E+00  0.00000000000E+00  0.14205269540E+04  0.14205269540E+04  0.25500000920E-02 0. -1.
       -2   -1    0    0    0  501  0.00000000000E+00  0.00000000000E+00 -0.14234069650E+03  0.14234069653E+03  0.25500000920E-02 0.  1.
    10030    2    1    2    0    0  0.00000000000E+00  0.00000000000E+00  0.12781862575E+04  0.15628676505E+04  0.89933040881E+03 0.  0.
        2    1    3    3  502    0 -0.16214267075E+03 -0.51046971723E+02  0.13625383621E+04  0.13731011715E+04  0.25500000920E-02 0. -1.
       -2    1    3    3    0  502  0.16214267075E+03  0.51046971723E+02 -0.84352104605E+02  0.18976647902E+03  0.25500000920E-02 0.  1.
</event>
<event>
 5   0  0.1537870E-02  0.9320071E+03  0.7818609E-02  0.9386432E-01
       -1   -1    0    0    0  501  0.00000000000E+00  0.00000000000E+00  0.40002158906E+03  0.40002158910E+03  0.50400001928E-02 0.  1.
        1   -1    0    0  501    0  0.00000000000E+00  0.00000000000E+00 -0.54286902210E+03  0.54286902213E+03  0.50400001928E-02 0. -1.
    10030    2    1    2    0    0  0.00000000000E+00  0.00000000000E+00 -0.14284743304E+03  0.94289061122E+03  0.93200714354E+03 0.  0.
        5    1    3    3  502    0  0.80686420587E+02  0.36871102315E+03  0.20504224678E+03  0.42956085718E+03  0.46999998093E+01 0.  1.
       -5    1    3    3    0  502 -0.80686420587E+02 -0.36871102315E+03 -0.34788967983E+03  0.51332975404E+03  0.46999998093E+01 0. -1.
</event>
<event>
 5   0  0.1560728E-02  0.8935193E+03  0.7818609E-02  0.9433719E-01
       -1   -1    0    0    0  501  0.00000000000E+00  0.00000000000E+00  0.39552204807E+03  0.39552204810E+03  0.50400001928E-02 0.  1.
        1   -1    0    0  501    0  0.00000000000E+00  0.00000000000E+00 -0.50463482034E+03  0.50463482037E+03  0.50400001928E-02 0. -1.
    10030    2    1    2    0    0  0.00000000000E+00  0.00000000000E+00 -0.10911277227E+03  0.90015686847E+03  0.89351932871E+03 0.  0.
        4    1    3    3  502    0  0.34580430940E+03  0.35645876701E+02  0.22813699304E+03  0.41581167542E+03  0.12699999809E+01 0.  1.
       -4    1    3    3    0  502 -0.34580430940E+03 -0.35645876701E+02 -0.33724976531E+03  0.48434519305E+03  0.12699999809E+01 0. -1.
</event>
<event>
 5   0  0.2628383E-02  0.8952983E+03  0.7818609E-02  0.9431478E-01
        2   -1    0    0  501    0  0.00000000000E+00  0.00000000000E+00  0.94890125265E+03  0.94890125266E+03  0.25500000920E-02 0.  1.
       -2   -1    0    0    0  501  0.00000000000E+00  0.00000000000E+00 -0.21118085288E+03  0.21118085289E+03  0.25500000920E-02 0. -1.
    10030    2    1    2    0    0  0.00000000000E+00  0.00000000000E+00  0.73772039977E+03  0.11600821055E+04  0.89529833205E+03 0.  0.
        2    1    3    3  502    0  0.24413383323E+02  0.44279766956E+02 -0.20746869228E+03  0.21354149322E+03  0.25500000920E-02 0. -1.
       -2    1    3    3    0  502 -0.24413383323E+02 -0.44279766956E+02  0.94518909205E+03  0.94654061233E+03  0.25500000920E-02 0.  1.
</event>
<event>
 5   0  0.2628383E-02  0.9219067E+03  0.7818609E-02  0.9398604E-01
       -2   -1    0    0    0  501  0.00000000000E+00  0.00000000000E+00  0.12768727599E+03  0.12768727601E+03  0.25500000920E-02 0.  1.
        2   -1    0    0  501    0  0.00000000000E+00  0.00000000000E+00 -0.16640498739E+04  0.16640498739E+04  0.25500000920E-02 0. -1.
    10030    2    1    2    0    0  0.00000000000E+00  0.00000000000E+00 -0.15363625979E+04  0.17917371499E+04  0.92190671010E+03 0.  0.
        2    1    3    3  502    0  0.34980692992E+02 -0.17632547437E+03 -0.15931185914E+04  0.16032283581E+04  0.25500000920E-02 0. -1.
       -2    1    3    3    0  502 -0.34980692992E+02  0.17632547437E+03  0.56755993517E+02  0.18850879184E+03  0.25500000920E-02 0.  1.
</event>
<event>
 5   0  0.1537870E-02  0.7758201E+03  0.7818609E-02  0.9595691E-01
       -1   -1    0    0    0  501  0.00000000000E+00  0.00000000000E+00  0.26582762409E+03  0.26582762414E+03  0.50400001928E-02 0.  1.
        1   -1    0    0  501    0  0.00000000000E+00  0.00000000000E+00 -0.56605931637E+03  0.56605931640E+03  0.50400001928E-02 0. -1.
    10030    2    1    2    0    0  0.00000000000E+00  0.00000000000E+00 -0.30023169228E+03  0.83188694054E+03  0.77582009048E+03 0.  0.
        5    1    3    3  502    0 -0.11043485307E+03  0.14089299474E+03 -0.51908416453E+03  0.54910577542E+03  0.46999998093E+01 0. -1.
       -5    1    3    3    0  502  0.11043485307E+03 -0.14089299474E+03  0.21885247225E+03  0.28278116512E+03  0.46999998093E+01 0.  1.
</event>
<event>
 5   0  0.2414128E-02  0.8874098E+03  0.7818609E-02  0.9441458E-01
        2   -1    0    0  501    0  0.00000000000E+00  0.00000000000E+00  0.14298793817E+04  0.14298793817E+04  0.25500000920E-02 0.  1.
       -2   -1    0    0    0  501  0.00000000000E+00  0.00000000000E+00 -0.13768575526E+03  0.13768575529E+03  0.25500000920E-02 0. -1.
    10030    2    1    2    0    0  0.00000000000E+00  0.00000000000E+00  0.12921936264E+04  0.15675651370E+04  0.88740976470E+03 0.  0.
        3    1    3    3  502    0  0.13422338059E+03 -0.24609226798E+02  0.13918913305E+04  0.13985646271E+04  0.10100000352E+00 0.  1.
       -3    1    3    3    0  502 -0.13422338059E+03  0.24609226798E+02 -0.99697704097E+02  0.16900050989E+03  0.10100000352E+00 0. -1.
</event>
<event>
 5   0  0.1040163E-02  0.8955809E+03  0.7818609E-02  0.9431122E-01
       -4   -1    0    0    0  501  0.00000000000E+00  0.00000000000E+00  0.22725174735E+03  0.22725529603E+03  0.12699999809E+01 0.  1.
        4   -1    0    0  501    0  0.00000000000E+00  0.00000000000E+00 -0.88234221080E+03  0.88234312478E+03  0.12699999809E+01 0. -1.
    10030    2    1    2    0    0  0.00000000000E+00  0.00000000000E+00 -0.65509046344E+03  0.11095984208E+04  0.89558089539E+03 0.  0.
        4    1    3    3  502    0 -0.38748074867E+03 -0.11045526717E+02 -0.60528292479E+03  0.71877142833E+03  0.12699999809E+01 0. -1.
       -4    1    3    3    0  502  0.38748074867E+03  0.11045526717E+02 -0.49807538658E+02  0.39082699249E+03  0.12699999809E+01 0.  1.
</event>
<event>
 5   0  0.1560728E-02  0.6703849E+03  0.7818609E-02  0.9769263E-01
        1   -1    0    0  501    0  0.00000000000E+00  0.00000000000E+00  0.16129811031E+04  0.16129811031E+04  0.50400001928E-02 0.  1.
       -1   -1    0    0    0  501  0.00000000000E+00  0.00000000000E+00 -0.69656099561E+02  0.69656099743E+02  0.50400001928E-02 0. -1.
    10030    2    1    2    0    0  0.00000000000E+00  0.00000000000E+00  0.15433250036E+04  0.16826372029E+04  0.67038488190E+03 0.  0.
        4    1    3    3  502    0  0.10226772346E+03  0.20964576744E+03  0.16748544098E+03  0.28716375278E+03  0.12699999809E+01 0. -1.
       -4    1    3    3    0  502 -0.10226772346E+03 -0.20964576744E+03  0.13758395626E+04  0.13954734501E+04  0.12699999809E+01 0.  1.
</event>
<event>
 5   0  0.2628383E-02  0.8342860E+03  0.7818609E-02  0.9511674E-01
        2   -1    0    0  501    0  0.00000000000E+00  0.00000000000E+00  0.86222509390E+03  0.86222509390E+03  0.25500000920E-02 0. -1.
       -2   -1    0    0    0  501  0.00000000000E+00  0.00000000000E+00 -0.20181307812E+03  0.20181307813E+03  0.25500000920E-02 0.  1.
    10030    2    1    2    0    0  0.00000000000E+00  0.00000000000E+00  0.66041201578E+03  0.10640381720E+04  0.83428604265E+03 0.  0.
        2    1    3    3  502    0  0.17296588630E+03 -0.23213418599E+02  0.81342858437E+03  0.83193877329E+03  0.25500000920E-02 0. -1.
       -2    1    3    3    0  502 -0.17296588630E+03  0.23213418599E+02 -0.15301656859E+03  0.23209939874E+03  0.25500000920E-02 0.  1.
</event>
<event>
 5   0  0.2414128E-02  0.9604861E+03  0.7818609E-02  0.9352977E-01
        2   -1    0    0  501    0  0.00000000000E+00  0.00000000000E+00  0.61562130619E+03  0.61562130620E+03  0.25500000920E-02 0.  1.
       -2   -1    0    0    0  501  0.00000000000E+00  0.00000000000E+00 -0.37463517995E+03  0.37463517996E+03  0.25500000920E-02 0. -1.
    10030    2    1    2    0    0  0.00000000000E+00  0.00000000000E+00  0.24098612624E+03  0.99025648615E+03  0.96048612449E+03 0.  0.
        3    1    3    3  502    0 -0.18689132473E+02  0.39364273049E+02  0.61357886048E+03  0.61512426216E+03  0.10100000352E+00 0.  1.
       -3    1    3    3    0  502  0.18689132473E+02 -0.39364273049E+02 -0.37259273424E+03  0.37513222399E+03  0.10100000352E+00 0. -1.
</event>
<event>
 5   0  0.1040163E-02  0.8901965E+03  0.7818609E-02  0.9437920E-01
       -4   -1    0    0    0  501  0.00000000000E+00  0.00000000000E+00  0.54636583519E+03  0.54636731121E+03  0.12699999809E+01 0.  1.
        4   -1    0    0  501    0  0.00000000000E+00  0.00000000000E+00 -0.36259727064E+03  0.36259949472E+03  0.12699999809E+01 0. -1.
    10030    2    1    2    0    0  0.00000000000E+00  0.00000000000E+00  0.18376856455E+03  0.90896680593E+03  0.89019647774E+03 0.  0.
        4    1    3    3  502    0 -0.37035654322E+02 -0.16394423546E+03  0.51271710064E+03  0.53956444492E+03  0.12699999809E+01 0.  1.
       -4    1    3    3    0  502  0.37035654322E+02  0.16394423546E+03 -0.32894853609E+03  0.36940236102E+03  0.12699999809E+01 0. -1.
</event>
<event>
 5   0  0.1537870E-02  0.9044559E+03  0.7818609E-02  0.9420028E-01
        1   -1    0    0  501    0  0.00000000000E+00  0.00000000000E+00  0.68656350458E+03  0.68656350460E+03  0.50400001928E-02 0. -1.
       -1   -1    0    0    0  501  0.00000000000E+00  0.00000000000E+00 -0.29787504400E+03  0.29787504405E+03  0.50400001928E-02 0.  1.
    10030    2    1    2    0    0  0.00000000000E+00  0.00000000000E+00  0.38868846058E+03  0.98443854865E+03  0.90445593407E+03 0.  0.
        5    1    3    3  502    0  0.36026387770E+03 -0.15106242413E+02  0.49136802770E+03  0.60949396123E+03  0.46999998093E+01 0. -1.
       -5    1    3    3    0  502 -0.36026387770E+03  0.15106242413E+02 -0.10267956712E+03  0.37494458742E+03  0.46999998093E+01 0.  1.
</event>
<event>
 5   0  0.2705111E-02  0.6781245E+03  0.7818609E-02  0.9755391E-01
        2   -1    0    0  501    0  0.00000000000E+00  0.00000000000E+00  0.10287038486E+04  0.10287038486E+04  0.25500000920E-02 0. -1.
       -2   -1    0    0    0  501  0.00000000000E+00  0.00000000000E+00 -0.11175541209E+03  0.11175541212E+03  0.25500000920E-02 0.  1.
    10030    2    1    2    0    0  0.00000000000E+00  0.00000000000E+00  0.91694843653E+03  0.11404592607E+04  0.67812453882E+03 0.  0.
        4    1    3    3  502    0 -0.33798806439E+03 -0.17134376247E+02  0.49343313655E+03  0.59833718894E+03  0.12699999809E+01 0.  1.
       -4    1    3    3    0  502  0.33798806439E+03  0.17134376247E+02  0.42351529998E+03  0.54212207180E+03  0.12699999809E+01 0. -1.
</event>
<event>
 5   0  0.1497410E-02  0.8816104E+03  0.7818609E-02  0.9448866E-01
        1   -1    0    0  501    0  0.00000000000E+00  0.00000000000E+00  0.78977664433E+03  0.78977664435E+03  0.50400001928E-02 0. -1.
       -1   -1    0    0    0  501  0.00000000000E+00  0.00000000000E+00 -0.24603059647E+03  0.24603059652E+03  0.50400001928E-02 0.  1.
    10030    2    1    2    0    0  0.00000000000E+00  0.00000000000E+00  0.54374604786E+03  0.10358072409E+04  0.88161038769E+03 0.  0.
        3    1    3    3  502    0  0.43618375747E+03 -0.59351311297E+02  0.29893052867E+03  0.53210743239E+03  0.10100000352E+00 0.  1.
       -3    1    3    3    0  502 -0.43618375747E+03  0.59351311297E+02  0.24481551919E+03  0.50369980848E+03  0.10100000352E+00 0. -1.
</event>
<event>
 5   0  0.1459111E-02  0.8864304E+03  0.7818609E-02  0.9442705E-01
        1   -1    0    0  501    0  0.00000000000E+00  0.00000000000E+00  0.53597675415E+03  0.53597675417E+03  0.50400001928E-02 0. -1.
       -1   -1    0    0    0  501  0.00000000000E+00  0.00000000000E+00 -0.36650792972E+03  0.36650792975E+03  0.50400001928E-02 0.  1.
    10030    2    1    2    0    0  0.00000000000E+00  0.00000000000E+00  0.16946882443E+03  0.90248468392E+03  0.88643043848E+03 0.  0.
        2    1    3    3  502    0 -0.76633887924E+02  0.14074402713E+03 -0.33597849128E+03  0.37224075618E+03  0.25500000920E-02 0.  1.
       -2    1    3    3    0  502  0.76633887924E+02 -0.14074402713E+03  0.50544731571E+03  0.53024392775E+03  0.25500000920E-02 0. -1.
</event>
<event>
 5   0  0.2628383E-02  0.9069038E+03  0.7818609E-02  0.9416992E-01
        2   -1    0    0  501    0  0.00000000000E+00  0.00000000000E+00  0.59646869842E+03  0.59646869842E+03  0.25500000920E-02 0. -1.
       -2   -1    0    0    0  501  0.00000000000E+00  0.00000000000E+00 -0.34472663231E+03  0.34472663232E+03  0.25500000920E-02 0.  1.
    10030    2    1    2    0    0  0.00000000000E+00  0.00000000000E+00  0.25174206611E+03  0.94119533074E+03  0.90690384427E+03 0.  0.
        2    1    3    3  502    0 -0.32523516977E+03 -0.27496151292E+03 -0.35697590362E+02  0.42738281108E+03  0.25500000920E-02 0.  1.
       -2    1    3    3    0  502  0.32523516977E+03  0.27496151292E+03  0.28743965647E+03  0.51381251966E+03  0.25500000920E-02 0. -1.
</event>
<event>
 5   0  0.2414128E-02  0.9113494E+03  0.7818609E-02  0.9411504E-01
        2   -1    0    0  501    0  0.00000000000E+00  0.00000000000E+00  0.11404579234E+04  0.11404579234E+04  0.25500000920E-02 0.  1.
       -2   -1    0    0    0  501  0.00000000000E+00  0.00000000000E+00 -0.18206673779E+03  0.18206673781E+03  0.25500000920E-02 0. -1.
    10030    2    1    2    0    0  0.00000000000E+00  0.00000000000E+00  0.95839118564E+03  0.13225246612E+04  0.91134944718E+03 0.  0.
        3    1    3    3  502    0  0.68811421739E+02 -0.65333998960E+02 -0.16757120382E+03  0.19257118615E+03  0.10100000352E+00 0. -1.
       -3    1    3    3    0  502 -0.68811421739E+02  0.65333998960E+02  0.11259623895E+04  0.11299534751E+04  0.10100000352E+00 0.  1.
</event>
<event>
 5   0  0.1560728E-02  0.1041138E+04  0.7818609E-02  0.9264541E-01
       -1   -1    0    0    0  501  0.00000000000E+00  0.00000000000E+00  0.10361000599E+04  0.10361000599E+04  0.50400001928E-02 0. -1.
        1   -1    0    0  501    0  0.00000000000E+00  0.00000000000E+00 -0.26155030583E+03  0.26155030588E+03  0.50400001928E-02 0.  1.
    10030    2    1    2    0    0  0.00000000000E+00  0.00000000000E+00  0.77454975403E+03  0.12976503658E+04  0.10411383915E+04 0.  0.
        4    1    3    3  502    0 -0.48041264391E+03 -0.29331405578E+02  0.63446634782E+03  0.79637039071E+03  0.12699999809E+01 0. -1.
       -4    1    3    3    0  502  0.48041264391E+03  0.29331405578E+02  0.14008340621E+03  0.50127997504E+03  0.12699999809E+01 0.  1.
</event>
<event>
 5   0  0.2414128E-02  0.9485912E+03  0.7818609E-02  0.9366799E-01
        2   -1    0    0  501    0  0.00000000000E+00  0.00000000000E+00  0.10207453740E+04  0.10207453740E+04  0.25500000920E-02 0.  1.
       -2   -1    0    0    0  501  0.00000000000E+00  0.00000000000E+00 -0.22038435692E+03  0.22038435694E+03  0.25500000920E-02 0. -1.
    10030    2    1    2    0    0  0.00000000000E+00  0.00000000000E+00  0.80036101707E+03  0.12411297309E+04  0.94859119296E+03 0.  0.
        3    1    3    3  502    0  0.36017904884E+02 -0.38285292225E+03  0.36921479294E+02  0.38631186285E+03  0.10100000352E+00 0. -1.
       -3    1    3    3    0  502 -0.36017904884E+02  0.38285292225E+03  0.76343953778E+03  0.85481786808E+03  0.10100000352E+00 0.  1.
</event>
<event>
 5   0  0.1040163E-02  0.8769828E+03  0.7818609E-02  0.9454820E-01
       -3   -1    0    0    0  501  0.00000000000E+00  0.00000000000E+00  0.85978430509E+03  0.85978431102E+03  0.10100000352E+00 0.  1.
        3   -1    0    0  501    0  0.00000000000E+00  0.00000000000E+00 -0.22363132124E+03  0.22363134405E+03  0.10100000352E+00 0. -1.
    10030    2    1    2    0    0  0.00000000000E+00  0.00000000000E+00  0.63615298385E+03  0.10834156551E+04  0.87698281784E+03 0.  0.
        1    1    3    3  502    0 -0.29797750467E+03 -0.85605252835E+02 -0.65005650245E+02  0.31677213765E+03  0.50400001928E-02 0. -1.
       -1    1    3    3    0  502  0.29797750467E+03  0.85605252835E+02  0.70115863409E+03  0.76664351741E+03  0.50400001928E-02 0.  1.
</event>
<event>
 5   0  0.1559275E-02  0.8963366E+03  0.7818609E-02  0.9430172E-01
        1   -1    0    0  501    0  0.00000000000E+00  0.00000000000E+00  0.11791549715E+04  0.11791549715E+04  0.50400001928E-02 0.  1.
       -1   -1    0    0    0  501  0.00000000000E+00  0.00000000000E+00 -0.17033794833E+03  0.17033794841E+03  0.50400001928E-02 0. -1.
    10030    2    1    2    0    0  0.00000000000E+00  0.00000000000E+00  0.10088170231E+04  0.13494929199E+04  0.89633663021E+03 0.  0.
        1    1    3    3  502    0 -0.37583582984E+03 -0.17782733789E+03  0.75624638030E+03  0.86300852883E+03  0.50400001928E-02 0.  1.
       -1    1    3    3    0  502  0.37583582984E+03  0.17782733789E+03  0.25257064283E+03  0.48648439105E+03  0.50400001928E-02 0. -1.
</event>
<event>
 5   0  0.2628383E-02  0.8918300E+03  0.7818609E-02  0.9435852E-01
        2   -1    0    0  501    0  0.00000000000E+00  0.00000000000E+00  0.96438599295E+03  0.96438599295E+03  0.25500000920E-02 0.  1.
       -2   -1    0    0    0  501  0.00000000000E+00  0.00000000000E+00 -0.20618318793E+03  0.20618318795E+03  0.25500000920E-02 0. -1.
    10030    2    1    2    0    0  0.00000000000E+00  0.00000000000E+00  0.75820280502E+03  0.11705691809E+04  0.89182998029E+03 0.  0.
        2    1    3    3  502    0  0.30911906745E+03 -0.13581796730E+03  0.76140901235E+03  0.83291344220E+03  0.25500000920E-02 0.  1.
       -2    1    3    3    0  502 -0.30911906745E+03  0.13581796730E+03 -0.32062073337E+01  0.33765573870E+03  0.25500000920E-02 0. -1.
</event>
<event>
 5   0  0.2414128E-02  0.9063620E+03  0.7818609E-02  0.9417663E-01
       -2   -1    0    0    0  501  0.00000000000E+00  0.00000000000E+00  0.49582660828E+03  0.49582660828E+03  0.25500000920E-02 0.  1.
        2   -1    0    0  501    0  0.00000000000E+00  0.00000000000E+00 -0.41420334178E+03  0.41420334178E+03  0.25500000920E-02 0. -1.
    10030    2    1    2    0    0  0.00000000000E+00  0.00000000000E+00  0.81623266502E+02  0.91002995007E+03  0.90636204267E+03 0.  0.
        3    1    3    3  502    0  0.19108143352E+03 -0.39672081367E+03  0.14835957888E+03  0.46466126703E+03  0.10100000352E+00 0.  1.
       -3    1    3    3    0  502 -0.19108143352E+03  0.39672081367E+03 -0.66736312373E+02  0.44536868303E+03  0.10100000352E+00 0. -1.
</event>
<event>
 5   0  0.2679861E-02  0.8598155E+03  0.7818609E-02  0.9477257E-01
        2   -1    0    0  501    0  0.00000000000E+00  0.00000000000E+00  0.29215475914E+03  0.29215475916E+03  0.25500000920E-02 0. -1.
       -2   -1    0    0    0  501  0.00000000000E+00  0.00000000000E+00 -0.63261218539E+03  0.63261218540E+03  0.25500000920E-02 0.  1.
    10030    2    1    2    0    0  0.00000000000E+00  0.00000000000E+00 -0.34045742625E+03  0.92476694455E+03  0.85981547012E+03 0.  0.
        1    1    3    3  502    0 -0.14033845980E+03 -0.24486415825E+03  0.17856403680E+03  0.33397373333E+03  0.50400001928E-02 0. -1.
       -1    1    3    3    0  502  0.14033845980E+03  0.24486415825E+03 -0.51902146305E+03  0.59079321122E+03  0.50400001928E-02 0.  1.
</event>
<event>
 5   0  0.1560728E-02  0.6959570E+03  0.7818609E-02  0.9724171E-01
       -1   -1    0    0    0  501  0.00000000000E+00  0.00000000000E+00  0.37538628946E+03  0.37538628949E+03  0.50400001928E-02 0.  1.
        1   -1    0    0  501    0  0.00000000000E+00  0.00000000000E+00 -0.32257182012E+03  0.32257182016E+03  0.50400001928E-02 0. -1.
    10030    2    1    2    0    0  0.00000000000E+00  0.00000000000E+00  0.52814469338E+02  0.69795810965E+03  0.69595700632E+03 0.  0.
        4    1    3    3  502    0 -0.23306403951E+02 -0.16349375035E+01 -0.32178201482E+03  0.32263158470E+03  0.12699999809E+01 0. -1.
       -4    1    3    3    0  502  0.23306403951E+02  0.16349375035E+01  0.37459648416E+03  0.37532652495E+03  0.12699999809E+01 0.  1.
</event>
<event>
 5   0  0.2414128E-02  0.9320364E+03  0.7818609E-02  0.9386397E-01
       -2   -1    0    0    0  501  0.00000000000E+00  0.00000000000E+00  0.35179461129E+03  0.35179461130E+03  0.25500000920E-02 0.  1.
        2   -1    0    0  501    0  0.00000000000E+00  0.00000000000E+00 -0.61732890039E+03  0.61732890040E+03  0.25500000920E-02 0. -1.
    10030    2    1    2    0    0  0.00000000000E+00  0.00000000000E+00 -0.26553428910E+03  0.96912351170E+03  0.93203643826E+03 0.  0.
        3    1    3    3  502    0 -0.82068212999E+02  0.64591902874E+02  0.33946952673E+03  0.35517161385E+03  0.10100000352E+00 0.  1.
       -3    1    3    3    0  502  0.82068212999E+02 -0.64591902874E+02 -0.60500381583E+03  0.61395189785E+03  0.10100000352E+00 0. -1.
</event>
<event>
 5   0  0.1560728E-02  0.9147118E+03  0.7818609E-02  0.9407376E-01
        1   -1    0    0  501    0  0.00000000000E+00  0.00000000000E+00  0.27335046733E+03  0.27335046738E+03  0.50400001928E-02 0.  1.
       -1   -1    0    0    0  501  0.00000000000E+00  0.00000000000E+00 -0.76522423182E+03  0.76522423184E+03  0.50400001928E-02 0. -1.
    10030    2    1    2    0    0  0.00000000000E+00  0.00000000000E+00 -0.49187376449E+03  0.10385746992E+04  0.91471176097E+03 0.  0.
        4    1    3    3  502    0  0.68206152204E+02  0.31565006060E+02  0.26628918263E+03  0.27669472436E+03  0.12699999809E+01 0.  1.
       -4    1    3    3    0  502 -0.68206152204E+02 -0.31565006060E+02 -0.75816294712E+03  0.76187997486E+03  0.12699999809E+01 0. -1.
</event>
<event>
 5   0  0.2803717E-02  0.8974517E+03  0.7818609E-02  0.9428772E-01
        2   -1    0    0  501    0  0.00000000000E+00  0.00000000000E+00  0.26985834329E+03  0.26985834330E+03  0.25500000920E-02 0.  1.
       -2   -1    0    0    0  501  0.00000000000E+00  0.00000000000E+00 -0.74615039368E+03  0.74615039369E+03  0.25500000920E-02 0. -1.
    10030    2    1    2    0    0  0.00000000000E+00  0.00000000000E+00 -0.47629205040E+03  0.10160087370E+04  0.89745174598E+03 0.  0.
        5    1    3    3  502    0 -0.10159473485E+03  0.16310938376E+03  0.22088922407E+03  0.29281444727E+03  0.46999998093E+01 0.  1.
       -5    1    3    3    0  502  0.10159473485E+03 -0.16310938376E+03 -0.69718127447E+03  0.72319428972E+03  0.46999998093E+01 0. -1.
</event>
<event>
 5   0  0.1560728E-02  0.8910812E+03  0.7818609E-02  0.9436800E-01
       -1   -1    0    0    0  501  0.00000000000E+00  0.00000000000E+00  0.13637321457E+03  0.13637321466E+03  0.50400001928E-02 0.  1.
        1   -1    0    0  501    0  0.00000000000E+00  0.00000000000E+00 -0.14556115002E+04  0.14556115002E+04  0.50400001928E-02 0. -1.
    10030    2    1    2    0    0  0.00000000000E+00  0.00000000000E+00 -0.13192382857E+04  0.15919847149E+04  0.89108118492E+03 0.  0.
        4    1    3    3  502    0  0.25533601529E+03 -0.26458376806E+03 -0.11091260380E+04  0.11684875832E+04  0.12699999809E+01 0. -1.
       -4    1    3    3    0  502 -0.25533601529E+03  0.26458376806E+03 -0.21011224762E+03  0.42349713166E+03  0.12699999809E+01 0.  1.
</event>
<event>
 5   0  0.1497410E-02  0.8838046E+03  0.7818609E-02  0.9446056E-01
        1   -1    0    0  501    0  0.00000000000E+00  0.00000000000E+00  0.21900198348E+03  0.21900198354E+03  0.50400001928E-02 0. -1.
       -1   -1    0    0    0  501  0.00000000000E+00  0.00000000000E+00 -0.89167060602E+03  0.89167060604E+03  0.50400001928E-02 0.  1.
    10030    2    1    2    0    0  0.00000000000E+00  0.00000000000E+00 -0.67266862254E+03  0.11106725896E+04  0.88380457426E+03 0.  0.
        3    1    3    3  502    0 -0.14541090831E+03 -0.14596918882E+03  0.15494540870E+03  0.25779725797E+03  0.10100000352E+00 0. -1.
       -3    1    3    3    0  502  0.14541090831E+03  0.14596918882E+03 -0.82761403124E+03  0.85287533160E+03  0.10100000352E+00 0.  1.
</event>
<event>
 5   0  0.2679861E-02  0.8831028E+03  0.7818609E-02  0.9446954E-01
        2   -1    0    0  501    0  0.00000000000E+00  0.00000000000E+00  0.37126782796E+03  0.37126782797E+03  0.25500000920E-02 0.  1.
       -2   -1    0    0    0  501  0.00000000000E+00  0.00000000000E+00 -0.52514010791E+03  0.52514010792E+03  0.25500000920E-02 0. -1.
    10030    2    1    2    0    0  0.00000000000E+00  0.00000000000E+00 -0.15387227995E+03  0.89640793588E+03  0.88310277373E+03 0.  0.
        1    1    3    3  502    0  0.71458655271E+02  0.72298609961E+01 -0.51917088804E+03  0.52411546564E+03  0.50400001928E-02 0. -1.
       -1    1    3    3    0  502 -0.71458655271E+02 -0.72298609961E+01  0.36529860809E+03  0.37229247025E+03  0.50400001928E-02 0.  1.
</event>
<event>
 5   0  0.2705111E-02  0.9022831E+03  0.7818609E-02  0.9422732E-01
        2   -1    0    0  501    0  0.00000000000E+00  0.00000000000E+00  0.12160358010E+04  0.12160358010E+04  0.25500000920E-02 0.  1.
       -2   -1    0    0    0  501  0.00000000000E+00  0.00000000000E+00 -0.16737063031E+03  0.16737063033E+03  0.25500000920E-02 0. -1.
    10030    2    1    2    0    0  0.00000000000E+00  0.00000000000E+00  0.10486651707E+04  0.13834064313E+04  0.90228305650E+03 0.  0.
        4    1    3    3  502    0  0.33212842472E+03  0.29796659131E+03  0.42224112094E+03  0.61431470531E+03  0.12699999809E+01 0. -1.
       -4    1    3    3    0  502 -0.33212842472E+03 -0.29796659131E+03  0.62642404975E+03  0.76909172603E+03  0.12699999809E+01 0.  1.
</event>
<event>
 5   0  0.2414128E-02  0.9029236E+03  0.7818609E-02  0.9421934E-01
       -2   -1    0    0    0  501  0.00000000000E+00  0.00000000000E+00  0.32406475073E+03  0.32406475074E+03  0.25500000920E-02 0. -1.
        2   -1    0    0  501    0  0.00000000000E+00  0.00000000000E+00 -0.62894148146E+03  0.62894148146E+03  0.25500000920E-02 0.  1.
    10030    2    1    2    0    0  0.00000000000E+00  0.00000000000E+00 -0.30487673073E+03  0.95300623220E+03  0.90292361675E+03 0.  0.
        3    1    3    3  502    0 -0.77057432189E+02  0.33571560448E+03 -0.46047377615E+03  0.57504688823E+03  0.10100000352E+00 0.  1.
       -3    1    3    3    0  502  0.77057432189E+02 -0.33571560448E+03  0.15559704542E+03  0.37795934397E+03  0.10100000352E+00 0. -1.
</event>
<event>
 5   0  0.1459111E-02  0.9028698E+03  0.7818609E-02  0.9422001E-01
       -1   -1    0    0    0  501  0.00000000000E+00  0.00000000000E+00  0.21649726363E+03  0.21649726369E+03  0.50400001928E-02 0. -1.
        1   -1    0    0  501    0  0.00000000000E+00  0.00000000000E+00 -0.94132130715E+03  0.94132130716E+03  0.50400001928E-02 0.  1.
    10030    2    1    2    0    0  0.00000000000E+00  0.00000000000E+00 -0.72482404352E+03  0.11578185709E+04  0.90286984053E+03 0.  0.
        2    1    3    3  502    0  0.25526015813E+03  0.60914201227E+02 -0.83345647993E+03  0.87379516603E+03  0.25500000920E-02 0.  1.
       -2    1    3    3    0  502 -0.25526015813E+03 -0.60914201227E+02  0.10863243640E+03  0.28402340482E+03  0.25500000920E-02 0. -1.
</event>
<event>
 5   0  0.1459111E-02  0.9141297E+03  0.7818609E-02  0.9408089E-01
        1   -1    0    0  501    0  0.00000000000E+00  0.00000000000E+00  0.56116730629E+03  0.56116730632E+03  0.50400001928E-02 0.  1.
       -1   -1    0    0    0  501  0.00000000000E+00  0.00000000000E+00 -0.37227449880E+03  0.37227449883E+03  0.50400001928E-02 0. -1.
    10030    2    1    2    0    0  0.00000000000E+00  0.00000000000E+00  0.18889280750E+03  0.93344180515E+03  0.91412970134E+03 0.  0.
        2    1    3    3  502    0  0.23433447671E+03  0.13531637923E+03  0.47058293923E+03  0.54283650592E+03  0.25500000920E-02 0.  1.
       -2    1    3    3    0  502 -0.23433447671E+03 -0.13531637923E+03 -0.28169013173E+03  0.39060529923E+03  0.25500000920E-02 0. -1.
</event>
<event>
 5   0  0.2803717E-02  0.8947424E+03  0.7818609E-02  0.9432178E-01
        2   -1    0    0  501    0  0.00000000000E+00  0.00000000000E+00  0.21519895325E+04  0.21519895325E+04  0.25500000920E-02 0.  1.
       -2   -1    0    0    0  501  0.00000000000E+00  0.00000000000E+00 -0.93002781319E+02  0.93002781354E+02  0.25500000920E-02 0. -1.
    10030    2    1    2    0    0  0.00000000000E+00  0.00000000000E+00  0.20589867512E+04  0.22449923138E+04  0.89474244771E+03 0.  0.
        5    1    3    3  502    0  0.33329335392E+02  0.63097128489E+01 -0.89709258084E+02  0.96023424528E+02  0.46999998093E+01 0. -1.
       -5    1    3    3    0  502 -0.33329335392E+02 -0.63097128489E+01  0.21486960093E+04  0.21489688893E+04  0.46999998093E+01 0.  1.
</event>
<event>
 5   0  0.1559275E-02  0.8881094E+03  0.7818609E-02  0.9440568E-01
        1   -1    0    0  501    0  0.00000000000E+00  0.00000000000E+00  0.49381495954E+03  0.49381495957E+03  0.50400001928E-02 0.  1.
       -1   -1    0    0    0  501  0.00000000000E+00  0.00000000000E+00 -0.39930865257E+03  0.39930865261E+03  0.50400001928E-02 0. -1.
    10030    2    1    2    0    0  0.00000000000E+00  0.00000000000E+00  0.94506306967E+02  0.89312361217E+03  0.88810942150E+03 0.  0.
        1    1    3    3  502    0  0.19608818887E+02  0.42075255830E+03 -0.94137103857E+02  0.43160052762E+03  0.50400001928E-02 0. -1.
       -1    1    3    3    0  502 -0.19608818887E+02 -0.42075255830E+03  0.18864341082E+03  0.46152308455E+03  0.50400001928E-02 0.  1.
</event>
<event>
 5   0  0.2414128E-02  0.8993505E+03  0.7818609E-02  0.9426394E-01
       -2   -1    0    0    0  501  0.00000000000E+00  0.00000000000E+00  0.15499094595E+03  0.15499094597E+03  0.25500000920E-02 0. -1.
        2   -1    0    0  501    0  0.00000000000E+00  0.00000000000E+00 -0.13046428898E+04  0.13046428898E+04  0.25500000920E-02 0.  1.
    10030    2    1    2    0    0  0.00000000000E+00  0.00000000000E+00 -0.11496519438E+04  0.14596338357E+04  0.89935051149E+03 0.  0.
        3    1    3    3  502    0  0.53604145748E+02 -0.19827596425E+03  0.74411400937E+02  0.21845784314E+03  0.10100000352E+00 0. -1.
       -3    1    3    3    0  502 -0.53604145748E+02  0.19827596425E+03 -0.12240633447E+04  0.12411759926E+04  0.10100000352E+00 0.  1.
</event>
<event>
 5   0  0.1040163E-02  0.8049478E+03  0.7818609E-02  0.9552883E-01
        4   -1    0    0  501    0  0.00000000000E+00  0.00000000000E+00  0.50983151089E+03  0.50983309269E+03  0.12699999809E+01 0. -1.
       -4   -1    0    0    0  501  0.00000000000E+00  0.00000000000E+00 -0.31771977499E+03  0.31772231322E+03  0.12699999809E+01 0.  1.
    10030    2    1    2    0    0  0.00000000000E+00  0.00000000000E+00  0.19211173590E+03  0.82755540591E+03  0.80494784352E+03 0.  0.
        3    1    3    3  502    0 -0.18404819576E+03  0.70356561862E+02 -0.26474432317E+03  0.33002022819E+03  0.10100000352E+00 0.  1.
       -3    1    3    3    0  502  0.18404819576E+03 -0.70356561862E+02  0.45685605908E+03  0.49753517773E+03  0.10100000352E+00 0. -1.
</event>
<event>
 5   0  0.1560728E-02  0.9029615E+03  0.7818609E-02  0.9421887E-01
       -1   -1    0    0    0  501  0.00000000000E+00  0.00000000000E+00  0.31941545188E+03  0.31941545192E+03  0.50400001928E-02 0.  1.
        1   -1    0    0  501    0  0.00000000000E+00  0.00000000000E+00 -0.63814962710E+03  0.63814962712E+03  0.50400001928E-02 0. -1.
    10030    2    1    2    0    0  0.00000000000E+00  0.00000000000E+00 -0.31873417522E+03  0.95756507904E+03  0.90296146437E+03 0.  0.
        4    1    3    3  502    0  0.25068016133E+03  0.37471050077E+03 -0.18501068718E+03  0.48731824298E+03  0.12699999809E+01 0. -1.
       -4    1    3    3    0  502 -0.25068016133E+03 -0.37471050077E+03 -0.13372348805E+03  0.47024683606E+03  0.12699999809E+01 0.  1.
</event>
<event>
 5   0  0.1537870E-02  0.9181983E+03  0.7818609E-02  0.9403114E-01
       -1   -1    0    0    0  501  0.00000000000E+00  0.00000000000E+00  0.10294662864E+03  0.10294662876E+03  0.50400001928E-02 0.  1.
        1   -1    0    0  501    0  0.00000000000E+00  0.00000000000E+00 -0.20473911841E+04  0.20473911841E+04  0.50400001928E-02 0. -1.
    10030    2    1    2    0    0  0.00000000000E+00  0.00000000000E+00 -0.19444445555E+04  0.21503378129E+04  0.91819827933E+03 0.  0.
        5    1    3    3  502    0  0.50133817213E+02  0.45298502598E+03 -0.11013695771E+04  0.11919504472E+04  0.46999998093E+01 0.  1.
       -5    1    3    3    0  502 -0.50133817213E+02 -0.45298502598E+03 -0.84307497841E+03  0.95838736564E+03  0.46999998093E+01 0. -1.
</event>
<event>
 5   0  0.2705111E-02  0.8627980E+03  0.7818609E-02  0.9473319E-01
       -2   -1    0    0    0  501  0.00000000000E+00  0.00000000000E+00  0.26210802638E+03  0.26210802639E+03  0.25500000920E-02 0. -1.
        2   -1    0    0  501    0  0.00000000000E+00  0.00000000000E+00 -0.71003201533E+03  0.71003201534E+03  0.25500000920E-02 0.  1.
    10030    2    1    2    0    0  0.00000000000E+00  0.00000000000E+00 -0.44792398896E+03  0.97214004173E+03  0.86279798380E+03 0.  0.
        4    1    3    3  502    0  0.43053663631E+02  0.12259718878E+03 -0.68745724086E+03  0.69963044499E+03  0.12699999809E+01 0.  1.
       -4    1    3    3    0  502 -0.43053663631E+02 -0.12259718878E+03  0.23953325190E+03  0.27250959674E+03  0.12699999809E+01 0. -1.
</event>
<event>
 5   0  0.1537870E-02  0.9018633E+03  0.7818609E-02  0.9423255E-01
       -1   -1    0    0    0  501  0.00000000000E+00  0.00000000000E+00  0.92902224321E+03  0.92902224323E+03  0.50400001928E-02 0.  1.
        1   -1    0    0  501    0  0.00000000000E+00  0.00000000000E+00 -0.21887459417E+03  0.21887459423E+03  0.50400001928E-02 0. -1.
    10030    2    1    2    0    0  0.00000000000E+00  0.00000000000E+00  0.71014764904E+03  0.11478968375E+04  0.90186333000E+03 0.  0.
        5    1    3    3  502    0 -0.18406007003E+03  0.35247535238E+03  0.62567691738E+03  0.74135732164E+03  0.46999998093E+01 0.  1.
       -5    1    3    3    0  502  0.18406007003E+03 -0.35247535238E+03  0.84470731666E+02  0.40653951582E+03  0.46999998093E+01 0. -1.
</event>
<event>
 5   0  0.2628383E-02  0.9608769E+03  0.7818609E-02  0.9352527E-01
        2   -1    0    0  501    0  0.00000000000E+00  0.00000000000E+00  0.94959718088E+03  0.94959718089E+03  0.25500000920E-02 0. -1.
       -2   -1    0    0    0  501  0.00000000000E+00  0.00000000000E+00 -0.24307265678E+03  0.24307265680E+03  0.25500000920E-02 0.  1.
    10030    2    1    2    0    0  0.00000000000E+00  0.00000000000E+00  0.70652452410E+03  0.11926698377E+04  0.96087691124E+03 0.  0.
        2    1    3    3  502    0 -0.17807699560E+03  0.21318938444E+03  0.83981829730E+03  0.88456537491E+03  0.25500000920E-02 0. -1.
       -2    1    3    3    0  502  0.17807699560E+03 -0.21318938444E+03 -0.13329377320E+03  0.30810446278E+03  0.25500000920E-02 0.  1.
</event>
<event>
 5   0  0.1459111E-02  0.9236742E+03  0.7818609E-02  0.9396462E-01
       -1   -1    0    0    0  501  0.00000000000E+00  0.00000000000E+00  0.18575428992E+03  0.18575428999E+03  0.50400001928E-02 0. -1.
        1   -1    0    0  501    0  0.00000000000E+00  0.00000000000E+00 -0.11482561737E+04  0.11482561738E+04  0.50400001928E-02 0.  1.
    10030    2    1    2    0    0  0.00000000000E+00  0.00000000000E+00 -0.96250188382E+03  0.13340104637E+04  0.92367420719E+03 0.  0.
        2    1    3    3  502    0  0.30496275355E+03 -0.10815789253E+03 -0.53226372721E+01  0.32361820289E+03  0.25500000920E-02 0. -1.
       -2    1    3    3    0  502 -0.30496275355E+03  0.10815789253E+03 -0.95717924655E+03  0.10103922609E+04  0.25500000920E-02 0.  1.
</event>
<event>
 5   0  0.1560728E-02  0.9004379E+03  0.7818609E-02  0.9425034E-01
       -1   -1    0    0    0  501  0.00000000000E+00  0.00000000000E+00  0.10733151461E+04  0.10733151461E+04  0.50400001928E-02 0.  1.
        1   -1    0    0  501    0  0.00000000000E+00  0.00000000000E+00 -0.18885144554E+03  0.18885144561E+03  0.50400001928E-02 0. -1.
    10030    2    1    2    0    0  0.00000000000E+00  0.00000000000E+00  0.88446370052E+03  0.12621665917E+04  0.90043793101E+03 0.  0.
        4    1    3    3  502    0  0.98933158691E+02  0.32422940686E+03  0.26925881715E+02  0.34005748656E+03  0.12699999809E+01 0. -1.
       -4    1    3    3    0  502 -0.98933158691E+02 -0.32422940686E+03  0.85753781880E+03  0.92210910512E+03  0.12699999809E+01 0.  1.
</event>
<event>
 5   0  0.2628383E-02  0.9115342E+03  0.7818609E-02  0.9411277E-01
       -2   -1    0    0    0  501  0.00000000000E+00  0.00000000000E+00  0.16153115319E+03  0.16153115321E+03  0.25500000920E-02 0. -1.
        2   -1    0    0  501    0  0.00000000000E+00  0.00000000000E+00 -0.12859665341E+04  0.12859665341E+04  0.25500000920E-02 0.  1.
    10030    2    1    2    0    0  0.00000000000E+00  0.00000000000E+00 -0.11244353809E+04  0.14474976873E+04  0.91153421710E+03 0.  0.
        2    1    3    3  502    0 -0.86407353066E+02  0.41536240802E+01 -0.12728100110E+04  0.12757463726E+04  0.25500000920E-02 0.  1.
       -2    1    3    3    0  502  0.86407353066E+02 -0.41536240802E+01  0.14837463004E+03  0.17175131470E+03  0.25500000920E-02 0. -1.
</event>
<event>
 5   0  0.2679861E-02  0.9305359E+03  0.7818609E-02  0.9388195E-01
        2   -1    0    0  501    0  0.00000000000E+00  0.00000000000E+00  0.38255171779E+03  0.38255171780E+03  0.25500000920E-02 0.  1.
       -2   -1    0    0    0  501  0.00000000000E+00  0.00000000000E+00 -0.56586928376E+03  0.56586928376E+03  0.25500000920E-02 0. -1.
    10030    2    1    2    0    0  0.00000000000E+00  0.00000000000E+00 -0.18331756596E+03  0.94842100156E+03  0.93053590270E+03 0.  0.
        1    1    3    3  502    0  0.45869420249E+03 -0.74293741541E+02 -0.11565563181E+03  0.47884878263E+03  0.50400001928E-02 0. -1.
       -1    1    3    3    0  502 -0.45869420249E+03  0.74293741541E+02 -0.67661934155E+02  0.46957221893E+03  0.50400001928E-02 0.  1.
</event>
<event>
 5   0  0.1459111E-02  0.9074264E+03  0.7818609E-02  0.9416345E-01
        1   -1    0    0  501    0  0.00000000000E+00  0.00000000000E+00  0.42153599089E+03  0.42153599092E+03  0.50400001928E-02 0. -1.
       -1   -1    0    0    0  501  0.00000000000E+00  0.00000000000E+00 -0.48834663630E+03  0.48834663633E+03  0.50400001928E-02 0.  1.
    10030    2    1    2    0    0  0.00000000000E+00  0.00000000000E+00 -0.66810645407E+02  0.90988262725E+03  0.90742643395E+03 0.  0.
        2    1    3    3  502    0 -0.83346326310E+02 -0.44137722179E+03  0.30761809574E+02  0.45022966468E+03  0.25500000920E-02 0.  1.
       -2    1    3    3    0  502  0.83346326310E+02  0.44137722179E+03 -0.97572454981E+02  0.45965296257E+03  0.25500000920E-02 0. -1.
</event>
<event>
 5   0  0.1559275E-02  0.8955725E+03  0.7818609E-02  0.9431133E-01
        1   -1    0    0  501    0  0.00000000000E+00  0.00000000000E+00  0.21606495154E+03  0.21606495160E+03  0.50400001928E-02 0.  1.
       -1   -1    0    0    0  501  0.00000000000E+00  0.00000000000E+00 -0.92801969051E+03  0.92801969052E+03  0.50400001928E-02 0. -1.
    10030    2    1    2    0    0  0.00000000000E+00  0.00000000000E+00 -0.71195473897E+03  0.11440846421E+04  0.89557250850E+03 0.  0.
        1    1    3    3  502    0  0.10341544936E+03 -0.27156726301E+03 -0.79120405524E+03  0.84288041296E+03  0.50400001928E-02 0. -1.
       -1    1    3    3    0  502 -0.10341544936E+03  0.27156726301E+03  0.79249316270E+02  0.30120422915E+03  0.50400001928E-02 0.  1.
</event>
<event>
 5   0  0.1560728E-02  0.9110723E+03  0.7818609E-02  0.9411845E-01
       -1   -1    0    0    0  501  0.00000000000E+00  0.00000000000E+00  0.16989818888E+03  0.16989818895E+03  0.50400001928E-02 0.  1.
        1   -1    0    0  501    0  0.00000000000E+00  0.00000000000E+00 -0.12213971965E+04  0.12213971965E+04  0.50400001928E-02 0. -1.
    10030    2    1    2    0    0  0.00000000000E+00  0.00000000000E+00 -0.10514990076E+04  0.13912953854E+04  0.91107227297E+03 0.  0.
        4    1    3    3  502    0 -0.29895421594E+03 -0.34012823674E+03 -0.45015100128E+03  0.63851262909E+03  0.12699999809E+01 0.  1.
       -4    1    3    3    0  502  0.29895421594E+03  0.34012823674E+03 -0.60134800632E+03  0.75278275635E+03  0.12699999809E+01 0. -1.
</event>
<event>
 5   0  0.2705111E-02  0.1147347E+04  0.7818609E-02  0.9160234E-01
        2   -1    0    0  501    0  0.00000000000E+00  0.00000000000E+00  0.60925746537E+03  0.60925746537E+03  0.25500000920E-02 0.  1.
       -2   -1    0    0    0  501  0.00000000000E+00  0.00000000000E+00 -0.54016821412E+03  0.54016821412E+03  0.25500000920E-02 0. -1.
    10030    2    1    2    0    0  0.00000000000E+00  0.00000000000E+00  0.69089251249E+02  0.11494256795E+04  0.11473474051E+04 0.  0.
        4    1    3    3  502    0 -0.14186448317E+03  0.54513387576E+03  0.14338501145E+03  0.58125497718E+03  0.12699999809E+01 0.  1.
       -4    1    3    3    0  502  0.14186448317E+03 -0.54513387576E+03 -0.74295760200E+02  0.56817070232E+03  0.12699999809E+01 0. -1.
</event>
<event>
 5   0  0.1497410E-02  0.9198476E+03  0.7818609E-02  0.9401105E-01
        1   -1    0    0  501    0  0.00000000000E+00  0.00000000000E+00  0.12734329711E+04  0.12734329711E+04  0.50400001928E-02 0. -1.
       -1   -1    0    0    0  501  0.00000000000E+00  0.00000000000E+00 -0.16610996597E+03  0.16610996604E+03  0.50400001928E-02 0.  1.
    10030    2    1    2    0    0  0.00000000000E+00  0.00000000000E+00  0.11073230051E+04  0.14395429372E+04  0.91984761249E+03 0.  0.
        3    1    3    3  502    0 -0.14080631959E+03 -0.43761380638E+03  0.57566236827E+03  0.73669494067E+03  0.10100000352E+00 0.  1.
       -3    1    3    3    0  502  0.14080631959E+03  0.43761380638E+03  0.53166063687E+03  0.70284799648E+03  0.10100000352E+00 0. -1.
</event>
<event>
 5   0  0.1559275E-02  0.8968941E+03  0.7818609E-02  0.9429472E-01
       -1   -1    0    0    0  501  0.00000000000E+00  0.00000000000E+00  0.35484587998E+03  0.35484588002E+03  0.50400001928E-02 0.  1.
        1   -1    0    0  501    0  0.00000000000E+00  0.00000000000E+00 -0.56673837584E+03  0.56673837586E+03  0.50400001928E-02 0. -1.
    10030    2    1    2    0    0  0.00000000000E+00  0.00000000000E+00 -0.21189249586E+03  0.92158425588E+03  0.89689414698E+03 0.  0.
        1    1    3    3  502    0  0.13989441387E+03 -0.88052547319E+02 -0.53429262924E+03  0.55927838489E+03  0.50400001928E-02 0. -1.
       -1    1    3    3    0  502 -0.13989441387E+03  0.88052547319E+02  0.32240013338E+03  0.36230587099E+03  0.50400001928E-02 0.  1.
</event>
<event>
 5   0  0.1559275E-02  0.8915065E+03  0.7818609E-02  0.9436261E-01
       -1   -1    0    0    0  501  0.00000000000E+00  0.00000000000E+00  0.34306994202E+03  0.34306994205E+03  0.50400001928E-02 0.  1.
        1   -1    0    0  501    0  0.00000000000E+00  0.00000000000E+00 -0.57917046219E+03  0.57917046221E+03  0.50400001928E-02 0. -1.
    10030    2    1    2    0    0  0.00000000000E+00  0.00000000000E+00 -0.23610052017E+03  0.92224040426E+03  0.89150653819E+03 0.  0.
        1    1    3    3  502    0  0.37483598694E+03 -0.20946186816E+03 -0.24184048542E+03  0.49281143628E+03  0.50400001928E-02 0.  1.
       -1    1    3    3    0  502 -0.37483598694E+03  0.20946186816E+03  0.57399652489E+01  0.42942896798E+03  0.50400001928E-02 0. -1.
</event>
<event>
 5   0  0.2705111E-02  0.9901835E+03  0.7818609E-02  0.9319377E-01
       -2   -1    0    0    0  501  0.00000000000E+00  0.00000000000E+00  0.28935822917E+03  0.28935822918E+03  0.25500000920E-02 0. -1.
        2   -1    0    0  501    0  0.00000000000E+00  0.00000000000E+00 -0.84710165931E+03  0.84710165932E+03  0.25500000920E-02 0.  1.
    10030    2    1    2    0    0  0.00000000000E+00  0.00000000000E+00 -0.55774343015E+03  0.11364598885E+04  0.99018349021E+03 0.  0.
        4    1    3    3  502    0 -0.87934216623E+02  0.23487962938E+03  0.21105208204E+03  0.32778874445E+03  0.12699999809E+01 0. -1.
       -4    1    3    3    0  502  0.87934216623E+02 -0.23487962938E+03 -0.76879551219E+03  0.80867114405E+03  0.12699999809E+01 0.  1.
</event>
<event>
 5   0  0.2414128E-02  0.9157244E+03  0.7818609E-02  0.9406136E-01
        2   -1    0    0  501    0  0.00000000000E+00  0.00000000000E+00  0.14433170515E+04  0.14433170515E+04  0.25500000920E-02 0. -1.
       -2   -1    0    0    0  501  0.00000000000E+00  0.00000000000E+00 -0.14524721400E+03  0.14524721403E+03  0.25500000920E-02 0.  1.
    10030    2    1    2    0    0  0.00000000000E+00  0.00000000000E+00  0.12980698375E+04  0.15885642655E+04  0.91572437047E+03 0.  0.
        3    1    3    3  502    0  0.45363018454E+02 -0.31314487377E+03  0.74935324590E+02  0.32516584766E+03  0.10100000352E+00 0.  1.
       -3    1    3    3    0  502 -0.45363018454E+02  0.31314487377E+03  0.12231345129E+04  0.12633984178E+04  0.10100000352E+00 0. -1.
</event>
<event>
 5   0  0.1040163E-02  0.9041234E+03  0.7818609E-02  0.9420442E-01
        3   -1    0    0  501    0  0.00000000000E+00  0.00000000000E+00  0.22495940947E+03  0.22495943214E+03  0.10100000352E+00 0. -1.
       -3   -1    0    0    0  501  0.00000000000E+00  0.00000000000E+00 -0.90842953760E+03  0.90842954321E+03  0.10100000352E+00 0.  1.
    10030    2    1    2    0    0  0.00000000000E+00  0.00000000000E+00 -0.68347012813E+03  0.11333889754E+04  0.90412341713E+03 0.  0.
        1    1    3    3  502    0  0.22238230148E+03  0.11102569646E+03  0.13161162680E+03  0.28125115755E+03  0.50400001928E-02 0. -1.
       -1    1    3    3    0  502 -0.22238230148E+03 -0.11102569646E+03 -0.81508175493E+03  0.85213781781E+03  0.50400001928E-02 0.  1.
</event>
<event>
 5   0  0.2803717E-02  0.8007396E+03  0.7818609E-02  0.9558947E-01
        2   -1    0    0  501    0  0.00000000000E+00  0.00000000000E+00  0.19197199166E+03  0.19197199167E+03  0.25500000920E-02 0. -1.
       -2   -1    0    0    0  501  0.00000000000E+00  0.00000000000E+00 -0.83499674514E+03  0.83499674515E+03  0.25500000920E-02 0.  1.
    10030    2    1    2    0    0  0.00000000000E+00  0.00000000000E+00 -0.64302475348E+03  0.10269687368E+04  0.80073962860E+03 0.  0.
        5    1    3    3  502    0  0.12141405188E+03 -0.32177150993E+03 -0.58686629620E+02  0.34891902655E+03  0.46999998093E+01 0. -1.
       -5    1    3    3    0  502 -0.12141405188E+03  0.32177150993E+03 -0.58433812386E+03  0.67804971027E+03  0.46999998093E+01 0.  1.
</event>
<event>
 5   0  0.2414128E-02  0.9252673E+03  0.7818609E-02  0.9394536E-01
       -2   -1    0    0    0  501  0.00000000000E+00  0.00000000000E+00  0.45020984630E+03  0.45020984631E+03  0.25500000920E-02 0. -1.
        2   -1    0    0  501    0  0.00000000000E+00  0.00000000000E+00 -0.47540033837E+03  0.47540033838E+03  0.25500000920E-02 0.  1.
    10030    2    1    2    0    0  0.00000000000E+00  0.00000000000E+00 -0.25190492076E+02  0.92561018469E+03  0.92526734142E+03 0.  0.
        3    1    3    3  502    0 -0.37714324747E+03  0.11736863354E+03  0.22836217907E+03  0.45624743318E+03  0.10100000352E+00 0. -1.
       -3    1    3    3    0  502  0.37714324747E+03 -0.11736863354E+03 -0.25355267115E+03  0.46936275151E+03  0.10100000352E+00 0.  1.
</event>
<event>
 5   0  0.1497410E-02  0.1000401E+04  0.7818609E-02  0.9308105E-01
        1   -1    0    0  501    0  0.00000000000E+00  0.00000000000E+00  0.12754053927E+04  0.12754053927E+04  0.50400001928E-02 0.  1.
       -1   -1    0    0    0  501  0.00000000000E+00  0.00000000000E+00 -0.19617327079E+03  0.19617327085E+03  0.50400001928E-02 0. -1.
    10030    2    1    2    0    0  0.00000000000E+00  0.00000000000E+00  0.10792321219E+04  0.14715786635E+04  0.10004008147E+04 0.  0.
        3    1    3    3  502    0  0.14612815911E+03 -0.26647160556E+03  0.11240263039E+04  0.11643864039E+04  0.10100000352E+00 0.  1.
       -3    1    3    3    0  502 -0.14612815911E+03  0.26647160556E+03 -0.44794182020E+02  0.30719225966E+03  0.10100000352E+00 0. -1.
</event>
<event>
 5   0  0.2803717E-02  0.9133114E+03  0.7818609E-02  0.9409093E-01
        2   -1    0    0  501    0  0.00000000000E+00  0.00000000000E+00  0.54803859458E+03  0.54803859459E+03  0.25500000920E-02 0. -1.
       -2   -1    0    0    0  501  0.00000000000E+00  0.00000000000E+00 -0.38051047808E+03  0.38051047809E+03  0.25500000920E-02 0.  1.
    10030    2    1    2    0    0  0.00000000000E+00  0.00000000000E+00  0.16752811650E+03  0.92854907267E+03  0.91331139845E+03 0.  0.
        5    1    3    3  502    0  0.41305685350E+03 -0.13168645701E+02  0.28122848345E+03  0.49990091754E+03  0.46999998093E+01 0. -1.
       -5    1    3    3    0  502 -0.41305685350E+03  0.13168645701E+02 -0.11370036695E+03  0.42864815513E+03  0.46999998093E+01 0.  1.
</event>
<event>
 5   0  0.2628383E-02  0.8536056E+03  0.7818609E-02  0.9485510E-01
       -2   -1    0    0    0  501  0.00000000000E+00  0.00000000000E+00  0.13834760594E+03  0.13834760597E+03  0.25500000920E-02 0. -1.
        2   -1    0    0  501    0  0.00000000000E+00  0.00000000000E+00 -0.13166880518E+04  0.13166880518E+04  0.25500000920E-02 0.  1.
    10030    2    1    2    0    0  0.00000000000E+00  0.00000000000E+00 -0.11783404459E+04  0.14550356578E+04  0.85360562267E+03 0.  0.
        2    1    3    3  502    0  0.24753434368E+03 -0.16674090746E+03 -0.11092331431E+04  0.11486835714E+04  0.25500000920E-02 0.  1.
       -2    1    3    3    0  502 -0.24753434368E+03  0.16674090746E+03 -0.69107302795E+02  0.30635208638E+03  0.25500000920E-02 0. -1.
</event>
<event>
 5   0  0.2803717E-02  0.8733092E+03  0.7818609E-02  0.9459575E-01
       -2   -1    0    0    0  501  0.00000000000E+00  0.00000000000E+00  0.27840094646E+03  0.27840094648E+03  0.25500000920E-02 0.  1.
        2   -1    0    0  501    0  0.00000000000E+00  0.00000000000E+00 -0.68486557886E+03  0.68486557887E+03  0.25500000920E-02 0. -1.
    10030    2    1    2    0    0  0.00000000000E+00  0.00000000000E+00 -0.40646463240E+03  0.96326652534E+03  0.87330916716E+03 0.  0.
        5    1    3    3  502    0  0.16516408050E+03 -0.18634502593E+03  0.19237925481E+03  0.31469907826E+03  0.46999998093E+01 0.  1.
       -5    1    3    3    0  502 -0.16516408050E+03  0.18634502593E+03 -0.59884388720E+03  0.64856744708E+03  0.46999998093E+01 0. -1.
</event>
<event>
 5   0  0.1559275E-02  0.8991661E+03  0.7818609E-02  0.9426624E-01
        1   -1    0    0  501    0  0.00000000000E+00  0.00000000000E+00  0.50473802427E+03  0.50473802429E+03  0.50400001928E-02 0.  1.
       -1   -1    0    0    0  501  0.00000000000E+00  0.00000000000E+00 -0.40045510782E+03  0.40045510785E+03  0.50400001928E-02 0. -1.
    10030    2    1    2    0    0  0.00000000000E+00  0.00000000000E+00  0.10428291645E+03  0.90519313214E+03  0.89916610246E+03 0.  0.
        1    1    3    3  502    0  0.13384632323E+02 -0.35463336707E+03 -0.22571756599E+03  0.42058577370E+03  0.50400001928E-02 0. -1.
       -1    1    3    3    0  502 -0.13384632323E+02  0.35463336707E+03  0.33000048244E+03  0.48460735844E+03  0.50400001928E-02 0.  1.
</event>
<event>
 5   0  0.1040163E-02  0.9353135E+03  0.7818609E-02  0.9382483E-01
        3   -1    0    0  501    0  0.00000000000E+00  0.00000000000E+00  0.21431983325E+03  0.21431985705E+03  0.10100000352E+00 0. -1.
       -3   -1    0    0    0  501  0.00000000000E+00  0.00000000000E+00 -0.10204506733E+04  0.10204506783E+04  0.10100000352E+00 0.  1.
    10030    2    1    2    0    0  0.00000000000E+00  0.00000000000E+00 -0.80613084006E+03  0.12347705354E+04  0.93531350022E+03 0.  0.
        3    1    3    3  502    0 -0.35915493038E+03  0.26782446146E+03 -0.58008910652E+03  0.73295674352E+03  0.10100000352E+00 0.  1.
       -3    1    3    3    0  502  0.35915493038E+03 -0.26782446146E+03 -0.22604173355E+03  0.50181379184E+03  0.10100000352E+00 0. -1.
</event>
<event>
 5   0  0.2628383E-02  0.9414061E+03  0.7818609E-02  0.9375252E-01
        2   -1    0    0  501    0  0.00000000000E+00  0.00000000000E+00  0.38792343383E+03  0.38792343384E+03  0.25500000920E-02 0. -1.
       -2   -1    0    0    0  501  0.00000000000E+00  0.00000000000E+00 -0.57114711633E+03  0.57114711634E+03  0.25500000920E-02 0.  1.
    10030    2    1    2    0    0  0.00000000000E+00  0.00000000000E+00 -0.18322368250E+03  0.95907055018E+03  0.94140607731E+03 0.  0.
        2    1    3    3  502    0  0.24711042659E+03 -0.39947018504E+03 -0.60688388301E+02  0.47362756692E+03  0.25500000920E-02 0. -1.
       -2    1    3    3    0  502 -0.24711042659E+03  0.39947018504E+03 -0.12253529420E+03  0.48544298326E+03  0.25500000920E-02 0.  1.
</event>
<event>
 5   0  0.1537870E-02  0.8881163E+03  0.7818609E-02  0.9440560E-01
       -1   -1    0    0    0  501  0.00000000000E+00  0.00000000000E+00  0.19341433807E+03  0.19341433814E+03  0.50400001928E-02 0.  1.
        1   -1    0    0  501    0  0.00000000000E+00  0.00000000000E+00 -0.10195090056E+04  0.10195090056E+04  0.50400001928E-02 0. -1.
    10030    2    1    2    0    0  0.00000000000E+00  0.00000000000E+00 -0.82609466748E+03  0.12129233437E+04  0.88811634264E+03 0.  0.
        5    1    3    3  502    0 -0.24335371886E+03 -0.16436561429E+03 -0.86791495896E+03  0.91626172768E+03  0.46999998093E+01 0. -1.
       -5    1    3    3    0  502  0.24335371886E+03  0.16436561429E+03  0.41820291476E+02  0.29666161602E+03  0.46999998093E+01 0.  1.
</event>
<event>
 5   0  0.1497410E-02  0.8608432E+03  0.7818609E-02  0.9475898E-01
        1   -1    0    0  501    0  0.00000000000E+00  0.00000000000E+00  0.66667475162E+03  0.66667475164E+03  0.50400001928E-02 0.  1.
       -1   -1    0    0    0  501  0.00000000000E+00  0.00000000000E+00 -0.27789073641E+03  0.27789073646E+03  0.50400001928E-02 0. -1.
    10030    2    1    2    0    0  0.00000000000E+00  0.00000000000E+00  0.38878401520E+03  0.94456548810E+03  0.86084316274E+03 0.  0.
        3    1    3    3  502    0  0.91457278534E+02 -0.22442322736E+03 -0.19591747132E+03  0.31163100703E+03  0.10100000352E+00 0. -1.
       -3    1    3    3    0  502 -0.91457278534E+02  0.22442322736E+03  0.58470148653E+03  0.63293448107E+03  0.10100000352E+00 0.  1.
</event>
<event>
 5   0  0.2705111E-02  0.8555076E+03  0.7818609E-02  0.9482974E-01
       -2   -1    0    0    0  501  0.00000000000E+00  0.00000000000E+00  0.32380908168E+03  0.32380908169E+03  0.25500000920E-02 0. -1.
        2   -1    0    0  501    0  0.00000000000E+00  0.00000000000E+00 -0.56506546873E+03  0.56506546873E+03  0.25500000920E-02 0.  1.
    10030    2    1    2    0    0  0.00000000000E+00  0.00000000000E+00 -0.24125638704E+03  0.88887455043E+03  0.85550764001E+03 0.  0.
        4    1    3    3  502    0  0.26408010153E+03 -0.29637741694E+03  0.44941485247E+02  0.39949871500E+03  0.12699999809E+01 0. -1.
       -4    1    3    3    0  502 -0.26408010153E+03  0.29637741694E+03 -0.28619787229E+03  0.48937583542E+03  0.12699999809E+01 0.  1.
</event>
<event>
 5   0  0.1497410E-02  0.8871974E+03  0.7818609E-02  0.9441728E-01
        1   -1    0    0  501    0  0.00000000000E+00  0.00000000000E+00  0.72829151819E+03  0.72829151820E+03  0.50400001928E-02 0. -1.
       -1   -1    0    0    0  501  0.00000000000E+00  0.00000000000E+00 -0.27019371956E+03  0.27019371960E+03  0.50400001928E-02 0.  1.
    10030    2    1    2    0    0  0.00000000000E+00  0.00000000000E+00  0.45809779863E+03  0.99848523781E+03  0.88719737207E+03 0.  0.
        3    1    3    3  502    0  0.74688891078E+01 -0.29069674308E+03 -0.14796327912E+03  0.32627216080E+03  0.10100000352E+00 0.  1.
       -3    1    3    3    0  502 -0.74688891078E+01  0.29069674308E+03  0.60606107775E+03  0.67221307701E+03  0.10100000352E+00 0. -1.
</event>
<event>
 5   0  0.1560728E-02  0.8985976E+03  0.7818609E-02  0.9427336E-01
       -1   -1    0    0    0  501  0.00000000000E+00  0.00000000000E+00  0.21074527801E+03  0.21074527807E+03  0.50400001928E-02 0.  1.
        1   -1    0    0  501    0  0.00000000000E+00  0.00000000000E+00 -0.95788333765E+03  0.95788333767E+03  0.50400001928E-02 0. -1.
    10030    2    1    2    0    0  0.00000000000E+00  0.00000000000E+00 -0.74713805964E+03  0.11686286157E+04  0.89859755250E+03 0.  0.
        4    1    3    3  502    0 -0.44386333984E+03 -0.69010429950E+02 -0.38595276269E+03  0.59223158631E+03  0.12699999809E+01 0. -1.
       -4    1    3    3    0  502  0.44386333984E+03  0.69010429950E+02 -0.36118529695E+03  0.57639702943E+03  0.12699999809E+01 0.  1.
</event>
<event>
 5   0  0.1497410E-02  0.9153972E+03  0.7818609E-02  0.9406536E-01
        1   -1    0    0  501    0  0.00000000000E+00  0.00000000000E+00  0.14723734839E+04  0.14723734839E+04  0.50400001928E-02 0. -1.
       -1   -1    0    0    0  501  0.00000000000E+00  0.00000000000E+00 -0.14227911563E+03  0.14227911572E+03  0.50400001928E-02 0.  1.
    10030    2    1    2    0    0  0.00000000000E+00  0.00000000000E+00  0.13300943683E+04  0.16146525996E+04  0.91539717553E+03 0.  0.
        3    1    3    3  502    0  0.13410797406E+02 -0.45268493736E+03  0.54825095420E+03  0.71111364843E+03  0.10100000352E+00 0.  1.
       -3    1    3    3    0  502 -0.13410797406E+02  0.45268493736E+03  0.78184341407E+03  0.90353895120E+03  0.10100000352E+00 0. -1.
</event>
<event>
 5   0  0.2414128E-02  0.8740091E+03  0.7818609E-02  0.9458667E-01
       -2   -1    0    0    0  501  0.00000000000E+00  0.00000000000E+00  0.16459049853E+03  0.16459049855E+03  0.25500000920E-02 0. -1.
        2   -1    0    0  501    0  0.00000000000E+00  0.00000000000E+00 -0.11602916006E+04  0.11602916006E+04  0.25500000920E-02 0.  1.
    10030    2    1    2    0    0  0.00000000000E+00  0.00000000000E+00 -0.99570110204E+03  0.13248820991E+04  0.87400909147E+03 0.  0.
        3    1    3    3  502    0 -0.17906104269E+03 -0.21492219498E+01  0.10641902441E+03  0.20830865349E+03  0.10100000352E+00 0. -1.
       -3    1    3    3    0  502  0.17906104269E+03  0.21492219498E+01 -0.11021201264E+04  0.11165734456E+04  0.10100000352E+00 0.  1.
</event>
<event>
 5   0  0.1560728E-02  0.8866823E+03  0.7818609E-02  0.9442384E-01
       -1   -1    0    0    0  501  0.00000000000E+00  0.00000000000E+00  0.81732445999E+02  0.81732446154E+02  0.50400001928E-02 0. -1.
        1   -1    0    0  501    0  0.00000000000E+00  0.00000000000E+00 -0.24048146175E+04  0.24048146175E+04  0.50400001928E-02 0.  1.
    10030    2    1    2    0    0  0.00000000000E+00  0.00000000000E+00 -0.23230821715E+04  0.24865470636E+04  0.88668231302E+03 0.  0.
        4    1    3    3  502    0 -0.42315654287E+03 -0.11515190347E+03 -0.97918763982E+03  0.10729079492E+04  0.12699999809E+01 0.  1.
       -4    1    3    3    0  502  0.42315654287E+03  0.11515190347E+03 -0.13438945316E+04  0.14136391144E+04  0.12699999809E+01 0. -1.
</event>
<event>
 5   0  0.1537870E-02  0.9412321E+03  0.7818609E-02  0.9375458E-01
        1   -1    0    0  501    0  0.00000000000E+00  0.00000000000E+00  0.61711784526E+03  0.61711784528E+03  0.50400001928E-02 0. -1.
       -1   -1    0    0    0  501  0.00000000000E+00  0.00000000000E+00 -0.35889327777E+03  0.35889327781E+03  0.50400001928E-02 0.  1.
    10030    2    1    2    0    0  0.00000000000E+00  0.00000000000E+00  0.25822456749E+03  0.97601112309E+03  0.94123205701E+03 0.  0.
        5    1    3    3  502    0  0.16058211259E+02 -0.29375451008E+03  0.50998209569E+03  0.58877279681E+03  0.46999998093E+01 0. -1.
       -5    1    3    3    0  502 -0.16058211259E+02  0.29375451008E+03 -0.25175752820E+03  0.38723832628E+03  0.46999998093E+01 0.  1.
</event>
<event>
 5   0  0.2803717E-02  0.6358148E+03  0.7818609E-02  0.9833767E-01
       -2   -1    0    0    0  501  0.00000000000E+00  0.00000000000E+00  0.18214615121E+03  0.18214615122E+03  0.25500000920E-02 0.  1.
        2   -1    0    0  501    0  0.00000000000E+00  0.00000000000E+00 -0.55485734018E+03  0.55485734018E+03  0.25500000920E-02 0. -1.
    10030    2    1    2    0    0  0.00000000000E+00  0.00000000000E+00 -0.37271118897E+03  0.73700349141E+03  0.63581484409E+03 0.  0.
        5    1    3    3  502    0  0.88804745377E+02 -0.86898539230E+02  0.15279256371E+03  0.19699059989E+03  0.46999998093E+01 0.  1.
       -5    1    3    3    0  502 -0.88804745377E+02  0.86898539230E+02 -0.52550375268E+03  0.54001289151E+03  0.46999998093E+01 0. -1.
</event>
<event>
 5   0  0.1537870E-02  0.8012888E+03  0.7818609E-02  0.9558153E-01
        1   -1    0    0  501    0  0.00000000000E+00  0.00000000000E+00  0.13976209541E+03  0.13976209550E+03  0.50400001928E-02 0. -1.
       -1   -1    0    0    0  501  0.00000000000E+00  0.00000000000E+00 -0.11484940802E+04  0.11484940802E+04  0.50400001928E-02 0.  1.
    10030    2    1    2    0    0  0.00000000000E+00  0.00000000000E+00 -0.10087319848E+04  0.12882561757E+04  0.80128881004E+03 0.  0.
        5    1    3    3  502    0 -0.17725807473E+03 -0.96802294002E+01 -0.10817621184E+04  0.10962415348E+04  0.46999998093E+01 0.  1.
       -5    1    3    3    0  502  0.17725807473E+03  0.96802294002E+01  0.73030133611E+02  0.19201464087E+03  0.46999998093E+01 0. -1.
</event>
<event>
 5   0  0.2705111E-02  0.9156773E+03  0.7818609E-02  0.9406193E-01
        2   -1    0    0  501    0  0.00000000000E+00  0.00000000000E+00  0.26129575382E+03  0.26129575383E+03  0.25500000920E-02 0. -1.
       -2   -1    0    0    0  501  0.00000000000E+00  0.00000000000E+00 -0.80221833486E+03  0.80221833487E+03  0.25500000920E-02 0.  1.
    10030    2    1    2    0    0  0.00000000000E+00  0.00000000000E+00 -0.54092258105E+03  0.10635140887E+04  0.91567733300E+03 0.  0.
        4    1    3    3  502    0  0.35062791732E+03  0.28450249991E+03 -0.18252004390E+03  0.48702852912E+03  0.12699999809E+01 0. -1.
       -4    1    3    3    0  502 -0.35062791732E+03 -0.28450249991E+03 -0.35840253715E+03  0.57648555957E+03  0.12699999809E+01 0.  1.
</event>
<event>
 5   0  0.1459111E-02  0.1138658E+04  0.7818609E-02  0.9168312E-01
       -1   -1    0    0    0  501  0.00000000000E+00  0.00000000000E+00  0.26081986158E+03  0.26081986163E+03  0.50400001928E-02 0. -1.
        1   -1    0    0  501    0  0.00000000000E+00  0.00000000000E+00 -0.12427554330E+04  0.12427554330E+04  0.50400001928E-02 0.  1.
    10030    2    1    2    0    0  0.00000000000E+00  0.00000000000E+00 -0.98193557143E+03  0.15035752947E+04  0.11386576308E+04 0.  0.
        2    1    3    3  502    0  0.16861164019E+03  0.47405351503E+03 -0.13916766947E+03  0.52203856232E+03  0.25500000920E-02 0. -1.
       -2    1    3    3    0  502 -0.16861164019E+03 -0.47405351503E+03 -0.84276790197E+03  0.98153673233E+03  0.25500000920E-02 0.  1.
</event>
<event>
 5   0  0.1459111E-02  0.6613542E+03  0.7818609E-02  0.9785704E-01
        1   -1    0    0  501    0  0.00000000000E+00  0.00000000000E+00  0.14382430163E+03  0.14382430172E+03  0.50400001928E-02 0.  1.
       -1   -1    0    0    0  501  0.00000000000E+00  0.00000000000E+00 -0.76028423611E+03  0.76028423612E+03  0.50400001928E-02 0. -1.
    10030    2    1    2    0    0  0.00000000000E+00  0.00000000000E+00 -0.61645993448E+03  0.90410853784E+03  0.66135421476E+03 0.  0.
        2    1    3    3  502    0 -0.20327383179E+03  0.99044814237E+02  0.21616767461E+02  0.22715063407E+03  0.25500000920E-02 0.  1.
       -2    1    3    3    0  502  0.20327383179E+03 -0.99044814237E+02 -0.63807670194E+03  0.67695790377E+03  0.25500000920E-02 0. -1.
</event>
<event>
 5   0  0.1559275E-02  0.8919303E+03  0.7818609E-02  0.9435726E-01
       -1   -1    0    0    0  501  0.00000000000E+00  0.00000000000E+00  0.65203059570E+03  0.65203059572E+03  0.50400001928E-02 0.  1.
        1   -1    0    0  501    0  0.00000000000E+00  0.00000000000E+00 -0.30502387323E+03  0.30502387327E+03  0.50400001928E-02 0. -1.
    10030    2    1    2    0    0  0.00000000000E+00  0.00000000000E+00  0.34700672247E+03  0.95705446899E+03  0.89193026139E+03 0.  0.
        1    1    3    3  502    0 -0.31750303503E+03 -0.24815139587E+03  0.37849584683E+03  0.55285296293E+03  0.50400001928E-02 0.  1.
       -1    1    3    3    0  502  0.31750303503E+03  0.24815139587E+03 -0.31489124364E+02  0.40420150606E+03  0.50400001928E-02 0. -1.
</event>
<event>
 5   0  0.2414128E-02  0.9224645E+03  0.7818609E-02  0.9397927E-01
       -2   -1    0    0    0  501  0.00000000000E+00  0.00000000000E+00  0.84207814927E+03  0.84207814928E+03  0.25500000920E-02 0.  1.
        2   -1    0    0  501    0  0.00000000000E+00  0.00000000000E+00 -0.25263116884E+03  0.25263116885E+03  0.25500000920E-02 0. -1.
    10030    2    1    2    0    0  0.00000000000E+00  0.00000000000E+00  0.58944698043E+03  0.10947093181E+04  0.92246449713E+03 0.  0.
        3    1    3    3  502    0  0.17785971575E+03  0.13035795305E+03 -0.18602054191E+03  0.28849770644E+03  0.10100000352E+00 0. -1.
       -3    1    3    3    0  502 -0.17785971575E+03 -0.13035795305E+03  0.77546752234E+03  0.80621161169E+03  0.10100000352E+00 0.  1.
</event>
<event>
 5   0  0.1459111E-02  0.9180637E+03  0.7818609E-02  0.9403278E-01
        1   -1    0    0  501    0  0.00000000000E+00  0.00000000000E+00  0.42295096432E+03  0.42295096435E+03  0.50400001928E-02 0. -1.
       -1   -1    0    0    0  501  0.00000000000E+00  0.00000000000E+00 -0.49819067213E+03  0.49819067215E+03  0.50400001928E-02 0.  1.
    10030    2    1    2    0    0  0.00000000000E+00  0.00000000000E+00 -0.75239707812E+02  0.92114163650E+03  0.91806366928E+03 0.  0.
        2    1    3    3  502    0 -0.37137394361E+03  0.24227524490E+03  0.81497695933E+02  0.45084118570E+03  0.25500000920E-02 0.  1.
       -2    1    3    3    0  502  0.37137394361E+03 -0.24227524490E+03 -0.15673740375E+03  0.47030045079E+03  0.25500000920E-02 0. -1.
</event>
<event>
 5   0  0.1040163E-02  0.9022079E+03  0.7818609E-02  0.9422826E-01
        3   -1    0    0  501    0  0.00000000000E+00  0.00000000000E+00  0.20735459758E+03  0.20735462218E+03  0.10100000352E+00 0.  1.
       -3   -1    0    0    0  501  0.00000000000E+00  0.00000000000E+00 -0.98138520567E+03  0.98138521087E+03  0.10100000352E+00 0. -1.
    10030    2    1    2    0    0  0.00000000000E+00  0.00000000000E+00 -0.77403060809E+03  0.11887398330E+04  0.90220785211E+03 0.  0.
        4    1    3    3  502    0 -0.34784274275E+03 -0.27098625152E+03 -0.51246353013E+03  0.67605369966E+03  0.12699999809E+01 0. -1.
       -4    1    3    3    0  502  0.34784274275E+03  0.27098625152E+03 -0.26156707796E+03  0.51268613339E+03  0.12699999809E+01 0.  1.
</event>
<event>
 5   0  0.1459111E-02  0.9025975E+03  0.7818609E-02  0.9422340E-01
        1   -1    0    0  501    0  0.00000000000E+00  0.00000000000E+00  0.17034285293E+04  0.17034285293E+04  0.50400001928E-02 0.  1.
       -1   -1    0    0    0  501  0.00000000000E+00  0.00000000000E+00 -0.11956506954E+03  0.11956506964E+03  0.50400001928E-02 0. -1.
    10030    2    1    2    0    0  0.00000000000E+00  0.00000000000E+00  0.15838634597E+04  0.18229935989E+04  0.90259747542E+03 0.  0.
        2    1    3    3  502    0 -0.36540273560E+03  0.13277830059E+03  0.32906195535E+03  0.50934370199E+03  0.25500000920E-02 0.  1.
       -2    1    3    3    0  502  0.36540273560E+03 -0.13277830059E+03  0.12548015044E+04  0.13136498969E+04  0.25500000920E-02 0. -1.
</event>
<event>
 5   0  0.2803717E-02  0.7142702E+03  0.7818609E-02  0.9693135E-01
        2   -1    0    0  501    0  0.00000000000E+00  0.00000000000E+00  0.11686681197E+04  0.11686681197E+04  0.25500000920E-02 0. -1.
       -2   -1    0    0    0  501  0.00000000000E+00  0.00000000000E+00 -0.10913746608E+03  0.10913746611E+03  0.25500000920E-02 0.  1.
    10030    2    1    2    0    0  0.00000000000E+00  0.00000000000E+00  0.10595306536E+04  0.12778055858E+04  0.71427019339E+03 0.  0.
        5    1    3    3  502    0  0.14588681745E+03  0.30426951028E+03  0.73885634446E+03  0.81227685314E+03  0.46999998093E+01 0. -1.
       -5    1    3    3    0  502 -0.14588681745E+03 -0.30426951028E+03  0.32067430916E+03  0.46552873267E+03  0.46999998093E+01 0.  1.
</event>
<event>
 5   0  0.2705111E-02  0.9019862E+03  0.7818609E-02  0.9423102E-01
        2   -1    0    0  501    0  0.00000000000E+00  0.00000000000E+00  0.20765344556E+03  0.20765344557E+03  0.25500000920E-02 0.  1.
       -2   -1    0    0    0  501  0.00000000000E+00  0.00000000000E+00 -0.97949150638E+03  0.97949150638E+03  0.25500000920E-02 0. -1.
    10030    2    1    2    0    0  0.00000000000E+00  0.00000000000E+00 -0.77183806082E+03  0.11871449520E+04  0.90198622208E+03 0.  0.
        4    1    3    3  502    0  0.13602437474E+03 -0.42224669582E+03 -0.27900888773E+03  0.52406342649E+03  0.12699999809E+01 0. -1.
       -4    1    3    3    0  502 -0.13602437474E+03  0.42224669582E+03 -0.49282917309E+03  0.66308152546E+03  0.12699999809E+01 0.  1.
</event>
<event>
 5   0  0.1459111E-02  0.8984663E+03  0.7818609E-02  0.9427501E-01
       -1   -1    0    0    0  501  0.00000000000E+00  0.00000000000E+00  0.31604482728E+03  0.31604482732E+03  0.50400001928E-02 0. -1.
        1   -1    0    0  501    0  0.00000000000E+00  0.00000000000E+00 -0.63855002318E+03  0.63855002320E+03  0.50400001928E-02 0.  1.
    10030    2    1    2    0    0  0.00000000000E+00  0.00000000000E+00 -0.32250519590E+03  0.95459485053E+03  0.89846631949E+03 0.  0.
        2    1    3    3  502    0  0.14708694934E+03  0.17273508921E+02  0.28936245107E+03  0.32505933747E+03  0.25500000920E-02 0. -1.
       -2    1    3    3    0  502 -0.14708694934E+03 -0.17273508921E+02 -0.61186764698E+03  0.62953551306E+03  0.25500000920E-02 0.  1.
</event>
<event>
 5   0  0.1559275E-02  0.9507350E+03  0.7818609E-02  0.9364292E-01
        1   -1    0    0  501    0  0.00000000000E+00  0.00000000000E+00  0.68008138334E+03  0.68008138336E+03  0.50400001928E-02 0. -1.
       -1   -1    0    0    0  501  0.00000000000E+00  0.00000000000E+00 -0.33227534406E+03  0.33227534410E+03  0.50400001928E-02 0.  1.
    10030    2    1    2    0    0  0.00000000000E+00  0.00000000000E+00  0.34780603928E+03  0.10123567275E+04  0.95073503285E+03 0.  0.
        1    1    3    3  502    0  0.13631583745E+03  0.30197829505E+03 -0.18907448789E+03  0.38147353803E+03  0.50400001928E-02 0.  1.
       -1    1    3    3    0  502 -0.13631583745E+03 -0.30197829505E+03  0.53688052717E+03  0.63088318943E+03  0.50400001928E-02 0. -1.
</event>
<event>
 5   0  0.1497410E-02  0.9177902E+03  0.7818609E-02  0.9403612E-01
        1   -1    0    0  501    0  0.00000000000E+00  0.00000000000E+00  0.58334674018E+03  0.58334674020E+03  0.50400001928E-02 0. -1.
       -1   -1    0    0    0  501  0.00000000000E+00  0.00000000000E+00 -0.36099409816E+03  0.36099409819E+03  0.50400001928E-02 0.  1.
    10030    2    1    2    0    0  0.00000000000E+00  0.00000000000E+00  0.22235264202E+03  0.94434083839E+03  0.91779023836E+03 0.  0.
        3    1    3    3  502    0 -0.25273756245E+03  0.34881165244E+03  0.27399069757E+03  0.51050637303E+03  0.10100000352E+00 0. -1.
       -3    1    3    3    0  502  0.25273756245E+03 -0.34881165244E+03 -0.51638055546E+02  0.43383446536E+03  0.10100000352E+00 0.  1.
</event>
<event>
 5   0  0.2628383E-02  0.8702061E+03  0.7818609E-02  0.9463611E-01
        2   -1    0    0  501    0  0.00000000000E+00  0.00000000000E+00  0.96425985538E+03  0.96425985538E+03  0.25500000920E-02 0.  1.
       -2   -1    0    0    0  501  0.00000000000E+00  0.00000000000E+00 -0.19633156927E+03  0.19633156929E+03  0.25500000920E-02 0. -1.
    10030    2    1    2    0    0  0.00000000000E+00  0.00000000000E+00  0.76792828611E+03  0.11605914247E+04  0.87020606893E+03 0.  0.
        2    1    3    3  502    0 -0.76000510629E+02 -0.20044885157E+03 -0.12101038833E+03  0.24616931938E+03  0.25500000920E-02 0. -1.
       -2    1    3    3    0  502  0.76000510629E+02  0.20044885157E+03  0.88893867445E+03  0.91442210529E+03  0.25500000920E-02 0.  1.
</event>
<event>
 5   0  0.1559275E-02  0.9155715E+03  0.7818609E-02  0.9406323E-01
       -1   -1    0    0    0  501  0.00000000000E+00  0.00000000000E+00  0.77055868727E+03  0.77055868729E+03  0.50400001928E-02 0.  1.
        1   -1    0    0  501    0  0.00000000000E+00  0.00000000000E+00 -0.27196864122E+03  0.27196864127E+03  0.50400001928E-02 0. -1.
    10030    2    1    2    0    0  0.00000000000E+00  0.00000000000E+00  0.49859004605E+03  0.10425273286E+04  0.91557151373E+03 0.  0.
        1    1    3    3  502    0 -0.36276705392E+03 -0.23257131526E+03  0.73341399129E+02  0.43711361560E+03  0.50400001928E-02 0. -1.
       -1    1    3    3    0  502  0.36276705392E+03  0.23257131526E+03  0.42524864692E+03  0.60541371295E+03  0.50400001928E-02 0.  1.
</event>
<event>
 5   0  0.2803717E-02  0.7397409E+03  0.7818609E-02  0.9651584E-01
       -2   -1    0    0    0  501  0.00000000000E+00  0.00000000000E+00  0.30707516935E+03  0.30707516936E+03  0.25500000920E-02 0.  1.
        2   -1    0    0  501    0  0.00000000000E+00  0.00000000000E+00 -0.44550708442E+03  0.44550708443E+03  0.25500000920E-02 0. -1.
    10030    2    1    2    0    0  0.00000000000E+00  0.00000000000E+00 -0.13843191507E+03  0.75258225379E+03  0.73974093682E+03 0.  0.
        5    1    3    3  502    0 -0.26964386517E+03  0.56441725981E+02 -0.32025558530E+03  0.42246800159E+03  0.46999998093E+01 0. -1.
       -5    1    3    3    0  502  0.26964386517E+03 -0.56441725981E+02  0.18182367022E+03  0.33011425220E+03  0.46999998093E+01 0.  1.
</event>
<event>
 5   0  0.1559275E-02  0.9177960E+03  0.7818609E-02  0.9403605E-01
       -1   -1    0    0    0  501  0.00000000000E+00  0.00000000000E+00  0.78689468007E+03  0.78689468009E+03  0.50400001928E-02 0.  1.
        1   -1    0    0  501    0  0.00000000000E+00  0.00000000000E+00 -0.26761826297E+03  0.26761826302E+03  0.50400001928E-02 0. -1.
    10030    2    1    2    0    0  0.00000000000E+00  0.00000000000E+00  0.51927641710E+03  0.10545129431E+04  0.91779602845E+03 0.  0.
        1    1    3    3  502    0  0.27230506987E+03 -0.49025820531E+02 -0.16100406333E+03  0.32011855708E+03  0.50400001928E-02 0. -1.
       -1    1    3    3    0  502 -0.27230506987E+03  0.49025820531E+02  0.68028048042E+03  0.73439438603E+03  0.50400001928E-02 0.  1.
</event>
<event>
 5   0  0.2628383E-02  0.8739939E+03  0.7818609E-02  0.9458687E-01
        2   -1    0    0  501    0  0.00000000000E+00  0.00000000000E+00  0.12911296889E+04  0.12911296889E+04  0.25500000920E-02 0.  1.
       -2   -1    0    0    0  501  0.00000000000E+00  0.00000000000E+00 -0.14790639535E+03  0.14790639537E+03  0.25500000920E-02 0. -1.
    10030    2    1    2    0    0  0.00000000000E+00  0.00000000000E+00  0.11432232935E+04  0.14390360842E+04  0.87399390896E+03 0.  0.
        2    1    3    3  502    0 -0.12658332545E+03 -0.59577078378E+02 -0.11003694643E+03  0.17799128107E+03  0.25500000920E-02 0. -1.
       -2    1    3    3    0  502  0.12658332545E+03  0.59577078378E+02  0.12532602400E+04  0.12610448032E+04  0.25500000920E-02 0.  1.
</event>
<event>
 5   0  0.1537870E-02  0.8106788E+03  0.7818609E-02  0.9544687E-01
        1   -1    0    0  501    0  0.00000000000E+00  0.00000000000E+00  0.87667885840E+03  0.87667885841E+03  0.50400001928E-02 0. -1.
       -1   -1    0    0    0  501  0.00000000000E+00  0.00000000000E+00 -0.18741185894E+03  0.18741185901E+03  0.50400001928E-02 0.  1.
    10030    2    1    2    0    0  0.00000000000E+00  0.00000000000E+00  0.68926699946E+03  0.10640907174E+04  0.81067876398E+03 0.  0.
        5    1    3    3  502    0 -0.39883541795E+03 -0.69022831996E+02  0.31697288930E+03  0.51412814015E+03  0.46999998093E+01 0. -1.
       -5    1    3    3    0  502  0.39883541795E+03  0.69022831996E+02  0.37229411016E+03  0.54996257728E+03  0.46999998093E+01 0.  1.
</event>
<event>
 5   0  0.2414128E-02  0.8109993E+03  0.7818609E-02  0.9544231E-01
       -2   -1    0    0    0  501  0.00000000000E+00  0.00000000000E+00  0.10012084452E+03  0.10012084455E+03  0.25500000920E-02 0.  1.
        2   -1    0    0  501    0  0.00000000000E+00  0.00000000000E+00 -0.16423149077E+04  0.16423149077E+04  0.25500000920E-02 0. -1.
    10030    2    1    2    0    0  0.00000000000E+00  0.00000000000E+00 -0.15421940632E+04  0.17424357522E+04  0.81099927387E+03 0.  0.
        3    1    3    3  502    0  0.37206633025E+03 -0.16058234253E+03 -0.73996946836E+03  0.84366750983E+03  0.10100000352E+00 0. -1.
       -3    1    3    3    0  502 -0.37206633025E+03  0.16058234253E+03 -0.80222459479E+03  0.89876824239E+03  0.10100000352E+00 0.  1.
</event>
<event>
 5   0  0.1559275E-02  0.8909769E+03  0.7818609E-02  0.9436932E-01
        1   -1    0    0  501    0  0.00000000000E+00  0.00000000000E+00  0.60973400632E+03  0.60973400634E+03  0.50400001928E-02 0.  1.
       -1   -1    0    0    0  501  0.00000000000E+00  0.00000000000E+00 -0.32548610613E+03  0.32548610616E+03  0.50400001928E-02 0. -1.
    10030    2    1    2    0    0  0.00000000000E+00  0.00000000000E+00  0.28424790019E+03  0.93522011250E+03  0.89097687403E+03 0.  0.
        1    1    3    3  502    0 -0.36232837774E+03 -0.20180782933E+03  0.31283992122E+03  0.51949693900E+03  0.50400001928E-02 0.  1.
       -1    1    3    3    0  502  0.36232837774E+03  0.20180782933E+03 -0.28592021032E+02  0.41572317350E+03  0.50400001928E-02 0. -1.
</event>
<event>
 5   0  0.1459111E-02  0.8915153E+03  0.7818609E-02  0.9436250E-01
       -1   -1    0    0    0  501  0.00000000000E+00  0.00000000000E+00  0.42840424986E+03  0.42840424989E+03  0.50400001928E-02 0.  1.
        1   -1    0    0  501    0  0.00000000000E+00  0.00000000000E+00 -0.46381402829E+03  0.46381402831E+03  0.50400001928E-02 0. -1.
    10030    2    1    2    0    0  0.00000000000E+00  0.00000000000E+00 -0.35409778425E+02  0.89221827821E+03  0.89151534118E+03 0.  0.
        2    1    3    3  502    0  0.35571359466E+03 -0.21090974332E+02  0.25031760650E+03  0.43547203671E+03  0.25500000920E-02 0. -1.
       -2    1    3    3    0  502 -0.35571359466E+03  0.21090974332E+02 -0.28572738492E+03  0.45674624150E+03  0.25500000920E-02 0.  1.
</event>
<event>
 5   0  0.2414128E-02  0.9115842E+03  0.7818609E-02  0.9411215E-01
        2   -1    0    0  501    0  0.00000000000E+00  0.00000000000E+00  0.13547778524E+04  0.13547778524E+04  0.25500000920E-02 0. -1.
       -2   -1    0    0    0  501  0.00000000000E+00  0.00000000000E+00 -0.15334355266E+03  0.15334355268E+03  0.25500000920E-02 0.  1.
    10030    2    1    2    0    0  0.00000000000E+00  0.00000000000E+00  0.12014342997E+04  0.15081214051E+04  0.91158422313E+03 0.  0.
        3    1    3    3  502    0  0.27827024257E+03 -0.36096701744E+03  0.59432612883E+03  0.74896934062E+03  0.10100000352E+00 0.  1.
       -3    1    3    3    0  502 -0.27827024257E+03  0.36096701744E+03  0.60710817090E+03  0.75915206445E+03  0.10100000352E+00 0. -1.
</event>
<event>
 5   0  0.1497410E-02  0.7837266E+03  0.7818609E-02  0.9583876E-01
       -1   -1    0    0    0  501  0.00000000000E+00  0.00000000000E+00  0.40004855178E+03  0.40004855182E+03  0.50400001928E-02 0.  1.
        1   -1    0    0  501    0  0.00000000000E+00  0.00000000000E+00 -0.38384553063E+03  0.38384553066E+03  0.50400001928E-02 0. -1.
    10030    2    1    2    0    0  0.00000000000E+00  0.00000000000E+00  0.16203021155E+02  0.78389408248E+03  0.78372660708E+03 0.  0.
        3    1    3    3  502    0  0.31156231966E+03  0.13227717763E+03  0.20559878266E+03  0.39602929234E+03  0.10100000352E+00 0.  1.
       -3    1    3    3    0  502 -0.31156231966E+03 -0.13227717763E+03 -0.18939576150E+03  0.38786479014E+03  0.10100000352E+00 0. -1.
</event>
<event>
 5   0  0.2679861E-02  0.6735718E+03  0.7818609E-02  0.9763527E-01
        2   -1    0    0  501    0  0.00000000000E+00  0.00000000000E+00  0.11256985256E+04  0.11256985256E+04  0.25500000920E-02 0. -1.
       -2   -1    0    0    0  501  0.00000000000E+00  0.00000000000E+00 -0.10075941649E+03  0.10075941652E+03  0.25500000920E-02 0.  1.
    10030    2    1    2    0    0  0.00000000000E+00  0.00000000000E+00  0.10249391091E+04  0.12264579421E+04  0.67357175298E+03 0.  0.
        1    1    3    3  502    0 -0.31977764878E+01  0.51015047177E+02 -0.93655342368E+02  0.10669622295E+03  0.50400001928E-02 0.  1.
       -1    1    3    3    0  502  0.31977764878E+01 -0.51015047177E+02  0.11185944515E+04  0.11197617192E+04  0.50400001928E-02 0. -1.
</event>
<event>
 5   0  0.1559275E-02  0.8073405E+03  0.7818609E-02  0.9549452E-01
        1   -1    0    0  501    0  0.00000000000E+00  0.00000000000E+00  0.15238352782E+04  0.15238352782E+04  0.50400001928E-02 0. -1.
       -1   -1    0    0    0  501  0.00000000000E+00  0.00000000000E+00 -0.10693390514E+03  0.10693390526E+03  0.50400001928E-02 0.  1.
    10030    2    1    2    0    0  0.00000000000E+00  0.00000000000E+00  0.14169013731E+04  0.16307691835E+04  0.80734046648E+03 0.  0.
        1    1    3    3  502    0  0.19791274957E+03 -0.35180180758E+03  0.71645146623E+03  0.82233610631E+03  0.50400001928E-02 0. -1.
       -1    1    3    3    0  502 -0.19791274957E+03  0.35180180758E+03  0.70044990686E+03  0.80843307720E+03  0.50400001928E-02 0.  1.
</event>
<event>
 5   0  0.2628383E-02  0.1049337E+04  0.7818609E-02  0.9256029E-01
       -2   -1    0    0    0  501  0.00000000000E+00  0.00000000000E+00  0.74899417624E+03  0.74899417625E+03  0.25500000920E-02 0.  1.
        2   -1    0    0  501    0  0.00000000000E+00  0.00000000000E+00 -0.36752905224E+03  0.36752905225E+03  0.25500000920E-02 0. -1.
    10030    2    1    2    0    0  0.00000000000E+00  0.00000000000E+00  0.38146512401E+03  0.11165232285E+04  0.10493371617E+04 0.  0.
        2    1    3    3  502    0  0.36831046922E+03 -0.15530663686E+02 -0.20651213305E+03  0.42254119841E+03  0.25500000920E-02 0.  1.
       -2    1    3    3    0  502 -0.36831046922E+03  0.15530663686E+02  0.58797725706E+03  0.69398203008E+03  0.25500000920E-02 0. -1.
</event>
<event>
 5   0  0.1497410E-02  0.9060316E+03  0.7818609E-02  0.9418073E-01
       -1   -1    0    0    0  501  0.00000000000E+00  0.00000000000E+00  0.24489009860E+03  0.24489009866E+03  0.50400001928E-02 0. -1.
        1   -1    0    0  501    0  0.00000000000E+00  0.00000000000E+00 -0.83802214310E+03  0.83802214311E+03  0.50400001928E-02 0.  1.
    10030    2    1    2    0    0  0.00000000000E+00  0.00000000000E+00 -0.59313204449E+03  0.10829122418E+04  0.90603162261E+03 0.  0.
        3    1    3    3  502    0  0.45153240946E+03 -0.91187545752E+01 -0.25416251174E+03  0.51823089551E+03  0.10100000352E+00 0. -1.
       -3    1    3    3    0  502 -0.45153240946E+03  0.91187545752E+01 -0.33896953275E+03  0.56468134626E+03  0.10100000352E+00 0.  1.
</event>
<event>
 5   0  0.2705111E-02  0.9292939E+03  0.7818609E-02  0.9389686E-01
       -2   -1    0    0    0  501  0.00000000000E+00  0.00000000000E+00  0.36654826127E+03  0.36654826128E+03  0.25500000920E-02 0.  1.
        2   -1    0    0  501    0  0.00000000000E+00  0.00000000000E+00 -0.58899956164E+03  0.58899956164E+03  0.25500000920E-02 0. -1.
    10030    2    1    2    0    0  0.00000000000E+00  0.00000000000E+00 -0.22245130036E+03  0.95554782293E+03  0.92929385065E+03 0.  0.
        4    1    3    3  502    0 -0.23045085304E+03  0.39516384132E+03 -0.19497037850E+03  0.49726966381E+03  0.12699999809E+01 0. -1.
       -4    1    3    3    0  502  0.23045085304E+03 -0.39516384132E+03 -0.27480921864E+02  0.45827815911E+03  0.12699999809E+01 0.  1.
</event>
<event>
 5   0  0.2679861E-02  0.9119517E+03  0.7818609E-02  0.9410763E-01
        2   -1    0    0  501    0  0.00000000000E+00  0.00000000000E+00  0.19348171703E+04  0.19348171703E+04  0.25500000920E-02 0.  1.
       -2   -1    0    0    0  501  0.00000000000E+00  0.00000000000E+00 -0.10745923172E+03  0.10745923175E+03  0.25500000920E-02 0. -1.
    10030    2    1    2    0    0  0.00000000000E+00  0.00000000000E+00  0.18273579386E+04  0.20422764021E+04  0.91195168005E+03 0.  0.
        1    1    3    3  502    0 -0.56882191295E+02 -0.15618488140E+03  0.18645510284E+04  0.18719454689E+04  0.50400001928E-02 0.  1.
       -1    1    3    3    0  502  0.56882191295E+02  0.15618488140E+03 -0.37193089777E+02  0.17033093324E+03  0.50400001928E-02 0. -1.
</event>
<event>
 5   0  0.1497410E-02  0.9148919E+03  0.7818609E-02  0.9407155E-01
       -1   -1    0    0    0  501  0.00000000000E+00  0.00000000000E+00  0.24694294841E+03  0.24694294846E+03  0.50400001928E-02 0.  1.
        1   -1    0    0  501    0  0.00000000000E+00  0.00000000000E+00 -0.84738929954E+03  0.84738929956E+03  0.50400001928E-02 0. -1.
    10030    2    1    2    0    0  0.00000000000E+00  0.00000000000E+00 -0.60044635113E+03  0.10943322480E+04  0.91489193267E+03 0.  0.
        3    1    3    3  502    0  0.18189103876E+03 -0.14985759213E+03  0.16873891970E+03  0.28985251616E+03  0.10100000352E+00 0.  1.
       -3    1    3    3    0  502 -0.18189103876E+03  0.14985759213E+03 -0.76918527083E+03  0.80447973186E+03  0.10100000352E+00 0. -1.
</event>
<event>
 5   0  0.1537870E-02  0.1214862E+04  0.7818609E-02  0.9099946E-01
       -1   -1    0    0    0  501  0.00000000000E+00  0.00000000000E+00  0.25265336937E+03  0.25265336942E+03  0.50400001928E-02 0.  1.
        1   -1    0    0  501    0  0.00000000000E+00  0.00000000000E+00 -0.14603901585E+04  0.14603901585E+04  0.50400001928E-02 0. -1.
    10030    2    1    2    0    0  0.00000000000E+00  0.00000000000E+00 -0.12077367892E+04  0.17130435280E+04  0.12148621225E+04 0.  0.
        5    1    3    3  502    0 -0.15684928924E+03  0.93500454502E+02 -0.14207450861E+04  0.14324394313E+04  0.46999998093E+01 0. -1.
       -5    1    3    3    0  502  0.15684928924E+03 -0.93500454502E+02  0.21300829693E+03  0.28060409671E+03  0.46999998093E+01 0.  1.
</event>
<event>
 5   0  0.1497410E-02  0.1018274E+04  0.7818609E-02  0.9288726E-01
       -1   -1    0    0    0  501  0.00000000000E+00  0.00000000000E+00  0.61330819620E+03  0.61330819622E+03  0.50400001928E-02 0. -1.
        1   -1    0    0  501    0  0.00000000000E+00  0.00000000000E+00 -0.42265976322E+03  0.42265976325E+03  0.50400001928E-02 0.  1.
    10030    2    1    2    0    0  0.00000000000E+00  0.00000000000E+00  0.19064843299E+03  0.10359679595E+04  0.10182744169E+04 0.  0.
        3    1    3    3  502    0 -0.89253355255E+02  0.99555405728E+02 -0.40447902258E+03  0.42600555177E+03  0.10100000352E+00 0.  1.
       -3    1    3    3    0  502  0.89253355255E+02 -0.99555405728E+02  0.59512745556E+03  0.60996240770E+03  0.10100000352E+00 0. -1.
</event>
<event>
 5   0  0.1537870E-02  0.8829104E+03  0.7818609E-02  0.9447200E-01
        1   -1    0    0  501    0  0.00000000000E+00  0.00000000000E+00  0.62161881524E+03  0.62161881526E+03  0.50400001928E-02 0. -1.
       -1   -1    0    0    0  501  0.00000000000E+00  0.00000000000E+00 -0.31350834378E+03  0.31350834382E+03  0.50400001928E-02 0.  1.
    10030    2    1    2    0    0  0.00000000000E+00  0.00000000000E+00  0.30811047145E+03  0.93512715908E+03  0.88291038109E+03 0.  0.
        5    1    3    3  502    0  0.24455359853E+03  0.35871808242E+03  0.23862403263E+03  0.49542773858E+03  0.46999998093E+01 0.  1.
       -5    1    3    3    0  502 -0.24455359853E+03 -0.35871808242E+03  0.69486438821E+02  0.43969942050E+03  0.46999998093E+01 0. -1.
</event>
<event>
 5   0  0.2628383E-02  0.9125857E+03  0.7818609E-02  0.9409984E-01
        2   -1    0    0  501    0  0.00000000000E+00  0.00000000000E+00  0.12060023869E+04  0.12060023869E+04  0.25500000920E-02 0.  1.
       -2   -1    0    0    0  501  0.00000000000E+00  0.00000000000E+00 -0.17263910535E+03  0.17263910537E+03  0.25500000920E-02 0. -1.
    10030    2    1    2    0    0  0.00000000000E+00  0.00000000000E+00  0.10333632816E+04  0.13786414923E+04  0.91258571795E+03 0.  0.
        2    1    3    3  502    0 -0.28024610019E+03 -0.34347229041E+03  0.35332996012E+03  0.56688019165E+03  0.25500000920E-02 0. -1.
       -2    1    3    3    0  502  0.28024610019E+03  0.34347229041E+03  0.68003332146E+03  0.81176130066E+03  0.25500000920E-02 0.  1.
</event>
<event>
 5   0  0.1559275E-02  0.9105902E+03  0.7818609E-02  0.9412439E-01
        1   -1    0    0  501    0  0.00000000000E+00  0.00000000000E+00  0.51631304419E+03  0.51631304422E+03  0.50400001928E-02 0.  1.
       -1   -1    0    0    0  501  0.00000000000E+00  0.00000000000E+00 -0.40148823512E+03  0.40148823516E+03  0.50400001928E-02 0. -1.
    10030    2    1    2    0    0  0.00000000000E+00  0.00000000000E+00  0.11482480907E+03  0.91780127937E+03  0.91059016667E+03 0.  0.
        1    1    3    3  502    0 -0.27548459478E+03 -0.43813222766E+02 -0.30527362361E+03  0.41352550798E+03  0.50400001928E-02 0. -1.
       -1    1    3    3    0  502  0.27548459478E+03  0.43813222766E+02  0.42009843268E+03  0.50427577139E+03  0.50400001928E-02 0.  1.
</event>
<event>
 5   0  0.2679861E-02  0.8936884E+03  0.7818609E-02  0.9433506E-01
       -2   -1    0    0    0  501  0.00000000000E+00  0.00000000000E+00  0.22609407949E+03  0.22609407951E+03  0.25500000920E-02 0.  1.
        2   -1    0    0  501    0  0.00000000000E+00  0.00000000000E+00 -0.88312678571E+03  0.88312678571E+03  0.25500000920E-02 0. -1.
    10030    2    1    2    0    0  0.00000000000E+00  0.00000000000E+00 -0.65703270622E+03  0.11092208652E+04  0.89368839693E+03 0.  0.
        1    1    3    3  502    0  0.10445395272E+03  0.40263842430E+03 -0.53110285416E+03  0.67460993965E+03  0.50400001928E-02 0. -1.
       -1    1    3    3    0  502 -0.10445395272E+03 -0.40263842430E+03 -0.12592985206E+03  0.43461092557E+03  0.50400001928E-02 0.  1.
</event>
<event>
 5   0  0.2705111E-02  0.9371322E+03  0.7818609E-02  0.9380319E-01
       -2   -1    0    0    0  501  0.00000000000E+00  0.00000000000E+00  0.14116665814E+03  0.14116665816E+03  0.25500000920E-02 0.  1.
        2   -1    0    0  501    0  0.00000000000E+00  0.00000000000E+00 -0.15552837292E+04  0.15552837292E+04  0.25500000920E-02 0. -1.
    10030    2    1    2    0    0  0.00000000000E+00  0.00000000000E+00 -0.14141170710E+04  0.16964503873E+04  0.93713223511E+03 0.  0.
        4    1    3    3  502    0  0.83620005110E+02  0.34126217927E+03 -0.12682394782E+04  0.13160110817E+04  0.12699999809E+01 0. -1.
       -4    1    3    3    0  502 -0.83620005110E+02 -0.34126217927E+03 -0.14587759283E+03  0.38043930560E+03  0.12699999809E+01 0.  1.
</event>
<event>
 5   0  0.1497410E-02  0.8985497E+03  0.7818609E-02  0.9427396E-01
        1   -1    0    0  501    0  0.00000000000E+00  0.00000000000E+00  0.81559636405E+03  0.81559636407E+03  0.50400001928E-02 0. -1.
       -1   -1    0    0    0  501  0.00000000000E+00  0.00000000000E+00 -0.24748501115E+03  0.24748501121E+03  0.50400001928E-02 0.  1.
    10030    2    1    2    0    0  0.00000000000E+00  0.00000000000E+00  0.56811135290E+03  0.10630813753E+04  0.89854966539E+03 0.  0.
        3    1    3    3  502    0 -0.30450988412E+03  0.24952506982E+03  0.54016192033E+03  0.66840402480E+03  0.10100000352E+00 0.  1.
       -3    1    3    3    0  502  0.30450988412E+03 -0.24952506982E+03  0.27949432571E+02  0.39467735048E+03  0.10100000352E+00 0. -1.
</event>
<event>
 5   0  0.2414128E-02  0.8944163E+03  0.7818609E-02  0.9432588E-01
       -2   -1    0    0    0  501  0.00000000000E+00  0.00000000000E+00  0.21740706454E+03  0.21740706456E+03  0.25500000920E-02 0. -1.
        2   -1    0    0  501    0  0.00000000000E+00  0.00000000000E+00 -0.91991094213E+03  0.91991094214E+03  0.25500000920E-02 0.  1.
    10030    2    1    2    0    0  0.00000000000E+00  0.00000000000E+00 -0.70250387759E+03  0.11373180067E+04  0.89441631823E+03 0.  0.
        3    1    3    3  502    0 -0.37871321137E+03  0.10496101793E+03 -0.62265103332E+03  0.73629805870E+03  0.10100000352E+00 0.  1.
       -3    1    3    3    0  502  0.37871321137E+03 -0.10496101793E+03 -0.79852844269E+02  0.40101994799E+03  0.10100000352E+00 0. -1.
</event>
<event>
 5   0  0.2414128E-02  0.8913229E+03  0.7818609E-02  0.9436494E-01
        2   -1    0    0  501    0  0.00000000000E+00  0.00000000000E+00  0.12505175058E+04  0.12505175058E+04  0.25500000920E-02 0. -1.
       -2   -1    0    0    0  501  0.00000000000E+00  0.00000000000E+00 -0.15882553903E+03  0.15882553905E+03  0.25500000920E-02 0.  1.
    10030    2    1    2    0    0  0.00000000000E+00  0.00000000000E+00  0.10916919668E+04  0.14093430448E+04  0.89132287515E+03 0.  0.
        3    1    3    3  502    0 -0.16598313602E+03 -0.35491436178E+02  0.11974079166E+04  0.12093782586E+04  0.10100000352E+00 0. -1.
       -3    1    3    3    0  502  0.16598313602E+03  0.35491436178E+02 -0.10571594983E+03  0.19996478623E+03  0.10100000352E+00 0.  1.
</event>
<event>
 5   0  0.1459111E-02  0.8999035E+03  0.7818609E-02  0.9425702E-01
       -1   -1    0    0    0  501  0.00000000000E+00  0.00000000000E+00  0.46454594554E+03  0.46454594557E+03  0.50400001928E-02 0. -1.
        1   -1    0    0  501    0  0.00000000000E+00  0.00000000000E+00 -0.43581604096E+03  0.43581604098E+03  0.50400001928E-02 0.  1.
    10030    2    1    2    0    0  0.00000000000E+00  0.00000000000E+00  0.28729904585E+02  0.90036198655E+03  0.89990349450E+03 0.  0.
        2    1    3    3  502    0  0.25399229509E+03 -0.48433154930E+02 -0.35405997362E+03  0.43842481840E+03  0.25500000920E-02 0.  1.
       -2    1    3    3    0  502 -0.25399229509E+03  0.48433154930E+02  0.38278987820E+03  0.46193716816E+03  0.25500000920E-02 0. -1.
</event>
<event>
 5   0  0.1497410E-02  0.7832192E+03  0.7818609E-02  0.9584629E-01
       -1   -1    0    0    0  501  0.00000000000E+00  0.00000000000E+00  0.10568345822E+03  0.10568345834E+03  0.50400001928E-02 0. -1.
        1   -1    0    0  501    0  0.00000000000E+00  0.00000000000E+00 -0.14511077264E+04  0.14511077264E+04  0.50400001928E-02 0.  1.
    10030    2    1    2    0    0  0.00000000000E+00  0.00000000000E+00 -0.13454242682E+04  0.15567911848E+04  0.78321921037E+03 0.  0.
        3    1    3    3  502    0  0.19769337199E+03  0.10328450146E+03 -0.13125104326E+04  0.13313279099E+04  0.10100000352E+00 0.  1.
       -3    1    3    3    0  502 -0.19769337199E+03 -0.10328450146E+03 -0.32913835587E+02  0.22546327493E+03  0.10100000352E+00 0. -1.
</event>
<event>
 5   0  0.1559275E-02  0.8808455E+03  0.7818609E-02  0.9449847E-01
       -1   -1    0    0    0  501  0.00000000000E+00  0.00000000000E+00  0.16999219795E+03  0.16999219803E+03  0.50400001928E-02 0.  1.
        1   -1    0    0  501    0  0.00000000000E+00  0.00000000000E+00 -0.11410653549E+04  0.11410653549E+04  0.50400001928E-02 0. -1.
    10030    2    1    2    0    0  0.00000000000E+00  0.00000000000E+00 -0.97107315694E+03  0.13110575529E+04  0.88084552050E+03 0.  0.
        1    1    3    3  502    0  0.36472304309E+03  0.44821563163E+02 -0.12418636620E+03  0.38788416346E+03  0.50400001928E-02 0.  1.
       -1    1    3    3    0  502 -0.36472304309E+03 -0.44821563163E+02 -0.84688679074E+03  0.92317338948E+03  0.50400001928E-02 0. -1.
</event>
<event>
 5   0  0.2803717E-02  0.8990112E+03  0.7818609E-02  0.9426818E-01
        2   -1    0    0  501    0  0.00000000000E+00  0.00000000000E+00  0.45409275964E+03  0.45409275965E+03  0.25500000920E-02 0. -1.
       -2   -1    0    0    0  501  0.00000000000E+00  0.00000000000E+00 -0.44496475609E+03  0.44496475610E+03  0.25500000920E-02 0.  1.
    10030    2    1    2    0    0  0.00000000000E+00  0.00000000000E+00  0.91280035508E+01  0.89905751575E+03  0.89901117689E+03 0.  0.
        5    1    3    3  502    0  0.29383753373E+03 -0.20074909482E+03  0.27915508147E+03  0.45231664220E+03  0.46999998093E+01 0. -1.
       -5    1    3    3    0  502 -0.29383753373E+03  0.20074909482E+03 -0.27002707792E+03  0.44674087356E+03  0.46999998093E+01 0.  1.
</event>
<event>
 5   0  0.2414128E-02  0.8882020E+03  0.7818609E-02  0.9440451E-01
        2   -1    0    0  501    0  0.00000000000E+00  0.00000000000E+00  0.13972397057E+04  0.13972397057E+04  0.25500000920E-02 0. -1.
       -2   -1    0    0    0  501  0.00000000000E+00  0.00000000000E+00 -0.14115381169E+03  0.14115381171E+03  0.25500000920E-02 0.  1.
    10030    2    1    2    0    0  0.00000000000E+00  0.00000000000E+00  0.12560858940E+04  0.15383935174E+04  0.88820202731E+03 0.  0.
        3    1    3    3  502    0  0.20000093770E+03 -0.26074131788E+03  0.11063423774E+03  0.34673672245E+03  0.10100000352E+00 0.  1.
       -3    1    3    3    0  502 -0.20000093770E+03  0.26074131788E+03  0.11454516563E+04  0.11916567950E+04  0.10100000352E+00 0. -1.
</event>
<event>
 5   0  0.2705111E-02  0.9455511E+03  0.7818609E-02  0.9370366E-01
        2   -1    0    0  501    0  0.00000000000E+00  0.00000000000E+00  0.20181636618E+04  0.20181636618E+04  0.25500000920E-02 0.  1.
       -2   -1    0    0    0  501  0.00000000000E+00  0.00000000000E+00 -0.11075253400E+03  0.11075253403E+03  0.25500000920E-02 0. -1.
    10030    2    1    2    0    0  0.00000000000E+00  0.00000000000E+00  0.19074111278E+04  0.21289161959E+04  0.94555114003E+03 0.  0.
        4    1    3    3  502    0  0.18229642520E+03 -0.12702340970E+03  0.14127151130E+02  0.22263899603E+03  0.12699999809E+01 0. -1.
       -4    1    3    3    0  502 -0.18229642520E+03  0.12702340970E+03  0.18932839767E+04  0.19062771998E+04  0.12699999809E+01 0.  1.
</event>
<event>
 5   0  0.2414128E-02  0.9137546E+03  0.7818609E-02  0.9408549E-01
        2   -1    0    0  501    0  0.00000000000E+00  0.00000000000E+00  0.48946173283E+03  0.48946173284E+03  0.25500000920E-02 0.  1.
       -2   -1    0    0    0  501  0.00000000000E+00  0.00000000000E+00 -0.42646203125E+03  0.42646203126E+03  0.25500000920E-02 0. -1.
    10030    2    1    2    0    0  0.00000000000E+00  0.00000000000E+00  0.62999701583E+02  0.91592376410E+03  0.91375455088E+03 0.  0.
        3    1    3    3  502    0  0.32173629526E+03  0.32431074486E+03  0.24765890080E+02  0.45749870211E+03  0.10100000352E+00 0.  1.
       -3    1    3    3    0  502 -0.32173629526E+03 -0.32431074486E+03  0.38233811503E+02  0.45842506199E+03  0.10100000352E+00 0. -1.
</event>
<event>
 5   0  0.1537870E-02  0.9006840E+03  0.7818609E-02  0.9424727E-01
       -1   -1    0    0    0  501  0.00000000000E+00  0.00000000000E+00  0.31190897603E+03  0.31190897607E+03  0.50400001928E-02 0.  1.
        1   -1    0    0  501    0  0.00000000000E+00  0.00000000000E+00 -0.65021509363E+03  0.65021509365E+03  0.50400001928E-02 0. -1.
    10030    2    1    2    0    0  0.00000000000E+00  0.00000000000E+00 -0.33830611760E+03  0.96212406972E+03  0.90068401581E+03 0.  0.
        5    1    3    3  502    0 -0.28589188813E+03  0.33977789130E+03 -0.89196286688E+02  0.45294729790E+03  0.46999998093E+01 0. -1.
       -5    1    3    3    0  502  0.28589188813E+03 -0.33977789130E+03 -0.24910983091E+03  0.50917677183E+03  0.46999998093E+01 0.  1.
</event>
<event>
 5   0  0.1560728E-02  0.8884453E+03  0.7818609E-02  0.9440142E-01
       -1   -1    0    0    0  501  0.00000000000E+00  0.00000000000E+00  0.45714522501E+03  0.45714522503E+03  0.50400001928E-02 0. -1.
        1   -1    0    0  501    0  0.00000000000E+00  0.00000000000E+00 -0.43166541593E+03  0.43166541596E+03  0.50400001928E-02 0.  1.
    10030    2    1    2    0    0  0.00000000000E+00  0.00000000000E+00  0.25479809073E+02  0.88881064100E+03  0.88844534715E+03 0.  0.
        4    1    3    3  502    0 -0.22721763608E+03 -0.35090780285E+03 -0.13754846015E+03  0.44009695754E+03  0.12699999809E+01 0. -1.
       -4    1    3    3    0  502  0.22721763608E+03  0.35090780285E+03  0.16302826923E+03  0.44871368345E+03  0.12699999809E+01 0.  1.
</event>
<event>
 5   0  0.1537870E-02  0.8844118E+03  0.7818609E-02  0.9445280E-01
        1   -1    0    0  501    0  0.00000000000E+00  0.00000000000E+00  0.64842985655E+03  0.64842985657E+03  0.50400001928E-02 0. -1.
       -1   -1    0    0    0  501  0.00000000000E+00  0.00000000000E+00 -0.30156854338E+03  0.30156854342E+03  0.50400001928E-02 0.  1.
    10030    2    1    2    0    0  0.00000000000E+00  0.00000000000E+00  0.34686131318E+03  0.94999839999E+03  0.88441177594E+03 0.  0.
        5    1    3    3  502    0 -0.18132469822E+03  0.40151187457E+02 -0.25761776570E+03  0.31761575409E+03  0.46999998093E+01 0.  1.
       -5    1    3    3    0  502  0.18132469822E+03 -0.40151187457E+02  0.60447907888E+03  0.63238264591E+03  0.46999998093E+01 0. -1.
</event>
<event>
 5   0  0.1560728E-02  0.9498646E+03  0.7818609E-02  0.9365309E-01
       -1   -1    0    0    0  501  0.00000000000E+00  0.00000000000E+00  0.43660856739E+03  0.43660856742E+03  0.50400001928E-02 0.  1.
        1   -1    0    0  501    0  0.00000000000E+00  0.00000000000E+00 -0.51661994389E+03  0.51661994391E+03  0.50400001928E-02 0. -1.
    10030    2    1    2    0    0  0.00000000000E+00  0.00000000000E+00 -0.80011376494E+02  0.95322851134E+03  0.94986460849E+03 0.  0.
        4    1    3    3  502    0  0.13610121463E+03 -0.54128935592E+02 -0.49338612443E+03  0.51466976108E+03  0.12699999809E+01 0. -1.
       -4    1    3    3    0  502 -0.13610121463E+03  0.54128935592E+02  0.41337474794E+03  0.43855875025E+03  0.12699999809E+01 0.  1.
</event>
<event>
 5   0  0.2414128E-02  0.8496938E+03  0.7818609E-02  0.9490748E-01
       -2   -1    0    0    0  501  0.00000000000E+00  0.00000000000E+00  0.80663912377E+03  0.80663912377E+03  0.25500000920E-02 0.  1.
        2   -1    0    0  501    0  0.00000000000E+00  0.00000000000E+00 -0.22376165479E+03  0.22376165481E+03  0.25500000920E-02 0. -1.
    10030    2    1    2    0    0  0.00000000000E+00  0.00000000000E+00  0.58287746897E+03  0.10304007786E+04  0.84969383937E+03 0.  0.
        3    1    3    3  502    0  0.34847770848E+03  0.83222544465E+02  0.56832198985E+03  0.67182780499E+03  0.10100000352E+00 0.  1.
       -3    1    3    3    0  502 -0.34847770848E+03 -0.83222544465E+02  0.14555479120E+02  0.35857297358E+03  0.10100000352E+00 0. -1.
</event>
<event>
 5   0  0.1497410E-02  0.9468590E+03  0.7818609E-02  0.9368830E-01
        1   -1    0    0  501    0  0.00000000000E+00  0.00000000000E+00  0.10610233449E+04  0.10610233449E+04  0.50400001928E-02 0.  1.
       -1   -1    0    0    0  501  0.00000000000E+00  0.00000000000E+00 -0.21124461585E+03  0.21124461591E+03  0.50400001928E-02 0. -1.
    10030    2    1    2    0    0  0.00000000000E+00  0.00000000000E+00  0.84977872902E+03  0.12722679608E+04  0.94685895242E+03 0.  0.
        3    1    3    3  502    0  0.87663308358E+02 -0.15906695514E+03 -0.16257094350E+03  0.24375494605E+03  0.10100000352E+00 0. -1.
       -3    1    3    3    0  502 -0.87663308358E+02  0.15906695514E+03  0.10123496725E+04  0.10285130147E+04  0.10100000352E+00 0.  1.
</event>
<event>
 5   0  0.2803717E-02  0.9747228E+03  0.7818609E-02  0.9336711E-01
       -2   -1    0    0    0  501  0.00000000000E+00  0.00000000000E+00  0.21125817992E+03  0.21125817994E+03  0.25500000920E-02 0. -1.
        2   -1    0    0  501    0  0.00000000000E+00  0.00000000000E+00 -0.11243168845E+04  0.11243168845E+04  0.25500000920E-02 0.  1.
    10030    2    1    2    0    0  0.00000000000E+00  0.00000000000E+00 -0.91305870456E+03  0.13355750644E+04  0.97472280919E+03 0.  0.
        5    1    3    3  502    0 -0.25157001966E+03  0.38426041392E+03 -0.23324181613E+03  0.51513820989E+03  0.46999998093E+01 0. -1.
       -5    1    3    3    0  502  0.25157001966E+03 -0.38426041392E+03 -0.67981688843E+03  0.82043685454E+03  0.46999998093E+01 0.  1.
</event>
<event>
 5   0  0.2414128E-02  0.9165843E+03  0.7818609E-02  0.9405084E-01
       -2   -1    0    0    0  501  0.00000000000E+00  0.00000000000E+00  0.30048898364E+03  0.30048898365E+03  0.25500000920E-02 0. -1.
        2   -1    0    0  501    0  0.00000000000E+00  0.00000000000E+00 -0.69896633197E+03  0.69896633198E+03  0.25500000920E-02 0.  1.
    10030    2    1    2    0    0  0.00000000000E+00  0.00000000000E+00 -0.39847734834E+03  0.99945531563E+03  0.91658427370E+03 0.  0.
        3    1    3    3  502    0  0.26930772269E+03  0.47916494063E+02 -0.60019201209E+03  0.65958555281E+03  0.10100000352E+00 0.  1.
       -3    1    3    3    0  502 -0.26930772269E+03 -0.47916494063E+02  0.20171466375E+03  0.33986976282E+03  0.10100000352E+00 0. -1.
</event>
<event>
 5   0  0.1497410E-02  0.8430598E+03  0.7818609E-02  0.9499699E-01
        1   -1    0    0  501    0  0.00000000000E+00  0.00000000000E+00  0.15384283753E+04  0.15384283754E+04  0.50400001928E-02 0. -1.
       -1   -1    0    0    0  501  0.00000000000E+00  0.00000000000E+00 -0.11549934623E+03  0.11549934634E+03  0.50400001928E-02 0.  1.
    10030    2    1    2    0    0  0.00000000000E+00  0.00000000000E+00  0.14229290291E+04  0.16539277217E+04  0.84305983576E+03 0.  0.
        3    1    3    3  502    0 -0.47192318423E+02  0.21687743406E+03  0.84211538772E+01  0.22211227421E+03  0.10100000352E+00 0.  1.
       -3    1    3    3    0  502  0.47192318423E+02 -0.21687743406E+03  0.14145078752E+04  0.14318154475E+04  0.10100000352E+00 0. -1.
</event>
<event>
 5   0  0.2705111E-02  0.9017858E+03  0.7818609E-02  0.9423352E-01
        2   -1    0    0  501    0  0.00000000000E+00  0.00000000000E+00  0.14687259276E+04  0.14687259276E+04  0.25500000920E-02 0.  1.
       -2   -1    0    0    0  501  0.00000000000E+00  0.00000000000E+00 -0.13842230536E+03  0.13842230538E+03  0.25500000920E-02 0. -1.
    10030    2    1    2    0    0  0.00000000000E+00  0.00000000000E+00  0.13303036222E+04  0.16071482330E+04  0.90178584788E+03 0.  0.
        4    1    3    3  502    0  0.17592657445E+03 -0.30986166357E+03  0.17274498728E+03  0.39598845144E+03  0.12699999809E+01 0. -1.
       -4    1    3    3    0  502 -0.17592657445E+03  0.30986166357E+03  0.11575586350E+04  0.12111597815E+04  0.12699999809E+01 0.  1.
</event>
<event>
 5   0  0.2803717E-02  0.9209160E+03  0.7818609E-02  0.9399807E-01
        2   -1    0    0  501    0  0.00000000000E+00  0.00000000000E+00  0.77617074405E+03  0.77617074405E+03  0.25500000920E-02 0. -1.
       -2   -1    0    0    0  501  0.00000000000E+00  0.00000000000E+00 -0.27316357657E+03  0.27316357658E+03  0.25500000920E-02 0.  1.
    10030    2    1    2    0    0  0.00000000000E+00  0.00000000000E+00  0.50300716748E+03  0.10493343206E+04  0.92091601459E+03 0.  0.
        5    1    3    3  502    0  0.97337396157E+01  0.45964306116E+03  0.22283576037E+03  0.51092499984E+03  0.46999998093E+01 0.  1.
       -5    1    3    3    0  502 -0.97337396157E+01 -0.45964306116E+03  0.28017140710E+03  0.53840932079E+03  0.46999998093E+01 0. -1.
</event>
<event>
 5   0  0.1459111E-02  0.9175225E+03  0.7818609E-02  0.9403939E-01
        1   -1    0    0  501    0  0.00000000000E+00  0.00000000000E+00  0.60252639550E+03  0.60252639552E+03  0.50400001928E-02 0. -1.
       -1   -1    0    0    0  501  0.00000000000E+00  0.00000000000E+00 -0.34929906064E+03  0.34929906067E+03  0.50400001928E-02 0.  1.
    10030    2    1    2    0    0  0.00000000000E+00  0.00000000000E+00  0.25322733487E+03  0.95182545620E+03  0.91752254247E+03 0.  0.
        2    1    3    3  502    0 -0.45218250006E+02  0.37675432961E+03  0.39407714242E+03  0.54706974802E+03  0.25500000920E-02 0. -1.
       -2    1    3    3    0  502  0.45218250006E+02 -0.37675432961E+03 -0.14084980755E+03  0.40475570818E+03  0.25500000920E-02 0.  1.
</event>
<event>
 5   0  0.1560728E-02  0.9060233E+03  0.7818609E-02  0.9418083E-01
        1   -1    0    0  501    0  0.00000000000E+00  0.00000000000E+00  0.78786643977E+03  0.78786643978E+03  0.50400001928E-02 0.  1.
       -1   -1    0    0    0  501  0.00000000000E+00  0.00000000000E+00 -0.26047504793E+03  0.26047504797E+03  0.50400001928E-02 0. -1.
    10030    2    1    2    0    0  0.00000000000E+00  0.00000000000E+00  0.52739139184E+03  0.10483414878E+04  0.90602328600E+03 0.  0.
        4    1    3    3  502    0  0.33054912680E+03  0.20738706357E+03 -0.25479416415E+01  0.39023098835E+03  0.12699999809E+01 0. -1.
       -4    1    3    3    0  502 -0.33054912680E+03 -0.20738706357E+03  0.52993933348E+03  0.65811049941E+03  0.12699999809E+01 0.  1.
</event>
<event>
 5   0  0.1497410E-02  0.8969077E+03  0.7818609E-02  0.9429455E-01
        1   -1    0    0  501    0  0.00000000000E+00  0.00000000000E+00  0.34117912409E+03  0.34117912413E+03  0.50400001928E-02 0. -1.
       -1   -1    0    0    0  501  0.00000000000E+00  0.00000000000E+00 -0.58945826774E+03  0.58945826776E+03  0.50400001928E-02 0.  1.
    10030    2    1    2    0    0  0.00000000000E+00  0.00000000000E+00 -0.24827914365E+03  0.93063739189E+03  0.89690769983E+03 0.  0.
        3    1    3    3  502    0 -0.53560007478E+02  0.23744910470E+03 -0.51494705103E+03  0.56957986911E+03  0.10100000352E+00 0.  1.
       -3    1    3    3    0  502  0.53560007478E+02 -0.23744910470E+03  0.26666790738E+03  0.36105752278E+03  0.10100000352E+00 0. -1.
</event>
<event>
 5   0  0.1537870E-02  0.9033327E+03  0.7818609E-02  0.9421425E-01
        1   -1    0    0  501    0  0.00000000000E+00  0.00000000000E+00  0.78251228361E+03  0.78251228363E+03  0.50400001928E-02 0.  1.
       -1   -1    0    0    0  501  0.00000000000E+00  0.00000000000E+00 -0.26070193853E+03  0.26070193858E+03  0.50400001928E-02 0. -1.
    10030    2    1    2    0    0  0.00000000000E+00  0.00000000000E+00  0.52181034508E+03  0.10432142222E+04  0.90333265035E+03 0.  0.
        5    1    3    3  502    0 -0.31468705889E+03  0.28020231369E+03  0.73125271441E+02  0.42768057818E+03  0.46999998093E+01 0. -1.
       -5    1    3    3    0  502  0.31468705889E+03 -0.28020231369E+03  0.44868507364E+03  0.61553364403E+03  0.46999998093E+01 0.  1.
</event>
<event>
 5   0  0.2414128E-02  0.9005827E+03  0.7818609E-02  0.9424853E-01
        2   -1    0    0  501    0  0.00000000000E+00  0.00000000000E+00  0.11560624978E+04  0.11560624978E+04  0.25500000920E-02 0. -1.
       -2   -1    0    0    0  501  0.00000000000E+00  0.00000000000E+00 -0.17539043382E+03  0.17539043384E+03  0.25500000920E-02 0.  1.
    10030    2    1    2    0    0  0.00000000000E+00  0.00000000000E+00  0.98067206402E+03  0.13314529317E+04  0.90058270699E+03 0.  0.
        3    1    3    3  502    0 -0.59689325729E+02 -0.73021112752E+02  0.11412964794E+04  0.11451866934E+04  0.10100000352E+00 0. -1.
       -3    1    3    3    0  502  0.59689325729E+02  0.73021112752E+02 -0.16062441540E+03  0.18626623832E+03  0.10100000352E+00 0.  1.
</event>
<event>
 5   0  0.1559275E-02  0.9257675E+03  0.7818609E-02  0.9393932E-01
        1   -1    0    0  501    0  0.00000000000E+00  0.00000000000E+00  0.18530890006E+03  0.18530890012E+03  0.50400001928E-02 0.  1.
       -1   -1    0    0    0  501  0.00000000000E+00  0.00000000000E+00 -0.11562389381E+04  0.11562389381E+04  0.50400001928E-02 0. -1.
    10030    2    1    2    0    0  0.00000000000E+00  0.00000000000E+00 -0.97093003808E+03  0.13415478383E+04  0.92576749971E+03 0.  0.
        1    1    3    3  502    0  0.22625192683E+03 -0.32826696554E+03 -0.14465306389E+03  0.42411513057E+03  0.50400001928E-02 0.  1.
       -1    1    3    3    0  502 -0.22625192683E+03  0.32826696554E+03 -0.82627697419E+03  0.91743270770E+03  0.50400001928E-02 0. -1.
</event>
<event>
 5   0  0.2679861E-02  0.8897688E+03  0.7818609E-02  0.9438462E-01
       -2   -1    0    0    0  501  0.00000000000E+00  0.00000000000E+00  0.10941931900E+03  0.10941931903E+03  0.25500000920E-02 0. -1.
        2   -1    0    0  501    0  0.00000000000E+00  0.00000000000E+00 -0.18088406698E+04  0.18088406698E+04  0.25500000920E-02 0.  1.
    10030    2    1    2    0    0  0.00000000000E+00  0.00000000000E+00 -0.16994213507E+04  0.19182599888E+04  0.88976876613E+03 0.  0.
        1    1    3    3  502    0 -0.25189924726E+03  0.14827862816E+03 -0.15727675632E+04  0.15996992186E+04  0.50400001928E-02 0.  1.
       -1    1    3    3    0  502  0.25189924726E+03 -0.14827862816E+03 -0.12665378757E+03  0.31856077013E+03  0.50400001928E-02 0. -1.
</event>
<event>
 5   0  0.1497410E-02  0.9125694E+03  0.7818609E-02  0.9410004E-01
        1   -1    0    0  501    0  0.00000000000E+00  0.00000000000E+00  0.32770942264E+03  0.32770942268E+03  0.50400001928E-02 0. -1.
       -1   -1    0    0    0  501  0.00000000000E+00  0.00000000000E+00 -0.63530589218E+03  0.63530589220E+03  0.50400001928E-02 0.  1.
    10030    2    1    2    0    0  0.00000000000E+00  0.00000000000E+00 -0.30759646954E+03  0.96301531489E+03  0.91256939935E+03 0.  0.
        3    1    3    3  502    0  0.34827704673E+03  0.67877908557E+02 -0.45652061622E+03  0.57820013403E+03  0.10100000352E+00 0.  1.
       -3    1    3    3    0  502 -0.34827704673E+03 -0.67877908557E+02  0.14892414669E+03  0.38481518086E+03  0.10100000352E+00 0. -1.
</event>
<event>
 5   0  0.1459111E-02  0.8896515E+03  0.7818609E-02  0.9438611E-01
       -1   -1    0    0    0  501  0.00000000000E+00  0.00000000000E+00  0.30131334103E+03  0.30131334107E+03  0.50400001928E-02 0.  1.
        1   -1    0    0  501    0  0.00000000000E+00  0.00000000000E+00 -0.65669159302E+03  0.65669159304E+03  0.50400001928E-02 0. -1.
    10030    2    1    2    0    0  0.00000000000E+00  0.00000000000E+00 -0.35537825199E+03  0.95800493411E+03  0.88965147771E+03 0.  0.
        2    1    3    3  502    0 -0.15917345788E+03  0.25450391707E+02  0.26875604175E+03  0.31339068607E+03  0.25500000920E-02 0.  1.
       -2    1    3    3    0  502  0.15917345788E+03 -0.25450391707E+02 -0.62413429375E+03  0.64461424804E+03  0.25500000920E-02 0. -1.
</event>
<event>
 5   0  0.1537870E-02  0.9168918E+03  0.7818609E-02  0.9404709E-01
        1   -1    0    0  501    0  0.00000000000E+00  0.00000000000E+00  0.10077343220E+04  0.10077343220E+04  0.50400001928E-02 0.  1.
       -1   -1    0    0    0  501  0.00000000000E+00  0.00000000000E+00 -0.20855959269E+03  0.20855959275E+03  0.50400001928E-02 0. -1.
    10030    2    1    2    0    0  0.00000000000E+00  0.00000000000E+00  0.79917472931E+03  0.12162939148E+04  0.91689183611E+03 0.  0.
        5    1    3    3  502    0  0.41152795160E+03  0.66547814624E+02  0.14661539967E+03  0.44192989489E+03  0.46999998093E+01 0. -1.
       -5    1    3    3    0  502 -0.41152795160E+03 -0.66547814624E+02  0.65255932964E+03  0.77436401988E+03  0.46999998093E+01 0.  1.
</event>
<event>
 5   0  0.2803717E-02  0.9094267E+03  0.7818609E-02  0.9413874E-01
        2   -1    0    0  501    0  0.00000000000E+00  0.00000000000E+00  0.71850504404E+03  0.71850504405E+03  0.25500000920E-02 0.  1.
       -2   -1    0    0    0  501  0.00000000000E+00  0.00000000000E+00 -0.28777006809E+03  0.28777006810E+03  0.25500000920E-02 0. -1.
    10030    2    1    2    0    0  0.00000000000E+00  0.00000000000E+00  0.43073497596E+03  0.10062751121E+04  0.90942673251E+03 0.  0.
        5    1    3    3  502    0 -0.50802526478E+02 -0.39011112458E+03  0.46762520721E+03  0.61111620059E+03  0.46999998093E+01 0. -1.
       -5    1    3    3    0  502  0.50802526478E+02  0.39011112458E+03 -0.36890231249E+02  0.39515891155E+03  0.46999998093E+01 0.  1.
</event>
<event>
 5   0  0.2803717E-02  0.9581580E+03  0.7818609E-02  0.9355666E-01
       -2   -1    0    0    0  501  0.00000000000E+00  0.00000000000E+00  0.18895885741E+03  0.18895885743E+03  0.25500000920E-02 0.  1.
        2   -1    0    0  501    0  0.00000000000E+00  0.00000000000E+00 -0.12146384877E+04  0.12146384877E+04  0.25500000920E-02 0. -1.
    10030    2    1    2    0    0  0.00000000000E+00  0.00000000000E+00 -0.10256796303E+04  0.14035973451E+04  0.95815802625E+03 0.  0.
        5    1    3    3  502    0  0.23959164464E+03 -0.24464463898E+02 -0.11194745292E+04  0.11450973660E+04  0.46999998093E+01 0. -1.
       -5    1    3    3    0  502 -0.23959164464E+03  0.24464463898E+02  0.93794898846E+02  0.25849997915E+03  0.46999998093E+01 0.  1.
</event>
<event>
 5   0  0.2803717E-02  0.6580732E+03  0.7818609E-02  0.9791747E-01
       -2   -1    0    0    0  501  0.00000000000E+00  0.00000000000E+00  0.13302921194E+03  0.13302921197E+03  0.25500000920E-02 0. -1.
        2   -1    0    0  501    0  0.00000000000E+00  0.00000000000E+00 -0.81384445541E+03  0.81384445542E+03  0.25500000920E-02 0.  1.
    10030    2    1    2    0    0  0.00000000000E+00  0.00000000000E+00 -0.68081524347E+03  0.94687366738E+03  0.65807320736E+03 0.  0.
        5    1    3    3  502    0 -0.13388907906E+03  0.25349651014E+02 -0.77128268289E+03  0.78324195318E+03  0.46999998093E+01 0.  1.
       -5    1    3    3    0  502  0.13388907906E+03 -0.25349651014E+02  0.90467439423E+02  0.16363171420E+03  0.46999998093E+01 0. -1.
</event>
<event>
 5   0  0.1560728E-02  0.9036413E+03  0.7818609E-02  0.9421041E-01
       -1   -1    0    0    0  501  0.00000000000E+00  0.00000000000E+00  0.15814993991E+03  0.15814993999E+03  0.50400001928E-02 0. -1.
        1   -1    0    0  501    0  0.00000000000E+00  0.00000000000E+00 -0.12908122944E+04  0.12908122944E+04  0.50400001928E-02 0.  1.
    10030    2    1    2    0    0  0.00000000000E+00  0.00000000000E+00 -0.11326623545E+04  0.14489622344E+04  0.90364127143E+03 0.  0.
        4    1    3    3  502    0 -0.40047455483E+03 -0.20616763583E+03 -0.50951962632E+03  0.68007119159E+03  0.12699999809E+01 0.  1.
       -4    1    3    3    0  502  0.40047455483E+03  0.20616763583E+03 -0.62314272822E+03  0.76889104284E+03  0.12699999809E+01 0. -1.
</event>
<event>
 5   0  0.2628383E-02  0.9048555E+03  0.7818609E-02  0.9419532E-01
        2   -1    0    0  501    0  0.00000000000E+00  0.00000000000E+00  0.13929187709E+04  0.13929187709E+04  0.25500000920E-02 0.  1.
       -2   -1    0    0    0  501  0.00000000000E+00  0.00000000000E+00 -0.14695106045E+03  0.14695106047E+03  0.25500000920E-02 0. -1.
    10030    2    1    2    0    0  0.00000000000E+00  0.00000000000E+00  0.12459677104E+04  0.15398698314E+04  0.90485554764E+03 0.  0.
        2    1    3    3  502    0 -0.35796363348E+03  0.26739278334E+03  0.50200108136E+03  0.67204311556E+03  0.25500000920E-02 0.  1.
       -2    1    3    3    0  502  0.35796363348E+03 -0.26739278334E+03  0.74396662908E+03  0.86782671581E+03  0.25500000920E-02 0. -1.
</event>
<event>
 5   0  0.2414128E-02  0.9191577E+03  0.7818609E-02  0.9401945E-01
        2   -1    0    0  501    0  0.00000000000E+00  0.00000000000E+00  0.34511244635E+03  0.34511244636E+03  0.25500000920E-02 0.  1.
       -2   -1    0    0    0  501  0.00000000000E+00  0.00000000000E+00 -0.61201128278E+03  0.61201128279E+03  0.25500000920E-02 0. -1.
    10030    2    1    2    0    0  0.00000000000E+00  0.00000000000E+00 -0.26689883644E+03  0.95712372914E+03  0.91915768179E+03 0.  0.
        3    1    3    3  502    0  0.14949353319E+03 -0.33107145665E+03 -0.42660241799E+03  0.56030907463E+03  0.10100000352E+00 0. -1.
       -3    1    3    3    0  502 -0.14949353319E+03  0.33107145665E+03  0.15970358155E+03  0.39681465451E+03  0.10100000352E+00 0.  1.
</event>
<event>
 5   0  0.1559275E-02  0.8953772E+03  0.7818609E-02  0.9431379E-01
       -1   -1    0    0    0  501  0.00000000000E+00  0.00000000000E+00  0.13455817186E+03  0.13455817196E+03  0.50400001928E-02 0.  1.
        1   -1    0    0  501    0  0.00000000000E+00  0.00000000000E+00 -0.14895050679E+04  0.14895050679E+04  0.50400001928E-02 0. -1.
    10030    2    1    2    0    0  0.00000000000E+00  0.00000000000E+00 -0.13549468961E+04  0.16240632399E+04  0.89537719203E+03 0.  0.
        1    1    3    3  502    0  0.35892211507E+03  0.21770913559E+03 -0.39529161117E+03  0.57660888850E+03  0.50400001928E-02 0.  1.
       -1    1    3    3    0  502 -0.35892211507E+03 -0.21770913559E+03 -0.95965528491E+03  0.10474543514E+04  0.50400001928E-02 0. -1.
</event>
<event>
 5   0  0.2414128E-02  0.8399973E+03  0.7818609E-02  0.9503861E-01
        2   -1    0    0  501    0  0.00000000000E+00  0.00000000000E+00  0.72797160447E+03  0.72797160448E+03  0.25500000920E-02 0.  1.
       -2   -1    0    0    0  501  0.00000000000E+00  0.00000000000E+00 -0.24231558604E+03  0.24231558606E+03  0.25500000920E-02 0. -1.
    10030    2    1    2    0    0  0.00000000000E+00  0.00000000000E+00  0.48565601843E+03  0.97028719053E+03  0.83999729992E+03 0.  0.
        3    1    3    3  502    0 -0.61335938358E+02 -0.64727505203E-01  0.72277032092E+03  0.72536821583E+03  0.10100000352E+00 0.  1.
       -3    1    3    3    0  502  0.61335938358E+02  0.64727505203E-01 -0.23711430249E+03  0.24491897471E+03  0.10100000352E+00 0. -1.
</event>
<event>
 5   0  0.1560728E-02  0.9307595E+03  0.7818609E-02  0.9387927E-01
       -1   -1    0    0    0  501  0.00000000000E+00  0.00000000000E+00  0.74788204815E+03  0.74788204816E+03  0.50400001928E-02 0. -1.
        1   -1    0    0  501    0  0.00000000000E+00  0.00000000000E+00 -0.28958883893E+03  0.28958883897E+03  0.50400001928E-02 0.  1.
    10030    2    1    2    0    0  0.00000000000E+00  0.00000000000E+00  0.45829320922E+03  0.10374708871E+04  0.93075946196E+03 0.  0.
        4    1    3    3  502    0  0.22275395801E+03 -0.30981739015E+03  0.52609262806E+03  0.64990861454E+03  0.12699999809E+01 0. -1.
       -4    1    3    3    0  502 -0.22275395801E+03  0.30981739015E+03 -0.67799418840E+02  0.38756227260E+03  0.12699999809E+01 0.  1.
</event>
<event>
 5   0  0.2803717E-02  0.8927276E+03  0.7818609E-02  0.9434718E-01
        2   -1    0    0  501    0  0.00000000000E+00  0.00000000000E+00  0.93475121073E+03  0.93475121073E+03  0.25500000920E-02 0. -1.
       -2   -1    0    0    0  501  0.00000000000E+00  0.00000000000E+00 -0.21314831635E+03  0.21314831636E+03  0.25500000920E-02 0.  1.
    10030    2    1    2    0    0  0.00000000000E+00  0.00000000000E+00  0.72160289438E+03  0.11478995271E+04  0.89272761082E+03 0.  0.
        5    1    3    3  502    0  0.29704272625E+03  0.30428563183E+03  0.18640883813E+03  0.46432151780E+03  0.46999998093E+01 0.  1.
       -5    1    3    3    0  502 -0.29704272625E+03 -0.30428563183E+03  0.53519405624E+03  0.68357800930E+03  0.46999998093E+01 0. -1.
</event>
<event>
 5   0  0.1497410E-02  0.9521773E+03  0.7818609E-02  0.9362609E-01
        1   -1    0    0  501    0  0.00000000000E+00  0.00000000000E+00  0.51863527449E+03  0.51863527452E+03  0.50400001928E-02 0.  1.
       -1   -1    0    0    0  501  0.00000000000E+00  0.00000000000E+00 -0.43703233252E+03  0.43703233254E+03  0.50400001928E-02 0. -1.
    10030    2    1    2    0    0  0.00000000000E+00  0.00000000000E+00  0.81602941978E+02  0.95566760706E+03  0.95217726031E+03 0.  0.
        3    1    3    3  502    0  0.29478751266E+03  0.32070112110E+03  0.23362935251E+03  0.49429907065E+03  0.10100000352E+00 0.  1.
       -3    1    3    3    0  502 -0.29478751266E+03 -0.32070112110E+03 -0.15202641053E+03  0.46136853641E+03  0.10100000352E+00 0. -1.
</event>
<event>
 5   0  0.2628383E-02  0.5349087E+03  0.7818609E-02  0.1005049E+00
        2   -1    0    0  501    0  0.00000000000E+00  0.00000000000E+00  0.95278404954E+03  0.95278404954E+03  0.25500000920E-02 0. -1.
       -2   -1    0    0    0  501  0.00000000000E+00  0.00000000000E+00 -0.75076636433E+02  0.75076636477E+02  0.25500000920E-02 0.  1.
    10030    2    1    2    0    0  0.00000000000E+00  0.00000000000E+00  0.87770741310E+03  0.10278606860E+04  0.53490867150E+03 0.  0.
        2    1    3    3  502    0 -0.15517902828E+03 -0.17627087889E+03  0.19292466477E+03  0.30392742529E+03  0.25500000920E-02 0.  1.
       -2    1    3    3    0  502  0.15517902828E+03  0.17627087889E+03  0.68478274833E+03  0.72393326072E+03  0.25500000920E-02 0. -1.
</event>
<event>
 5   0  0.1537870E-02  0.8905907E+03  0.7818609E-02  0.9437421E-01
       -1   -1    0    0    0  501  0.00000000000E+00  0.00000000000E+00  0.10375418571E+04  0.10375418571E+04  0.50400001928E-02 0.  1.
        1   -1    0    0  501    0  0.00000000000E+00  0.00000000000E+00 -0.19111321549E+03  0.19111321555E+03  0.50400001928E-02 0. -1.
    10030    2    1    2    0    0  0.00000000000E+00  0.00000000000E+00  0.84642864161E+03  0.12286550727E+04  0.89059072656E+03 0.  0.
        5    1    3    3  502    0 -0.41112047625E+03 -0.94673576383E+02  0.61969285303E+03  0.74968290240E+03  0.46999998093E+01 0.  1.
       -5    1    3    3    0  502  0.41112047625E+03  0.94673576383E+02  0.22673578858E+03  0.47897217026E+03  0.46999998093E+01 0. -1.
</event>
<event>
 5   0  0.1459111E-02  0.8628778E+03  0.7818609E-02  0.9473214E-01
        1   -1    0    0  501    0  0.00000000000E+00  0.00000000000E+00  0.61289630816E+03  0.61289630818E+03  0.50400001928E-02 0.  1.
       -1   -1    0    0    0  501  0.00000000000E+00  0.00000000000E+00 -0.30370474920E+03  0.30370474924E+03  0.50400001928E-02 0. -1.
    10030    2    1    2    0    0  0.00000000000E+00  0.00000000000E+00  0.30919155896E+03  0.91660105743E+03  0.86287778876E+03 0.  0.
        2    1    3    3  502    0 -0.31292676115E+03 -0.71641381782E+02 -0.15159311417E+03  0.35501565838E+03  0.25500000920E-02 0. -1.
       -2    1    3    3    0  502  0.31292676115E+03  0.71641381782E+02  0.46078467313E+03  0.56158539905E+03  0.25500000920E-02 0.  1.
</event>
<event>
 5   0  0.1537870E-02  0.1155732E+04  0.7818609E-02  0.9152512E-01
       -1   -1    0    0    0  501  0.00000000000E+00  0.00000000000E+00  0.11464947932E+04  0.11464947932E+04  0.50400001928E-02 0.  1.
        1   -1    0    0  501    0  0.00000000000E+00  0.00000000000E+00 -0.29126070002E+03  0.29126070006E+03  0.50400001928E-02 0. -1.
    10030    2    1    2    0    0  0.00000000000E+00  0.00000000000E+00  0.85523409318E+03  0.14377554933E+04  0.11557315883E+04 0.  0.
        5    1    3    3  502    0  0.43532564976E+03  0.18865365315E+03  0.17262931517E+02  0.47478281455E+03  0.46999998093E+01 0. -1.
       -5    1    3    3    0  502 -0.43532564976E+03 -0.18865365315E+03  0.83797116166E+03  0.96297267872E+03  0.46999998093E+01 0.  1.
</event>
<event>
 5   0  0.2414128E-02  0.8748885E+03  0.7818609E-02  0.9457528E-01
       -2   -1    0    0    0  501  0.00000000000E+00  0.00000000000E+00  0.17277208299E+03  0.17277208301E+03  0.25500000920E-02 0. -1.
        2   -1    0    0  501    0  0.00000000000E+00  0.00000000000E+00 -0.11075716240E+04  0.11075716240E+04  0.25500000920E-02 0.  1.
    10030    2    1    2    0    0  0.00000000000E+00  0.00000000000E+00 -0.93479954100E+03  0.12803437070E+04  0.87488846500E+03 0.  0.
        3    1    3    3  502    0  0.51897982698E+02 -0.16320846717E+03  0.12167121516E+03  0.21008164881E+03  0.10100000352E+00 0. -1.
       -3    1    3    3    0  502 -0.51897982698E+02  0.16320846717E+03 -0.10564707562E+04  0.10702620582E+04  0.10100000352E+00 0.  1.
</event>
<event>
 5   0  0.1537870E-02  0.8902531E+03  0.7818609E-02  0.9437848E-01
        1   -1    0    0  501    0  0.00000000000E+00  0.00000000000E+00  0.24444936143E+03  0.24444936148E+03  0.50400001928E-02 0.  1.
       -1   -1    0    0    0  501  0.00000000000E+00  0.00000000000E+00 -0.81054684036E+03  0.81054684037E+03  0.50400001928E-02 0. -1.
    10030    2    1    2    0    0  0.00000000000E+00  0.00000000000E+00 -0.56609747893E+03  0.10549962019E+04  0.89025312708E+03 0.  0.
        5    1    3    3  502    0  0.15127375121E+03  0.37483245176E+03 -0.62194817552E+02  0.40899070897E+03  0.46999998093E+01 0.  1.
       -5    1    3    3    0  502 -0.15127375121E+03 -0.37483245176E+03 -0.50390266138E+03  0.64600549289E+03  0.46999998093E+01 0. -1.
</event>
<event>
 5   0  0.2679861E-02  0.8890940E+03  0.7818609E-02  0.9439318E-01
        2   -1    0    0  501    0  0.00000000000E+00  0.00000000000E+00  0.11674590743E+04  0.11674590743E+04  0.25500000920E-02 0.  1.
       -2   -1    0    0    0  501  0.00000000000E+00  0.00000000000E+00 -0.16927534833E+03  0.16927534835E+03  0.25500000920E-02 0. -1.
    10030    2    1    2    0    0  0.00000000000E+00  0.00000000000E+00  0.99818372595E+03  0.13367344226E+04  0.88909401411E+03 0.  0.
        1    1    3    3  502    0 -0.73568439573E+01 -0.44178968850E+03  0.57259015795E+03  0.72325081474E+03  0.50400001928E-02 0. -1.
       -1    1    3    3    0  502  0.73568439573E+01  0.44178968850E+03  0.42559356800E+03  0.61348360790E+03  0.50400001928E-02 0.  1.
</event>
<event>
 5   0  0.2803717E-02  0.8425687E+03  0.7818609E-02  0.9500366E-01
       -2   -1    0    0    0  501  0.00000000000E+00  0.00000000000E+00  0.22770312327E+03  0.22770312328E+03  0.25500000920E-02 0. -1.
        2   -1    0    0  501    0  0.00000000000E+00  0.00000000000E+00 -0.77943810413E+03  0.77943810413E+03  0.25500000920E-02 0.  1.
    10030    2    1    2    0    0  0.00000000000E+00  0.00000000000E+00 -0.55173498086E+03  0.10071412274E+04  0.84256866951E+03 0.  0.
        5    1    3    3  502    0 -0.60987206788E+02  0.37398530987E+03 -0.55869869249E+02  0.38305088915E+03  0.46999998093E+01 0. -1.
       -5    1    3    3    0  502  0.60987206788E+02 -0.37398530987E+03 -0.49586511161E+03  0.62409033826E+03  0.46999998093E+01 0.  1.
</event>
<event>
 5   0  0.2803717E-02  0.8294348E+03  0.7818609E-02  0.9518362E-01
       -2   -1    0    0    0  501  0.00000000000E+00  0.00000000000E+00  0.10443814528E+03  0.10443814531E+03  0.25500000920E-02 0.  1.
        2   -1    0    0  501    0  0.00000000000E+00  0.00000000000E+00 -0.16468171929E+04  0.16468171929E+04  0.25500000920E-02 0. -1.
    10030    2    1    2    0    0  0.00000000000E+00  0.00000000000E+00 -0.15423790476E+04  0.17512553382E+04  0.82943482750E+03 0.  0.
        5    1    3    3  502    0 -0.17687705050E+03 -0.23272060657E+03 -0.15012649231E+03  0.32864026748E+03  0.46999998093E+01 0.  1.
       -5    1    3    3    0  502  0.17687705050E+03  0.23272060657E+03 -0.13922525553E+04  0.14226150707E+04  0.46999998093E+01 0. -1.
</event>
<event>
 5   0  0.1497410E-02  0.8862049E+03  0.7818609E-02  0.9442992E-01
       -1   -1    0    0    0  501  0.00000000000E+00  0.00000000000E+00  0.17693888144E+03  0.17693888151E+03  0.50400001928E-02 0.  1.
        1   -1    0    0  501    0  0.00000000000E+00  0.00000000000E+00 -0.11096474165E+04  0.11096474165E+04  0.50400001928E-02 0. -1.
    10030    2    1    2    0    0  0.00000000000E+00  0.00000000000E+00 -0.93270853502E+03  0.12865862980E+04  0.88620488087E+03 0.  0.
        3    1    3    3  502    0  0.56555548873E+01 -0.62914869426E+02  0.17036839992E+03  0.18170214085E+03  0.10100000352E+00 0.  1.
       -3    1    3    3    0  502 -0.56555548873E+01  0.62914869426E+02 -0.11030769349E+04  0.11048841571E+04  0.10100000352E+00 0. -1.
</event>
<event>
 5   0  0.1537870E-02  0.8957270E+03  0.7818609E-02  0.9430939E-01
       -1   -1    0    0    0  501  0.00000000000E+00  0.00000000000E+00  0.33013557326E+03  0.33013557330E+03  0.50400001928E-02 0. -1.
        1   -1    0    0  501    0  0.00000000000E+00  0.00000000000E+00 -0.60757370801E+03  0.60757370803E+03  0.50400001928E-02 0.  1.
    10030    2    1    2    0    0  0.00000000000E+00  0.00000000000E+00 -0.27743813474E+03  0.93770928133E+03  0.89572695487E+03 0.  0.
        5    1    3    3  502    0  0.16115266506E+03  0.52401204682E+02  0.29525039718E+03  0.34045697928E+03  0.46999998093E+01 0. -1.
       -5    1    3    3    0  502 -0.16115266506E+03 -0.52401204682E+02 -0.57268853192E+03  0.59725230205E+03  0.46999998093E+01 0.  1.
</event>
<event>
 5   0  0.2803717E-02  0.8677381E+03  0.7818609E-02  0.9466834E-01
        2   -1    0    0  501    0  0.00000000000E+00  0.00000000000E+00  0.16251009995E+04  0.16251009995E+04  0.25500000920E-02 0.  1.
       -2   -1    0    0    0  501  0.00000000000E+00  0.00000000000E+00 -0.11583424507E+03  0.11583424510E+03  0.25500000920E-02 0. -1.
    10030    2    1    2    0    0  0.00000000000E+00  0.00000000000E+00  0.15092667544E+04  0.17409352446E+04  0.86773808829E+03 0.  0.
        5    1    3    3  502    0 -0.13359542062E+03  0.32086668981E+03  0.23370387595E+03  0.41885887919E+03  0.46999998093E+01 0.  1.
       -5    1    3    3    0  502  0.13359542062E+03 -0.32086668981E+03  0.12755628785E+04  0.13220763654E+04  0.46999998093E+01 0. -1.
</event>
<event>
 5   0  0.1459111E-02  0.9315687E+03  0.7818609E-02  0.9386957E-01
       -1   -1    0    0    0  501  0.00000000000E+00  0.00000000000E+00  0.39201514096E+03  0.39201514099E+03  0.50400001928E-02 0.  1.
        1   -1    0    0  501    0  0.00000000000E+00  0.00000000000E+00 -0.55343536559E+03  0.55343536561E+03  0.50400001928E-02 0. -1.
    10030    2    1    2    0    0  0.00000000000E+00  0.00000000000E+00 -0.16142022463E+03  0.94545050660E+03  0.93156866173E+03 0.  0.
        2    1    3    3  502    0  0.31889537668E+03  0.11660894000E+03 -0.40430800237E+03  0.52797430519E+03  0.25500000920E-02 0. -1.
       -2    1    3    3    0  502 -0.31889537668E+03 -0.11660894000E+03  0.24288777774E+03  0.41747620141E+03  0.25500000920E-02 0.  1.
</event>
<event>
 5   0  0.2679861E-02  0.8990940E+03  0.7818609E-02  0.9426715E-01
       -2   -1    0    0    0  501  0.00000000000E+00  0.00000000000E+00  0.23826363351E+03  0.23826363353E+03  0.25500000920E-02 0. -1.
        2   -1    0    0  501    0  0.00000000000E+00  0.00000000000E+00 -0.84818870881E+03  0.84818870882E+03  0.25500000920E-02 0.  1.
    10030    2    1    2    0    0  0.00000000000E+00  0.00000000000E+00 -0.60992507530E+03  0.10864523423E+04  0.89909404108E+03 0.  0.
        1    1    3    3  502    0  0.25721078108E+03 -0.26135328746E+03  0.92865030765E+01  0.36680944090E+03  0.50400001928E-02 0. -1.
       -1    1    3    3    0  502 -0.25721078108E+03  0.26135328746E+03 -0.61921157838E+03  0.71964290144E+03  0.50400001928E-02 0.  1.
</event>
<event>
 5   0  0.1537870E-02  0.9029093E+03  0.7818609E-02  0.9421952E-01
       -1   -1    0    0    0  501  0.00000000000E+00  0.00000000000E+00  0.13140662785E+03  0.13140662795E+03  0.50400001928E-02 0. -1.
        1   -1    0    0  501    0  0.00000000000E+00  0.00000000000E+00 -0.15509971277E+04  0.15509971277E+04  0.50400001928E-02 0.  1.
    10030    2    1    2    0    0  0.00000000000E+00  0.00000000000E+00 -0.14195904999E+04  0.16824037557E+04  0.90290930320E+03 0.  0.
        5    1    3    3  502    0 -0.58150967706E+02  0.42659031504E+03 -0.45684816021E+03  0.62776839950E+03  0.46999998093E+01 0. -1.
       -5    1    3    3    0  502  0.58150967706E+02 -0.42659031504E+03 -0.96274233966E+03  0.10546353562E+04  0.46999998093E+01 0.  1.
</event>
<event>
 5   0  0.1559275E-02  0.8063512E+03  0.7818609E-02  0.9550869E-01
        1   -1    0    0  501    0  0.00000000000E+00  0.00000000000E+00  0.14691916465E+03  0.14691916473E+03  0.50400001928E-02 0.  1.
       -1   -1    0    0    0  501  0.00000000000E+00  0.00000000000E+00 -0.11063946314E+04  0.11063946314E+04  0.50400001928E-02 0. -1.
    10030    2    1    2    0    0  0.00000000000E+00  0.00000000000E+00 -0.95947546671E+03  0.12533137961E+04  0.80635122638E+03 0.  0.
        1    1    3    3  502    0 -0.39067013632E+03  0.82764205058E+02 -0.39351237191E+03  0.56064699760E+03  0.50400001928E-02 0. -1.
       -1    1    3    3    0  502  0.39067013632E+03 -0.82764205058E+02 -0.56596309480E+03  0.69266679851E+03  0.50400001928E-02 0.  1.
</event>
<event>
 5   0  0.1559275E-02  0.8966462E+03  0.7818609E-02  0.9429784E-01
        1   -1    0    0  501    0  0.00000000000E+00  0.00000000000E+00  0.57535902460E+03  0.57535902463E+03  0.50400001928E-02 0. -1.
       -1   -1    0    0    0  501  0.00000000000E+00  0.00000000000E+00 -0.34933595896E+03  0.34933595899E+03  0.50400001928E-02 0.  1.
    10030    2    1    2    0    0  0.00000000000E+00  0.00000000000E+00  0.22602306565E+03  0.92469498362E+03  0.89664618804E+03 0.  0.
        1    1    3    3  502    0 -0.15238368514E+03  0.29064889204E+03  0.42801039029E+03  0.53934261853E+03  0.50400001928E-02 0. -1.
       -1    1    3    3    0  502  0.15238368514E+03 -0.29064889204E+03 -0.20198732465E+03  0.38535236509E+03  0.50400001928E-02 0.  1.
</event>
<event>
 5   0  0.1459111E-02  0.9404016E+03  0.7818609E-02  0.9376441E-01
       -1   -1    0    0    0  501  0.00000000000E+00  0.00000000000E+00  0.26679840473E+03  0.26679840478E+03  0.50400001928E-02 0.  1.
        1   -1    0    0  501    0  0.00000000000E+00  0.00000000000E+00 -0.82867352363E+03  0.82867352364E+03  0.50400001928E-02 0. -1.
    10030    2    1    2    0    0  0.00000000000E+00  0.00000000000E+00 -0.56187511890E+03  0.10954719284E+04  0.94040156142E+03 0.  0.
        2    1    3    3  502    0  0.21028096531E+03 -0.10033805619E+03 -0.75669960614E+03  0.79175760421E+03  0.25500000920E-02 0. -1.
       -2    1    3    3    0  502 -0.21028096531E+03  0.10033805619E+03  0.19482448724E+03  0.30371432421E+03  0.25500000920E-02 0.  1.
</event>
<event>
 5   0  0.2705111E-02  0.9111166E+03  0.7818609E-02  0.9411791E-01
       -2   -1    0    0    0  501  0.00000000000E+00  0.00000000000E+00  0.29591742753E+03  0.29591742754E+03  0.25500000920E-02 0.  1.
        2   -1    0    0  501    0  0.00000000000E+00  0.00000000000E+00 -0.70132186148E+03  0.70132186148E+03  0.25500000920E-02 0. -1.
    10030    2    1    2    0    0  0.00000000000E+00  0.00000000000E+00 -0.40540443395E+03  0.99723928903E+03  0.91111659216E+03 0.  0.
        4    1    3    3  502    0  0.21659499953E+03 -0.25944773517E+03 -0.53703457550E+03  0.63453468722E+03  0.12699999809E+01 0. -1.
       -4    1    3    3    0  502 -0.21659499953E+03  0.25944773517E+03  0.13163014155E+03  0.36270460181E+03  0.12699999809E+01 0.  1.
</event>
<event>
 5   0  0.2414128E-02  0.7095297E+03  0.7818609E-02  0.9701073E-01
       -2   -1    0    0    0  501  0.00000000000E+00  0.00000000000E+00  0.25743915898E+03  0.25743915899E+03  0.25500000920E-02 0. -1.
        2   -1    0    0  501    0  0.00000000000E+00  0.00000000000E+00 -0.48888475929E+03  0.48888475929E+03  0.25500000920E-02 0.  1.
    10030    2    1    2    0    0  0.00000000000E+00  0.00000000000E+00 -0.23144560031E+03  0.74632391828E+03  0.70952965061E+03 0.  0.
        3    1    3    3  502    0  0.34040116966E+03 -0.28670278405E+02 -0.21641103630E+03  0.40438680493E+03  0.10100000352E+00 0.  1.
       -3    1    3    3    0  502 -0.34040116966E+03  0.28670278405E+02 -0.15034564014E+02  0.34193711335E+03  0.10100000352E+00 0. -1.
</event>
<event>
 5   0  0.1560728E-02  0.8873517E+03  0.7818609E-02  0.9441532E-01
       -1   -1    0    0    0  501  0.00000000000E+00  0.00000000000E+00  0.23518790601E+03  0.23518790606E+03  0.50400001928E-02 0. -1.
        1   -1    0    0  501    0  0.00000000000E+00  0.00000000000E+00 -0.83698293708E+03  0.83698293710E+03  0.50400001928E-02 0.  1.
    10030    2    1    2    0    0  0.00000000000E+00  0.00000000000E+00 -0.60179503107E+03  0.10721708432E+04  0.88735171014E+03 0.  0.
        4    1    3    3  502    0 -0.12599744724E+03 -0.15584397971E+03 -0.77917557245E+03  0.80453644313E+03  0.12699999809E+01 0.  1.
       -4    1    3    3    0  502  0.12599744724E+03  0.15584397971E+03  0.17738054137E+03  0.26763440003E+03  0.12699999809E+01 0. -1.
</event>
<event>
 5   0  0.2803717E-02  0.8823035E+03  0.7818609E-02  0.9447977E-01
       -2   -1    0    0    0  501  0.00000000000E+00  0.00000000000E+00  0.59542924113E+03  0.59542924114E+03  0.25500000920E-02 0.  1.
        2   -1    0    0  501    0  0.00000000000E+00  0.00000000000E+00 -0.32684804876E+03  0.32684804877E+03  0.25500000920E-02 0. -1.
    10030    2    1    2    0    0  0.00000000000E+00  0.00000000000E+00  0.26858119237E+03  0.92227728991E+03  0.88230354334E+03 0.  0.
        5    1    3    3  502    0  0.25978111456E+03 -0.13967759757E+03 -0.20859010490E+03  0.36128656300E+03  0.46999998093E+01 0. -1.
       -5    1    3    3    0  502 -0.25978111456E+03  0.13967759757E+03  0.47717129727E+03  0.56099072691E+03  0.46999998093E+01 0.  1.
</event>
<event>
 5   0  0.2414128E-02  0.8921119E+03  0.7818609E-02  0.9435496E-01
       -2   -1    0    0    0  501  0.00000000000E+00  0.00000000000E+00  0.27878719045E+03  0.27878719046E+03  0.25500000920E-02 0.  1.
        2   -1    0    0  501    0  0.00000000000E+00  0.00000000000E+00 -0.71368376557E+03  0.71368376557E+03  0.25500000920E-02 0. -1.
    10030    2    1    2    0    0  0.00000000000E+00  0.00000000000E+00 -0.43489657512E+03  0.99247095603E+03  0.89211185818E+03 0.  0.
        3    1    3    3  502    0 -0.36370071703E+03  0.24756627084E+03 -0.13570736444E+03  0.46041695124E+03  0.10100000352E+00 0.  1.
       -3    1    3    3    0  502  0.36370071703E+03 -0.24756627084E+03 -0.29918921067E+03  0.53205400479E+03  0.10100000352E+00 0. -1.
</event>
<event>
 5   0  0.2705111E-02  0.8850898E+03  0.7818609E-02  0.9444414E-01
        2   -1    0    0  501    0  0.00000000000E+00  0.00000000000E+00  0.17810296895E+04  0.17810296895E+04  0.25500000920E-02 0. -1.
       -2   -1    0    0    0  501  0.00000000000E+00  0.00000000000E+00 -0.10996222409E+03  0.10996222412E+03  0.25500000920E-02 0.  1.
    10030    2    1    2    0    0  0.00000000000E+00  0.00000000000E+00  0.16710674654E+04  0.18909919136E+04  0.88508979400E+03 0.  0.
        4    1    3    3  502    0 -0.68949244981E+02  0.35936450548E+03  0.13672920908E+04  0.14154102305E+04  0.12699999809E+01 0. -1.
       -4    1    3    3    0  502  0.68949244981E+02 -0.35936450548E+03  0.30377537458E+03  0.47558168308E+03  0.12699999809E+01 0.  1.
</event>
<event>
 5   0  0.2628383E-02  0.9056352E+03  0.7818609E-02  0.9418564E-01
       -2   -1    0    0    0  501  0.00000000000E+00  0.00000000000E+00  0.21580383281E+03  0.21580383282E+03  0.25500000920E-02 0. -1.
        2   -1    0    0  501    0  0.00000000000E+00  0.00000000000E+00 -0.95013970562E+03  0.95013970562E+03  0.25500000920E-02 0.  1.
    10030    2    1    2    0    0  0.00000000000E+00  0.00000000000E+00 -0.73433587281E+03  0.11659435384E+04  0.90563522499E+03 0.  0.
        2    1    3    3  502    0 -0.45145759151E+03 -0.31614568443E+02 -0.38670775358E+03  0.59527835888E+03  0.25500000920E-02 0.  1.
       -2    1    3    3    0  502  0.45145759151E+03  0.31614568443E+02 -0.34762811923E+03  0.57066517956E+03  0.25500000920E-02 0. -1.
</event>
<event>
 5   0  0.2628383E-02  0.8990512E+03  0.7818609E-02  0.9426768E-01
       -2   -1    0    0    0  501  0.00000000000E+00  0.00000000000E+00  0.29666831926E+03  0.29666831927E+03  0.25500000920E-02 0. -1.
        2   -1    0    0  501    0  0.00000000000E+00  0.00000000000E+00 -0.68114199534E+03  0.68114199534E+03  0.25500000920E-02 0.  1.
    10030    2    1    2    0    0  0.00000000000E+00  0.00000000000E+00 -0.38447367607E+03  0.97781031462E+03  0.89905116861E+03 0.  0.
        2    1    3    3  502    0 -0.97575642705E+01  0.13737512131E+03  0.27315807366E+03  0.30591251564E+03  0.25500000920E-02 0. -1.
       -2    1    3    3    0  502  0.97575642705E+01 -0.13737512131E+03 -0.65763174973E+03  0.67189779898E+03  0.25500000920E-02 0.  1.
</event>
<event>
 5   0  0.2628383E-02  0.9099043E+03  0.7818609E-02  0.9413285E-01
       -2   -1    0    0    0  501  0.00000000000E+00  0.00000000000E+00  0.14659427019E+03  0.14659427021E+03  0.25500000920E-02 0. -1.
        2   -1    0    0  501    0  0.00000000000E+00  0.00000000000E+00 -0.14119341349E+04  0.14119341349E+04  0.25500000920E-02 0.  1.
    10030    2    1    2    0    0  0.00000000000E+00  0.00000000000E+00 -0.12653398647E+04  0.15585284051E+04  0.90990428967E+03 0.  0.
        2    1    3    3  502    0  0.37883705519E+03  0.52869512839E+02 -0.21077768162E+03  0.43673782850E+03  0.25500000920E-02 0. -1.
       -2    1    3    3    0  502 -0.37883705519E+03 -0.52869512839E+02 -0.10545621831E+04  0.11217905766E+04  0.25500000920E-02 0.  1.
</event>
<event>
 5   0  0.2414128E-02  0.9488413E+03  0.7818609E-02  0.9366506E-01
        2   -1    0    0  501    0  0.00000000000E+00  0.00000000000E+00  0.11316476945E+04  0.11316476945E+04  0.25500000920E-02 0. -1.
       -2   -1    0    0    0  501  0.00000000000E+00  0.00000000000E+00 -0.19889135663E+03  0.19889135665E+03  0.25500000920E-02 0.  1.
    10030    2    1    2    0    0  0.00000000000E+00  0.00000000000E+00  0.93275633786E+03  0.13305390511E+04  0.94884128325E+03 0.  0.
        3    1    3    3  502    0 -0.27803992840E+02  0.95466940973E+02 -0.18411540933E+03  0.20924983390E+03  0.10100000352E+00 0.  1.
       -3    1    3    3    0  502  0.27803992840E+02 -0.95466940973E+02  0.11168717472E+04  0.11212892172E+04  0.10100000352E+00 0. -1.
</event>
<event>
 5   0  0.2705111E-02  0.8984477E+03  0.7818609E-02  0.9427524E-01
        2   -1    0    0  501    0  0.00000000000E+00  0.00000000000E+00  0.37859094143E+03  0.37859094143E+03  0.25500000920E-02 0. -1.
       -2   -1    0    0    0  501  0.00000000000E+00  0.00000000000E+00 -0.53303459043E+03  0.53303459044E+03  0.25500000920E-02 0.  1.
    10030    2    1    2    0    0  0.00000000000E+00  0.00000000000E+00 -0.15444364901E+03  0.91162553187E+03  0.89844770001E+03 0.  0.
        4    1    3    3  502    0 -0.25539165739E+02  0.31815728903E+03 -0.39796608897E+03  0.51015186996E+03  0.12699999809E+01 0.  1.
       -4    1    3    3    0  502  0.25539165739E+02 -0.31815728903E+03  0.24352243996E+03  0.40147366192E+03  0.12699999809E+01 0. -1.
</event>
<event>
 5   0  0.2679861E-02  0.8980102E+03  0.7818609E-02  0.9428072E-01
       -2   -1    0    0    0  501  0.00000000000E+00  0.00000000000E+00  0.13372330079E+03  0.13372330081E+03  0.25500000920E-02 0.  1.
        2   -1    0    0  501    0  0.00000000000E+00  0.00000000000E+00 -0.15076322300E+04  0.15076322300E+04  0.25500000920E-02 0. -1.
    10030    2    1    2    0    0  0.00000000000E+00  0.00000000000E+00 -0.13739089292E+04  0.16413555308E+04  0.89801015182E+03 0.  0.
        1    1    3    3  502    0  0.22915223900E+03 -0.16408945625E+02  0.18160892495E+02  0.23045567942E+03  0.50400001928E-02 0.  1.
       -1    1    3    3    0  502 -0.22915223900E+03  0.16408945625E+02 -0.13920698217E+04  0.14108998514E+04  0.50400001928E-02 0. -1.
</event>
<event>
 5   0  0.1559275E-02  0.5277500E+03  0.7818609E-02  0.1006779E+00
       -1   -1    0    0    0  501  0.00000000000E+00  0.00000000000E+00  0.65884963440E+02  0.65884963633E+02  0.50400001928E-02 0. -1.
        1   -1    0    0  501    0  0.00000000000E+00  0.00000000000E+00 -0.10568423205E+04  0.10568423205E+04  0.50400001928E-02 0.  1.
    10030    2    1    2    0    0  0.00000000000E+00  0.00000000000E+00 -0.99095735707E+03  0.11227272842E+04  0.52775000810E+03 0.  0.
        1    1    3    3  502    0  0.18592742880E+03  0.26459789566E+02 -0.10113196953E+03  0.21329979965E+03  0.50400001928E-02 0. -1.
       -1    1    3    3    0  502 -0.18592742880E+03 -0.26459789566E+02 -0.88982538754E+03  0.90942748451E+03  0.50400001928E-02 0.  1.
</event>
<event>
 5   0  0.1497410E-02  0.8912360E+03  0.7818609E-02  0.9436604E-01
        1   -1    0    0  501    0  0.00000000000E+00  0.00000000000E+00  0.15432029633E+04  0.15432029633E+04  0.50400001928E-02 0.  1.
       -1   -1    0    0    0  501  0.00000000000E+00  0.00000000000E+00 -0.12867743262E+03  0.12867743272E+03  0.50400001928E-02 0. -1.
    10030    2    1    2    0    0  0.00000000000E+00  0.00000000000E+00  0.14145255307E+04  0.16718803960E+04  0.89123598538E+03 0.  0.
        3    1    3    3  502    0 -0.23509599750E+03  0.11049756682E+03  0.13864764982E+04  0.14106016201E+04  0.10100000352E+00 0.  1.
       -3    1    3    3    0  502  0.23509599750E+03 -0.11049756682E+03  0.28049032440E+02  0.26127877590E+03  0.10100000352E+00 0. -1.
</event>
<event>
 5   0  0.1560728E-02  0.8859661E+03  0.7818609E-02  0.9443296E-01
        1   -1    0    0  501    0  0.00000000000E+00  0.00000000000E+00  0.89583314825E+03  0.89583314827E+03  0.50400001928E-02 0. -1.
       -1   -1    0    0    0  501  0.00000000000E+00  0.00000000000E+00 -0.21905195454E+03  0.21905195460E+03  0.50400001928E-02 0.  1.
    10030    2    1    2    0    0  0.00000000000E+00  0.00000000000E+00  0.67678119371E+03  0.11148851029E+04  0.88596614407E+03 0.  0.
        4    1    3    3  502    0  0.34706334408E+03  0.15396893137E+03  0.51233697959E+02  0.38312648217E+03  0.12699999809E+01 0.  1.
       -4    1    3    3    0  502 -0.34706334408E+03 -0.15396893137E+03  0.62554749575E+03  0.73175862070E+03  0.12699999809E+01 0. -1.
</event>
<event>
 5   0  0.2705111E-02  0.8796388E+03  0.7818609E-02  0.9451398E-01
       -2   -1    0    0    0  501  0.00000000000E+00  0.00000000000E+00  0.20222119341E+03  0.20222119343E+03  0.25500000920E-02 0.  1.
        2   -1    0    0  501    0  0.00000000000E+00  0.00000000000E+00 -0.95658174995E+03  0.95658174995E+03  0.25500000920E-02 0. -1.
    10030    2    1    2    0    0  0.00000000000E+00  0.00000000000E+00 -0.75436055653E+03  0.11588029434E+04  0.87963879651E+03 0.  0.
        4    1    3    3  502    0  0.33656415908E+03 -0.90397102388E+02 -0.73064705768E+03  0.80950219585E+03  0.12699999809E+01 0. -1.
       -4    1    3    3    0  502 -0.33656415908E+03  0.90397102388E+02 -0.23713498857E+02  0.34930074753E+03  0.12699999809E+01 0.  1.
</event>
<event>
 5   0  0.2628383E-02  0.8992486E+03  0.7818609E-02  0.9426521E-01
        2   -1    0    0  501    0  0.00000000000E+00  0.00000000000E+00  0.15916054757E+04  0.15916054757E+04  0.25500000920E-02 0.  1.
       -2   -1    0    0    0  501  0.00000000000E+00  0.00000000000E+00 -0.12701767247E+03  0.12701767249E+03  0.25500000920E-02 0. -1.
    10030    2    1    2    0    0  0.00000000000E+00  0.00000000000E+00  0.14645878032E+04  0.17186231482E+04  0.89924862643E+03 0.  0.
        2    1    3    3  502    0 -0.32951103954E+03 -0.92150250259E+02  0.12897970903E+04  0.13344083812E+04  0.25500000920E-02 0.  1.
       -2    1    3    3    0  502  0.32951103954E+03  0.92150250259E+02  0.17479071292E+03  0.38421476694E+03  0.25500000920E-02 0. -1.
</event>
<event>
 5   0  0.2628383E-02  0.8898141E+03  0.7818609E-02  0.9438405E-01
        2   -1    0    0  501    0  0.00000000000E+00  0.00000000000E+00  0.54711989584E+03  0.54711989585E+03  0.25500000920E-02 0. -1.
       -2   -1    0    0    0  501  0.00000000000E+00  0.00000000000E+00 -0.36178961588E+03  0.36178961589E+03  0.25500000920E-02 0.  1.
    10030    2    1    2    0    0  0.00000000000E+00  0.00000000000E+00  0.18533027996E+03  0.90890951174E+03  0.88981413108E+03 0.  0.
        2    1    3    3  502    0 -0.35113096026E+02  0.43557778016E+03  0.17801278033E+03  0.47185748065E+03  0.25500000920E-02 0. -1.
       -2    1    3    3    0  502  0.35113096026E+02 -0.43557778016E+03  0.73174996327E+01  0.43705203110E+03  0.25500000920E-02 0.  1.
</event>
<event>
 5   0  0.2679861E-02  0.8104568E+03  0.7818609E-02  0.9545003E-01
        2   -1    0    0  501    0  0.00000000000E+00  0.00000000000E+00  0.23873728338E+04  0.23873728338E+04  0.25500000920E-02 0.  1.
       -2   -1    0    0    0  501  0.00000000000E+00  0.00000000000E+00 -0.68782739882E+02  0.68782739930E+02  0.25500000920E-02 0. -1.
    10030    2    1    2    0    0  0.00000000000E+00  0.00000000000E+00  0.23185900939E+04  0.24561555737E+04  0.81045677167E+03 0.  0.
        1    1    3    3  502    0 -0.14604448492E+03 -0.27886084930E+03  0.19326439527E+04  0.19581126149E+04  0.50400001928E-02 0.  1.
       -1    1    3    3    0  502  0.14604448492E+03  0.27886084930E+03  0.38594614119E+03  0.49804295876E+03  0.50400001928E-02 0. -1.
</event>
<event>
 5   0  0.2803717E-02  0.8795419E+03  0.7818609E-02  0.9451523E-01
        2   -1    0    0  501    0  0.00000000000E+00  0.00000000000E+00  0.72557024968E+03  0.72557024969E+03  0.25500000920E-02 0. -1.
       -2   -1    0    0    0  501  0.00000000000E+00  0.00000000000E+00 -0.26654691170E+03  0.26654691171E+03  0.25500000920E-02 0.  1.
    10030    2    1    2    0    0  0.00000000000E+00  0.00000000000E+00  0.45902333798E+03  0.99211716140E+03  0.87954194734E+03 0.  0.
        5    1    3    3  502    0  0.24765622170E+03 -0.29565472608E+03  0.46781229945E+03  0.60631325131E+03  0.46999998093E+01 0. -1.
       -5    1    3    3    0  502 -0.24765622170E+03  0.29565472608E+03 -0.87889614683E+01  0.38580391009E+03  0.46999998093E+01 0.  1.
</event>
<event>
 5   0  0.1459111E-02  0.9056483E+03  0.7818609E-02  0.9418548E-01
        1   -1    0    0  501    0  0.00000000000E+00  0.00000000000E+00  0.88307183993E+03  0.88307183994E+03  0.50400001928E-02 0. -1.
       -1   -1    0    0    0  501  0.00000000000E+00  0.00000000000E+00 -0.23220047026E+03  0.23220047031E+03  0.50400001928E-02 0.  1.
    10030    2    1    2    0    0  0.00000000000E+00  0.00000000000E+00  0.65087136967E+03  0.11152723103E+04  0.90564826846E+03 0.  0.
        2    1    3    3  502    0 -0.23376238451E+03  0.13143139687E+02  0.80274809978E+03  0.83619501687E+03  0.25500000920E-02 0. -1.
       -2    1    3    3    0  502  0.23376238451E+03 -0.13143139687E+02 -0.15187673011E+03  0.27907729339E+03  0.25500000920E-02 0.  1.
</event>
<event>
 5   0  0.1497410E-02  0.8999854E+03  0.7818609E-02  0.9425600E-01
        1   -1    0    0  501    0  0.00000000000E+00  0.00000000000E+00  0.81958209472E+03  0.81958209473E+03  0.50400001928E-02 0.  1.
       -1   -1    0    0    0  501  0.00000000000E+00  0.00000000000E+00 -0.24706914227E+03  0.24706914232E+03  0.50400001928E-02 0. -1.
    10030    2    1    2    0    0  0.00000000000E+00  0.00000000000E+00  0.57251295245E+03  0.10666512371E+04  0.89998543366E+03 0.  0.
        3    1    3    3  502    0  0.25225721755E+03  0.30101397520E+03  0.25918784057E+02  0.39359231527E+03  0.10100000352E+00 0. -1.
       -3    1    3    3    0  502 -0.25225721755E+03 -0.30101397520E+03  0.54659416839E+03  0.67305892178E+03  0.10100000352E+00 0.  1.
</event>
<event>
 5   0  0.1559275E-02  0.8874851E+03  0.7818609E-02  0.9441362E-01
       -1   -1    0    0    0  501  0.00000000000E+00  0.00000000000E+00  0.37724849431E+03  0.37724849435E+03  0.50400001928E-02 0. -1.
        1   -1    0    0  501    0  0.00000000000E+00  0.00000000000E+00 -0.52195694681E+03  0.52195694683E+03  0.50400001928E-02 0.  1.
    10030    2    1    2    0    0  0.00000000000E+00  0.00000000000E+00 -0.14470845249E+03  0.89920544118E+03  0.88748514873E+03 0.  0.
        1    1    3    3  502    0  0.17828591140E+03  0.94328689741E+01 -0.48396121340E+03  0.51584232215E+03  0.50400001928E-02 0.  1.
       -1    1    3    3    0  502 -0.17828591140E+03 -0.94328689741E+01  0.33925276091E+03  0.38336311903E+03  0.50400001928E-02 0. -1.
</event>
<event>
 5   0  0.1459111E-02  0.8665777E+03  0.7818609E-02  0.9468353E-01
        1   -1    0    0  501    0  0.00000000000E+00  0.00000000000E+00  0.81674509173E+03  0.81674509175E+03  0.50400001928E-02 0.  1.
       -1   -1    0    0    0  501  0.00000000000E+00  0.00000000000E+00 -0.22986271959E+03  0.22986271964E+03  0.50400001928E-02 0. -1.
    10030    2    1    2    0    0  0.00000000000E+00  0.00000000000E+00  0.58688237214E+03  0.10466078114E+04  0.86657774731E+03 0.  0.
        2    1    3    3  502    0  0.35879627399E+03 -0.14425865681E+03  0.57407729722E+02  0.39094881216E+03  0.25500000920E-02 0. -1.
       -2    1    3    3    0  502 -0.35879627399E+03  0.14425865681E+03  0.52947464242E+03  0.65565899923E+03  0.25500000920E-02 0.  1.
</event>
<event>
 5   0  0.2414128E-02  0.9146621E+03  0.7818609E-02  0.9407436E-01
       -2   -1    0    0    0  501  0.00000000000E+00  0.00000000000E+00  0.12785206559E+03  0.12785206561E+03  0.25500000920E-02 0. -1.
        2   -1    0    0  501    0  0.00000000000E+00  0.00000000000E+00 -0.16358881375E+04  0.16358881375E+04  0.25500000920E-02 0.  1.
    10030    2    1    2    0    0  0.00000000000E+00  0.00000000000E+00 -0.15080360719E+04  0.17637402031E+04  0.91466207415E+03 0.  0.
        3    1    3    3  502    0 -0.12048862483E+02  0.38715433993E+03 -0.28516811914E+03  0.48099326855E+03  0.10100000352E+00 0. -1.
       -3    1    3    3    0  502  0.12048862483E+02 -0.38715433993E+03 -0.12228679528E+04  0.12827469346E+04  0.10100000352E+00 0.  1.
</event>
<event>
 5   0  0.1459111E-02  0.9040936E+03  0.7818609E-02  0.9420479E-01
        1   -1    0    0  501    0  0.00000000000E+00  0.00000000000E+00  0.55670503114E+03  0.55670503117E+03  0.50400001928E-02 0. -1.
       -1   -1    0    0    0  501  0.00000000000E+00  0.00000000000E+00 -0.36706391272E+03  0.36706391276E+03  0.50400001928E-02 0.  1.
    10030    2    1    2    0    0  0.00000000000E+00  0.00000000000E+00  0.18964111842E+03  0.92376894392E+03  0.90409363893E+03 0.  0.
        2    1    3    3  502    0  0.24185061106E+03 -0.29881079443E+03 -0.14819296018E+03  0.41199607085E+03  0.25500000920E-02 0.  1.
       -2    1    3    3    0  502 -0.24185061106E+03  0.29881079443E+03  0.33783407861E+03  0.51177287307E+03  0.25500000920E-02 0. -1.
</event>
<event>
 5   0  0.2803717E-02  0.9132473E+03  0.7818609E-02  0.9409172E-01
       -2   -1    0    0    0  501  0.00000000000E+00  0.00000000000E+00  0.11738555469E+04  0.11738555469E+04  0.25500000920E-02 0. -1.
        2   -1    0    0  501    0  0.00000000000E+00  0.00000000000E+00 -0.17762420587E+03  0.17762420589E+03  0.25500000920E-02 0.  1.
    10030    2    1    2    0    0  0.00000000000E+00  0.00000000000E+00  0.99623134105E+03  0.13514797528E+04  0.91324730351E+03 0.  0.
        5    1    3    3  502    0 -0.39442140415E+03 -0.13159757749E+03  0.21890805992E+03  0.46992445685E+03  0.46999998093E+01 0.  1.
       -5    1    3    3    0  502  0.39442140415E+03  0.13159757749E+03  0.77732328113E+03  0.88155529596E+03  0.46999998093E+01 0. -1.
</event>
<event>
 5   0  0.2679861E-02  0.9284966E+03  0.7818609E-02  0.9390644E-01
       -2   -1    0    0    0  501  0.00000000000E+00  0.00000000000E+00  0.23964294709E+03  0.23964294710E+03  0.25500000920E-02 0. -1.
        2   -1    0    0  501    0  0.00000000000E+00  0.00000000000E+00 -0.89936506327E+03  0.89936506327E+03  0.25500000920E-02 0.  1.
    10030    2    1    2    0    0  0.00000000000E+00  0.00000000000E+00 -0.65972211618E+03  0.11390080104E+04  0.92849662203E+03 0.  0.
        1    1    3    3  502    0  0.61394436074E+02 -0.96471163710E+02  0.22209678839E+03  0.24980581588E+03  0.50400001928E-02 0. -1.
       -1    1    3    3    0  502 -0.61394436074E+02  0.96471163710E+02 -0.88181890457E+03  0.88920219450E+03  0.50400001928E-02 0.  1.
</event>
<event>
 5   0  0.1537870E-02  0.9220000E+03  0.7818609E-02  0.9398491E-01
        1   -1    0    0  501    0  0.00000000000E+00  0.00000000000E+00  0.47632494425E+03  0.47632494428E+03  0.50400001928E-02 0. -1.
       -1   -1    0    0    0  501  0.00000000000E+00  0.00000000000E+00 -0.44616815803E+03  0.44616815806E+03  0.50400001928E-02 0.  1.
    10030    2    1    2    0    0  0.00000000000E+00  0.00000000000E+00  0.30156786227E+02  0.92249310234E+03  0.92200004995E+03 0.  0.
        5    1    3    3  502    0  0.13699203187E+03 -0.15317058536E+03 -0.39778120308E+03  0.44774995314E+03  0.46999998093E+01 0.  1.
       -5    1    3    3    0  502 -0.13699203187E+03  0.15317058536E+03  0.42793798931E+03  0.47474314919E+03  0.46999998093E+01 0. -1.
</event>
<event>
 5   0  0.1497410E-02  0.9318472E+03  0.7818609E-02  0.9386624E-01
        1   -1    0    0  501    0  0.00000000000E+00  0.00000000000E+00  0.33223971026E+03  0.33223971030E+03  0.50400001928E-02 0. -1.
       -1   -1    0    0    0  501  0.00000000000E+00  0.00000000000E+00 -0.65339810751E+03  0.65339810753E+03  0.50400001928E-02 0.  1.
    10030    2    1    2    0    0  0.00000000000E+00  0.00000000000E+00 -0.32115839725E+03  0.98563781783E+03  0.93184719338E+03 0.  0.
        3    1    3    3  502    0  0.27640178292E+03 -0.14422446521E+03  0.20565353293E+03  0.37348631538E+03  0.10100000352E+00 0. -1.
       -3    1    3    3    0  502 -0.27640178292E+03  0.14422446521E+03 -0.52681193018E+03  0.61215150245E+03  0.10100000352E+00 0.  1.
</event>
<event>
 5   0  0.1560728E-02  0.9043640E+03  0.7818609E-02  0.9420143E-01
       -1   -1    0    0    0  501  0.00000000000E+00  0.00000000000E+00  0.66941554725E+03  0.66941554727E+03  0.50400001928E-02 0. -1.
        1   -1    0    0  501    0  0.00000000000E+00  0.00000000000E+00 -0.30544342315E+03  0.30544342320E+03  0.50400001928E-02 0.  1.
    10030    2    1    2    0    0  0.00000000000E+00  0.00000000000E+00  0.36397212410E+03  0.97485897047E+03  0.90436403355E+03 0.  0.
        4    1    3    3  502    0 -0.15607032431E+02  0.40437350807E+03 -0.35496674882E+02  0.40623040299E+03  0.12699999809E+01 0.  1.
       -4    1    3    3    0  502  0.15607032431E+02 -0.40437350807E+03  0.39946879898E+03  0.56862856747E+03  0.12699999809E+01 0. -1.
</event>
<event>
 5   0  0.1537870E-02  0.9024789E+03  0.7818609E-02  0.9422488E-01
       -1   -1    0    0    0  501  0.00000000000E+00  0.00000000000E+00  0.11334558264E+03  0.11334558275E+03  0.50400001928E-02 0. -1.
        1   -1    0    0  501    0  0.00000000000E+00  0.00000000000E+00 -0.17964267437E+04  0.17964267437E+04  0.50400001928E-02 0.  1.
    10030    2    1    2    0    0  0.00000000000E+00  0.00000000000E+00 -0.16830811611E+04  0.19097723265E+04  0.90247888851E+03 0.  0.
        5    1    3    3  502    0 -0.62697566812E+02  0.12254061901E+03  0.67779043726E+02  0.15350334510E+03  0.46999998093E+01 0. -1.
       -5    1    3    3    0  502  0.62697566812E+02 -0.12254061901E+03 -0.17508602048E+04  0.17562689814E+04  0.46999998093E+01 0.  1.
</event>
<event>
 5   0  0.2628383E-02  0.8523967E+03  0.7818609E-02  0.9487126E-01
       -2   -1    0    0    0  501  0.00000000000E+00  0.00000000000E+00  0.31980302689E+03  0.31980302690E+03  0.25500000920E-02 0. -1.
        2   -1    0    0  501    0  0.00000000000E+00  0.00000000000E+00 -0.56799030907E+03  0.56799030907E+03  0.25500000920E-02 0.  1.
    10030    2    1    2    0    0  0.00000000000E+00  0.00000000000E+00 -0.24818728218E+03  0.88779333597E+03  0.85239666843E+03 0.  0.
        2    1    3    3  502    0 -0.35565443886E+03 -0.60497388898E+02  0.11225477396E+03  0.37782422927E+03  0.25500000920E-02 0.  1.
       -2    1    3    3    0  502  0.35565443886E+03  0.60497388898E+02 -0.36044205614E+03  0.50996910670E+03  0.25500000920E-02 0. -1.
</event>
<event>
 5   0  0.1459111E-02  0.7350713E+03  0.7818609E-02  0.9659067E-01
       -1   -1    0    0    0  501  0.00000000000E+00  0.00000000000E+00  0.16311483552E+03  0.16311483560E+03  0.50400001928E-02 0.  1.
        1   -1    0    0  501    0  0.00000000000E+00  0.00000000000E+00 -0.82814329664E+03  0.82814329665E+03  0.50400001928E-02 0. -1.
    10030    2    1    2    0    0  0.00000000000E+00  0.00000000000E+00 -0.66502846112E+03  0.99125813225E+03  0.73507130991E+03 0.  0.
        2    1    3    3  502    0  0.31018986841E+03  0.18713438959E+03 -0.24889053147E+03  0.43952648486E+03  0.25500000920E-02 0. -1.
       -2    1    3    3    0  502 -0.31018986841E+03 -0.18713438959E+03 -0.41613792965E+03  0.55173164739E+03  0.25500000920E-02 0.  1.
</event>
<event>
 5   0  0.2803717E-02  0.8966860E+03  0.7818609E-02  0.9429734E-01
       -2   -1    0    0    0  501  0.00000000000E+00  0.00000000000E+00  0.20347432974E+03  0.20347432975E+03  0.25500000920E-02 0. -1.
        2   -1    0    0  501    0  0.00000000000E+00  0.00000000000E+00 -0.98789574774E+03  0.98789574775E+03  0.25500000920E-02 0.  1.
    10030    2    1    2    0    0  0.00000000000E+00  0.00000000000E+00 -0.78442141801E+03  0.11913700775E+04  0.89668595424E+03 0.  0.
        5    1    3    3  502    0 -0.30085315737E+02  0.44055954324E+03 -0.49505353976E+03  0.66339877494E+03  0.46999998093E+01 0.  1.
       -5    1    3    3    0  502  0.30085315737E+02 -0.44055954324E+03 -0.28936787824E+03  0.52797130256E+03  0.46999998093E+01 0. -1.
</event>
<event>
 5   0  0.1559275E-02  0.8933706E+03  0.7818609E-02  0.9433907E-01
       -1   -1    0    0    0  501  0.00000000000E+00  0.00000000000E+00  0.12161478468E+03  0.12161478479E+03  0.50400001928E-02 0. -1.
        1   -1    0    0  501    0  0.00000000000E+00  0.00000000000E+00 -0.16406539170E+04  0.16406539170E+04  0.50400001928E-02 0.  1.
    10030    2    1    2    0    0  0.00000000000E+00  0.00000000000E+00 -0.15190391324E+04  0.17622687018E+04  0.89337063519E+03 0.  0.
        1    1    3    3  502    0  0.33042261830E+03  0.20229825363E+03 -0.11980601236E+04  0.12591472312E+04  0.50400001928E-02 0.  1.
       -1    1    3    3    0  502 -0.33042261830E+03 -0.20229825363E+03 -0.32097900877E+03  0.50312147062E+03  0.50400001928E-02 0. -1.
</event>
<event>
 5   0  0.2414128E-02  0.9150916E+03  0.7818609E-02  0.9406910E-01
        2   -1    0    0  501    0  0.00000000000E+00  0.00000000000E+00  0.78904308525E+03  0.78904308525E+03  0.25500000920E-02 0.  1.
       -2   -1    0    0    0  501  0.00000000000E+00  0.00000000000E+00 -0.26531906567E+03  0.26531906568E+03  0.25500000920E-02 0. -1.
    10030    2    1    2    0    0  0.00000000000E+00  0.00000000000E+00  0.52372401958E+03  0.10543621509E+04  0.91509163292E+03 0.  0.
        3    1    3    3  502    0  0.15879146212E+03 -0.29875866916E+02  0.75507714273E+03  0.77217148196E+03  0.10100000352E+00 0.  1.
       -3    1    3    3    0  502 -0.15879146212E+03  0.29875866916E+02 -0.23135312315E+03  0.28219066898E+03  0.10100000352E+00 0. -1.
</event>
<event>
 5   0  0.2803717E-02  0.8910191E+03  0.7818609E-02  0.9436878E-01
        2   -1    0    0  501    0  0.00000000000E+00  0.00000000000E+00  0.15166957554E+03  0.15166957556E+03  0.25500000920E-02 0. -1.
       -2   -1    0    0    0  501  0.00000000000E+00  0.00000000000E+00 -0.13086259899E+04  0.13086259899E+04  0.25500000920E-02 0.  1.
    10030    2    1    2    0    0  0.00000000000E+00  0.00000000000E+00 -0.11569564144E+04  0.14602955655E+04  0.89101907601E+03 0.  0.
        5    1    3    3  502    0  0.42977789840E+02  0.26288640504E+03 -0.11636850262E+04  0.11937928139E+04  0.46999998093E+01 0.  1.
       -5    1    3    3    0  502 -0.42977789840E+02 -0.26288640504E+03  0.67286118229E+01  0.26650275156E+03  0.46999998093E+01 0. -1.
</event>
<event>
 5   0  0.2803717E-02  0.8855954E+03  0.7818609E-02  0.9443769E-01
        2   -1    0    0  501    0  0.00000000000E+00  0.00000000000E+00  0.10434155442E+04  0.10434155442E+04  0.25500000920E-02 0. -1.
       -2   -1    0    0    0  501  0.00000000000E+00  0.00000000000E+00 -0.18791150351E+03  0.18791150352E+03  0.25500000920E-02 0.  1.
    10030    2    1    2    0    0  0.00000000000E+00  0.00000000000E+00  0.85550404072E+03  0.12313270478E+04  0.88559535615E+03 0.  0.
        5    1    3    3  502    0 -0.20290224938E+03 -0.17018457362E+03  0.92112780168E+03  0.95845220482E+03  0.46999998093E+01 0. -1.
       -5    1    3    3    0  502  0.20290224938E+03  0.17018457362E+03 -0.65623760956E+02  0.27287484293E+03  0.46999998093E+01 0.  1.
</event>
<event>
 5   0  0.2414128E-02  0.7876036E+03  0.7818609E-02  0.9578136E-01
        2   -1    0    0  501    0  0.00000000000E+00  0.00000000000E+00  0.32466633860E+03  0.32466633861E+03  0.25500000920E-02 0.  1.
       -2   -1    0    0    0  501  0.00000000000E+00  0.00000000000E+00 -0.47765914509E+03  0.47765914510E+03  0.25500000920E-02 0. -1.
    10030    2    1    2    0    0  0.00000000000E+00  0.00000000000E+00 -0.15299280649E+03  0.80232548371E+03  0.78760356968E+03 0.  0.
        3    1    3    3  502    0 -0.19141760787E+03 -0.32099888329E+03  0.49915241330E+02  0.37705772130E+03  0.10100000352E+00 0.  1.
       -3    1    3    3    0  502  0.19141760787E+03  0.32099888329E+03 -0.20290804782E+03  0.42526776241E+03  0.10100000352E+00 0. -1.
</event>
<event>
 5   0  0.1559275E-02  0.8763096E+03  0.7818609E-02  0.9455690E-01
        1   -1    0    0  501    0  0.00000000000E+00  0.00000000000E+00  0.74751539910E+03  0.74751539912E+03  0.50400001928E-02 0.  1.
       -1   -1    0    0    0  501  0.00000000000E+00  0.00000000000E+00 -0.25682363561E+03  0.25682363566E+03  0.50400001928E-02 0. -1.
    10030    2    1    2    0    0  0.00000000000E+00  0.00000000000E+00  0.49069176349E+03  0.10043390348E+04  0.87630958572E+03 0.  0.
        1    1    3    3  502    0 -0.37357374187E+03  0.22843710024E+03  0.26305575601E+03  0.51082206312E+03  0.50400001928E-02 0.  1.
       -1    1    3    3    0  502  0.37357374187E+03 -0.22843710024E+03  0.22763600749E+03  0.49351697165E+03  0.50400001928E-02 0. -1.
</event>
<event>
 5   0  0.1459111E-02  0.8978833E+03  0.7818609E-02  0.9428231E-01
       -1   -1    0    0    0  501  0.00000000000E+00  0.00000000000E+00  0.55672506393E+03  0.55672506396E+03  0.50400001928E-02 0.  1.
        1   -1    0    0  501    0  0.00000000000E+00  0.00000000000E+00 -0.36202534626E+03  0.36202534630E+03  0.50400001928E-02 0. -1.
    10030    2    1    2    0    0  0.00000000000E+00  0.00000000000E+00  0.19469971767E+03  0.91875041025E+03  0.89788325314E+03 0.  0.
        2    1    3    3  502    0  0.10024931327E+03 -0.58246450855E+02 -0.34644167259E+03  0.36532780671E+03  0.25500000920E-02 0. -1.
       -2    1    3    3    0  502 -0.10024931327E+03  0.58246450855E+02  0.54114139026E+03  0.55342260354E+03  0.25500000920E-02 0.  1.
</event>
<event>
 5   0  0.1537870E-02  0.8931956E+03  0.7818609E-02  0.9434127E-01
        1   -1    0    0  501    0  0.00000000000E+00  0.00000000000E+00  0.21007120507E+03  0.21007120514E+03  0.50400001928E-02 0. -1.
       -1   -1    0    0    0  501  0.00000000000E+00  0.00000000000E+00 -0.94943799502E+03  0.94943799504E+03  0.50400001928E-02 0.  1.
    10030    2    1    2    0    0  0.00000000000E+00  0.00000000000E+00 -0.73936678995E+03  0.11595092002E+04  0.89319557500E+03 0.  0.
        5    1    3    3  502    0 -0.11818189442E+03  0.21620680161E+02 -0.92803192541E+03  0.93578830862E+03  0.46999998093E+01 0.  1.
       -5    1    3    3    0  502  0.11818189442E+03 -0.21620680161E+02  0.18866513546E+03  0.22372089155E+03  0.46999998093E+01 0. -1.
</event>
<event>
 5   0  0.2628383E-02  0.9240262E+03  0.7818609E-02  0.9396036E-01
       -2   -1    0    0    0  501  0.00000000000E+00  0.00000000000E+00  0.50820231207E+03  0.50820231207E+03  0.25500000920E-02 0.  1.
        2   -1    0    0  501    0  0.00000000000E+00  0.00000000000E+00 -0.42002186817E+03  0.42002186818E+03  0.25500000920E-02 0. -1.
    10030    2    1    2    0    0  0.00000000000E+00  0.00000000000E+00  0.88180443892E+02  0.92822418026E+03  0.92402615662E+03 0.  0.
        2    1    3    3  502    0 -0.10322703076E+03 -0.97470460668E+02  0.48574637531E+03  0.50606901872E+03  0.25500000920E-02 0.  1.
       -2    1    3    3    0  502  0.10322703076E+03  0.97470460668E+02 -0.39756593141E+03  0.42215516153E+03  0.25500000920E-02 0. -1.
</event>
<event>
 5   0  0.1497410E-02  0.9027221E+03  0.7818609E-02  0.9422185E-01
        1   -1    0    0  501    0  0.00000000000E+00  0.00000000000E+00  0.58620613184E+03  0.58620613186E+03  0.50400001928E-02 0. -1.
       -1   -1    0    0    0  501  0.00000000000E+00  0.00000000000E+00 -0.34753438559E+03  0.34753438563E+03  0.50400001928E-02 0.  1.
    10030    2    1    2    0    0  0.00000000000E+00  0.00000000000E+00  0.23867174625E+03  0.93374051749E+03  0.90272207880E+03 0.  0.
        3    1    3    3  502    0 -0.35636558147E+03 -0.75206910170E+02 -0.15642226990E+03  0.39638421224E+03  0.10100000352E+00 0.  1.
       -3    1    3    3    0  502  0.35636558147E+03  0.75206910170E+02  0.39509401615E+03  0.53735630525E+03  0.10100000352E+00 0. -1.
</event>
<event>
 5   0  0.1560728E-02  0.9041876E+03  0.7818609E-02  0.9420362E-01
        1   -1    0    0  501    0  0.00000000000E+00  0.00000000000E+00  0.40709967259E+03  0.40709967262E+03  0.50400001928E-02 0. -1.
       -1   -1    0    0    0  501  0.00000000000E+00  0.00000000000E+00 -0.50206084092E+03  0.50206084095E+03  0.50400001928E-02 0.  1.
    10030    2    1    2    0    0  0.00000000000E+00  0.00000000000E+00 -0.94961168331E+02  0.90916051357E+03  0.90418759997E+03 0.  0.
        4    1    3    3  502    0 -0.21845730403E+03  0.35283553366E+03 -0.22782892991E+03  0.47341751309E+03  0.12699999809E+01 0.  1.
       -4    1    3    3    0  502  0.21845730403E+03 -0.35283553366E+03  0.13286776157E+03  0.43574300048E+03  0.12699999809E+01 0. -1.
</event>
<event>
 5   0  0.2705111E-02  0.8971432E+03  0.7818609E-02  0.9429160E-01
       -2   -1    0    0    0  501  0.00000000000E+00  0.00000000000E+00  0.36659883999E+03  0.36659884000E+03  0.25500000920E-02 0. -1.
        2   -1    0    0  501    0  0.00000000000E+00  0.00000000000E+00 -0.54887374336E+03  0.54887374337E+03  0.25500000920E-02 0.  1.
    10030    2    1    2    0    0  0.00000000000E+00  0.00000000000E+00 -0.18227490337E+03  0.91547258337E+03  0.89714319398E+03 0.  0.
        4    1    3    3  502    0 -0.95565293957E+02 -0.23657316165E+03  0.28533830411E+03  0.38277819545E+03  0.12699999809E+01 0. -1.
       -4    1    3    3    0  502  0.95565293957E+02  0.23657316165E+03 -0.46761320748E+03  0.53269438792E+03  0.12699999809E+01 0.  1.
</event>
<event>
 5   0  0.1040163E-02  0.8961384E+03  0.7818609E-02  0.9430421E-01
       -3   -1    0    0    0  501  0.00000000000E+00  0.00000000000E+00  0.45319865290E+03  0.45319866416E+03  0.10100000352E+00 0.  1.
        3   -1    0    0  501    0  0.00000000000E+00  0.00000000000E+00 -0.44299781569E+03  0.44299782720E+03  0.10100000352E+00 0. -1.
    10030    2    1    2    0    0  0.00000000000E+00  0.00000000000E+00  0.10200837215E+02  0.89619649136E+03  0.89613843464E+03 0.  0.
        4    1    3    3  502    0 -0.36770427882E+03  0.23003336082E+03  0.11754713943E+03  0.44937815550E+03  0.12699999809E+01 0.  1.
       -4    1    3    3    0  502  0.36770427882E+03 -0.23003336082E+03 -0.10734630221E+03  0.44681833585E+03  0.12699999809E+01 0. -1.
</event>
<event>
 5   0  0.1560728E-02  0.8982347E+03  0.7818609E-02  0.9427791E-01
        1   -1    0    0  501    0  0.00000000000E+00  0.00000000000E+00  0.64195762001E+03  0.64195762003E+03  0.50400001928E-02 0.  1.
       -1   -1    0    0    0  501  0.00000000000E+00  0.00000000000E+00 -0.31420515649E+03  0.31420515654E+03  0.50400001928E-02 0. -1.
    10030    2    1    2    0    0  0.00000000000E+00  0.00000000000E+00  0.32775246352E+03  0.95616277657E+03  0.89823470093E+03 0.  0.
        4    1    3    3  502    0  0.23031304237E+03 -0.89233923459E+02 -0.23541148649E+03  0.34121396726E+03  0.12699999809E+01 0. -1.
       -4    1    3    3    0  502 -0.23031304237E+03  0.89233923459E+02  0.56316395001E+03  0.61494880931E+03  0.12699999809E+01 0.  1.
</event>
<event>
 5   0  0.1040163E-02  0.9237464E+03  0.7818609E-02  0.9396375E-01
        3   -1    0    0  501    0  0.00000000000E+00  0.00000000000E+00  0.28682093641E+03  0.28682095419E+03  0.10100000352E+00 0.  1.
       -3   -1    0    0    0  501  0.00000000000E+00  0.00000000000E+00 -0.74376310263E+03  0.74376310949E+03  0.10100000352E+00 0. -1.
    10030    2    1    2    0    0  0.00000000000E+00  0.00000000000E+00 -0.45694216622E+03  0.10305840637E+04  0.92374637701E+03 0.  0.
        5    1    3    3  502    0  0.10774886585E+03 -0.28678195693E+03 -0.61406098181E+03  0.68625555611E+03  0.46999998093E+01 0. -1.
       -5    1    3    3    0  502 -0.10774886585E+03  0.28678195693E+03  0.15711881559E+03  0.34432850757E+03  0.46999998093E+01 0.  1.
</event>
<event>
 5   0  0.1560728E-02  0.8980747E+03  0.7818609E-02  0.9427991E-01
        1   -1    0    0  501    0  0.00000000000E+00  0.00000000000E+00  0.84880188321E+03  0.84880188323E+03  0.50400001928E-02 0. -1.
       -1   -1    0    0    0  501  0.00000000000E+00  0.00000000000E+00 -0.23755195276E+03  0.23755195281E+03  0.50400001928E-02 0.  1.
    10030    2    1    2    0    0  0.00000000000E+00  0.00000000000E+00  0.61124993045E+03  0.10863538360E+04  0.89807470714E+03 0.  0.
        4    1    3    3  502    0 -0.19553584676E+03 -0.18102222941E+03 -0.13157454204E+03  0.29718140575E+03  0.12699999809E+01 0.  1.
       -4    1    3    3    0  502  0.19553584676E+03  0.18102222941E+03  0.74282447249E+03  0.78917243030E+03  0.12699999809E+01 0. -1.
</event>
<event>
 5   0  0.1559275E-02  0.9183589E+03  0.7818609E-02  0.9402918E-01
        1   -1    0    0  501    0  0.00000000000E+00  0.00000000000E+00  0.76173935421E+03  0.76173935422E+03  0.50400001928E-02 0.  1.
       -1   -1    0    0    0  501  0.00000000000E+00  0.00000000000E+00 -0.27679516134E+03  0.27679516138E+03  0.50400001928E-02 0. -1.
    10030    2    1    2    0    0  0.00000000000E+00  0.00000000000E+00  0.48494419287E+03  0.10385345156E+04  0.91835890038E+03 0.  0.
        1    1    3    3  502    0 -0.55624421928E+02  0.43896459253E+03  0.38125840079E+03  0.58407358955E+03  0.50400001928E-02 0.  1.
       -1    1    3    3    0  502  0.55624421928E+02 -0.43896459253E+03  0.10368579208E+03  0.45446092606E+03  0.50400001928E-02 0. -1.
</event>
<event>
 5   0  0.2679861E-02  0.9070036E+03  0.7818609E-02  0.9416869E-01
        2   -1    0    0  501    0  0.00000000000E+00  0.00000000000E+00  0.10082233478E+04  0.10082233478E+04  0.25500000920E-02 0. -1.
       -2   -1    0    0    0  501  0.00000000000E+00  0.00000000000E+00 -0.20398644578E+03  0.20398644579E+03  0.25500000920E-02 0.  1.
    10030    2    1    2    0    0  0.00000000000E+00  0.00000000000E+00  0.80423690197E+03  0.12122097935E+04  0.90700363234E+03 0.  0.
        1    1    3    3  502    0 -0.23278125601E+03 -0.30407202321E+03  0.77437144024E+02  0.39069607082E+03  0.50400001928E-02 0. -1.
       -1    1    3    3    0  502  0.23278125601E+03  0.30407202321E+03  0.72679975795E+03  0.82151372273E+03  0.50400001928E-02 0.  1.
</event>
<event>
 5   0  0.1497410E-02  0.9012577E+03  0.7818609E-02  0.9424011E-01
        1   -1    0    0  501    0  0.00000000000E+00  0.00000000000E+00  0.10439903204E+04  0.10439903204E+04  0.50400001928E-02 0. -1.
       -1   -1    0    0    0  501  0.00000000000E+00  0.00000000000E+00 -0.19450983169E+03  0.19450983175E+03  0.50400001928E-02 0.  1.
    10030    2    1    2    0    0  0.00000000000E+00  0.00000000000E+00  0.84948048871E+03  0.12385001522E+04  0.90125774682E+03 0.  0.
        3    1    3    3  502    0 -0.86972038300E+02 -0.33606480674E+03  0.81959643245E+03  0.89007977848E+03  0.10100000352E+00 0. -1.
       -3    1    3    3    0  502  0.86972038300E+02  0.33606480674E+03  0.29884056262E+02  0.34842037368E+03  0.10100000352E+00 0.  1.
</event>
<event>
 5   0  0.2628383E-02  0.8479140E+03  0.7818609E-02  0.9493141E-01
       -2   -1    0    0    0  501  0.00000000000E+00  0.00000000000E+00  0.18619319417E+03  0.18619319419E+03  0.25500000920E-02 0. -1.
        2   -1    0    0  501    0  0.00000000000E+00  0.00000000000E+00 -0.96533888747E+03  0.96533888747E+03  0.25500000920E-02 0.  1.
    10030    2    1    2    0    0  0.00000000000E+00  0.00000000000E+00 -0.77914569330E+03  0.11515320817E+04  0.84791398367E+03 0.  0.
        2    1    3    3  502    0  0.29528618338E+03 -0.13381950978E+02 -0.80231758433E+03  0.85503597166E+03  0.25500000920E-02 0.  1.
       -2    1    3    3    0  502 -0.29528618338E+03  0.13381950978E+02  0.23171891031E+02  0.29649611000E+03  0.25500000920E-02 0. -1.
</event>
<event>
 5   0  0.2414128E-02  0.9245054E+03  0.7818609E-02  0.9395456E-01
        2   -1    0    0  501    0  0.00000000000E+00  0.00000000000E+00  0.23919825229E+04  0.23919825229E+04  0.25500000920E-02 0. -1.
       -2   -1    0    0    0  501  0.00000000000E+00  0.00000000000E+00 -0.89330738692E+02  0.89330738728E+02  0.25500000920E-02 0.  1.
    10030    2    1    2    0    0  0.00000000000E+00  0.00000000000E+00  0.23026517842E+04  0.24813132617E+04  0.92450541536E+03 0.  0.
        3    1    3    3  502    0 -0.14295182417E+02  0.27659892654E+03  0.21446223793E+04  0.21624329998E+04  0.10100000352E+00 0. -1.
       -3    1    3    3    0  502  0.14295182417E+02 -0.27659892654E+03  0.15802940491E+03  0.31888026188E+03  0.10100000352E+00 0.  1.
</event>
<event>
 5   0  0.1537870E-02  0.9058523E+03  0.7818609E-02  0.9418295E-01
        1   -1    0    0  501    0  0.00000000000E+00  0.00000000000E+00  0.14059376758E+04  0.14059376758E+04  0.50400001928E-02 0. -1.
       -1   -1    0    0    0  501  0.00000000000E+00  0.00000000000E+00 -0.14591122169E+03  0.14591122178E+03  0.50400001928E-02 0.  1.
    10030    2    1    2    0    0  0.00000000000E+00  0.00000000000E+00  0.12600264541E+04  0.15518488976E+04  0.90585227047E+03 0.  0.
        5    1    3    3  502    0 -0.68623801368E+02 -0.23793728965E+03  0.12796436943E+04  0.13033930544E+04  0.46999998093E+01 0. -1.
       -5    1    3    3    0  502  0.68623801368E+02  0.23793728965E+03 -0.19617240157E+02  0.24845584322E+03  0.46999998093E+01 0.  1.
</event>
<event>
 5   0  0.1537870E-02  0.9033749E+03  0.7818609E-02  0.9421372E-01
        1   -1    0    0  501    0  0.00000000000E+00  0.00000000000E+00  0.14524802741E+04  0.14524802741E+04  0.50400001928E-02 0.  1.
       -1   -1    0    0    0  501  0.00000000000E+00  0.00000000000E+00 -0.14046424604E+03  0.14046424613E+03  0.50400001928E-02 0. -1.
    10030    2    1    2    0    0  0.00000000000E+00  0.00000000000E+00  0.13120160280E+04  0.15929445202E+04  0.90337488712E+03 0.  0.
        5    1    3    3  502    0  0.10296046788E+03 -0.24104976259E+03  0.13045995553E+04  0.13306795015E+04  0.46999998093E+01 0.  1.
       -5    1    3    3    0  502 -0.10296046788E+03  0.24104976259E+03  0.74164727422E+01  0.26226501874E+03  0.46999998093E+01 0. -1.
</event>
<event>
 5   0  0.2705111E-02  0.9538922E+03  0.7818609E-02  0.9360613E-01
        2   -1    0    0  501    0  0.00000000000E+00  0.00000000000E+00  0.10745437012E+04  0.10745437012E+04  0.25500000920E-02 0. -1.
       -2   -1    0    0    0  501  0.00000000000E+00  0.00000000000E+00 -0.21169690045E+03  0.21169690047E+03  0.25500000920E-02 0.  1.
    10030    2    1    2    0    0  0.00000000000E+00  0.00000000000E+00  0.86284680070E+03  0.12862406016E+04  0.95389217618E+03 0.  0.
        4    1    3    3  502    0 -0.46312201828E+02 -0.46521747642E+03  0.30418695027E+03  0.55776646907E+03  0.12699999809E+01 0.  1.
       -4    1    3    3    0  502  0.46312201828E+02  0.46521747642E+03  0.55865985044E+03  0.72847413255E+03  0.12699999809E+01 0. -1.
</event>
<event>
 5   0  0.2705111E-02  0.9264625E+03  0.7818609E-02  0.9393093E-01
       -2   -1    0    0    0  501  0.00000000000E+00  0.00000000000E+00  0.31503537136E+03  0.31503537137E+03  0.25500000920E-02 0.  1.
        2   -1    0    0  501    0  0.00000000000E+00  0.00000000000E+00 -0.68113996202E+03  0.68113996202E+03  0.25500000920E-02 0. -1.
    10030    2    1    2    0    0  0.00000000000E+00  0.00000000000E+00 -0.36610459065E+03  0.99617533339E+03  0.92646247823E+03 0.  0.
        4    1    3    3  502    0  0.38966039776E+02  0.27760668974E+03 -0.57958023815E+03  0.64381572814E+03  0.12699999809E+01 0. -1.
       -4    1    3    3    0  502 -0.38966039776E+02 -0.27760668974E+03  0.21347564749E+03  0.35235960526E+03  0.12699999809E+01 0.  1.
</event>
<event>
 5   0  0.2628383E-02  0.9216379E+03  0.7818609E-02  0.9398930E-01
        2   -1    0    0  501    0  0.00000000000E+00  0.00000000000E+00  0.72566071874E+03  0.72566071874E+03  0.25500000920E-02 0. -1.
       -2   -1    0    0    0  501  0.00000000000E+00  0.00000000000E+00 -0.29263553510E+03  0.29263553511E+03  0.25500000920E-02 0.  1.
    10030    2    1    2    0    0  0.00000000000E+00  0.00000000000E+00  0.43302518364E+03  0.10182962538E+04  0.92163791748E+03 0.  0.
        2    1    3    3  502    0 -0.34302134709E+03 -0.28715350718E+03  0.94308377274E+02  0.45718142053E+03  0.25500000920E-02 0.  1.
       -2    1    3    3    0  502  0.34302134709E+03  0.28715350718E+03  0.33871680637E+03  0.56111483332E+03  0.25500000920E-02 0. -1.
</event>
<event>
 5   0  0.1497410E-02  0.9260717E+03  0.7818609E-02  0.9393565E-01
        1   -1    0    0  501    0  0.00000000000E+00  0.00000000000E+00  0.49027670907E+03  0.49027670910E+03  0.50400001928E-02 0. -1.
       -1   -1    0    0    0  501  0.00000000000E+00  0.00000000000E+00 -0.43730857637E+03  0.43730857640E+03  0.50400001928E-02 0.  1.
    10030    2    1    2    0    0  0.00000000000E+00  0.00000000000E+00  0.52968132703E+02  0.92758528549E+03  0.92607172443E+03 0.  0.
        3    1    3    3  502    0  0.18468746179E+02 -0.32362436611E+02 -0.43580441630E+03  0.43739446882E+03  0.10100000352E+00 0.  1.
       -3    1    3    3    0  502 -0.18468746179E+02  0.32362436611E+02  0.48877254900E+03  0.49019081667E+03  0.10100000352E+00 0. -1.
</event>
<event>
 5   0  0.2414128E-02  0.9025169E+03  0.7818609E-02  0.9422441E-01
        2   -1    0    0  501    0  0.00000000000E+00  0.00000000000E+00  0.12115310851E+04  0.12115310851E+04  0.25500000920E-02 0. -1.
       -2   -1    0    0    0  501  0.00000000000E+00  0.00000000000E+00 -0.16808003410E+03  0.16808003412E+03  0.25500000920E-02 0.  1.
    10030    2    1    2    0    0  0.00000000000E+00  0.00000000000E+00  0.10434510510E+04  0.13796111192E+04  0.90251689428E+03 0.  0.
        3    1    3    3  502    0  0.20835878716E+03 -0.99305122053E+02 -0.71017525015E+02  0.24149200921E+03  0.10100000352E+00 0.  1.
       -3    1    3    3    0  502 -0.20835878716E+03  0.99305122053E+02  0.11144685760E+04  0.11381191100E+04  0.10100000352E+00 0. -1.
</event>
<event>
 5   0  0.1537870E-02  0.8566928E+03  0.7818609E-02  0.9481398E-01
        1   -1    0    0  501    0  0.00000000000E+00  0.00000000000E+00  0.48607799853E+03  0.48607799856E+03  0.50400001928E-02 0. -1.
       -1   -1    0    0    0  501  0.00000000000E+00  0.00000000000E+00 -0.37747156498E+03  0.37747156501E+03  0.50400001928E-02 0.  1.
    10030    2    1    2    0    0  0.00000000000E+00  0.00000000000E+00  0.10860643355E+03  0.86354956357E+03  0.85669276368E+03 0.  0.
        5    1    3    3  502    0  0.35970610234E+03 -0.16902675663E+03 -0.10666210852E+03  0.41153058198E+03  0.46999998093E+01 0.  1.
       -5    1    3    3    0  502 -0.35970610234E+03  0.16902675663E+03  0.21526854207E+03  0.45201898159E+03  0.46999998093E+01 0. -1.
</event>
<event>
 5   0  0.1497410E-02  0.8138706E+03  0.7818609E-02  0.9540154E-01
        1   -1    0    0  501    0  0.00000000000E+00  0.00000000000E+00  0.12959638136E+04  0.12959638137E+04  0.50400001928E-02 0. -1.
       -1   -1    0    0    0  501  0.00000000000E+00  0.00000000000E+00 -0.12777851647E+03  0.12777851657E+03  0.50400001928E-02 0.  1.
    10030    2    1    2    0    0  0.00000000000E+00  0.00000000000E+00  0.11681852972E+04  0.14237423302E+04  0.81387058819E+03 0.  0.
        3    1    3    3  502    0  0.12229286807E+03 -0.27022537807E+03  0.10714641481E+04  0.11117610945E+04  0.10100000352E+00 0. -1.
       -3    1    3    3    0  502 -0.12229286807E+03  0.27022537807E+03  0.96721149113E+02  0.31198123569E+03  0.10100000352E+00 0.  1.
</event>
<event>
 5   0  0.1537870E-02  0.8964061E+03  0.7818609E-02  0.9430085E-01
        1   -1    0    0  501    0  0.00000000000E+00  0.00000000000E+00  0.54988492523E+03  0.54988492525E+03  0.50400001928E-02 0. -1.
       -1   -1    0    0    0  501  0.00000000000E+00  0.00000000000E+00 -0.36532368324E+03  0.36532368328E+03  0.50400001928E-02 0.  1.
    10030    2    1    2    0    0  0.00000000000E+00  0.00000000000E+00  0.18456124199E+03  0.91520860853E+03  0.89640612731E+03 0.  0.
        5    1    3    3  502    0 -0.18299319196E+02  0.44436842042E+03  0.35750123553E+02  0.44620434723E+03  0.46999998093E+01 0. -1.
       -5    1    3    3    0  502  0.18299319196E+02 -0.44436842042E+03  0.14881111843E+03  0.46900426130E+03  0.46999998093E+01 0.  1.
</event>
<event>
 5   0  0.2705111E-02  0.9069031E+03  0.7818609E-02  0.9416993E-01
        2   -1    0    0  501    0  0.00000000000E+00  0.00000000000E+00  0.13670677143E+04  0.13670677143E+04  0.25500000920E-02 0.  1.
       -2   -1    0    0    0  501  0.00000000000E+00  0.00000000000E+00 -0.15040827899E+03  0.15040827902E+03  0.25500000920E-02 0. -1.
    10030    2    1    2    0    0  0.00000000000E+00  0.00000000000E+00  0.12166594353E+04  0.15174759933E+04  0.90690308676E+03 0.  0.
        4    1    3    3  502    0 -0.42322490417E+00 -0.14007000903E+03 -0.11329899567E+03  0.18016121078E+03  0.12699999809E+01 0. -1.
       -4    1    3    3    0  502  0.42322490417E+00  0.14007000903E+03  0.13299584310E+04  0.13373147825E+04  0.12699999809E+01 0.  1.
</event>
<event>
 5   0  0.1560728E-02  0.9174106E+03  0.7818609E-02  0.9404075E-01
        1   -1    0    0  501    0  0.00000000000E+00  0.00000000000E+00  0.36535136976E+03  0.36535136980E+03  0.50400001928E-02 0.  1.
       -1   -1    0    0    0  501  0.00000000000E+00  0.00000000000E+00 -0.57591283358E+03  0.57591283361E+03  0.50400001928E-02 0. -1.
    10030    2    1    2    0    0  0.00000000000E+00  0.00000000000E+00 -0.21056146382E+03  0.94126420341E+03  0.91741057906E+03 0.  0.
        4    1    3    3  502    0  0.43178408520E+03 -0.62698126173E+01  0.53441737470E+02  0.43512577375E+03  0.12699999809E+01 0.  1.
       -4    1    3    3    0  502 -0.43178408520E+03  0.62698126173E+01 -0.26400320129E+03  0.50613842965E+03  0.12699999809E+01 0. -1.
</event>
<event>
 5   0  0.1497410E-02  0.9671569E+03  0.7818609E-02  0.9345319E-01
       -1   -1    0    0    0  501  0.00000000000E+00  0.00000000000E+00  0.22595760104E+03  0.22595760110E+03  0.50400001928E-02 0. -1.
        1   -1    0    0  501    0  0.00000000000E+00  0.00000000000E+00 -0.10349203200E+04  0.10349203200E+04  0.50400001928E-02 0.  1.
    10030    2    1    2    0    0  0.00000000000E+00  0.00000000000E+00 -0.80896271898E+03  0.12608779211E+04  0.96715689073E+03 0.  0.
        3    1    3    3  502    0  0.21861901335E+03 -0.11482364745E+03  0.13756336402E+03  0.28267018296E+03  0.10100000352E+00 0. -1.
       -3    1    3    3    0  502 -0.21861901335E+03  0.11482364745E+03 -0.94652608300E+03  0.97820773817E+03  0.10100000352E+00 0.  1.
</event>
<event>
 5   0  0.2628383E-02  0.9307363E+03  0.7818609E-02  0.9387955E-01
        2   -1    0    0  501    0  0.00000000000E+00  0.00000000000E+00  0.22610533959E+03  0.22610533960E+03  0.25500000920E-02 0.  1.
       -2   -1    0    0    0  501  0.00000000000E+00  0.00000000000E+00 -0.95781689687E+03  0.95781689687E+03  0.25500000920E-02 0. -1.
    10030    2    1    2    0    0  0.00000000000E+00  0.00000000000E+00 -0.73171155728E+03  0.11839222365E+04  0.93073629937E+03 0.  0.
        2    1    3    3  502    0  0.13494780162E+03  0.42864640316E+03 -0.51965473115E+03  0.68701505639E+03  0.25500000920E-02 0. -1.
       -2    1    3    3    0  502 -0.13494780162E+03 -0.42864640316E+03 -0.21205682613E+03  0.49690718008E+03  0.25500000920E-02 0.  1.
</event>
<event>
 5   0  0.1497410E-02  0.8945436E+03  0.7818609E-02  0.9432428E-01
       -1   -1    0    0    0  501  0.00000000000E+00  0.00000000000E+00  0.15306792535E+03  0.15306792543E+03  0.50400001928E-02 0. -1.
        1   -1    0    0  501    0  0.00000000000E+00  0.00000000000E+00 -0.13069495267E+04  0.13069495267E+04  0.50400001928E-02 0.  1.
    10030    2    1    2    0    0  0.00000000000E+00  0.00000000000E+00 -0.11538816014E+04  0.14600174522E+04  0.89454357672E+03 0.  0.
        3    1    3    3  502    0 -0.33969528981E+03 -0.26041777542E+03 -0.78875250638E+03  0.89740784162E+03  0.10100000352E+00 0. -1.
       -3    1    3    3    0  502  0.33969528981E+03  0.26041777542E+03 -0.36512909500E+03  0.56260961056E+03  0.10100000352E+00 0.  1.
</event>
<event>
 5   0  0.2705111E-02  0.8808397E+03  0.7818609E-02  0.9449855E-01
        2   -1    0    0  501    0  0.00000000000E+00  0.00000000000E+00  0.38629895534E+03  0.38629895535E+03  0.25500000920E-02 0.  1.
       -2   -1    0    0    0  501  0.00000000000E+00  0.00000000000E+00 -0.50212316437E+03  0.50212316438E+03  0.25500000920E-02 0. -1.
    10030    2    1    2    0    0  0.00000000000E+00  0.00000000000E+00 -0.11582420903E+03  0.88842211973E+03  0.88083972175E+03 0.  0.
        4    1    3    3  502    0  0.39231906435E+03  0.14469629919E+02  0.14341685093E+03  0.41796366406E+03  0.12699999809E+01 0.  1.
       -4    1    3    3    0  502 -0.39231906435E+03 -0.14469629919E+02 -0.25924105996E+03  0.47045845567E+03  0.12699999809E+01 0. -1.
</event>
<event>
 5   0  0.2679861E-02  0.9048960E+03  0.7818609E-02  0.9419482E-01
        2   -1    0    0  501    0  0.00000000000E+00  0.00000000000E+00  0.14609857233E+04  0.14609857233E+04  0.25500000920E-02 0.  1.
       -2   -1    0    0    0  501  0.00000000000E+00  0.00000000000E+00 -0.14011717309E+03  0.14011717311E+03  0.25500000920E-02 0. -1.
    10030    2    1    2    0    0  0.00000000000E+00  0.00000000000E+00  0.13208685502E+04  0.16011028964E+04  0.90489599290E+03 0.  0.
        1    1    3    3  502    0 -0.20779971909E+03  0.23153427258E+03  0.12416966933E+04  0.12800779354E+04  0.50400001928E-02 0.  1.
       -1    1    3    3    0  502  0.20779971909E+03 -0.23153427258E+03  0.79171856947E+02  0.32102496101E+03  0.50400001928E-02 0. -1.
</event>
<event>
 5   0  0.2414128E-02  0.9054079E+03  0.7818609E-02  0.9418846E-01
        2   -1    0    0  501    0  0.00000000000E+00  0.00000000000E+00  0.12951160168E+04  0.12951160168E+04  0.25500000920E-02 0.  1.
       -2   -1    0    0    0  501  0.00000000000E+00  0.00000000000E+00 -0.15824133135E+03  0.15824133137E+03  0.25500000920E-02 0. -1.
    10030    2    1    2    0    0  0.00000000000E+00  0.00000000000E+00  0.11368746854E+04  0.14533573482E+04  0.90540793626E+03 0.  0.
        3    1    3    3  502    0  0.24655875065E+02 -0.96964334132E+02 -0.14027244977E+03  0.17229731465E+03  0.10100000352E+00 0. -1.
       -3    1    3    3    0  502 -0.24655875065E+02  0.96964334132E+02  0.12771471352E+04  0.12810600335E+04  0.10100000352E+00 0.  1.
</event>
<event>
 5   0  0.2414128E-02  0.7247623E+03  0.7818609E-02  0.9675798E-01
       -2   -1    0    0    0  501  0.00000000000E+00  0.00000000000E+00  0.41474780522E+03  0.41474780523E+03  0.25500000920E-02 0. -1.
        2   -1    0    0  501    0  0.00000000000E+00  0.00000000000E+00 -0.31662634761E+03  0.31662634762E+03  0.25500000920E-02 0.  1.
    10030    2    1    2    0    0  0.00000000000E+00  0.00000000000E+00  0.98121457606E+02  0.73137415285E+03  0.72476225827E+03 0.  0.
        3    1    3    3  502    0  0.50019429949E+02  0.15448999737E+03  0.37597754954E+03  0.40954637175E+03  0.10100000352E+00 0. -1.
       -3    1    3    3    0  502 -0.50019429949E+02 -0.15448999737E+03 -0.27785609193E+03  0.32182778109E+03  0.10100000352E+00 0.  1.
</event>
<event>
 5   0  0.2803717E-02  0.9065010E+03  0.7818609E-02  0.9417491E-01
        2   -1    0    0  501    0  0.00000000000E+00  0.00000000000E+00  0.10046920629E+04  0.10046920629E+04  0.25500000920E-02 0.  1.
       -2   -1    0    0    0  501  0.00000000000E+00  0.00000000000E+00 -0.20447659798E+03  0.20447659799E+03  0.25500000920E-02 0. -1.
    10030    2    1    2    0    0  0.00000000000E+00  0.00000000000E+00  0.80021546496E+03  0.12091686609E+04  0.90650099846E+03 0.  0.
        5    1    3    3  502    0  0.47675498044E+02 -0.38968975917E+03  0.70217573907E+03  0.80448985081E+03  0.46999998093E+01 0.  1.
       -5    1    3    3    0  502 -0.47675498044E+02  0.38968975917E+03  0.98039725895E+02  0.40467881013E+03  0.46999998093E+01 0. -1.
</event>
<event>
 5   0  0.1497410E-02  0.8771042E+03  0.7818609E-02  0.9454664E-01
        1   -1    0    0  501    0  0.00000000000E+00  0.00000000000E+00  0.12715484640E+04  0.12715484640E+04  0.50400001928E-02 0.  1.
       -1   -1    0    0    0  501  0.00000000000E+00  0.00000000000E+00 -0.15125491794E+03  0.15125491802E+03  0.50400001928E-02 0. -1.
    10030    2    1    2    0    0  0.00000000000E+00  0.00000000000E+00  0.11202935461E+04  0.14228033821E+04  0.87710423245E+03 0.  0.
        3    1    3    3  502    0 -0.42451067419E+03  0.72485703770E+02  0.42574752771E+03  0.60557778799E+03  0.10100000352E+00 0. -1.
       -3    1    3    3    0  502  0.42451067419E+03 -0.72485703770E+02  0.69454601839E+03  0.81722559407E+03  0.10100000352E+00 0.  1.
</event>
<event>
 5   0  0.1560728E-02  0.8911030E+03  0.7818609E-02  0.9436772E-01
        1   -1    0    0  501    0  0.00000000000E+00  0.00000000000E+00  0.78601910244E+03  0.78601910246E+03  0.50400001928E-02 0.  1.
       -1   -1    0    0    0  501  0.00000000000E+00  0.00000000000E+00 -0.25255891903E+03  0.25255891908E+03  0.50400001928E-02 0. -1.
    10030    2    1    2    0    0  0.00000000000E+00  0.00000000000E+00  0.53346018341E+03  0.10385780215E+04  0.89110299042E+03 0.  0.
        4    1    3    3  502    0 -0.34308673863E+03  0.16010502460E+03 -0.70312600764E+01  0.37867292040E+03  0.12699999809E+01 0. -1.
       -4    1    3    3    0  502  0.34308673863E+03 -0.16010502460E+03  0.54049144349E+03  0.65990510114E+03  0.12699999809E+01 0.  1.
</event>
<event>
 5   0  0.2705111E-02  0.9315847E+03  0.7818609E-02  0.9386938E-01
       -2   -1    0    0    0  501  0.00000000000E+00  0.00000000000E+00  0.35403076924E+03  0.35403076925E+03  0.25500000920E-02 0.  1.
        2   -1    0    0  501    0  0.00000000000E+00  0.00000000000E+00 -0.61283519450E+03  0.61283519451E+03  0.25500000920E-02 0. -1.
    10030    2    1    2    0    0  0.00000000000E+00  0.00000000000E+00 -0.25880442526E+03  0.96686596376E+03  0.93158470433E+03 0.  0.
        4    1    3    3  502    0 -0.37150039050E+03  0.19481328202E+03  0.80741038098E+02  0.42718319622E+03  0.12699999809E+01 0.  1.
       -4    1    3    3    0  502  0.37150039050E+03 -0.19481328202E+03 -0.33954546336E+03  0.53968276754E+03  0.12699999809E+01 0. -1.
</event>
<event>
 5   0  0.1497410E-02  0.8886871E+03  0.7818609E-02  0.9439835E-01
        1   -1    0    0  501    0  0.00000000000E+00  0.00000000000E+00  0.15118717260E+04  0.15118717260E+04  0.50400001928E-02 0.  1.
       -1   -1    0    0    0  501  0.00000000000E+00  0.00000000000E+00 -0.13059386290E+03  0.13059386300E+03  0.50400001928E-02 0. -1.
    10030    2    1    2    0    0  0.00000000000E+00  0.00000000000E+00  0.13812778631E+04  0.16424655890E+04  0.88868705177E+03 0.  0.
        3    1    3    3  502    0  0.26336732074E+03 -0.33729237202E+03  0.46952925975E+03  0.63528436611E+03  0.10100000352E+00 0. -1.
       -3    1    3    3    0  502 -0.26336732074E+03  0.33729237202E+03  0.91174860333E+03  0.10071812229E+04  0.10100000352E+00 0.  1.
</event>
<event>
 5   0  0.1459111E-02  0.8873993E+03  0.7818609E-02  0.9441471E-01
       -1   -1    0    0    0  501  0.00000000000E+00  0.00000000000E+00  0.24399906679E+03  0.24399906684E+03  0.50400001928E-02 0. -1.
        1   -1    0    0  501    0  0.00000000000E+00  0.00000000000E+00 -0.80684476567E+03  0.80684476569E+03  0.50400001928E-02 0.  1.
    10030    2    1    2    0    0  0.00000000000E+00  0.00000000000E+00 -0.56284569888E+03  0.10508438325E+04  0.88739927858E+03 0.  0.
        2    1    3    3  502    0  0.10783808323E+03  0.14391408767E+03 -0.76175361834E+03  0.78269335751E+03  0.25500000920E-02 0.  1.
       -2    1    3    3    0  502 -0.10783808323E+03 -0.14391408767E+03  0.19890791946E+03  0.26815047502E+03  0.25500000920E-02 0. -1.
</event>
<event>
 5   0  0.1497410E-02  0.9033107E+03  0.7818609E-02  0.9421452E-01
       -1   -1    0    0    0  501  0.00000000000E+00  0.00000000000E+00  0.97018818439E+03  0.97018818440E+03  0.50400001928E-02 0.  1.
        1   -1    0    0  501    0  0.00000000000E+00  0.00000000000E+00 -0.21026079330E+03  0.21026079336E+03  0.50400001928E-02 0. -1.
    10030    2    1    2    0    0  0.00000000000E+00  0.00000000000E+00  0.75992739108E+03  0.11804489778E+04  0.90331066051E+03 0.  0.
        3    1    3    3  502    0  0.18558920873E+03 -0.25240106943E+03  0.80511243377E+03  0.86391880143E+03  0.10100000352E+00 0.  1.
       -3    1    3    3    0  502 -0.18558920873E+03  0.25240106943E+03 -0.45185042687E+02  0.31653017634E+03  0.10100000352E+00 0. -1.
</event>
<event>
 5   0  0.1559275E-02  0.8791316E+03  0.7818609E-02  0.9452051E-01
       -1   -1    0    0    0  501  0.00000000000E+00  0.00000000000E+00  0.33611471288E+03  0.33611471292E+03  0.50400001928E-02 0.  1.
        1   -1    0    0  501    0  0.00000000000E+00  0.00000000000E+00 -0.57485763848E+03  0.57485763850E+03  0.50400001928E-02 0. -1.
    10030    2    1    2    0    0  0.00000000000E+00  0.00000000000E+00 -0.23874292560E+03  0.91097235142E+03  0.87913164004E+03 0.  0.
        1    1    3    3  502    0  0.14909328605E+03 -0.16935438313E+03  0.27152932512E+03  0.35304091754E+03  0.50400001928E-02 0.  1.
       -1    1    3    3    0  502 -0.14909328605E+03  0.16935438313E+03 -0.51027225072E+03  0.55793143388E+03  0.50400001928E-02 0. -1.
</event>
<event>
 5   0  0.1537870E-02  0.8688621E+03  0.7818609E-02  0.9465365E-01
        1   -1    0    0  501    0  0.00000000000E+00  0.00000000000E+00  0.36390904026E+03  0.36390904030E+03  0.50400001928E-02 0.  1.
       -1   -1    0    0    0  501  0.00000000000E+00  0.00000000000E+00 -0.51861951798E+03  0.51861951800E+03  0.50400001928E-02 0. -1.
    10030    2    1    2    0    0  0.00000000000E+00  0.00000000000E+00 -0.15471047771E+03  0.88252855830E+03  0.86886208590E+03 0.  0.
        5    1    3    3  502    0  0.26020778178E+03 -0.31282152897E+03 -0.23187579771E+03  0.46835229716E+03  0.46999998093E+01 0. -1.
       -5    1    3    3    0  502 -0.26020778178E+03  0.31282152897E+03  0.77165319993E+02  0.41417626115E+03  0.46999998093E+01 0.  1.
</event>
<event>
 5   0  0.1459111E-02  0.8157465E+03  0.7818609E-02  0.9537500E-01
        1   -1    0    0  501    0  0.00000000000E+00  0.00000000000E+00  0.71748349487E+03  0.71748349488E+03  0.50400001928E-02 0.  1.
       -1   -1    0    0    0  501  0.00000000000E+00  0.00000000000E+00 -0.23186675979E+03  0.23186675985E+03  0.50400001928E-02 0. -1.
    10030    2    1    2    0    0  0.00000000000E+00  0.00000000000E+00  0.48561673507E+03  0.94935025473E+03  0.81574646354E+03 0.  0.
        2    1    3    3  502    0 -0.18759093756E+03  0.34556870999E+03  0.11664419837E+03  0.41013895475E+03  0.25500000920E-02 0. -1.
       -2    1    3    3    0  502  0.18759093756E+03 -0.34556870999E+03  0.36897253670E+03  0.53921129998E+03  0.25500000920E-02 0.  1.
</event>
<event>
 5   0  0.1537870E-02  0.8709562E+03  0.7818609E-02  0.9462634E-01
        1   -1    0    0  501    0  0.00000000000E+00  0.00000000000E+00  0.99556962572E+03  0.99556962574E+03  0.50400001928E-02 0.  1.
       -1   -1    0    0    0  501  0.00000000000E+00  0.00000000000E+00 -0.19048507410E+03  0.19048507416E+03  0.50400001928E-02 0. -1.
    10030    2    1    2    0    0  0.00000000000E+00  0.00000000000E+00  0.80508455163E+03  0.11860546999E+04  0.87095615038E+03 0.  0.
        5    1    3    3  502    0 -0.41774526512E+03 -0.12084565498E+03  0.37196164059E+03  0.57226945658E+03  0.46999998093E+01 0.  1.
       -5    1    3    3    0  502  0.41774526512E+03  0.12084565498E+03  0.43312291103E+03  0.61378524332E+03  0.46999998093E+01 0. -1.
</event>
<event>
 5   0  0.1040163E-02  0.9030298E+03  0.7818609E-02  0.9421802E-01
        4   -1    0    0  501    0  0.00000000000E+00  0.00000000000E+00  0.49473333533E+03  0.49473496539E+03  0.12699999809E+01 0. -1.
       -4   -1    0    0    0  501  0.00000000000E+00  0.00000000000E+00 -0.41206863323E+03  0.41207059031E+03  0.12699999809E+01 0.  1.
    10030    2    1    2    0    0  0.00000000000E+00  0.00000000000E+00  0.82664702092E+02  0.90680555570E+03  0.90302982391E+03 0.  0.
        1    1    3    3  502    0  0.12272015566E+03 -0.37841259850E+03  0.25578883611E+03  0.47295270378E+03  0.50400001928E-02 0. -1.
       -1    1    3    3    0  502 -0.12272015566E+03  0.37841259850E+03 -0.17312413402E+03  0.43385285192E+03  0.50400001928E-02 0.  1.
</event>
<event>
 5   0  0.2803717E-02  0.9288997E+03  0.7818609E-02  0.9390159E-01
       -2   -1    0    0    0  501  0.00000000000E+00  0.00000000000E+00  0.17505351629E+03  0.17505351631E+03  0.25500000920E-02 0.  1.
        2   -1    0    0  501    0  0.00000000000E+00  0.00000000000E+00 -0.12322726807E+04  0.12322726807E+04  0.25500000920E-02 0. -1.
    10030    2    1    2    0    0  0.00000000000E+00  0.00000000000E+00 -0.10572191644E+04  0.14073261970E+04  0.92889970567E+03 0.  0.
        5    1    3    3  502    0 -0.16697983541E+03 -0.17103845592E+03 -0.11318856996E+04  0.11568594321E+04  0.46999998093E+01 0. -1.
       -5    1    3    3    0  502  0.16697983541E+03  0.17103845592E+03  0.74666535156E+02  0.25046676488E+03  0.46999998093E+01 0.  1.
</event>
<event>
 5   0  0.1559275E-02  0.7110532E+03  0.7818609E-02  0.9698514E-01
        1   -1    0    0  501    0  0.00000000000E+00  0.00000000000E+00  0.18900859601E+04  0.18900859601E+04  0.50400001928E-02 0. -1.
       -1   -1    0    0    0  501  0.00000000000E+00  0.00000000000E+00 -0.66874822183E+02  0.66874822373E+02  0.50400001928E-02 0.  1.
    10030    2    1    2    0    0  0.00000000000E+00  0.00000000000E+00  0.18232111379E+04  0.19569607825E+04  0.71105319825E+03 0.  0.
        1    1    3    3  502    0 -0.16569451434E+03  0.31450835069E+03  0.92642353508E+03  0.99228561469E+03  0.50400001928E-02 0.  1.
       -1    1    3    3    0  502  0.16569451434E+03 -0.31450835069E+03  0.89678760286E+03  0.96467516781E+03  0.50400001928E-02 0. -1.
</event>
<event>
 5   0  0.2803717E-02  0.9341979E+03  0.7818609E-02  0.9383814E-01
       -2   -1    0    0    0  501  0.00000000000E+00  0.00000000000E+00  0.18715960872E+03  0.18715960874E+03  0.25500000920E-02 0. -1.
        2   -1    0    0  501    0  0.00000000000E+00  0.00000000000E+00 -0.11657505637E+04  0.11657505637E+04  0.25500000920E-02 0.  1.
    10030    2    1    2    0    0  0.00000000000E+00  0.00000000000E+00 -0.97859095502E+03  0.13529101725E+04  0.93419787922E+03 0.  0.
        5    1    3    3  502    0 -0.15532260443E+03 -0.10911065711E+03 -0.11073399619E+04  0.11235008359E+04  0.46999998093E+01 0.  1.
       -5    1    3    3    0  502  0.15532260443E+03  0.10911065711E+03  0.12874900691E+03  0.22940933660E+03  0.46999998093E+01 0. -1.
</event>
<event>
 5   0  0.1497410E-02  0.8961319E+03  0.7818609E-02  0.9430430E-01
       -1   -1    0    0    0  501  0.00000000000E+00  0.00000000000E+00  0.29177808790E+03  0.29177808795E+03  0.50400001928E-02 0. -1.
        1   -1    0    0  501    0  0.00000000000E+00  0.00000000000E+00 -0.68806778900E+03  0.68806778902E+03  0.50400001928E-02 0.  1.
    10030    2    1    2    0    0  0.00000000000E+00  0.00000000000E+00 -0.39628970110E+03  0.97984587697E+03  0.89613191854E+03 0.  0.
        3    1    3    3  502    0 -0.11167312437E+03 -0.34719681903E+03 -0.48274131313E+03  0.60502537423E+03  0.10100000352E+00 0.  1.
       -3    1    3    3    0  502  0.11167312437E+03  0.34719681903E+03  0.86451612033E+02  0.37482050274E+03  0.10100000352E+00 0. -1.
</event>
<event>
 5   0  0.2705111E-02  0.8904015E+03  0.7818609E-02  0.9437660E-01
        2   -1    0    0  501    0  0.00000000000E+00  0.00000000000E+00  0.14117910015E+04  0.14117910015E+04  0.25500000920E-02 0. -1.
       -2   -1    0    0    0  501  0.00000000000E+00  0.00000000000E+00 -0.14039168430E+03  0.14039168433E+03  0.25500000920E-02 0.  1.
    10030    2    1    2    0    0  0.00000000000E+00  0.00000000000E+00  0.12713993172E+04  0.15521826858E+04  0.89040151978E+03 0.  0.
        4    1    3    3  502    0  0.66127773077E+02  0.36430006538E+03  0.10666524780E+04  0.11290865962E+04  0.12699999809E+01 0. -1.
       -4    1    3    3    0  502 -0.66127773077E+02 -0.36430006538E+03  0.20474683923E+03  0.42309608965E+03  0.12699999809E+01 0.  1.
</event>
<event>
 5   0  0.1560728E-02  0.9041448E+03  0.7818609E-02  0.9420415E-01
        1   -1    0    0  501    0  0.00000000000E+00  0.00000000000E+00  0.42587252522E+03  0.42587252525E+03  0.50400001928E-02 0. -1.
       -1   -1    0    0    0  501  0.00000000000E+00  0.00000000000E+00 -0.47988411528E+03  0.47988411531E+03  0.50400001928E-02 0.  1.
    10030    2    1    2    0    0  0.00000000000E+00  0.00000000000E+00 -0.54011590057E+02  0.90575664056E+03  0.90414481144E+03 0.  0.
        4    1    3    3  502    0 -0.28573344265E+03  0.11068407492E+03  0.30596194732E+03  0.43302296797E+03  0.12699999809E+01 0. -1.
       -4    1    3    3    0  502  0.28573344265E+03 -0.11068407492E+03 -0.35997353737E+03  0.47273367259E+03  0.12699999809E+01 0.  1.
</event>
<event>
 5   0  0.2705111E-02  0.8989204E+03  0.7818609E-02  0.9426932E-01
       -2   -1    0    0    0  501  0.00000000000E+00  0.00000000000E+00  0.16322447908E+03  0.16322447910E+03  0.25500000920E-02 0.  1.
        2   -1    0    0  501    0  0.00000000000E+00  0.00000000000E+00 -0.12376481228E+04  0.12376481228E+04  0.25500000920E-02 0. -1.
    10030    2    1    2    0    0  0.00000000000E+00  0.00000000000E+00 -0.10744236437E+04  0.14008726019E+04  0.89892039723E+03 0.  0.
        4    1    3    3  502    0 -0.35480744539E+03  0.11613767720E+03 -0.92723588620E+03  0.99957205090E+03  0.12699999809E+01 0. -1.
       -4    1    3    3    0  502  0.35480744539E+03 -0.11613767720E+03 -0.14718775753E+03  0.40130055101E+03  0.12699999809E+01 0.  1.
</event>
<event>
 5   0  0.2628383E-02  0.8849548E+03  0.7818609E-02  0.9444587E-01
        2   -1    0    0  501    0  0.00000000000E+00  0.00000000000E+00  0.15669298656E+04  0.15669298656E+04  0.25500000920E-02 0. -1.
       -2   -1    0    0    0  501  0.00000000000E+00  0.00000000000E+00 -0.12494894759E+03  0.12494894762E+03  0.25500000920E-02 0.  1.
    10030    2    1    2    0    0  0.00000000000E+00  0.00000000000E+00  0.14419809180E+04  0.16918788133E+04  0.88495477328E+03 0.  0.
        2    1    3    3  502    0  0.32398946777E+02 -0.41850476268E+03  0.45340110880E+03  0.61787417295E+03  0.25500000920E-02 0. -1.
       -2    1    3    3    0  502 -0.32398946777E+02  0.41850476268E+03  0.98857980925E+03  0.10740046403E+04  0.25500000920E-02 0.  1.
</event>
<event>
 5   0  0.1559275E-02  0.8189833E+03  0.7818609E-02  0.9532939E-01
        1   -1    0    0  501    0  0.00000000000E+00  0.00000000000E+00  0.18203675543E+04  0.18203675543E+04  0.50400001928E-02 0.  1.
       -1   -1    0    0    0  501  0.00000000000E+00  0.00000000000E+00 -0.92115145169E+02  0.92115145307E+02  0.50400001928E-02 0. -1.
    10030    2    1    2    0    0  0.00000000000E+00  0.00000000000E+00  0.17282524091E+04  0.19124826996E+04  0.81898332501E+03 0.  0.
        1    1    3    3  502    0  0.31111755962E+03 -0.13442287719E+03  0.32743962838E+03  0.47125402499E+03  0.50400001928E-02 0. -1.
       -1    1    3    3    0  502 -0.31111755962E+03  0.13442287719E+03  0.14008127807E+04  0.14412286746E+04  0.50400001928E-02 0.  1.
</event>
<event>
 5   0  0.1537870E-02  0.8980979E+03  0.7818609E-02  0.9427962E-01
       -1   -1    0    0    0  501  0.00000000000E+00  0.00000000000E+00  0.61601636670E+03  0.61601636672E+03  0.50400001928E-02 0.  1.
        1   -1    0    0  501    0  0.00000000000E+00  0.00000000000E+00 -0.32733703456E+03  0.32733703460E+03  0.50400001928E-02 0. -1.
    10030    2    1    2    0    0  0.00000000000E+00  0.00000000000E+00  0.28867933214E+03  0.94335340132E+03  0.89809792504E+03 0.  0.
        5    1    3    3  502    0  0.20809589735E+03 -0.26822894684E+03 -0.16436112577E+03  0.37720994165E+03  0.46999998093E+01 0. -1.
       -5    1    3    3    0  502 -0.20809589735E+03  0.26822894684E+03  0.45304045791E+03  0.56614345967E+03  0.46999998093E+01 0.  1.
</event>
<event>
 5   0  0.1559275E-02  0.7832205E+03  0.7818609E-02  0.9584627E-01
       -1   -1    0    0    0  501  0.00000000000E+00  0.00000000000E+00  0.12255753043E+03  0.12255753054E+03  0.50400001928E-02 0. -1.
        1   -1    0    0  501    0  0.00000000000E+00  0.00000000000E+00 -0.12513190936E+04  0.12513190936E+04  0.50400001928E-02 0.  1.
    10030    2    1    2    0    0  0.00000000000E+00  0.00000000000E+00 -0.11287615632E+04  0.13738766241E+04  0.78322047464E+03 0.  0.
        1    1    3    3  502    0 -0.31149646906E+03 -0.21762369148E+02 -0.14981405110E+03  0.34633495475E+03  0.50400001928E-02 0. -1.
       -1    1    3    3    0  502  0.31149646906E+03  0.21762369148E+02 -0.97894751205E+03  0.10275416694E+04  0.50400001928E-02 0.  1.
</event>
<event>
 5   0  0.2803717E-02  0.8838187E+03  0.7818609E-02  0.9446038E-01
        2   -1    0    0  501    0  0.00000000000E+00  0.00000000000E+00  0.50059753049E+03  0.50059753050E+03  0.25500000920E-02 0.  1.
       -2   -1    0    0    0  501  0.00000000000E+00  0.00000000000E+00 -0.39010153496E+03  0.39010153497E+03  0.25500000920E-02 0. -1.
    10030    2    1    2    0    0  0.00000000000E+00  0.00000000000E+00  0.11049599553E+03  0.89069906546E+03  0.88381868061E+03 0.  0.
        5    1    3    3  502    0  0.84294754989E+02  0.32439543209E+02 -0.38067439285E+03  0.39127102250E+03  0.46999998093E+01 0. -1.
       -5    1    3    3    0  502 -0.84294754989E+02 -0.32439543209E+02  0.49117038838E+03  0.49942804296E+03  0.46999998093E+01 0.  1.
</event>
<event>
 5   0  0.2414128E-02  0.9137563E+03  0.7818609E-02  0.9408547E-01
       -2   -1    0    0    0  501  0.00000000000E+00  0.00000000000E+00  0.36878933826E+03  0.36878933827E+03  0.25500000920E-02 0. -1.
        2   -1    0    0  501    0  0.00000000000E+00  0.00000000000E+00 -0.56600784739E+03  0.56600784740E+03  0.25500000920E-02 0.  1.
    10030    2    1    2    0    0  0.00000000000E+00  0.00000000000E+00 -0.19721850914E+03  0.93479718567E+03  0.91375633403E+03 0.  0.
        3    1    3    3  502    0 -0.33582126050E+03 -0.26275355558E+03  0.69249141888E+02  0.43198472638E+03  0.10100000352E+00 0. -1.
       -3    1    3    3    0  502  0.33582126050E+03  0.26275355558E+03 -0.26646765102E+03  0.50281245929E+03  0.10100000352E+00 0.  1.
</event>
<event>
 5   0  0.2414128E-02  0.4532923E+03  0.7818609E-02  0.1026745E+00
        2   -1    0    0  501    0  0.00000000000E+00  0.00000000000E+00  0.18878546913E+03  0.18878546915E+03  0.25500000920E-02 0.  1.
       -2   -1    0    0    0  501  0.00000000000E+00  0.00000000000E+00 -0.27209969091E+03  0.27209969092E+03  0.25500000920E-02 0. -1.
    10030    2    1    2    0    0  0.00000000000E+00  0.00000000000E+00 -0.83314221777E+02  0.46088516008E+03  0.45329225807E+03 0.  0.
        3    1    3    3  502    0 -0.13780613984E+03  0.15700963814E+03 -0.13102652998E+03  0.24659789214E+03  0.10100000352E+00 0.  1.
       -3    1    3    3    0  502  0.13780613984E+03 -0.15700963814E+03  0.47712308206E+02  0.21428726794E+03  0.10100000352E+00 0. -1.
</event>
<event>
 5   0  0.1459111E-02  0.7182730E+03  0.7818609E-02  0.9686483E-01
       -1   -1    0    0    0  501  0.00000000000E+00  0.00000000000E+00  0.10848035173E+03  0.10848035185E+03  0.50400001928E-02 0. -1.
        1   -1    0    0  501    0  0.00000000000E+00  0.00000000000E+00 -0.11889620675E+04  0.11889620675E+04  0.50400001928E-02 0.  1.
    10030    2    1    2    0    0  0.00000000000E+00  0.00000000000E+00 -0.10804817157E+04  0.12974424193E+04  0.71827299365E+03 0.  0.
        2    1    3    3  502    0 -0.18316688746E+03 -0.25480318767E+03 -0.22475584516E+03  0.38599218004E+03  0.25500000920E-02 0.  1.
       -2    1    3    3    0  502  0.18316688746E+03  0.25480318767E+03 -0.85572587058E+03  0.91145023928E+03  0.25500000920E-02 0. -1.
</event>
<event>
 5   0  0.2705111E-02  0.8611499E+03  0.7818609E-02  0.9475493E-01
       -2   -1    0    0    0  501  0.00000000000E+00  0.00000000000E+00  0.37163755874E+03  0.37163755874E+03  0.25500000920E-02 0. -1.
        2   -1    0    0  501    0  0.00000000000E+00  0.00000000000E+00 -0.49885908503E+03  0.49885908503E+03  0.25500000920E-02 0.  1.
    10030    2    1    2    0    0  0.00000000000E+00  0.00000000000E+00 -0.12722152629E+03  0.87049664378E+03  0.86114986505E+03 0.  0.
        4    1    3    3  502    0 -0.41342368500E+03  0.92304400376E+01  0.57644579093E+02  0.41752707067E+03  0.12699999809E+01 0. -1.
       -4    1    3    3    0  502  0.41342368500E+03 -0.92304400376E+01 -0.18486610539E+03  0.45296957311E+03  0.12699999809E+01 0.  1.
</event>
<event>
 5   0  0.1559275E-02  0.9707911E+03  0.7818609E-02  0.9341174E-01
        1   -1    0    0  501    0  0.00000000000E+00  0.00000000000E+00  0.20469773330E+03  0.20469773336E+03  0.50400001928E-02 0.  1.
       -1   -1    0    0    0  501  0.00000000000E+00  0.00000000000E+00 -0.11510085515E+04  0.11510085515E+04  0.50400001928E-02 0. -1.
    10030    2    1    2    0    0  0.00000000000E+00  0.00000000000E+00 -0.94631081818E+03  0.13557062848E+04  0.97079110327E+03 0.  0.
        1    1    3    3  502    0  0.23454687523E+02 -0.43169425834E+02 -0.11475274409E+04  0.11485786648E+04  0.50400001928E-02 0. -1.
       -1    1    3    3    0  502 -0.23454687523E+02  0.43169425834E+02  0.20121662271E+03  0.20712762002E+03  0.50400001928E-02 0.  1.
</event>
<event>
 5   0  0.2414128E-02  0.9037113E+03  0.7818609E-02  0.9420954E-01
        2   -1    0    0  501    0  0.00000000000E+00  0.00000000000E+00  0.13623090746E+04  0.13623090746E+04  0.25500000920E-02 0.  1.
       -2   -1    0    0    0  501  0.00000000000E+00  0.00000000000E+00 -0.14987313312E+03  0.14987313314E+03  0.25500000920E-02 0. -1.
    10030    2    1    2    0    0  0.00000000000E+00  0.00000000000E+00  0.12124359415E+04  0.15121822077E+04  0.90371130193E+03 0.  0.
        3    1    3    3  502    0 -0.15684721649E+03 -0.75988565777E+02  0.13038028477E+04  0.13154000104E+04  0.10100000352E+00 0.  1.
       -3    1    3    3    0  502  0.15684721649E+03  0.75988565777E+02 -0.91366906218E+02  0.19678219737E+03  0.10100000352E+00 0. -1.
</event>
<event>
 5   0  0.1559275E-02  0.9129171E+03  0.7818609E-02  0.9409577E-01
        1   -1    0    0  501    0  0.00000000000E+00  0.00000000000E+00  0.29764567993E+03  0.29764567997E+03  0.50400001928E-02 0.  1.
       -1   -1    0    0    0  501  0.00000000000E+00  0.00000000000E+00 -0.70000814741E+03  0.70000814743E+03  0.50400001928E-02 0. -1.
    10030    2    1    2    0    0  0.00000000000E+00  0.00000000000E+00 -0.40236246749E+03  0.99765382740E+03  0.91291708500E+03 0.  0.
        1    1    3    3  502    0  0.93671383809E+02 -0.10441483393E+03  0.27350728483E+03  0.30738090470E+03  0.50400001928E-02 0.  1.
       -1    1    3    3    0  502 -0.93671383809E+02  0.10441483393E+03 -0.67586975232E+03  0.69027292270E+03  0.50400001928E-02 0. -1.
</event>
<event>
 5   0  0.2803717E-02  0.8177514E+03  0.7818609E-02  0.9534672E-01
        2   -1    0    0  501    0  0.00000000000E+00  0.00000000000E+00  0.56345209331E+03  0.56345209332E+03  0.25500000920E-02 0. -1.
       -2   -1    0    0    0  501  0.00000000000E+00  0.00000000000E+00 -0.29670549995E+03  0.29670549996E+03  0.25500000920E-02 0.  1.
    10030    2    1    2    0    0  0.00000000000E+00  0.00000000000E+00  0.26674659336E+03  0.86015759328E+03  0.81775139267E+03 0.  0.
        5    1    3    3  502    0 -0.66709678474E+02 -0.61267314410E+02 -0.28599115983E+03  0.30002816287E+03  0.46999998093E+01 0.  1.
       -5    1    3    3    0  502  0.66709678474E+02  0.61267314410E+02  0.55273775319E+03  0.56012943041E+03  0.46999998093E+01 0. -1.
</event>
<event>
 5   0  0.1537870E-02  0.9411507E+03  0.7818609E-02  0.9375554E-01
        1   -1    0    0  501    0  0.00000000000E+00  0.00000000000E+00  0.42122310285E+03  0.42122310288E+03  0.50400001928E-02 0. -1.
       -1   -1    0    0    0  501  0.00000000000E+00  0.00000000000E+00 -0.52570986144E+03  0.52570986146E+03  0.50400001928E-02 0.  1.
    10030    2    1    2    0    0  0.00000000000E+00  0.00000000000E+00 -0.10448675859E+03  0.94693296434E+03  0.94115065544E+03 0.  0.
        5    1    3    3  502    0 -0.35859985797E+03  0.30393193684E+03 -0.73600396090E+02  0.47582306446E+03  0.46999998093E+01 0. -1.
       -5    1    3    3    0  502  0.35859985797E+03 -0.30393193684E+03 -0.30886362500E+02  0.47110989987E+03  0.46999998093E+01 0.  1.
</event>
<event>
 5   0  0.1459111E-02  0.7168382E+03  0.7818609E-02  0.9688862E-01
        1   -1    0    0  501    0  0.00000000000E+00  0.00000000000E+00  0.37313568568E+03  0.37313568571E+03  0.50400001928E-02 0. -1.
       -1   -1    0    0    0  501  0.00000000000E+00  0.00000000000E+00 -0.34428296243E+03  0.34428296247E+03  0.50400001928E-02 0.  1.
    10030    2    1    2    0    0  0.00000000000E+00  0.00000000000E+00  0.28852723246E+02  0.71741864818E+03  0.71683822241E+03 0.  0.
        2    1    3    3  502    0 -0.62597414946E+02 -0.28229438546E+03  0.22638949949E+03  0.36723393349E+03  0.25500000920E-02 0. -1.
       -2    1    3    3    0  502  0.62597414946E+02  0.28229438546E+03 -0.19753677624E+03  0.35018471468E+03  0.25500000920E-02 0.  1.
</event>
<event>
 5   0  0.2628383E-02  0.8550961E+03  0.7818609E-02  0.9483523E-01
        2   -1    0    0  501    0  0.00000000000E+00  0.00000000000E+00  0.29439500122E+03  0.29439500123E+03  0.25500000920E-02 0. -1.
       -2   -1    0    0    0  501  0.00000000000E+00  0.00000000000E+00 -0.62092544912E+03  0.62092544913E+03  0.25500000920E-02 0.  1.
    10030    2    1    2    0    0  0.00000000000E+00  0.00000000000E+00 -0.32653044790E+03  0.91532045036E+03  0.85509613111E+03 0.  0.
        2    1    3    3  502    0  0.42348858762E+03 -0.46818764274E+02 -0.20130342567E+03  0.47122993297E+03  0.25500000920E-02 0.  1.
       -2    1    3    3    0  502 -0.42348858762E+03  0.46818764274E+02 -0.12522702223E+03  0.44409051739E+03  0.25500000920E-02 0. -1.
</event>
<event>
 5   0  0.2414128E-02  0.8799885E+03  0.7818609E-02  0.9450948E-01
        2   -1    0    0  501    0  0.00000000000E+00  0.00000000000E+00  0.81289562863E+03  0.81289562863E+03  0.25500000920E-02 0.  1.
       -2   -1    0    0    0  501  0.00000000000E+00  0.00000000000E+00 -0.23815471131E+03  0.23815471132E+03  0.25500000920E-02 0. -1.
    10030    2    1    2    0    0  0.00000000000E+00  0.00000000000E+00  0.57474091732E+03  0.10510503400E+04  0.87998846303E+03 0.  0.
        3    1    3    3  502    0  0.18429850008E+03  0.39937982903E+03  0.30070965185E+03  0.53281937829E+03  0.10100000352E+00 0. -1.
       -3    1    3    3    0  502 -0.18429850008E+03 -0.39937982903E+03  0.27403126547E+03  0.51823096166E+03  0.10100000352E+00 0.  1.
</event>
<event>
 5   0  0.1497410E-02  0.8557974E+03  0.7818609E-02  0.9482589E-01
        1   -1    0    0  501    0  0.00000000000E+00  0.00000000000E+00  0.43103382922E+03  0.43103382925E+03  0.50400001928E-02 0. -1.
       -1   -1    0    0    0  501  0.00000000000E+00  0.00000000000E+00 -0.42478638058E+03  0.42478638061E+03  0.50400001928E-02 0.  1.
    10030    2    1    2    0    0  0.00000000000E+00  0.00000000000E+00  0.62474486367E+01  0.85582020986E+03  0.85579740651E+03 0.  0.
        3    1    3    3  502    0 -0.69984390103E+02 -0.41894653645E+03  0.54925440379E+02  0.42828825510E+03  0.10100000352E+00 0.  1.
       -3    1    3    3    0  502  0.69984390103E+02  0.41894653645E+03 -0.48677991742E+02  0.42753195476E+03  0.10100000352E+00 0. -1.
</event>
<event>
 5   0  0.1040163E-02  0.9525774E+03  0.7818609E-02  0.9362143E-01
       -4   -1    0    0    0  501  0.00000000000E+00  0.00000000000E+00  0.82566964087E+03  0.82567061760E+03  0.12699999809E+01 0.  1.
        4   -1    0    0  501    0  0.00000000000E+00  0.00000000000E+00 -0.27474522851E+03  0.27474816376E+03  0.12699999809E+01 0. -1.
    10030    2    1    2    0    0  0.00000000000E+00  0.00000000000E+00  0.55092441237E+03  0.11004187814E+04  0.95257744368E+03 0.  0.
        2    1    3    3  502    0  0.21374703195E+03  0.30463760148E+02  0.76589262706E+03  0.79574326924E+03  0.25500000920E-02 0.  1.
       -2    1    3    3    0  502 -0.21374703195E+03 -0.30463760148E+02 -0.21496821469E+03  0.30467551212E+03  0.25500000920E-02 0. -1.
</event>
<event>
 5   0  0.2705111E-02  0.4487820E+03  0.7818609E-02  0.1028086E+00
       -2   -1    0    0    0  501  0.00000000000E+00  0.00000000000E+00  0.45573303170E+02  0.45573303242E+02  0.25500000920E-02 0.  1.
        2   -1    0    0  501    0  0.00000000000E+00  0.00000000000E+00 -0.11048423768E+04  0.11048423768E+04  0.25500000920E-02 0. -1.
    10030    2    1    2    0    0  0.00000000000E+00  0.00000000000E+00 -0.10592690736E+04  0.11504156800E+04  0.44878198107E+03 0.  0.
        4    1    3    3  502    0  0.54061796190E+02 -0.10713560021E+03 -0.43604933516E+02  0.12768601241E+03  0.12699999809E+01 0.  1.
       -4    1    3    3    0  502 -0.54061796190E+02  0.10713560021E+03 -0.10156641401E+04  0.10227296676E+04  0.12699999809E+01 0. -1.
</event>
<event>
 5   0  0.2628383E-02  0.8640208E+03  0.7818609E-02  0.9471710E-01
       -2   -1    0    0    0  501  0.00000000000E+00  0.00000000000E+00  0.10081448674E+03  0.10081448677E+03  0.25500000920E-02 0.  1.
        2   -1    0    0  501    0  0.00000000000E+00  0.00000000000E+00 -0.18512514665E+04  0.18512514665E+04  0.25500000920E-02 0. -1.
    10030    2    1    2    0    0  0.00000000000E+00  0.00000000000E+00 -0.17504369797E+04  0.19520659532E+04  0.86402075540E+03 0.  0.
        2    1    3    3  502    0 -0.23036216714E+03  0.23755728009E+03 -0.15026839084E+04  0.15386874660E+04  0.25500000920E-02 0. -1.
       -2    1    3    3    0  502  0.23036216714E+03 -0.23755728009E+03 -0.24775307134E+03  0.41337848727E+03  0.25500000920E-02 0.  1.
</event>
<event>
 5   0  0.1040163E-02  0.9011431E+03  0.7818609E-02  0.9424154E-01
       -4   -1    0    0    0  501  0.00000000000E+00  0.00000000000E+00  0.49036181242E+03  0.49036345702E+03  0.12699999809E+01 0.  1.
        4   -1    0    0  501    0  0.00000000000E+00  0.00000000000E+00 -0.41400677018E+03  0.41400871809E+03  0.12699999809E+01 0. -1.
    10030    2    1    2    0    0  0.00000000000E+00  0.00000000000E+00  0.76355042238E+02  0.90437217511E+03  0.90114312883E+03 0.  0.
        5    1    3    3  502    0  0.16171478143E+03  0.19295833808E+03 -0.33680295219E+03  0.42052694250E+03  0.46999998093E+01 0. -1.
       -5    1    3    3    0  502 -0.16171478143E+03 -0.19295833808E+03  0.41315799443E+03  0.48384523261E+03  0.46999998093E+01 0.  1.
</event>
<event>
 5   0  0.2628383E-02  0.8817123E+03  0.7818609E-02  0.9448735E-01
        2   -1    0    0  501    0  0.00000000000E+00  0.00000000000E+00  0.15579002068E+04  0.15579002068E+04  0.25500000920E-02 0. -1.
       -2   -1    0    0    0  501  0.00000000000E+00  0.00000000000E+00 -0.12475390685E+03  0.12475390687E+03  0.25500000920E-02 0.  1.
    10030    2    1    2    0    0  0.00000000000E+00  0.00000000000E+00  0.14331462999E+04  0.16826541137E+04  0.88171228255E+03 0.  0.
        2    1    3    3  502    0  0.15677727146E+03  0.13383455351E+03  0.14602674105E+04  0.14747446256E+04  0.25500000920E-02 0. -1.
       -2    1    3    3    0  502 -0.15677727146E+03 -0.13383455351E+03 -0.27121110611E+02  0.20790948802E+03  0.25500000920E-02 0.  1.
</event>
<event>
 5   0  0.2803717E-02  0.8818907E+03  0.7818609E-02  0.9448506E-01
        2   -1    0    0  501    0  0.00000000000E+00  0.00000000000E+00  0.14148884954E+04  0.14148884954E+04  0.25500000920E-02 0.  1.
       -2   -1    0    0    0  501  0.00000000000E+00  0.00000000000E+00 -0.13741918301E+03  0.13741918304E+03  0.25500000920E-02 0. -1.
    10030    2    1    2    0    0  0.00000000000E+00  0.00000000000E+00  0.12774693124E+04  0.15523076785E+04  0.88189074407E+03 0.  0.
        5    1    3    3  502    0  0.10548823204E+03  0.41316782741E+03  0.83612339781E+03  0.93859461274E+03  0.46999998093E+01 0. -1.
       -5    1    3    3    0  502 -0.10548823204E+03 -0.41316782741E+03  0.44134591461E+03  0.61371306573E+03  0.46999998093E+01 0.  1.
</event>
<event>
 5   0  0.2705111E-02  0.9456307E+03  0.7818609E-02  0.9370272E-01
       -2   -1    0    0    0  501  0.00000000000E+00  0.00000000000E+00  0.13728982119E+03  0.13728982121E+03  0.25500000920E-02 0. -1.
        2   -1    0    0  501    0  0.00000000000E+00  0.00000000000E+00 -0.16283388202E+04  0.16283388202E+04  0.25500000920E-02 0.  1.
    10030    2    1    2    0    0  0.00000000000E+00  0.00000000000E+00 -0.14910489990E+04  0.17656286414E+04  0.94563067943E+03 0.  0.
        4    1    3    3  502    0  0.33791272261E+03 -0.30289294164E+03 -0.49765390612E+03  0.67349102843E+03  0.12699999809E+01 0.  1.
       -4    1    3    3    0  502 -0.33791272261E+03  0.30289294164E+03 -0.99339509286E+03  0.10921376129E+04  0.12699999809E+01 0. -1.
</event>
<event>
 5   0  0.2628383E-02  0.6421610E+03  0.7818609E-02  0.9821601E-01
       -2   -1    0    0    0  501  0.00000000000E+00  0.00000000000E+00  0.95177896975E+03  0.95177896976E+03  0.25500000920E-02 0. -1.
        2   -1    0    0  501    0  0.00000000000E+00  0.00000000000E+00 -0.10831580096E+03  0.10831580099E+03  0.25500000920E-02 0.  1.
    10030    2    1    2    0    0  0.00000000000E+00  0.00000000000E+00  0.84346316879E+03  0.10600947707E+04  0.64216104354E+03 0.  0.
        2    1    3    3  502    0 -0.28724331723E+03  0.11663612936E+03  0.28381128760E+03  0.42031126197E+03  0.25500000920E-02 0.  1.
       -2    1    3    3    0  502  0.28724331723E+03 -0.11663612936E+03  0.55965188119E+03  0.63978350877E+03  0.25500000920E-02 0. -1.
</event>
<event>
 5   0  0.2803717E-02  0.9099364E+03  0.7818609E-02  0.9413245E-01
       -2   -1    0    0    0  501  0.00000000000E+00  0.00000000000E+00  0.11433393821E+03  0.11433393824E+03  0.25500000920E-02 0.  1.
        2   -1    0    0  501    0  0.00000000000E+00  0.00000000000E+00 -0.18104514525E+04  0.18104514525E+04  0.25500000920E-02 0. -1.
    10030    2    1    2    0    0  0.00000000000E+00  0.00000000000E+00 -0.16961175143E+04  0.19247853907E+04  0.90993635937E+03 0.  0.
        5    1    3    3  502    0  0.10714239725E+03  0.40347090511E+03 -0.12306041293E+04  0.12994910071E+04  0.46999998093E+01 0. -1.
       -5    1    3    3    0  502 -0.10714239725E+03 -0.40347090511E+03 -0.46551338495E+03  0.62529438357E+03  0.46999998093E+01 0.  1.
</event>
<event>
 5   0  0.1559275E-02  0.9143156E+03  0.7818609E-02  0.9407861E-01
        1   -1    0    0  501    0  0.00000000000E+00  0.00000000000E+00  0.17078728425E+04  0.17078728425E+04  0.50400001928E-02 0.  1.
       -1   -1    0    0    0  501  0.00000000000E+00  0.00000000000E+00 -0.12237048897E+03  0.12237048907E+03  0.50400001928E-02 0. -1.
    10030    2    1    2    0    0  0.00000000000E+00  0.00000000000E+00  0.15855023535E+04  0.18302433316E+04  0.91431555808E+03 0.  0.
        1    1    3    3  502    0  0.18115097318E+03  0.81837369524E+02  0.16168365643E+04  0.16290099772E+04  0.50400001928E-02 0.  1.
       -1    1    3    3    0  502 -0.18115097318E+03 -0.81837369524E+02 -0.31334210750E+02  0.20123335440E+03  0.50400001928E-02 0. -1.
</event>
<event>
 5   0  0.2414128E-02  0.8724201E+03  0.7818609E-02  0.9460730E-01
        2   -1    0    0  501    0  0.00000000000E+00  0.00000000000E+00  0.15590466698E+04  0.15590466698E+04  0.25500000920E-02 0.  1.
       -2   -1    0    0    0  501  0.00000000000E+00  0.00000000000E+00 -0.12204844276E+03  0.12204844279E+03  0.25500000920E-02 0. -1.
    10030    2    1    2    0    0  0.00000000000E+00  0.00000000000E+00  0.14369982271E+04  0.16810951126E+04  0.87242012418E+03 0.  0.
        3    1    3    3  502    0 -0.17358902320E+03 -0.16159083303E+02 -0.51996896340E+02  0.18192842653E+03  0.10100000352E+00 0. -1.
       -3    1    3    3    0  502  0.17358902320E+03  0.16159083303E+02  0.14889951234E+04  0.14991666861E+04  0.10100000352E+00 0.  1.
</event>
<event>
 5   0  0.1559275E-02  0.8728715E+03  0.7818609E-02  0.9460144E-01
       -1   -1    0    0    0  501  0.00000000000E+00  0.00000000000E+00  0.38632615082E+03  0.38632615085E+03  0.50400001928E-02 0. -1.
        1   -1    0    0  501    0  0.00000000000E+00  0.00000000000E+00 -0.49304494203E+03  0.49304494206E+03  0.50400001928E-02 0.  1.
    10030    2    1    2    0    0  0.00000000000E+00  0.00000000000E+00 -0.10671879121E+03  0.87937109291E+03  0.87287147888E+03 0.  0.
        1    1    3    3  502    0  0.40354098813E+03 -0.13532740852E+03 -0.15060440934E+03  0.45148701503E+03  0.50400001928E-02 0.  1.
       -1    1    3    3    0  502 -0.40354098813E+03  0.13532740852E+03  0.43885618131E+02  0.42788407788E+03  0.50400001928E-02 0. -1.
</event>
<event>
 5   0  0.2628383E-02  0.9339048E+03  0.7818609E-02  0.9384164E-01
        2   -1    0    0  501    0  0.00000000000E+00  0.00000000000E+00  0.57075820978E+03  0.57075820979E+03  0.25500000920E-02 0.  1.
       -2   -1    0    0    0  501  0.00000000000E+00  0.00000000000E+00 -0.38202609471E+03  0.38202609472E+03  0.25500000920E-02 0. -1.
    10030    2    1    2    0    0  0.00000000000E+00  0.00000000000E+00  0.18873211507E+03  0.95278430450E+03  0.93390477012E+03 0.  0.
        2    1    3    3  502    0  0.35084033986E+02  0.45237310971E+03 -0.18192033821E+02  0.45409610209E+03  0.25500000920E-02 0. -1.
       -2    1    3    3    0  502 -0.35084033986E+02 -0.45237310971E+03  0.20692414889E+03  0.49868820242E+03  0.25500000920E-02 0.  1.
</event>
<event>
 5   0  0.2803717E-02  0.8931621E+03  0.7818609E-02  0.9434170E-01
       -2   -1    0    0    0  501  0.00000000000E+00  0.00000000000E+00  0.54602340370E+03  0.54602340370E+03  0.25500000920E-02 0.  1.
        2   -1    0    0  501    0  0.00000000000E+00  0.00000000000E+00 -0.36524923213E+03  0.36524923214E+03  0.25500000920E-02 0. -1.
    10030    2    1    2    0    0  0.00000000000E+00  0.00000000000E+00  0.18077417157E+03  0.91127263584E+03  0.89316208816E+03 0.  0.
        5    1    3    3  502    0  0.18751377056E+03  0.30286403951E+03  0.36515145616E+03  0.51014283933E+03  0.46999998093E+01 0.  1.
       -5    1    3    3    0  502 -0.18751377056E+03 -0.30286403951E+03 -0.18437728459E+03  0.40112979652E+03  0.46999998093E+01 0. -1.
</event>
<event>
 5   0  0.1559275E-02  0.9123503E+03  0.7818609E-02  0.9410273E-01
        1   -1    0    0  501    0  0.00000000000E+00  0.00000000000E+00  0.12531838494E+04  0.12531838494E+04  0.50400001928E-02 0.  1.
       -1   -1    0    0    0  501  0.00000000000E+00  0.00000000000E+00 -0.16605364527E+03  0.16605364535E+03  0.50400001928E-02 0. -1.
    10030    2    1    2    0    0  0.00000000000E+00  0.00000000000E+00  0.10871302042E+04  0.14192374948E+04  0.91235025391E+03 0.  0.
        1    1    3    3  502    0  0.29919306088E+03  0.30245915209E+03  0.79963578219E+03  0.90576785688E+03  0.50400001928E-02 0.  1.
       -1    1    3    3    0  502 -0.29919306088E+03 -0.30245915209E+03  0.28749442196E+03  0.51346963790E+03  0.50400001928E-02 0. -1.
</event>
<event>
 5   0  0.1560728E-02  0.5136946E+03  0.7818609E-02  0.1010265E+00
        1   -1    0    0  501    0  0.00000000000E+00  0.00000000000E+00  0.26508774789E+03  0.26508774794E+03  0.50400001928E-02 0.  1.
       -1   -1    0    0    0  501  0.00000000000E+00  0.00000000000E+00 -0.24886298486E+03  0.24886298491E+03  0.50400001928E-02 0. -1.
    10030    2    1    2    0    0  0.00000000000E+00  0.00000000000E+00  0.16224763034E+02  0.51395073285E+03  0.51369457157E+03 0.  0.
        4    1    3    3  502    0  0.20350228200E+03 -0.11319476393E+03 -0.10030531165E+03  0.25355275941E+03  0.12699999809E+01 0.  1.
       -4    1    3    3    0  502 -0.20350228200E+03  0.11319476393E+03  0.11653007468E+03  0.26039797343E+03  0.12699999809E+01 0. -1.
</event>
<event>
 5   0  0.1497410E-02  0.9029882E+03  0.7818609E-02  0.9421854E-01
       -1   -1    0    0    0  501  0.00000000000E+00  0.00000000000E+00  0.94663857600E+03  0.94663857602E+03  0.50400001928E-02 0.  1.
        1   -1    0    0  501    0  0.00000000000E+00  0.00000000000E+00 -0.21533765241E+03  0.21533765247E+03  0.50400001928E-02 0. -1.
    10030    2    1    2    0    0  0.00000000000E+00  0.00000000000E+00  0.73130092360E+03  0.11619762285E+04  0.90298821405E+03 0.  0.
        3    1    3    3  502    0  0.24212251902E+03 -0.91028882928E+02  0.84183590599E+03  0.88068000690E+03  0.10100000352E+00 0.  1.
       -3    1    3    3    0  502 -0.24212251902E+03  0.91028882928E+02 -0.11053498239E+03  0.28129622158E+03  0.10100000352E+00 0. -1.
</event>
<event>
 5   0  0.1537870E-02  0.8387556E+03  0.7818609E-02  0.9505554E-01
        1   -1    0    0  501    0  0.00000000000E+00  0.00000000000E+00  0.98197420957E+03  0.98197420958E+03  0.50400001928E-02 0.  1.
       -1   -1    0    0    0  501  0.00000000000E+00  0.00000000000E+00 -0.17910627646E+03  0.17910627653E+03  0.50400001928E-02 0. -1.
    10030    2    1    2    0    0  0.00000000000E+00  0.00000000000E+00  0.80286793311E+03  0.11610804861E+04  0.83875561232E+03 0.  0.
        5    1    3    3  502    0 -0.36616839552E+03  0.19810287843E+03  0.33178329847E+03  0.53237795922E+03  0.46999998093E+01 0. -1.
       -5    1    3    3    0  502  0.36616839552E+03 -0.19810287843E+03  0.47108463464E+03  0.62870252689E+03  0.46999998093E+01 0.  1.
</event>
<event>
 5   0  0.1537870E-02  0.1161919E+04  0.7818609E-02  0.9146858E-01
       -1   -1    0    0    0  501  0.00000000000E+00  0.00000000000E+00  0.97587307389E+03  0.97587307390E+03  0.50400001928E-02 0.  1.
        1   -1    0    0  501    0  0.00000000000E+00  0.00000000000E+00 -0.34585815893E+03  0.34585815897E+03  0.50400001928E-02 0. -1.
    10030    2    1    2    0    0  0.00000000000E+00  0.00000000000E+00  0.63001491496E+03  0.13217312329E+04  0.11619185251E+04 0.  0.
        5    1    3    3  502    0 -0.16234218103E+03 -0.45672345092E+03 -0.49255263143E+02  0.48723655990E+03  0.46999998093E+01 0. -1.
       -5    1    3    3    0  502  0.16234218103E+03  0.45672345092E+03  0.67927017810E+03  0.83449467297E+03  0.46999998093E+01 0.  1.
</event>
<event>
 5   0  0.1497410E-02  0.8872305E+03  0.7818609E-02  0.9441686E-01
       -1   -1    0    0    0  501  0.00000000000E+00  0.00000000000E+00  0.25797604938E+03  0.25797604943E+03  0.50400001928E-02 0. -1.
        1   -1    0    0  501    0  0.00000000000E+00  0.00000000000E+00 -0.76284009624E+03  0.76284009626E+03  0.50400001928E-02 0.  1.
    10030    2    1    2    0    0  0.00000000000E+00  0.00000000000E+00 -0.50486404686E+03  0.10208161457E+04  0.88723046469E+03 0.  0.
        3    1    3    3  502    0  0.80083975642E+02  0.40580648122E+03 -0.67974843338E+02  0.41918126495E+03  0.10100000352E+00 0. -1.
       -3    1    3    3    0  502 -0.80083975642E+02 -0.40580648122E+03 -0.43688920353E+03  0.60163488073E+03  0.10100000352E+00 0.  1.
</event>
<event>
 5   0  0.2803717E-02  0.8993503E+03  0.7818609E-02  0.9426394E-01
        2   -1    0    0  501    0  0.00000000000E+00  0.00000000000E+00  0.38942126519E+03  0.38942126520E+03  0.25500000920E-02 0.  1.
       -2   -1    0    0    0  501  0.00000000000E+00  0.00000000000E+00 -0.51925186595E+03  0.51925186596E+03  0.25500000920E-02 0. -1.
    10030    2    1    2    0    0  0.00000000000E+00  0.00000000000E+00 -0.12983060077E+03  0.90867313116E+03  0.89935025123E+03 0.  0.
        5    1    3    3  502    0  0.24332349425E+03  0.37132536864E+03  0.72164738155E+01  0.44403042660E+03  0.46999998093E+01 0.  1.
       -5    1    3    3    0  502 -0.24332349425E+03 -0.37132536864E+03 -0.13704707458E+03  0.46464270456E+03  0.46999998093E+01 0. -1.
</event>
<event>
 5   0  0.1040163E-02  0.9899489E+03  0.7818609E-02  0.9319638E-01
       -3   -1    0    0    0  501  0.00000000000E+00  0.00000000000E+00  0.66932935723E+03  0.66932936485E+03  0.10100000352E+00 0.  1.
        3   -1    0    0  501    0  0.00000000000E+00  0.00000000000E+00 -0.36603754567E+03  0.36603755960E+03  0.10100000352E+00 0. -1.
    10030    2    1    2    0    0  0.00000000000E+00  0.00000000000E+00  0.30329181157E+03  0.10353669245E+04  0.98994885994E+03 0.  0.
        3    1    3    3  502    0  0.28664818551E+02  0.46279604667E+03  0.33279092614E+03  0.57074658418E+03  0.10100000352E+00 0.  1.
       -3    1    3    3    0  502 -0.28664818551E+02 -0.46279604667E+03 -0.29499114575E+02  0.46462034027E+03  0.10100000352E+00 0. -1.
</event>
<event>
 5   0  0.1537870E-02  0.9024658E+03  0.7818609E-02  0.9422504E-01
       -1   -1    0    0    0  501  0.00000000000E+00  0.00000000000E+00  0.17625550448E+03  0.17625550455E+03  0.50400001928E-02 0. -1.
        1   -1    0    0  501    0  0.00000000000E+00  0.00000000000E+00 -0.11552043415E+04  0.11552043415E+04  0.50400001928E-02 0.  1.
    10030    2    1    2    0    0  0.00000000000E+00  0.00000000000E+00 -0.97894883703E+03  0.13314598461E+04  0.90246578670E+03 0.  0.
        5    1    3    3  502    0  0.85047985170E+02  0.17663812062E+02  0.16376736236E+03  0.18543734525E+03  0.46999998093E+01 0. -1.
       -5    1    3    3    0  502 -0.85047985170E+02 -0.17663812062E+02 -0.11427161994E+04  0.11460225008E+04  0.46999998093E+01 0.  1.
</event>
<event>
 5   0  0.2803717E-02  0.9233373E+03  0.7818609E-02  0.9396870E-01
       -2   -1    0    0    0  501  0.00000000000E+00  0.00000000000E+00  0.80752264697E+03  0.80752264698E+03  0.25500000920E-02 0.  1.
        2   -1    0    0  501    0  0.00000000000E+00  0.00000000000E+00 -0.26394050720E+03  0.26394050721E+03  0.25500000920E-02 0. -1.
    10030    2    1    2    0    0  0.00000000000E+00  0.00000000000E+00  0.54358213978E+03  0.10714631542E+04  0.92333728837E+03 0.  0.
        5    1    3    3  502    0  0.92646576395E+02  0.43372107037E+03  0.42048166496E+03  0.61116632398E+03  0.46999998093E+01 0.  1.
       -5    1    3    3    0  502 -0.92646576395E+02 -0.43372107037E+03  0.12310047481E+03  0.46029683021E+03  0.46999998093E+01 0. -1.
</event>
<event>
 5   0  0.1560728E-02  0.9001958E+03  0.7818609E-02  0.9425337E-01
        1   -1    0    0  501    0  0.00000000000E+00  0.00000000000E+00  0.29715679726E+03  0.29715679730E+03  0.50400001928E-02 0. -1.
       -1   -1    0    0    0  501  0.00000000000E+00  0.00000000000E+00 -0.68175500719E+03  0.68175500721E+03  0.50400001928E-02 0.  1.
    10030    2    1    2    0    0  0.00000000000E+00  0.00000000000E+00 -0.38459820993E+03  0.97891180451E+03  0.90019583310E+03 0.  0.
        4    1    3    3  502    0  0.10902393232E+02 -0.61115171364E+02  0.29247690442E+03  0.29899544957E+03  0.12699999809E+01 0. -1.
       -4    1    3    3    0  502 -0.10902393232E+02  0.61115171364E+02 -0.67707511435E+03  0.67991635494E+03  0.12699999809E+01 0.  1.
</event>
<event>
 5   0  0.1537870E-02  0.8542546E+03  0.7818609E-02  0.9484644E-01
        1   -1    0    0  501    0  0.00000000000E+00  0.00000000000E+00  0.50668506443E+03  0.50668506445E+03  0.50400001928E-02 0.  1.
       -1   -1    0    0    0  501  0.00000000000E+00  0.00000000000E+00 -0.36006142549E+03  0.36006142553E+03  0.50400001928E-02 0. -1.
    10030    2    1    2    0    0  0.00000000000E+00  0.00000000000E+00  0.14662363894E+03  0.86674648998E+03  0.85425463792E+03 0.  0.
        5    1    3    3  502    0 -0.31285367569E+03 -0.61975974589E+02 -0.21491475062E+03  0.38461524132E+03  0.46999998093E+01 0. -1.
       -5    1    3    3    0  502  0.31285367569E+03  0.61975974589E+02  0.36153838955E+03  0.48213124867E+03  0.46999998093E+01 0.  1.
</event>
<event>
 5   0  0.2414128E-02  0.9066124E+03  0.7818609E-02  0.9417353E-01
       -2   -1    0    0    0  501  0.00000000000E+00  0.00000000000E+00  0.48165101517E+03  0.48165101518E+03  0.25500000920E-02 0.  1.
        2   -1    0    0  501    0  0.00000000000E+00  0.00000000000E+00 -0.42662949708E+03  0.42662949709E+03  0.25500000920E-02 0. -1.
    10030    2    1    2    0    0  0.00000000000E+00  0.00000000000E+00  0.55021518093E+02  0.90828051227E+03  0.90661244284E+03 0.  0.
        3    1    3    3  502    0 -0.26985246678E+03 -0.32141085590E+03  0.19917721023E+03  0.46453940994E+03  0.10100000352E+00 0.  1.
       -3    1    3    3    0  502  0.26985246678E+03  0.32141085590E+03 -0.14415569214E+03  0.44374110232E+03  0.10100000352E+00 0. -1.
</event>
<event>
 5   0  0.2803717E-02  0.9134187E+03  0.7818609E-02  0.9408961E-01
       -2   -1    0    0    0  501  0.00000000000E+00  0.00000000000E+00  0.24611418525E+03  0.24611418526E+03  0.25500000920E-02 0. -1.
        2   -1    0    0  501    0  0.00000000000E+00  0.00000000000E+00 -0.84750667077E+03  0.84750667077E+03  0.25500000920E-02 0.  1.
    10030    2    1    2    0    0  0.00000000000E+00  0.00000000000E+00 -0.60139248552E+03  0.10936208560E+04  0.91341866366E+03 0.  0.
        5    1    3    3  502    0 -0.14822154736E+03  0.29721686511E+03 -0.67599026840E+03  0.75318817368E+03  0.46999998093E+01 0.  1.
       -5    1    3    3    0  502  0.14822154736E+03 -0.29721686511E+03  0.74597782877E+02  0.34043268236E+03  0.46999998093E+01 0. -1.
</event>
<event>
 5   0  0.1537870E-02  0.8576023E+03  0.7818609E-02  0.9480190E-01
        1   -1    0    0  501    0  0.00000000000E+00  0.00000000000E+00  0.17523057978E+03  0.17523057986E+03  0.50400001928E-02 0.  1.
       -1   -1    0    0    0  501  0.00000000000E+00  0.00000000000E+00 -0.10493056615E+04  0.10493056615E+04  0.50400001928E-02 0. -1.
    10030    2    1    2    0    0  0.00000000000E+00  0.00000000000E+00 -0.87407508167E+03  0.12245362413E+04  0.85760233087E+03 0.  0.
        5    1    3    3  502    0  0.28974432788E+03  0.24013129751E+03 -0.73047422170E+03  0.82172349008E+03  0.46999998093E+01 0. -1.
       -5    1    3    3    0  502 -0.28974432788E+03 -0.24013129751E+03 -0.14360085997E+03  0.40281275124E+03  0.46999998093E+01 0.  1.
</event>
<event>
 5   0  0.2705111E-02  0.9338594E+03  0.7818609E-02  0.9384218E-01
       -2   -1    0    0    0  501  0.00000000000E+00  0.00000000000E+00  0.50547615910E+03  0.50547615911E+03  0.25500000920E-02 0. -1.
        2   -1    0    0  501    0  0.00000000000E+00  0.00000000000E+00 -0.43132271830E+03  0.43132271831E+03  0.25500000920E-02 0.  1.
    10030    2    1    2    0    0  0.00000000000E+00  0.00000000000E+00  0.74153440795E+02  0.93679887742E+03  0.93385941337E+03 0.  0.
        4    1    3    3  502    0  0.18991159342E+03 -0.12749330561E+03  0.44542162383E+03  0.50072247020E+03  0.12699999809E+01 0. -1.
       -4    1    3    3    0  502 -0.18991159342E+03  0.12749330561E+03 -0.37126818304E+03  0.43607640721E+03  0.12699999809E+01 0.  1.
</event>
<event>
 5   0  0.1559275E-02  0.9584096E+03  0.7818609E-02  0.9355375E-01
        1   -1    0    0  501    0  0.00000000000E+00  0.00000000000E+00  0.84224010982E+03  0.84224010983E+03  0.50400001928E-02 0.  1.
       -1   -1    0    0    0  501  0.00000000000E+00  0.00000000000E+00 -0.27265058161E+03  0.27265058166E+03  0.50400001928E-02 0. -1.
    10030    2    1    2    0    0  0.00000000000E+00  0.00000000000E+00  0.56958952821E+03  0.11148906915E+04  0.95840963232E+03 0.  0.
        1    1    3    3  502    0 -0.30795281353E+03 -0.18916374748E+03 -0.81255949980E+02  0.37043270394E+03  0.50400001928E-02 0. -1.
       -1    1    3    3    0  502  0.30795281353E+03  0.18916374748E+03  0.65084547819E+03  0.74445798755E+03  0.50400001928E-02 0.  1.
</event>
<event>
 5   0  0.1459111E-02  0.8890611E+03  0.7818609E-02  0.9439360E-01
        1   -1    0    0  501    0  0.00000000000E+00  0.00000000000E+00  0.41438614404E+03  0.41438614407E+03  0.50400001928E-02 0.  1.
       -1   -1    0    0    0  501  0.00000000000E+00  0.00000000000E+00 -0.47686779227E+03  0.47686779229E+03  0.50400001928E-02 0. -1.
    10030    2    1    2    0    0  0.00000000000E+00  0.00000000000E+00 -0.62481648223E+02  0.89125393637E+03  0.88906109055E+03 0.  0.
        2    1    3    3  502    0 -0.26661541981E+03 -0.58277210434E+02 -0.38300142498E+03  0.47028725996E+03  0.25500000920E-02 0. -1.
       -2    1    3    3    0  502  0.26661541981E+03  0.58277210434E+02  0.32051977676E+03  0.42096667640E+03  0.25500000920E-02 0.  1.
</event>
<event>
 5   0  0.1560728E-02  0.8693238E+03  0.7818609E-02  0.9464762E-01
        1   -1    0    0  501    0  0.00000000000E+00  0.00000000000E+00  0.56421652897E+03  0.56421652900E+03  0.50400001928E-02 0. -1.
       -1   -1    0    0    0  501  0.00000000000E+00  0.00000000000E+00 -0.33485541159E+03  0.33485541163E+03  0.50400001928E-02 0.  1.
    10030    2    1    2    0    0  0.00000000000E+00  0.00000000000E+00  0.22936111738E+03  0.89907194063E+03  0.86932377872E+03 0.  0.
        4    1    3    3  502    0 -0.69790451015E+02  0.58543049512E+01 -0.32897972129E+03  0.33635435163E+03  0.12699999809E+01 0.  1.
       -4    1    3    3    0  502  0.69790451015E+02 -0.58543049512E+01  0.55834083867E+03  0.56271758900E+03  0.12699999809E+01 0. -1.
</event>
<event>
 5   0  0.1560728E-02  0.8740138E+03  0.7818609E-02  0.9458661E-01
       -1   -1    0    0    0  501  0.00000000000E+00  0.00000000000E+00  0.19242063172E+03  0.19242063179E+03  0.50400001928E-02 0.  1.
        1   -1    0    0  501    0  0.00000000000E+00  0.00000000000E+00 -0.99248719212E+03  0.99248719214E+03  0.50400001928E-02 0. -1.
    10030    2    1    2    0    0  0.00000000000E+00  0.00000000000E+00 -0.80006656040E+03  0.11849078239E+04  0.87401375854E+03 0.  0.
        4    1    3    3  502    0 -0.22623084319E+03 -0.32559587443E+02  0.10492557954E+03  0.25149853138E+03  0.12699999809E+01 0.  1.
       -4    1    3    3    0  502  0.22623084319E+03  0.32559587443E+02 -0.90499213994E+03  0.93340929254E+03  0.12699999809E+01 0. -1.
</event>
<event>
 5   0  0.1559275E-02  0.9094583E+03  0.7818609E-02  0.9413835E-01
        1   -1    0    0  501    0  0.00000000000E+00  0.00000000000E+00  0.10539207384E+04  0.10539207384E+04  0.50400001928E-02 0. -1.
       -1   -1    0    0    0  501  0.00000000000E+00  0.00000000000E+00 -0.19619938375E+03  0.19619938382E+03  0.50400001928E-02 0.  1.
    10030    2    1    2    0    0  0.00000000000E+00  0.00000000000E+00  0.85772135466E+03  0.12501201222E+04  0.90945829909E+03 0.  0.
        1    1    3    3  502    0 -0.35346581493E+03 -0.23531876066E+03  0.20524110583E+03  0.47163217976E+03  0.50400001928E-02 0. -1.
       -1    1    3    3    0  502  0.35346581493E+03  0.23531876066E+03  0.65248024883E+03  0.77848794248E+03  0.50400001928E-02 0.  1.
</event>
<event>
 5   0  0.1537870E-02  0.9777737E+03  0.7818609E-02  0.9333264E-01
       -1   -1    0    0    0  501  0.00000000000E+00  0.00000000000E+00  0.10490427032E+03  0.10490427045E+03  0.50400001928E-02 0. -1.
        1   -1    0    0  501    0  0.00000000000E+00  0.00000000000E+00 -0.22783663791E+04  0.22783663791E+04  0.50400001928E-02 0.  1.
    10030    2    1    2    0    0  0.00000000000E+00  0.00000000000E+00 -0.21734621088E+04  0.23832706495E+04  0.97777372164E+03 0.  0.
        5    1    3    3  502    0  0.13193804308E+03  0.45702770596E+03 -0.13614854068E+04  0.14422019879E+04  0.46999998093E+01 0.  1.
       -5    1    3    3    0  502 -0.13193804308E+03 -0.45702770596E+03 -0.81197670201E+03  0.94106866160E+03  0.46999998093E+01 0. -1.
</event>
<event>
 5   0  0.2705111E-02  0.8864713E+03  0.7818609E-02  0.9442653E-01
       -2   -1    0    0    0  501  0.00000000000E+00  0.00000000000E+00  0.19458127997E+03  0.19458127999E+03  0.25500000920E-02 0. -1.
        2   -1    0    0  501    0  0.00000000000E+00  0.00000000000E+00 -0.10096441222E+04  0.10096441222E+04  0.25500000920E-02 0.  1.
    10030    2    1    2    0    0  0.00000000000E+00  0.00000000000E+00 -0.81506284219E+03  0.12042254021E+04  0.88647130944E+03 0.  0.
        4    1    3    3  502    0 -0.28735411972E+03  0.18183836726E+03 -0.21343311813E+02  0.34072676999E+03  0.12699999809E+01 0. -1.
       -4    1    3    3    0  502  0.28735411972E+03 -0.18183836726E+03 -0.79371953038E+03  0.86349863215E+03  0.12699999809E+01 0.  1.
</event>
<event>
 5   0  0.1537870E-02  0.9043272E+03  0.7818609E-02  0.9420188E-01
        1   -1    0    0  501    0  0.00000000000E+00  0.00000000000E+00  0.12474479323E+04  0.12474479323E+04  0.50400001928E-02 0. -1.
       -1   -1    0    0    0  501  0.00000000000E+00  0.00000000000E+00 -0.16389616575E+03  0.16389616583E+03  0.50400001928E-02 0.  1.
    10030    2    1    2    0    0  0.00000000000E+00  0.00000000000E+00  0.10835517666E+04  0.14113440982E+04  0.90432722650E+03 0.  0.
        5    1    3    3  502    0 -0.78394142393E+02  0.44417286262E+03  0.59099646577E+03  0.74346088398E+03  0.46999998093E+01 0. -1.
       -5    1    3    3    0  502  0.78394142393E+02 -0.44417286262E+03  0.49255530080E+03  0.66788321419E+03  0.46999998093E+01 0.  1.
</event>
<event>
 5   0  0.2705111E-02  0.8902251E+03  0.7818609E-02  0.9437884E-01
       -2   -1    0    0    0  501  0.00000000000E+00  0.00000000000E+00  0.10059415644E+03  0.10059415647E+03  0.25500000920E-02 0. -1.
        2   -1    0    0  501    0  0.00000000000E+00  0.00000000000E+00 -0.19695494088E+04  0.19695494088E+04  0.25500000920E-02 0.  1.
    10030    2    1    2    0    0  0.00000000000E+00  0.00000000000E+00 -0.18689552524E+04  0.20701435653E+04  0.89022505331E+03 0.  0.
        4    1    3    3  502    0  0.12623652336E+03 -0.13464628034E+03 -0.18763666016E+04  0.18854226363E+04  0.12699999809E+01 0.  1.
       -4    1    3    3    0  502 -0.12623652336E+03  0.13464628034E+03  0.74113492357E+01  0.18472092907E+03  0.12699999809E+01 0. -1.
</event>
<event>
 5   0  0.1559275E-02  0.8746483E+03  0.7818609E-02  0.9457839E-01
       -1   -1    0    0    0  501  0.00000000000E+00  0.00000000000E+00  0.15859635715E+03  0.15859635723E+03  0.50400001928E-02 0.  1.
        1   -1    0    0  501    0  0.00000000000E+00  0.00000000000E+00 -0.12059065828E+04  0.12059065828E+04  0.50400001928E-02 0. -1.
    10030    2    1    2    0    0  0.00000000000E+00  0.00000000000E+00 -0.10473102257E+04  0.13645029401E+04  0.87464825196E+03 0.  0.
        1    1    3    3  502    0 -0.14104597200E+03  0.23982627436E+03  0.27158068626E+01  0.27824087356E+03  0.50400001928E-02 0.  1.
       -1    1    3    3    0  502  0.14104597200E+03 -0.23982627436E+03 -0.10500260326E+04  0.10862620665E+04  0.50400001928E-02 0. -1.
</event>
<event>
 5   0  0.1040163E-02  0.8875188E+03  0.7818609E-02  0.9441319E-01
        3   -1    0    0  501    0  0.00000000000E+00  0.00000000000E+00  0.74747279668E+03  0.74747280350E+03  0.10100000352E+00 0.  1.
       -3   -1    0    0    0  501  0.00000000000E+00  0.00000000000E+00 -0.26345090938E+03  0.26345092874E+03  0.10100000352E+00 0. -1.
    10030    2    1    2    0    0  0.00000000000E+00  0.00000000000E+00  0.48402188730E+03  0.10109237322E+04  0.88751879136E+03 0.  0.
        4    1    3    3  502    0 -0.26303999045E+02 -0.12323593456E+03 -0.24264133095E+03  0.27341438206E+03  0.12699999809E+01 0. -1.
       -4    1    3    3    0  502  0.26303999045E+02  0.12323593456E+03  0.72666321825E+03  0.73750935017E+03  0.12699999809E+01 0.  1.
</event>
<event>
 5   0  0.2679861E-02  0.8884426E+03  0.7818609E-02  0.9440145E-01
       -2   -1    0    0    0  501  0.00000000000E+00  0.00000000000E+00  0.34190599389E+03  0.34190599390E+03  0.25500000920E-02 0.  1.
        2   -1    0    0  501    0  0.00000000000E+00  0.00000000000E+00 -0.57715441173E+03  0.57715441173E+03  0.25500000920E-02 0. -1.
    10030    2    1    2    0    0  0.00000000000E+00  0.00000000000E+00 -0.23524841784E+03  0.91906040563E+03  0.88844257614E+03 0.  0.
        1    1    3    3  502    0 -0.39970133443E+03  0.16960215422E+03 -0.20547176033E+02  0.43468176167E+03  0.50400001928E-02 0. -1.
       -1    1    3    3    0  502  0.39970133443E+03 -0.16960215422E+03 -0.21470124180E+03  0.48437864396E+03  0.50400001928E-02 0.  1.
</event>
<event>
 5   0  0.1559275E-02  0.8850074E+03  0.7818609E-02  0.9444519E-01
       -1   -1    0    0    0  501  0.00000000000E+00  0.00000000000E+00  0.20720593468E+03  0.20720593474E+03  0.50400001928E-02 0. -1.
        1   -1    0    0  501    0  0.00000000000E+00  0.00000000000E+00 -0.94499965538E+03  0.94499965540E+03  0.50400001928E-02 0.  1.
    10030    2    1    2    0    0  0.00000000000E+00  0.00000000000E+00 -0.73779372070E+03  0.11522055901E+04  0.88500742801E+03 0.  0.
        1    1    3    3  502    0  0.20673955499E+03  0.36945702662E+03 -0.20130933844E+03  0.46879119860E+03  0.50400001928E-02 0. -1.
       -1    1    3    3    0  502 -0.20673955499E+03 -0.36945702662E+03 -0.53648438226E+03  0.68341439153E+03  0.50400001928E-02 0.  1.
</event>
<event>
 5   0  0.2628383E-02  0.9050266E+03  0.7818609E-02  0.9419320E-01
       -2   -1    0    0    0  501  0.00000000000E+00  0.00000000000E+00  0.20165525201E+03  0.20165525202E+03  0.25500000920E-02 0. -1.
        2   -1    0    0  501    0  0.00000000000E+00  0.00000000000E+00 -0.10154373887E+04  0.10154373887E+04  0.25500000920E-02 0.  1.
    10030    2    1    2    0    0  0.00000000000E+00  0.00000000000E+00 -0.81378213669E+03  0.12170926407E+04  0.90502659083E+03 0.  0.
        2    1    3    3  502    0  0.84437349670E+02 -0.30823508531E+03  0.23931980315E+02  0.32048599583E+03  0.25500000920E-02 0. -1.
       -2    1    3    3    0  502 -0.84437349670E+02  0.30823508531E+03 -0.83771411701E+03  0.89660664490E+03  0.25500000920E-02 0.  1.
</event>
<event>
 5   0  0.1559275E-02  0.9044825E+03  0.7818609E-02  0.9419995E-01
       -1   -1    0    0    0  501  0.00000000000E+00  0.00000000000E+00  0.46314934383E+03  0.46314934385E+03  0.50400001928E-02 0. -1.
        1   -1    0    0  501    0  0.00000000000E+00  0.00000000000E+00 -0.44159009059E+03  0.44159009062E+03  0.50400001928E-02 0.  1.
    10030    2    1    2    0    0  0.00000000000E+00  0.00000000000E+00  0.21559253233E+02  0.90473943448E+03  0.90448252769E+03 0.  0.
        1    1    3    3  502    0  0.33182033944E+03  0.29677802098E+02  0.31670411802E+03  0.45965966540E+03  0.50400001928E-02 0. -1.
       -1    1    3    3    0  502 -0.33182033944E+03 -0.29677802098E+02 -0.29514486479E+03  0.44507976907E+03  0.50400001928E-02 0.  1.
</event>
<event>
 5   0  0.1497410E-02  0.9083293E+03  0.7818609E-02  0.9415229E-01
        1   -1    0    0  501    0  0.00000000000E+00  0.00000000000E+00  0.27799927741E+04  0.27799927741E+04  0.50400001928E-02 0. -1.
       -1   -1    0    0    0  501  0.00000000000E+00  0.00000000000E+00 -0.74196423883E+02  0.74196424054E+02  0.50400001928E-02 0.  1.
    10030    2    1    2    0    0  0.00000000000E+00  0.00000000000E+00  0.27057963503E+04  0.28541891982E+04  0.90832928503E+03 0.  0.
        3    1    3    3  502    0  0.30331846980E+02 -0.94099869031E+02  0.27457677387E+04  0.27475471409E+04  0.10100000352E+00 0. -1.
       -3    1    3    3    0  502 -0.30331846980E+02  0.94099869031E+02 -0.39971388444E+02  0.10664205731E+03  0.10100000352E+00 0.  1.
</event>
<event>
 5   0  0.1559275E-02  0.8951200E+03  0.7818609E-02  0.9431702E-01
        1   -1    0    0  501    0  0.00000000000E+00  0.00000000000E+00  0.24289431808E+03  0.24289431813E+03  0.50400001928E-02 0.  1.
       -1   -1    0    0    0  501  0.00000000000E+00  0.00000000000E+00 -0.82467942726E+03  0.82467942727E+03  0.50400001928E-02 0. -1.
    10030    2    1    2    0    0  0.00000000000E+00  0.00000000000E+00 -0.58178510918E+03  0.10675737454E+04  0.89511998559E+03 0.  0.
        1    1    3    3  502    0  0.12339928317E+03  0.79713727156E+02 -0.79510466880E+03  0.80856236356E+03  0.50400001928E-02 0. -1.
       -1    1    3    3    0  502 -0.12339928317E+03 -0.79713727156E+02  0.21331955962E+03  0.25901138185E+03  0.50400001928E-02 0.  1.
</event>
<event>
 5   0  0.2803717E-02  0.9465022E+03  0.7818609E-02  0.9369248E-01
       -2   -1    0    0    0  501  0.00000000000E+00  0.00000000000E+00  0.19180683070E+03  0.19180683071E+03  0.25500000920E-02 0.  1.
        2   -1    0    0  501    0  0.00000000000E+00  0.00000000000E+00 -0.11676674830E+04  0.11676674830E+04  0.25500000920E-02 0. -1.
    10030    2    1    2    0    0  0.00000000000E+00  0.00000000000E+00 -0.97586065231E+03  0.13594743137E+04  0.94650219067E+03 0.  0.
        5    1    3    3  502    0 -0.86415625777E+01  0.31189961271E+03  0.23099735313E+02  0.31290850545E+03  0.46999998093E+01 0.  1.
       -5    1    3    3    0  502  0.86415625777E+01 -0.31189961271E+03 -0.99896038763E+03  0.10465658083E+04  0.46999998093E+01 0. -1.
</event>
<event>
 5   0  0.2414128E-02  0.8686909E+03  0.7818609E-02  0.9465588E-01
        2   -1    0    0  501    0  0.00000000000E+00  0.00000000000E+00  0.85897106131E+03  0.85897106131E+03  0.25500000920E-02 0.  1.
       -2   -1    0    0    0  501  0.00000000000E+00  0.00000000000E+00 -0.21963020481E+03  0.21963020482E+03  0.25500000920E-02 0. -1.
    10030    2    1    2    0    0  0.00000000000E+00  0.00000000000E+00  0.63934085650E+03  0.10786012661E+04  0.86869094649E+03 0.  0.
        3    1    3    3  502    0 -0.30452863328E+02 -0.22440401034E+03 -0.14052665405E+03  0.26651883131E+03  0.10100000352E+00 0. -1.
       -3    1    3    3    0  502  0.30452863328E+02  0.22440401034E+03  0.77986751055E+03  0.81208243483E+03  0.10100000352E+00 0.  1.
</event>
<event>
 5   0  0.2679861E-02  0.9068641E+03  0.7818609E-02  0.9417041E-01
        2   -1    0    0  501    0  0.00000000000E+00  0.00000000000E+00  0.43381389176E+03  0.43381389176E+03  0.25500000920E-02 0. -1.
       -2   -1    0    0    0  501  0.00000000000E+00  0.00000000000E+00 -0.47393738961E+03  0.47393738962E+03  0.25500000920E-02 0.  1.
    10030    2    1    2    0    0  0.00000000000E+00  0.00000000000E+00 -0.40123497852E+02  0.90775128138E+03  0.90686409884E+03 0.  0.
        1    1    3    3  502    0  0.26892637491E+03  0.60984226344E+02 -0.38035853364E+03  0.46980111231E+03  0.50400001928E-02 0.  1.
       -1    1    3    3    0  502 -0.26892637491E+03 -0.60984226344E+02  0.34023503579E+03  0.43795016907E+03  0.50400001928E-02 0. -1.
</event>
<event>
 5   0  0.1459111E-02  0.8845995E+03  0.7818609E-02  0.9445040E-01
        1   -1    0    0  501    0  0.00000000000E+00  0.00000000000E+00  0.10653037161E+04  0.10653037161E+04  0.50400001928E-02 0. -1.
       -1   -1    0    0    0  501  0.00000000000E+00  0.00000000000E+00 -0.18363689289E+03  0.18363689296E+03  0.50400001928E-02 0.  1.
    10030    2    1    2    0    0  0.00000000000E+00  0.00000000000E+00  0.88166682322E+03  0.12489406091E+04  0.88459949007E+03 0.  0.
        2    1    3    3  502    0 -0.12601018801E+03 -0.20470402914E+02 -0.15705941621E+03  0.20239877743E+03  0.25500000920E-02 0.  1.
       -2    1    3    3    0  502  0.12601018801E+03  0.20470402914E+02  0.10387262394E+04  0.10465418316E+04  0.25500000920E-02 0. -1.
</event>
<event>
 5   0  0.1559275E-02  0.8365067E+03  0.7818609E-02  0.9508628E-01
        1   -1    0    0  501    0  0.00000000000E+00  0.00000000000E+00  0.83110037790E+03  0.83110037792E+03  0.50400001928E-02 0.  1.
       -1   -1    0    0    0  501  0.00000000000E+00  0.00000000000E+00 -0.21048703419E+03  0.21048703425E+03  0.50400001928E-02 0. -1.
    10030    2    1    2    0    0  0.00000000000E+00  0.00000000000E+00  0.62061334371E+03  0.10415874122E+04  0.83650667349E+03 0.  0.
        1    1    3    3  502    0 -0.88572797084E+02 -0.32401682943E+03  0.62060928027E+03  0.70568259502E+03  0.50400001928E-02 0.  1.
       -1    1    3    3    0  502  0.88572797084E+02  0.32401682943E+03  0.40634437702E-02  0.33590481714E+03  0.50400001928E-02 0. -1.
</event>
<event>
 5   0  0.2803717E-02  0.9045856E+03  0.7818609E-02  0.9419867E-01
       -2   -1    0    0    0  501  0.00000000000E+00  0.00000000000E+00  0.33338605304E+03  0.33338605305E+03  0.25500000920E-02 0.  1.
        2   -1    0    0  501    0  0.00000000000E+00  0.00000000000E+00 -0.61360921973E+03  0.61360921973E+03  0.25500000920E-02 0. -1.
    10030    2    1    2    0    0  0.00000000000E+00  0.00000000000E+00 -0.28022316669E+03  0.94699527278E+03  0.90458555345E+03 0.  0.
        5    1    3    3  502    0 -0.38876305913E+03  0.18285499339E+03  0.78437751065E+01  0.42971651069E+03  0.46999998093E+01 0.  1.
       -5    1    3    3    0  502  0.38876305913E+03 -0.18285499339E+03 -0.28806694180E+03  0.51727876209E+03  0.46999998093E+01 0. -1.
</event>
<event>
 5   0  0.1497410E-02  0.8844731E+03  0.7818609E-02  0.9445202E-01
       -1   -1    0    0    0  501  0.00000000000E+00  0.00000000000E+00  0.85321609202E+03  0.85321609204E+03  0.50400001928E-02 0. -1.
        1   -1    0    0  501    0  0.00000000000E+00  0.00000000000E+00 -0.22921881671E+03  0.22921881677E+03  0.50400001928E-02 0.  1.
    10030    2    1    2    0    0  0.00000000000E+00  0.00000000000E+00  0.62399727531E+03  0.10824349088E+04  0.88447313820E+03 0.  0.
        3    1    3    3  502    0 -0.24741085422E+02 -0.39337621495E+01 -0.22834971942E+03  0.22971983012E+03  0.10100000352E+00 0.  1.
       -3    1    3    3    0  502  0.24741085422E+02  0.39337621495E+01  0.85234699473E+03  0.85271507868E+03  0.10100000352E+00 0. -1.
</event>
<event>
 5   0  0.1560728E-02  0.8069277E+03  0.7818609E-02  0.9550043E-01
       -1   -1    0    0    0  501  0.00000000000E+00  0.00000000000E+00  0.17874843752E+03  0.17874843759E+03  0.50400001928E-02 0. -1.
        1   -1    0    0  501    0  0.00000000000E+00  0.00000000000E+00 -0.91068261264E+03  0.91068261266E+03  0.50400001928E-02 0.  1.
    10030    2    1    2    0    0  0.00000000000E+00  0.00000000000E+00 -0.73193417512E+03  0.10894310502E+04  0.80692773934E+03 0.  0.
        4    1    3    3  502    0 -0.23215128652E+01  0.27603473834E+03 -0.76322832361E+03  0.81161545885E+03  0.12699999809E+01 0.  1.
       -4    1    3    3    0  502  0.23215128652E+01 -0.27603473834E+03  0.31294148484E+02  0.27781559139E+03  0.12699999809E+01 0. -1.
</event>
<event>
 5   0  0.2414128E-02  0.8979292E+03  0.7818609E-02  0.9428174E-01
       -2   -1    0    0    0  501  0.00000000000E+00  0.00000000000E+00  0.65800802717E+02  0.65800802767E+02  0.25500000920E-02 0.  1.
        2   -1    0    0  501    0  0.00000000000E+00  0.00000000000E+00 -0.30633246293E+04  0.30633246293E+04  0.25500000920E-02 0. -1.
    10030    2    1    2    0    0  0.00000000000E+00  0.00000000000E+00 -0.29975238266E+04  0.31291254321E+04  0.89792921697E+03 0.  0.
        3    1    3    3  502    0 -0.13265561182E+03  0.16974327170E+03 -0.28714417146E+04  0.28795117330E+04  0.10100000352E+00 0. -1.
       -3    1    3    3    0  502  0.13265561182E+03 -0.16974327170E+03 -0.12608211201E+03  0.24961369915E+03  0.10100000352E+00 0.  1.
</event>
<event>
 5   0  0.1537870E-02  0.9210076E+03  0.7818609E-02  0.9399695E-01
       -1   -1    0    0    0  501  0.00000000000E+00  0.00000000000E+00  0.44383251112E+03  0.44383251114E+03  0.50400001928E-02 0.  1.
        1   -1    0    0  501    0  0.00000000000E+00  0.00000000000E+00 -0.47780131937E+03  0.47780131939E+03  0.50400001928E-02 0. -1.
    10030    2    1    2    0    0  0.00000000000E+00  0.00000000000E+00 -0.33968808252E+02  0.92163383054E+03  0.92100762085E+03 0.  0.
        5    1    3    3  502    0 -0.15785193787E+03 -0.14112801074E+03  0.39220353748E+03  0.44573540864E+03  0.46999998093E+01 0.  1.
       -5    1    3    3    0  502  0.15785193787E+03  0.14112801074E+03 -0.42617234573E+03  0.47589842190E+03  0.46999998093E+01 0. -1.
</event>
<event>
 5   0  0.2803717E-02  0.8894714E+03  0.7818609E-02  0.9438839E-01
       -2   -1    0    0    0  501  0.00000000000E+00  0.00000000000E+00  0.11660115396E+03  0.11660115398E+03  0.25500000920E-02 0. -1.
        2   -1    0    0  501    0  0.00000000000E+00  0.00000000000E+00 -0.16962941816E+04  0.16962941816E+04  0.25500000920E-02 0.  1.
    10030    2    1    2    0    0  0.00000000000E+00  0.00000000000E+00 -0.15796930276E+04  0.18128953356E+04  0.88947143641E+03 0.  0.
        5    1    3    3  502    0 -0.16293668586E+03  0.16205084039E+03 -0.15658491804E+04  0.15826290102E+04  0.46999998093E+01 0.  1.
       -5    1    3    3    0  502  0.16293668586E+03 -0.16205084039E+03 -0.13843847277E+02  0.23026632532E+03  0.46999998093E+01 0. -1.
</event>
<event>
 5   0  0.2705111E-02  0.9193807E+03  0.7818609E-02  0.9401674E-01
       -2   -1    0    0    0  501  0.00000000000E+00  0.00000000000E+00  0.17331791849E+03  0.17331791851E+03  0.25500000920E-02 0. -1.
        2   -1    0    0  501    0  0.00000000000E+00  0.00000000000E+00 -0.12192347326E+04  0.12192347326E+04  0.25500000920E-02 0.  1.
    10030    2    1    2    0    0  0.00000000000E+00  0.00000000000E+00 -0.10459168141E+04  0.13925526511E+04  0.91938071771E+03 0.  0.
        4    1    3    3  502    0 -0.62057632521E+02  0.40326623760E+03 -0.20222570122E+03  0.45538078053E+03  0.12699999809E+01 0. -1.
       -4    1    3    3    0  502  0.62057632521E+02 -0.40326623760E+03 -0.84369111292E+03  0.93717187061E+03  0.12699999809E+01 0.  1.
</event>
<event>
 5   0  0.2679861E-02  0.8181129E+03  0.7818609E-02  0.9534163E-01
       -2   -1    0    0    0  501  0.00000000000E+00  0.00000000000E+00  0.18240551853E+03  0.18240551854E+03  0.25500000920E-02 0. -1.
        2   -1    0    0  501    0  0.00000000000E+00  0.00000000000E+00 -0.91733625136E+03  0.91733625136E+03  0.25500000920E-02 0.  1.
    10030    2    1    2    0    0  0.00000000000E+00  0.00000000000E+00 -0.73493073283E+03  0.10997417699E+04  0.81811293744E+03 0.  0.
        1    1    3    3  502    0  0.16714171447E+03 -0.90075903199E+02  0.11958297502E+03  0.22438829959E+03  0.50400001928E-02 0. -1.
       -1    1    3    3    0  502 -0.16714171447E+03  0.90075903199E+02 -0.85451370786E+03  0.87535347031E+03  0.50400001928E-02 0.  1.
</event>
<event>
 5   0  0.2679861E-02  0.9163286E+03  0.7818609E-02  0.9405397E-01
        2   -1    0    0  501    0  0.00000000000E+00  0.00000000000E+00  0.99994620765E+03  0.99994620766E+03  0.25500000920E-02 0. -1.
       -2   -1    0    0    0  501  0.00000000000E+00  0.00000000000E+00 -0.20992582439E+03  0.20992582440E+03  0.25500000920E-02 0.  1.
    10030    2    1    2    0    0  0.00000000000E+00  0.00000000000E+00  0.79002038327E+03  0.12098720321E+04  0.91632861353E+03 0.  0.
        1    1    3    3  502    0  0.24765117212E+03 -0.34736022961E+03  0.17437268787E+03  0.46086447733E+03  0.50400001928E-02 0.  1.
       -1    1    3    3    0  502 -0.24765117212E+03  0.34736022961E+03  0.61564769539E+03  0.74900755472E+03  0.50400001928E-02 0. -1.
</event>
<event>
 5   0  0.1459111E-02  0.9105645E+03  0.7818609E-02  0.9412471E-01
        1   -1    0    0  501    0  0.00000000000E+00  0.00000000000E+00  0.10619991341E+04  0.10619991341E+04  0.50400001928E-02 0. -1.
       -1   -1    0    0    0  501  0.00000000000E+00  0.00000000000E+00 -0.19518089858E+03  0.19518089864E+03  0.50400001928E-02 0.  1.
    10030    2    1    2    0    0  0.00000000000E+00  0.00000000000E+00  0.86681823554E+03  0.12571800328E+04  0.91056453991E+03 0.  0.
        2    1    3    3  502    0 -0.14807602454E+03 -0.36991428294E+03  0.73752705299E+03  0.83827754333E+03  0.25500000920E-02 0. -1.
       -2    1    3    3    0  502  0.14807602454E+03  0.36991428294E+03  0.12929118256E+03  0.41890248944E+03  0.25500000920E-02 0.  1.
</event>
<event>
 5   0  0.2679861E-02  0.9002715E+03  0.7818609E-02  0.9425242E-01
        2   -1    0    0  501    0  0.00000000000E+00  0.00000000000E+00  0.12665841994E+04  0.12665841994E+04  0.25500000920E-02 0. -1.
       -2   -1    0    0    0  501  0.00000000000E+00  0.00000000000E+00 -0.15997532038E+03  0.15997532040E+03  0.25500000920E-02 0.  1.
    10030    2    1    2    0    0  0.00000000000E+00  0.00000000000E+00  0.11066088790E+04  0.14265595198E+04  0.90027154368E+03 0.  0.
        1    1    3    3  502    0 -0.11655822536E+02  0.37318887626E+03  0.15489344594E+03  0.40422490669E+03  0.50400001928E-02 0.  1.
       -1    1    3    3    0  502  0.11655822536E+02 -0.37318887626E+03  0.95171543305E+03  0.10223346131E+04  0.50400001928E-02 0. -1.
</event>
<event>
 5   0  0.1537870E-02  0.9578188E+03  0.7818609E-02  0.9356058E-01
        1   -1    0    0  501    0  0.00000000000E+00  0.00000000000E+00  0.98338738240E+03  0.98338738241E+03  0.50400001928E-02 0.  1.
       -1   -1    0    0    0  501  0.00000000000E+00  0.00000000000E+00 -0.23322874727E+03  0.23322874732E+03  0.50400001928E-02 0. -1.
    10030    2    1    2    0    0  0.00000000000E+00  0.00000000000E+00  0.75015863513E+03  0.12166161297E+04  0.95781878729E+03 0.  0.
        5    1    3    3  502    0 -0.28608953396E+02 -0.14698468779E+03 -0.20269743483E+03  0.25205418216E+03  0.46999998093E+01 0. -1.
       -5    1    3    3    0  502  0.28608953396E+02  0.14698468779E+03  0.95285606996E+03  0.96456194758E+03  0.46999998093E+01 0.  1.
</event>
<event>
 5   0  0.1497410E-02  0.9218604E+03  0.7818609E-02  0.9398660E-01
        1   -1    0    0  501    0  0.00000000000E+00  0.00000000000E+00  0.11875651040E+04  0.11875651040E+04  0.50400001928E-02 0. -1.
       -1   -1    0    0    0  501  0.00000000000E+00  0.00000000000E+00 -0.17890104144E+03  0.17890104151E+03  0.50400001928E-02 0.  1.
    10030    2    1    2    0    0  0.00000000000E+00  0.00000000000E+00  0.10086640626E+04  0.13664661455E+04  0.92186036673E+03 0.  0.
        3    1    3    3  502    0 -0.97976422869E+02 -0.44503998423E+03  0.40167160750E+03  0.60745374924E+03  0.10100000352E+00 0.  1.
       -3    1    3    3    0  502  0.97976422869E+02  0.44503998423E+03  0.60699245506E+03  0.75901239627E+03  0.10100000352E+00 0. -1.
</event>
<event>
 5   0  0.2705111E-02  0.9057426E+03  0.7818609E-02  0.9418431E-01
        2   -1    0    0  501    0  0.00000000000E+00  0.00000000000E+00  0.10889153715E+04  0.10889153715E+04  0.25500000920E-02 0. -1.
       -2   -1    0    0    0  501  0.00000000000E+00  0.00000000000E+00 -0.18834561164E+03  0.18834561166E+03  0.25500000920E-02 0.  1.
    10030    2    1    2    0    0  0.00000000000E+00  0.00000000000E+00  0.90056975990E+03  0.12772609832E+04  0.90574263827E+03 0.  0.
        4    1    3    3  502    0  0.85968847524E+02 -0.41604590400E+03  0.22907975615E+03  0.48266342782E+03  0.12699999809E+01 0. -1.
       -4    1    3    3    0  502 -0.85968847524E+02  0.41604590400E+03  0.67149000375E+03  0.79459755538E+03  0.12699999809E+01 0.  1.
</event>
<event>
 5   0  0.1560728E-02  0.9057482E+03  0.7818609E-02  0.9418424E-01
       -1   -1    0    0    0  501  0.00000000000E+00  0.00000000000E+00  0.30837165897E+03  0.30837165901E+03  0.50400001928E-02 0.  1.
        1   -1    0    0  501    0  0.00000000000E+00  0.00000000000E+00 -0.66509009654E+03  0.66509009656E+03  0.50400001928E-02 0. -1.
    10030    2    1    2    0    0  0.00000000000E+00  0.00000000000E+00 -0.35671843757E+03  0.97346175557E+03  0.90574816912E+03 0.  0.
        4    1    3    3  502    0 -0.22651409399E+02 -0.18190955614E+03  0.26671224901E+03  0.32363746637E+03  0.12699999809E+01 0.  1.
       -4    1    3    3    0  502  0.22651409399E+02  0.18190955614E+03 -0.62343068659E+03  0.64982428921E+03  0.12699999809E+01 0. -1.
</event>
<event>
 5   0  0.2414128E-02  0.9178629E+03  0.7818609E-02  0.9403523E-01
        2   -1    0    0  501    0  0.00000000000E+00  0.00000000000E+00  0.15192384171E+04  0.15192384171E+04  0.25500000920E-02 0.  1.
       -2   -1    0    0    0  501  0.00000000000E+00  0.00000000000E+00 -0.13863398457E+03  0.13863398459E+03  0.25500000920E-02 0. -1.
    10030    2    1    2    0    0  0.00000000000E+00  0.00000000000E+00  0.13806044326E+04  0.16578724017E+04  0.91786289890E+03 0.  0.
        3    1    3    3  502    0  0.13539262842E+03  0.18222183146E+02 -0.10105548842E+03  0.16992773090E+03  0.10100000352E+00 0. -1.
       -3    1    3    3    0  502 -0.13539262842E+03 -0.18222183146E+02  0.14816599210E+04  0.14879446708E+04  0.10100000352E+00 0.  1.
</event>
<event>
 5   0  0.2414128E-02  0.9008974E+03  0.7818609E-02  0.9424460E-01
        2   -1    0    0  501    0  0.00000000000E+00  0.00000000000E+00  0.13755063465E+04  0.13755063465E+04  0.25500000920E-02 0. -1.
       -2   -1    0    0    0  501  0.00000000000E+00  0.00000000000E+00 -0.14751223353E+03  0.14751223356E+03  0.25500000920E-02 0.  1.
    10030    2    1    2    0    0  0.00000000000E+00  0.00000000000E+00  0.12279941129E+04  0.15230185800E+04  0.90089736024E+03 0.  0.
        3    1    3    3  502    0 -0.19453453272E+03  0.12581119492E+03  0.12670684580E+04  0.12880739997E+04  0.10100000352E+00 0. -1.
       -3    1    3    3    0  502  0.19453453272E+03 -0.12581119492E+03 -0.39074345073E+02  0.23494458034E+03  0.10100000352E+00 0.  1.
</event>
<event>
 5   0  0.2414128E-02  0.8907234E+03  0.7818609E-02  0.9437252E-01
        2   -1    0    0  501    0  0.00000000000E+00  0.00000000000E+00  0.37229945814E+03  0.37229945814E+03  0.25500000920E-02 0.  1.
       -2   -1    0    0    0  501  0.00000000000E+00  0.00000000000E+00 -0.53276214699E+03  0.53276214699E+03  0.25500000920E-02 0. -1.
    10030    2    1    2    0    0  0.00000000000E+00  0.00000000000E+00 -0.16046268885E+03  0.90506160514E+03  0.89072343327E+03 0.  0.
        3    1    3    3  502    0  0.37219105993E+03 -0.16860985495E+03 -0.26026008872E+03  0.48444895733E+03  0.10100000352E+00 0. -1.
       -3    1    3    3    0  502 -0.37219105993E+03  0.16860985495E+03  0.99797399864E+02  0.42061264781E+03  0.10100000352E+00 0.  1.
</event>
<event>
 5   0  0.1459111E-02  0.9108016E+03  0.7818609E-02  0.9412179E-01
       -1   -1    0    0    0  501  0.00000000000E+00  0.00000000000E+00  0.25277653028E+03  0.25277653033E+03  0.50400001928E-02 0. -1.
        1   -1    0    0  501    0  0.00000000000E+00  0.00000000000E+00 -0.82044756295E+03  0.82044756296E+03  0.50400001928E-02 0.  1.
    10030    2    1    2    0    0  0.00000000000E+00  0.00000000000E+00 -0.56767103267E+03  0.10732240933E+04  0.91080159919E+03 0.  0.
        2    1    3    3  502    0  0.25802474540E+03 -0.19531937609E+03  0.93714573991E+02  0.33691074381E+03  0.25500000920E-02 0. -1.
       -2    1    3    3    0  502 -0.25802474540E+03  0.19531937609E+03 -0.66138560666E+03  0.73631334948E+03  0.25500000920E-02 0.  1.
</event>
<event>
 5   0  0.2803717E-02  0.8716817E+03  0.7818609E-02  0.9461690E-01
        2   -1    0    0  501    0  0.00000000000E+00  0.00000000000E+00  0.16839366252E+04  0.16839366252E+04  0.25500000920E-02 0. -1.
       -2   -1    0    0    0  501  0.00000000000E+00  0.00000000000E+00 -0.11280545439E+03  0.11280545442E+03  0.25500000920E-02 0.  1.
    10030    2    1    2    0    0  0.00000000000E+00  0.00000000000E+00  0.15711311708E+04  0.17967420796E+04  0.87168167631E+03 0.  0.
        5    1    3    3  502    0 -0.21703040863E+03 -0.30887156671E+02  0.91633504597E+01  0.21945904335E+03  0.46999998093E+01 0.  1.
       -5    1    3    3    0  502  0.21703040863E+03  0.30887156671E+02  0.15619678204E+04  0.15772830363E+04  0.46999998093E+01 0. -1.
</event>
<event>
 5   0  0.2803717E-02  0.9125315E+03  0.7818609E-02  0.9410051E-01
       -2   -1    0    0    0  501  0.00000000000E+00  0.00000000000E+00  0.13782621024E+03  0.13782621027E+03  0.25500000920E-02 0. -1.
        2   -1    0    0  501    0  0.00000000000E+00  0.00000000000E+00 -0.15104414911E+04  0.15104414911E+04  0.25500000920E-02 0.  1.
    10030    2    1    2    0    0  0.00000000000E+00  0.00000000000E+00 -0.13726152808E+04  0.16482677013E+04  0.91253148226E+03 0.  0.
        5    1    3    3  502    0  0.17018873623E+03  0.24354006876E+03 -0.60913336798E+02  0.30332902207E+03  0.46999998093E+01 0. -1.
       -5    1    3    3    0  502 -0.17018873623E+03 -0.24354006876E+03 -0.13117019440E+04  0.13449386793E+04  0.46999998093E+01 0.  1.
</event>
<event>
 5   0  0.2705111E-02  0.8667856E+03  0.7818609E-02  0.9468081E-01
        2   -1    0    0  501    0  0.00000000000E+00  0.00000000000E+00  0.19016758866E+03  0.19016758867E+03  0.25500000920E-02 0.  1.
       -2   -1    0    0    0  501  0.00000000000E+00  0.00000000000E+00 -0.98770416935E+03  0.98770416936E+03  0.25500000920E-02 0. -1.
    10030    2    1    2    0    0  0.00000000000E+00  0.00000000000E+00 -0.79753658070E+03  0.11778717580E+04  0.86678560256E+03 0.  0.
        4    1    3    3  502    0 -0.17099212204E+03  0.35860934882E+03 -0.16344473379E+03  0.42959837612E+03  0.12699999809E+01 0.  1.
       -4    1    3    3    0  502  0.17099212204E+03 -0.35860934882E+03 -0.63409184691E+03  0.74827338191E+03  0.12699999809E+01 0. -1.
</event>
<event>
 5   0  0.2705111E-02  0.9215244E+03  0.7818609E-02  0.9399068E-01
       -2   -1    0    0    0  501  0.00000000000E+00  0.00000000000E+00  0.42356347977E+03  0.42356347977E+03  0.25500000920E-02 0.  1.
        2   -1    0    0  501    0  0.00000000000E+00  0.00000000000E+00 -0.50122786858E+03  0.50122786859E+03  0.25500000920E-02 0. -1.
    10030    2    1    2    0    0  0.00000000000E+00  0.00000000000E+00 -0.77664388813E+02  0.92479134836E+03  0.92152443305E+03 0.  0.
        4    1    3    3  502    0 -0.14571837300E+03  0.55131563146E+01  0.39979391082E+03  0.42555965875E+03  0.12699999809E+01 0.  1.
       -4    1    3    3    0  502  0.14571837300E+03 -0.55131563146E+01 -0.47745829963E+03  0.49923168961E+03  0.12699999809E+01 0. -1.
</event>
<event>
 5   0  0.1459111E-02  0.8299748E+03  0.7818609E-02  0.9517615E-01
        1   -1    0    0  501    0  0.00000000000E+00  0.00000000000E+00  0.31996143507E+03  0.31996143511E+03  0.50400001928E-02 0. -1.
       -1   -1    0    0    0  501  0.00000000000E+00  0.00000000000E+00 -0.53823532559E+03  0.53823532562E+03  0.50400001928E-02 0.  1.
    10030    2    1    2    0    0  0.00000000000E+00  0.00000000000E+00 -0.21827389052E+03  0.85819676073E+03  0.82997481217E+03 0.  0.
        2    1    3    3  502    0 -0.11289739017E+03 -0.10088872180E+03  0.29038220100E+03  0.32748462186E+03  0.25500000920E-02 0. -1.
       -2    1    3    3    0  502  0.11289739017E+03  0.10088872180E+03 -0.50865609152E+03  0.53071213887E+03  0.25500000920E-02 0.  1.
</event>
<event>
 5   0  0.2414128E-02  0.9051925E+03  0.7818609E-02  0.9419114E-01
        2   -1    0    0  501    0  0.00000000000E+00  0.00000000000E+00  0.14326884392E+04  0.14326884392E+04  0.25500000920E-02 0.  1.
       -2   -1    0    0    0  501  0.00000000000E+00  0.00000000000E+00 -0.14297829868E+03  0.14297829870E+03  0.25500000920E-02 0. -1.
    10030    2    1    2    0    0  0.00000000000E+00  0.00000000000E+00  0.12897101405E+04  0.15756667379E+04  0.90519247807E+03 0.  0.
        3    1    3    3  502    0 -0.25259011783E+03 -0.33656901710E+03  0.35481657341E+03  0.55043190483E+03  0.10100000352E+00 0.  1.
       -3    1    3    3    0  502  0.25259011783E+03  0.33656901710E+03  0.93489356713E+03  0.10252348331E+04  0.10100000352E+00 0. -1.
</event>
<event>
 5   0  0.1560728E-02  0.9087862E+03  0.7818609E-02  0.9414664E-01
        1   -1    0    0  501    0  0.00000000000E+00  0.00000000000E+00  0.61960160839E+03  0.61960160842E+03  0.50400001928E-02 0. -1.
       -1   -1    0    0    0  501  0.00000000000E+00  0.00000000000E+00 -0.33323523822E+03  0.33323523826E+03  0.50400001928E-02 0.  1.
    10030    2    1    2    0    0  0.00000000000E+00  0.00000000000E+00  0.28636637017E+03  0.95283684667E+03  0.90878620061E+03 0.  0.
        4    1    3    3  502    0 -0.36856723856E+03 -0.12079718614E+03  0.39138045383E+03  0.55101183477E+03  0.12699999809E+01 0. -1.
       -4    1    3    3    0  502  0.36856723856E+03  0.12079718614E+03 -0.10501408366E+03  0.40182501190E+03  0.12699999809E+01 0.  1.
</event>
<event>
 5   0  0.2679861E-02  0.7462683E+03  0.7818609E-02  0.9641223E-01
       -2   -1    0    0    0  501  0.00000000000E+00  0.00000000000E+00  0.93450216024E+02  0.93450216059E+02  0.25500000920E-02 0. -1.
        2   -1    0    0  501    0  0.00000000000E+00  0.00000000000E+00 -0.14898744750E+04  0.14898744750E+04  0.25500000920E-02 0.  1.
    10030    2    1    2    0    0  0.00000000000E+00  0.00000000000E+00 -0.13964242590E+04  0.15833246911E+04  0.74626829376E+03 0.  0.
        1    1    3    3  502    0  0.29519749312E+03  0.12432901453E+03 -0.29215005205E+03  0.43353306302E+03  0.50400001928E-02 0. -1.
       -1    1    3    3    0  502 -0.29519749312E+03 -0.12432901453E+03 -0.11042742069E+04  0.11497916280E+04  0.50400001928E-02 0.  1.
</event>
<event>
 5   0  0.2628383E-02  0.8679045E+03  0.7818609E-02  0.9466616E-01
        2   -1    0    0  501    0  0.00000000000E+00  0.00000000000E+00  0.85518348340E+03  0.85518348341E+03  0.25500000920E-02 0. -1.
       -2   -1    0    0    0  501  0.00000000000E+00  0.00000000000E+00 -0.22020369154E+03  0.22020369155E+03  0.25500000920E-02 0.  1.
    10030    2    1    2    0    0  0.00000000000E+00  0.00000000000E+00  0.63497979187E+03  0.10753871750E+04  0.86790451087E+03 0.  0.
        2    1    3    3  502    0 -0.40119751333E+02 -0.12429826906E+03 -0.19527043349E+03  0.23492593799E+03  0.25500000920E-02 0.  1.
       -2    1    3    3    0  502  0.40119751333E+02  0.12429826906E+03  0.83025022536E+03  0.84046123697E+03  0.25500000920E-02 0. -1.
</event>
<event>
 5   0  0.1560728E-02  0.9112409E+03  0.7818609E-02  0.9411638E-01
        1   -1    0    0  501    0  0.00000000000E+00  0.00000000000E+00  0.42186106900E+03  0.42186106903E+03  0.50400001928E-02 0.  1.
       -1   -1    0    0    0  501  0.00000000000E+00  0.00000000000E+00 -0.49208141788E+03  0.49208141790E+03  0.50400001928E-02 0. -1.
    10030    2    1    2    0    0  0.00000000000E+00  0.00000000000E+00 -0.70220348875E+02  0.91394248694E+03  0.91124089682E+03 0.  0.
        4    1    3    3  502    0 -0.36838320429E+03  0.22688471636E+03  0.10816122458E+03  0.44596336522E+03  0.12699999809E+01 0.  1.
       -4    1    3    3    0  502  0.36838320429E+03 -0.22688471636E+03 -0.17838157345E+03  0.46797912172E+03  0.12699999809E+01 0. -1.
</event>
<event>
 5   0  0.1459111E-02  0.1087907E+04  0.7818609E-02  0.9217059E-01
        1   -1    0    0  501    0  0.00000000000E+00  0.00000000000E+00  0.38714170434E+03  0.38714170438E+03  0.50400001928E-02 0. -1.
       -1   -1    0    0    0  501  0.00000000000E+00  0.00000000000E+00 -0.76428194296E+03  0.76428194298E+03  0.50400001928E-02 0.  1.
    10030    2    1    2    0    0  0.00000000000E+00  0.00000000000E+00 -0.37714023862E+03  0.11514236474E+04  0.10879070071E+04 0.  0.
        2    1    3    3  502    0  0.36266145927E+03  0.40451047437E+03 -0.15990849313E+03  0.56632392152E+03  0.25500000920E-02 0.  1.
       -2    1    3    3    0  502 -0.36266145927E+03 -0.40451047437E+03 -0.21723174550E+03  0.58509972583E+03  0.25500000920E-02 0. -1.
</event>
<event>
 5   0  0.2705111E-02  0.9876046E+03  0.7818609E-02  0.9322245E-01
        2   -1    0    0  501    0  0.00000000000E+00  0.00000000000E+00  0.77609353048E+03  0.77609353048E+03  0.25500000920E-02 0.  1.
       -2   -1    0    0    0  501  0.00000000000E+00  0.00000000000E+00 -0.31418984035E+03  0.31418984036E+03  0.25500000920E-02 0. -1.
    10030    2    1    2    0    0  0.00000000000E+00  0.00000000000E+00  0.46190369013E+03  0.10902833708E+04  0.98760458170E+03 0.  0.
        4    1    3    3  502    0  0.48782725022E+03 -0.62307439522E+02  0.18181045192E+03  0.52432270254E+03  0.12699999809E+01 0. -1.
       -4    1    3    3    0  502 -0.48782725022E+03  0.62307439522E+02  0.28009323821E+03  0.56596066830E+03  0.12699999809E+01 0.  1.
</event>
<event>
 5   0  0.2705111E-02  0.8943687E+03  0.7818609E-02  0.9432648E-01
       -2   -1    0    0    0  501  0.00000000000E+00  0.00000000000E+00  0.36887293457E+03  0.36887293458E+03  0.25500000920E-02 0. -1.
        2   -1    0    0  501    0  0.00000000000E+00  0.00000000000E+00 -0.54212115715E+03  0.54212115716E+03  0.25500000920E-02 0.  1.
    10030    2    1    2    0    0  0.00000000000E+00  0.00000000000E+00 -0.17324822258E+03  0.91099409174E+03  0.89436865360E+03 0.  0.
        4    1    3    3  502    0 -0.60515696094E+02  0.25563143200E+03  0.28199061904E+03  0.38539577142E+03  0.12699999809E+01 0. -1.
       -4    1    3    3    0  502  0.60515696094E+02 -0.25563143200E+03 -0.45523884162E+03  0.52559832032E+03  0.12699999809E+01 0.  1.
</event>
<event>
 5   0  0.1560728E-02  0.8116447E+03  0.7818609E-02  0.9543313E-01
       -1   -1    0    0    0  501  0.00000000000E+00  0.00000000000E+00  0.28036914877E+03  0.28036914882E+03  0.50400001928E-02 0. -1.
        1   -1    0    0  501    0  0.00000000000E+00  0.00000000000E+00 -0.58741055344E+03  0.58741055347E+03  0.50400001928E-02 0.  1.
    10030    2    1    2    0    0  0.00000000000E+00  0.00000000000E+00 -0.30704140467E+03  0.86777970228E+03  0.81164474218E+03 0.  0.
        4    1    3    3  502    0  0.18958896125E+03  0.48127941672E+02 -0.53368245746E+03  0.56840025625E+03  0.12699999809E+01 0.  1.
       -4    1    3    3    0  502 -0.18958896125E+03 -0.48127941672E+02  0.22664105279E+03  0.29937944604E+03  0.12699999809E+01 0. -1.
</event>
<event>
 5   0  0.1459111E-02  0.9060157E+03  0.7818609E-02  0.9418093E-01
        1   -1    0    0  501    0  0.00000000000E+00  0.00000000000E+00  0.37893531180E+03  0.37893531184E+03  0.50400001928E-02 0.  1.
       -1   -1    0    0    0  501  0.00000000000E+00  0.00000000000E+00 -0.54155979353E+03  0.54155979355E+03  0.50400001928E-02 0. -1.
    10030    2    1    2    0    0  0.00000000000E+00  0.00000000000E+00 -0.16262448173E+03  0.92049510539E+03  0.90601573771E+03 0.  0.
        2    1    3    3  502    0 -0.13931374380E+02  0.97903777222E+02  0.36783529430E+03  0.38089635930E+03  0.25500000920E-02 0.  1.
       -2    1    3    3    0  502  0.13931374380E+02 -0.97903777222E+02 -0.53045977603E+03  0.53959874609E+03  0.25500000920E-02 0. -1.
</event>
<event>
 5   0  0.2803717E-02  0.9128398E+03  0.7818609E-02  0.9409672E-01
        2   -1    0    0  501    0  0.00000000000E+00  0.00000000000E+00  0.12536452378E+04  0.12536452378E+04  0.25500000920E-02 0.  1.
       -2   -1    0    0    0  501  0.00000000000E+00  0.00000000000E+00 -0.16617071669E+03  0.16617071671E+03  0.25500000920E-02 0. -1.
    10030    2    1    2    0    0  0.00000000000E+00  0.00000000000E+00  0.10874745211E+04  0.14198159545E+04  0.91283980555E+03 0.  0.
        5    1    3    3  502    0  0.47602779957E+02  0.10662791852E+03 -0.14250508773E+03  0.18429684667E+03  0.46999998093E+01 0. -1.
       -5    1    3    3    0  502 -0.47602779957E+02 -0.10662791852E+03  0.12299796088E+04  0.12355191078E+04  0.46999998093E+01 0.  1.
</event>
<event>
 5   0  0.2803717E-02  0.8803275E+03  0.7818609E-02  0.9450513E-01
        2   -1    0    0  501    0  0.00000000000E+00  0.00000000000E+00  0.15361274617E+04  0.15361274617E+04  0.25500000920E-02 0.  1.
       -2   -1    0    0    0  501  0.00000000000E+00  0.00000000000E+00 -0.12612504332E+03  0.12612504335E+03  0.25500000920E-02 0. -1.
    10030    2    1    2    0    0  0.00000000000E+00  0.00000000000E+00  0.14100024184E+04  0.16622525050E+04  0.88032753604E+03 0.  0.
        5    1    3    3  502    0  0.42581020939E+03  0.77449066456E+02  0.55383314394E+03  0.70289823847E+03  0.46999998093E+01 0. -1.
       -5    1    3    3    0  502 -0.42581020939E+03 -0.77449066456E+02  0.85616927443E+03  0.95935426657E+03  0.46999998093E+01 0.  1.
</event>
<event>
 5   0  0.1497410E-02  0.9237288E+03  0.7818609E-02  0.9396396E-01
       -1   -1    0    0    0  501  0.00000000000E+00  0.00000000000E+00  0.33892792719E+03  0.33892792723E+03  0.50400001928E-02 0. -1.
        1   -1    0    0  501    0  0.00000000000E+00  0.00000000000E+00 -0.62939252542E+03  0.62939252544E+03  0.50400001928E-02 0.  1.
    10030    2    1    2    0    0  0.00000000000E+00  0.00000000000E+00 -0.29046459823E+03  0.96832045267E+03  0.92372875685E+03 0.  0.
        3    1    3    3  502    0 -0.33498409275E+03  0.24111546230E+03 -0.36252524128E+03  0.54934103189E+03  0.10100000352E+00 0.  1.
       -3    1    3    3    0  502  0.33498409275E+03 -0.24111546230E+03  0.72060643057E+02  0.41897942077E+03  0.10100000352E+00 0. -1.
</event>
<event>
 5   0  0.2628383E-02  0.9003122E+03  0.7818609E-02  0.9425191E-01
       -2   -1    0    0    0  501  0.00000000000E+00  0.00000000000E+00  0.27357264787E+03  0.27357264788E+03  0.25500000920E-02 0.  1.
        2   -1    0    0  501    0  0.00000000000E+00  0.00000000000E+00 -0.74071922597E+03  0.74071922598E+03  0.25500000920E-02 0. -1.
    10030    2    1    2    0    0  0.00000000000E+00  0.00000000000E+00 -0.46714657810E+03  0.10142918739E+04  0.90031221248E+03 0.  0.
        2    1    3    3  502    0  0.21871511024E+01  0.40401886977E+03 -0.99368049014E+01  0.40414696691E+03  0.25500000920E-02 0.  1.
       -2    1    3    3    0  502 -0.21871511024E+01 -0.40401886977E+03 -0.45720977320E+03  0.61014490695E+03  0.25500000920E-02 0. -1.
</event>
<event>
 5   0  0.1560728E-02  0.9014113E+03  0.7818609E-02  0.9423819E-01
        1   -1    0    0  501    0  0.00000000000E+00  0.00000000000E+00  0.96473155911E+03  0.96473155912E+03  0.50400001928E-02 0.  1.
       -1   -1    0    0    0  501  0.00000000000E+00  0.00000000000E+00 -0.21056177771E+03  0.21056177777E+03  0.50400001928E-02 0. -1.
    10030    2    1    2    0    0  0.00000000000E+00  0.00000000000E+00  0.75416978140E+03  0.11752933369E+04  0.90141132042E+03 0.  0.
        4    1    3    3  502    0 -0.28844947662E+03  0.20107847231E+03  0.94622419757E+01  0.35174820470E+03  0.12699999809E+01 0. -1.
       -4    1    3    3    0  502  0.28844947662E+03 -0.20107847231E+03  0.74470753942E+03  0.82354513219E+03  0.12699999809E+01 0.  1.
</event>
<event>
 5   0  0.2414128E-02  0.9004402E+03  0.7818609E-02  0.9425031E-01
        2   -1    0    0  501    0  0.00000000000E+00  0.00000000000E+00  0.15305230385E+04  0.15305230385E+04  0.25500000920E-02 0.  1.
       -2   -1    0    0    0  501  0.00000000000E+00  0.00000000000E+00 -0.13243715459E+03  0.13243715462E+03  0.25500000920E-02 0. -1.
    10030    2    1    2    0    0  0.00000000000E+00  0.00000000000E+00  0.13980858839E+04  0.16629601931E+04  0.90044015076E+03 0.  0.
        3    1    3    3  502    0  0.36612394695E+03  0.97691662498E+02  0.11480457261E+04  0.12089662546E+04  0.10100000352E+00 0.  1.
       -3    1    3    3    0  502 -0.36612394695E+03 -0.97691662498E+02  0.25004015779E+03  0.45399393846E+03  0.10100000352E+00 0. -1.
</event>
<event>
 5   0  0.2803717E-02  0.9093599E+03  0.7818609E-02  0.9413956E-01
        2   -1    0    0  501    0  0.00000000000E+00  0.00000000000E+00  0.81292483509E+03  0.81292483509E+03  0.25500000920E-02 0.  1.
       -2   -1    0    0    0  501  0.00000000000E+00  0.00000000000E+00 -0.25430867678E+03  0.25430867680E+03  0.25500000920E-02 0. -1.
    10030    2    1    2    0    0  0.00000000000E+00  0.00000000000E+00  0.55861615830E+03  0.10672335119E+04  0.90935986088E+03 0.  0.
        5    1    3    3  502    0 -0.24752328139E+03 -0.25350336330E+03  0.61369420373E+03  0.70864264318E+03  0.46999998093E+01 0.  1.
       -5    1    3    3    0  502  0.24752328139E+03  0.25350336330E+03 -0.55078045432E+02  0.35859086871E+03  0.46999998093E+01 0. -1.
</event>
<event>
 5   0  0.2628383E-02  0.9037574E+03  0.7818609E-02  0.9420897E-01
       -2   -1    0    0    0  501  0.00000000000E+00  0.00000000000E+00  0.14446105418E+03  0.14446105421E+03  0.25500000920E-02 0.  1.
        2   -1    0    0  501    0  0.00000000000E+00  0.00000000000E+00 -0.14134907084E+04  0.14134907084E+04  0.25500000920E-02 0. -1.
    10030    2    1    2    0    0  0.00000000000E+00  0.00000000000E+00 -0.12690296542E+04  0.15579517626E+04  0.90375739627E+03 0.  0.
        2    1    3    3  502    0 -0.35640997932E+03  0.27770975579E+03 -0.62313525785E+03  0.76970665282E+03  0.25500000920E-02 0.  1.
       -2    1    3    3    0  502  0.35640997932E+03 -0.27770975579E+03 -0.64589439632E+03  0.78824510974E+03  0.25500000920E-02 0. -1.
</event>
<event>
 5   0  0.1559275E-02  0.8984109E+03  0.7818609E-02  0.9427570E-01
       -1   -1    0    0    0  501  0.00000000000E+00  0.00000000000E+00  0.10986424279E+04  0.10986424279E+04  0.50400001928E-02 0.  1.
        1   -1    0    0  501    0  0.00000000000E+00  0.00000000000E+00 -0.18366808272E+03  0.18366808279E+03  0.50400001928E-02 0. -1.
    10030    2    1    2    0    0  0.00000000000E+00  0.00000000000E+00  0.91497434513E+03  0.12823105107E+04  0.89841092686E+03 0.  0.
        1    1    3    3  502    0  0.21016303984E+03 -0.19630514575E+03 -0.35051146278E+02  0.28971157458E+03  0.50400001928E-02 0. -1.
       -1    1    3    3    0  502 -0.21016303984E+03  0.19630514575E+03  0.95002549141E+03  0.99259893609E+03  0.50400001928E-02 0.  1.
</event>
<event>
 5   0  0.2628383E-02  0.8918997E+03  0.7818609E-02  0.9435764E-01
        2   -1    0    0  501    0  0.00000000000E+00  0.00000000000E+00  0.64406342614E+03  0.64406342615E+03  0.25500000920E-02 0. -1.
       -2   -1    0    0    0  501  0.00000000000E+00  0.00000000000E+00 -0.30877589218E+03  0.30877589219E+03  0.25500000920E-02 0.  1.
    10030    2    1    2    0    0  0.00000000000E+00  0.00000000000E+00  0.33528753397E+03  0.95283931834E+03  0.89189967829E+03 0.  0.
        2    1    3    3  502    0 -0.18426630438E+03  0.38283033075E+03  0.31239352123E+03  0.52735457255E+03  0.25500000920E-02 0. -1.
       -2    1    3    3    0  502  0.18426630438E+03 -0.38283033075E+03  0.22894012742E+02  0.42548474579E+03  0.25500000920E-02 0.  1.
</event>
<event>
 5   0  0.1497410E-02  0.9260819E+03  0.7818609E-02  0.9393553E-01
       -1   -1    0    0    0  501  0.00000000000E+00  0.00000000000E+00  0.19375143490E+03  0.19375143497E+03  0.50400001928E-02 0.  1.
        1   -1    0    0  501    0  0.00000000000E+00  0.00000000000E+00 -0.11066080811E+04  0.11066080811E+04  0.50400001928E-02 0. -1.
    10030    2    1    2    0    0  0.00000000000E+00  0.00000000000E+00 -0.91285664617E+03  0.13003595161E+04  0.92608186167E+03 0.  0.
        3    1    3    3  502    0 -0.34686883209E+03 -0.30666542453E+03 -0.44698555565E+03  0.64355090431E+03  0.10100000352E+00 0. -1.
       -3    1    3    3    0  502  0.34686883209E+03  0.30666542453E+03 -0.46587109052E+03  0.65680861174E+03  0.10100000352E+00 0.  1.
</event>
<event>
 5   0  0.1560728E-02  0.9043004E+03  0.7818609E-02  0.9420222E-01
       -1   -1    0    0    0  501  0.00000000000E+00  0.00000000000E+00  0.30142449407E+03  0.30142449411E+03  0.50400001928E-02 0. -1.
        1   -1    0    0  501    0  0.00000000000E+00  0.00000000000E+00 -0.67824544662E+03  0.67824544663E+03  0.50400001928E-02 0.  1.
    10030    2    1    2    0    0  0.00000000000E+00  0.00000000000E+00 -0.37682095255E+03  0.97966994074E+03  0.90430037184E+03 0.  0.
        4    1    3    3  502    0 -0.53293881781E+02 -0.37513980286E+03  0.78866674290E+02  0.38702929442E+03  0.12699999809E+01 0. -1.
       -4    1    3    3    0  502  0.53293881781E+02  0.37513980286E+03 -0.45568762684E+03  0.59264064633E+03  0.12699999809E+01 0.  1.
</event>
<event>
 5   0  0.2414128E-02  0.9083198E+03  0.7818609E-02  0.9415241E-01
       -2   -1    0    0    0  501  0.00000000000E+00  0.00000000000E+00  0.20490953125E+03  0.20490953126E+03  0.25500000920E-02 0.  1.
        2   -1    0    0  501    0  0.00000000000E+00  0.00000000000E+00 -0.10065963945E+04  0.10065963945E+04  0.25500000920E-02 0. -1.
    10030    2    1    2    0    0  0.00000000000E+00  0.00000000000E+00 -0.80168686324E+03  0.12115059258E+04  0.90831975727E+03 0.  0.
        3    1    3    3  502    0 -0.43563660503E+03  0.11081361714E+03 -0.48730618405E+03  0.66296774929E+03  0.10100000352E+00 0. -1.
       -3    1    3    3    0  502  0.43563660503E+03 -0.11081361714E+03 -0.31438067919E+03  0.54853817646E+03  0.10100000352E+00 0.  1.
</event>
<event>
 5   0  0.1559275E-02  0.8992977E+03  0.7818609E-02  0.9426460E-01
       -1   -1    0    0    0  501  0.00000000000E+00  0.00000000000E+00  0.19190742318E+03  0.19190742325E+03  0.50400001928E-02 0. -1.
        1   -1    0    0  501    0  0.00000000000E+00  0.00000000000E+00 -0.10535500238E+04  0.10535500238E+04  0.50400001928E-02 0.  1.
    10030    2    1    2    0    0  0.00000000000E+00  0.00000000000E+00 -0.86164260065E+03  0.12454574471E+04  0.89929765999E+03 0.  0.
        1    1    3    3  502    0  0.25244385076E+03  0.30954253333E+03 -0.14484374219E+03  0.42488138039E+03  0.50400001928E-02 0. -1.
       -1    1    3    3    0  502 -0.25244385076E+03 -0.30954253333E+03 -0.71679885846E+03  0.82057606670E+03  0.50400001928E-02 0.  1.
</event>
<event>
 5   0  0.1459111E-02  0.8654044E+03  0.7818609E-02  0.9469892E-01
       -1   -1    0    0    0  501  0.00000000000E+00  0.00000000000E+00  0.22024881193E+03  0.22024881199E+03  0.50400001928E-02 0.  1.
        1   -1    0    0  501    0  0.00000000000E+00  0.00000000000E+00 -0.85008948622E+03  0.85008948624E+03  0.50400001928E-02 0. -1.
    10030    2    1    2    0    0  0.00000000000E+00  0.00000000000E+00 -0.62984067429E+03  0.10703382982E+04  0.86540441278E+03 0.  0.
        2    1    3    3  502    0 -0.35303264831E+03 -0.57172397808E+02 -0.13660776686E+02  0.35789293185E+03  0.25500000920E-02 0. -1.
       -2    1    3    3    0  502  0.35303264831E+03  0.57172397808E+02 -0.61617989761E+03  0.71244536637E+03  0.25500000920E-02 0.  1.
</event>
<event>
 5   0  0.1459111E-02  0.6578873E+03  0.7818609E-02  0.9792091E-01
       -1   -1    0    0    0  501  0.00000000000E+00  0.00000000000E+00  0.15175656896E+03  0.15175656904E+03  0.50400001928E-02 0. -1.
        1   -1    0    0  501    0  0.00000000000E+00  0.00000000000E+00 -0.71300988295E+03  0.71300988297E+03  0.50400001928E-02 0.  1.
    10030    2    1    2    0    0  0.00000000000E+00  0.00000000000E+00 -0.56125331399E+03  0.86476645201E+03  0.65788732627E+03 0.  0.
        2    1    3    3  502    0  0.56686042617E+01  0.23815669405E+03 -0.57878946078E+03  0.62589774237E+03  0.25500000920E-02 0.  1.
       -2    1    3    3    0  502 -0.56686042617E+01 -0.23815669405E+03  0.17536146783E+02  0.23886870964E+03  0.25500000920E-02 0. -1.
</event>
<event>
 5   0  0.2705111E-02  0.8905031E+03  0.7818609E-02  0.9437531E-01
        2   -1    0    0  501    0  0.00000000000E+00  0.00000000000E+00  0.10705490890E+04  0.10705490890E+04  0.25500000920E-02 0.  1.
       -2   -1    0    0    0  501  0.00000000000E+00  0.00000000000E+00 -0.18518437180E+03  0.18518437182E+03  0.25500000920E-02 0. -1.
    10030    2    1    2    0    0  0.00000000000E+00  0.00000000000E+00  0.88536471715E+03  0.12557334608E+04  0.89050313988E+03 0.  0.
        4    1    3    3  502    0 -0.33724819152E+03  0.28293848208E+03  0.53682244094E+03  0.69424093319E+03  0.12699999809E+01 0.  1.
       -4    1    3    3    0  502  0.33724819152E+03 -0.28293848208E+03  0.34854227621E+03  0.56149252758E+03  0.12699999809E+01 0. -1.
</event>
<event>
 5   0  0.1560728E-02  0.9185017E+03  0.7818609E-02  0.9402744E-01
        1   -1    0    0  501    0  0.00000000000E+00  0.00000000000E+00  0.70264677868E+03  0.70264677870E+03  0.50400001928E-02 0.  1.
       -1   -1    0    0    0  501  0.00000000000E+00  0.00000000000E+00 -0.30016693787E+03  0.30016693791E+03  0.50400001928E-02 0. -1.
    10030    2    1    2    0    0  0.00000000000E+00  0.00000000000E+00  0.40247984082E+03  0.10028137166E+04  0.91850167553E+03 0.  0.
        4    1    3    3  502    0  0.46985378996E+02  0.26647977979E+02 -0.29668470562E+03  0.30156453375E+03  0.12699999809E+01 0. -1.
       -4    1    3    3    0  502 -0.46985378996E+02 -0.26647977979E+02  0.69916454643E+03  0.70124918286E+03  0.12699999809E+01 0.  1.
</event>
<event>
 5   0  0.1560728E-02  0.8918669E+03  0.7818609E-02  0.9435806E-01
        1   -1    0    0  501    0  0.00000000000E+00  0.00000000000E+00  0.65960469160E+03  0.65960469162E+03  0.50400001928E-02 0. -1.
       -1   -1    0    0    0  501  0.00000000000E+00  0.00000000000E+00 -0.30147854405E+03  0.30147854409E+03  0.50400001928E-02 0.  1.
    10030    2    1    2    0    0  0.00000000000E+00  0.00000000000E+00  0.35812614755E+03  0.96108323571E+03  0.89186694546E+03 0.  0.
        4    1    3    3  502    0 -0.43120839349E+03 -0.11296057586E+03  0.19244794432E+03  0.48552919015E+03  0.12699999809E+01 0.  1.
       -4    1    3    3    0  502  0.43120839349E+03  0.11296057586E+03  0.16567820324E+03  0.47555404556E+03  0.12699999809E+01 0. -1.
</event>
<event>
 5   0  0.2803717E-02  0.9048863E+03  0.7818609E-02  0.9419494E-01
        2   -1    0    0  501    0  0.00000000000E+00  0.00000000000E+00  0.14898514822E+04  0.14898514822E+04  0.25500000920E-02 0. -1.
       -2   -1    0    0    0  501  0.00000000000E+00  0.00000000000E+00 -0.13739945694E+03  0.13739945696E+03  0.25500000920E-02 0.  1.
    10030    2    1    2    0    0  0.00000000000E+00  0.00000000000E+00  0.13524520253E+04  0.16272509392E+04  0.90488625715E+03 0.  0.
        5    1    3    3  502    0 -0.54655951012E+02  0.30710479713E+03  0.86939617729E+02  0.32385369618E+03  0.46999998093E+01 0. -1.
       -5    1    3    3    0  502  0.54655951012E+02 -0.30710479713E+03  0.12655124076E+04  0.13033972430E+04  0.46999998093E+01 0.  1.
</event>
<event>
 5   0  0.2679861E-02  0.9065868E+03  0.7818609E-02  0.9417385E-01
        2   -1    0    0  501    0  0.00000000000E+00  0.00000000000E+00  0.75017365484E+03  0.75017365484E+03  0.25500000920E-02 0. -1.
       -2   -1    0    0    0  501  0.00000000000E+00  0.00000000000E+00 -0.27390311584E+03  0.27390311585E+03  0.25500000920E-02 0.  1.
    10030    2    1    2    0    0  0.00000000000E+00  0.00000000000E+00  0.47627053900E+03  0.10240767707E+04  0.90658678899E+03 0.  0.
        1    1    3    3  502    0  0.25889887488E+03  0.82064975108E+02 -0.17181876484E+03  0.32137979951E+03  0.50400001928E-02 0.  1.
       -1    1    3    3    0  502 -0.25889887488E+03 -0.82064975108E+02  0.64808930383E+03  0.70269697119E+03  0.50400001928E-02 0. -1.
</event>
<event>
 5   0  0.2679861E-02  0.9020056E+03  0.7818609E-02  0.9423078E-01
       -2   -1    0    0    0  501  0.00000000000E+00  0.00000000000E+00  0.19518768931E+03  0.19518768933E+03  0.25500000920E-02 0. -1.
        2   -1    0    0  501    0  0.00000000000E+00  0.00000000000E+00 -0.10420920090E+04  0.10420920090E+04  0.25500000920E-02 0.  1.
    10030    2    1    2    0    0  0.00000000000E+00  0.00000000000E+00 -0.84690431973E+03  0.12372796984E+04  0.90200561263E+03 0.  0.
        1    1    3    3  502    0  0.37981398012E+03  0.21831640911E+03 -0.27646382351E+03  0.51802795264E+03  0.50400001928E-02 0.  1.
       -1    1    3    3    0  502 -0.37981398012E+03 -0.21831640911E+03 -0.57044049622E+03  0.71925174573E+03  0.50400001928E-02 0. -1.
</event>
<event>
 5   0  0.1040163E-02  0.9031656E+03  0.7818609E-02  0.9421633E-01
       -3   -1    0    0    0  501  0.00000000000E+00  0.00000000000E+00  0.45724092932E+03  0.45724094047E+03  0.10100000352E+00 0.  1.
        3   -1    0    0  501    0  0.00000000000E+00  0.00000000000E+00 -0.44599464059E+03  0.44599465203E+03  0.10100000352E+00 0. -1.
    10030    2    1    2    0    0  0.00000000000E+00  0.00000000000E+00  0.11246288724E+02  0.90323559250E+03  0.90316557538E+03 0.  0.
        1    1    3    3  502    0 -0.13901953094E+03 -0.19792190465E+03 -0.37575600156E+03  0.44686920128E+03  0.50400001928E-02 0. -1.
       -1    1    3    3    0  502  0.13901953094E+03  0.19792190465E+03  0.38700229028E+03  0.45636639122E+03  0.50400001928E-02 0.  1.
</event>
<event>
 5   0  0.1497410E-02  0.8884198E+03  0.7818609E-02  0.9440174E-01
        1   -1    0    0  501    0  0.00000000000E+00  0.00000000000E+00  0.96810553608E+03  0.96810553609E+03  0.50400001928E-02 0. -1.
       -1   -1    0    0    0  501  0.00000000000E+00  0.00000000000E+00 -0.20382326394E+03  0.20382326400E+03  0.50400001928E-02 0.  1.
    10030    2    1    2    0    0  0.00000000000E+00  0.00000000000E+00  0.76428227214E+03  0.11719288001E+04  0.88841978872E+03 0.  0.
        3    1    3    3  502    0 -0.34695950142E+03  0.30561173493E+02  0.74581437080E+03  0.82313666353E+03  0.10100000352E+00 0. -1.
       -3    1    3    3    0  502  0.34695950142E+03 -0.30561173493E+02  0.18467901338E+02  0.34879213657E+03  0.10100000352E+00 0.  1.
</event>
<event>
 5   0  0.2803717E-02  0.9064799E+03  0.7818609E-02  0.9417517E-01
       -2   -1    0    0    0  501  0.00000000000E+00  0.00000000000E+00  0.25511809738E+03  0.25511809739E+03  0.25500000920E-02 0.  1.
        2   -1    0    0  501    0  0.00000000000E+00  0.00000000000E+00 -0.80522096228E+03  0.80522096228E+03  0.25500000920E-02 0. -1.
    10030    2    1    2    0    0  0.00000000000E+00  0.00000000000E+00 -0.55010286490E+03  0.10603390597E+04  0.90647987263E+03 0.  0.
        5    1    3    3  502    0  0.38599833977E+03  0.18562721547E+03 -0.10174075992E+03  0.44025612279E+03  0.46999998093E+01 0.  1.
       -5    1    3    3    0  502 -0.38599833977E+03 -0.18562721547E+03 -0.44836210499E+03  0.62008293688E+03  0.46999998093E+01 0. -1.
</event>
<event>
 5   0  0.2628383E-02  0.9000050E+03  0.7818609E-02  0.9425575E-01
       -2   -1    0    0    0  501  0.00000000000E+00  0.00000000000E+00  0.10660956014E+04  0.10660956014E+04  0.25500000920E-02 0. -1.
        2   -1    0    0  501    0  0.00000000000E+00  0.00000000000E+00 -0.18994756745E+03  0.18994756747E+03  0.25500000920E-02 0.  1.
    10030    2    1    2    0    0  0.00000000000E+00  0.00000000000E+00  0.87614803390E+03  0.12560431688E+04  0.90000503590E+03 0.  0.
        2    1    3    3  502    0  0.66615501001E+02  0.19688656737E+03 -0.11894234383E+03  0.23947698542E+03  0.25500000920E-02 0.  1.
       -2    1    3    3    0  502 -0.66615501001E+02 -0.19688656737E+03  0.99509037773E+03  0.10165661834E+04  0.25500000920E-02 0. -1.
</event>
<event>
 5   0  0.1537870E-02  0.9118479E+03  0.7818609E-02  0.9410891E-01
        1   -1    0    0  501    0  0.00000000000E+00  0.00000000000E+00  0.23221952414E+03  0.23221952419E+03  0.50400001928E-02 0. -1.
       -1   -1    0    0    0  501  0.00000000000E+00  0.00000000000E+00 -0.89513000870E+03  0.89513000871E+03  0.50400001928E-02 0.  1.
    10030    2    1    2    0    0  0.00000000000E+00  0.00000000000E+00 -0.66291048456E+03  0.11273495329E+04  0.91184793622E+03 0.  0.
        5    1    3    3  502    0 -0.86614994063E+02 -0.34040063601E+03 -0.69077985459E+03  0.77496686878E+03  0.46999998093E+01 0.  1.
       -5    1    3    3    0  502  0.86614994063E+02  0.34040063601E+03  0.27869370034E+02  0.35238266413E+03  0.46999998093E+01 0. -1.
</event>
<event>
 5   0  0.2679861E-02  0.9857656E+03  0.7818609E-02  0.9324296E-01
        2   -1    0    0  501    0  0.00000000000E+00  0.00000000000E+00  0.15315639102E+04  0.15315639102E+04  0.25500000920E-02 0. -1.
       -2   -1    0    0    0  501  0.00000000000E+00  0.00000000000E+00 -0.15861790574E+03  0.15861790576E+03  0.25500000920E-02 0.  1.
    10030    2    1    2    0    0  0.00000000000E+00  0.00000000000E+00  0.13729460045E+04  0.16901818160E+04  0.98576561101E+03 0.  0.
        1    1    3    3  502    0  0.75691319542E+02  0.48366520208E+03  0.78455367204E+03  0.92476249269E+03  0.50400001928E-02 0. -1.
       -1    1    3    3    0  502 -0.75691319542E+02 -0.48366520208E+03  0.58839233246E+03  0.76541932330E+03  0.50400001928E-02 0.  1.
</event>
<event>
 5   0  0.2705111E-02  0.8144565E+03  0.7818609E-02  0.9539325E-01
        2   -1    0    0  501    0  0.00000000000E+00  0.00000000000E+00  0.16075651871E+04  0.16075651871E+04  0.25500000920E-02 0. -1.
       -2   -1    0    0    0  501  0.00000000000E+00  0.00000000000E+00 -0.10315901439E+03  0.10315901442E+03  0.25500000920E-02 0.  1.
    10030    2    1    2    0    0  0.00000000000E+00  0.00000000000E+00  0.15044061727E+04  0.17107242015E+04  0.81445648206E+03 0.  0.
        4    1    3    3  502    0 -0.83174242492E+02 -0.20579966651E+03  0.14693203573E+04  0.14859930628E+04  0.12699999809E+01 0. -1.
       -4    1    3    3    0  502  0.83174242492E+02  0.20579966651E+03  0.35085815327E+02  0.22473113866E+03  0.12699999809E+01 0.  1.
</event>
<event>
 5   0  0.2679861E-02  0.9100482E+03  0.7818609E-02  0.9413107E-01
        2   -1    0    0  501    0  0.00000000000E+00  0.00000000000E+00  0.74148559231E+03  0.74148559232E+03  0.25500000920E-02 0. -1.
       -2   -1    0    0    0  501  0.00000000000E+00  0.00000000000E+00 -0.27923258796E+03  0.27923258797E+03  0.25500000920E-02 0.  1.
    10030    2    1    2    0    0  0.00000000000E+00  0.00000000000E+00  0.46225300435E+03  0.10207181803E+04  0.91004822045E+03 0.  0.
        1    1    3    3  502    0 -0.37381190833E+03 -0.14357801523E+03  0.47350032381E+03  0.62012300872E+03  0.50400001928E-02 0. -1.
       -1    1    3    3    0  502  0.37381190833E+03  0.14357801523E+03 -0.11247319458E+02  0.40059517157E+03  0.50400001928E-02 0.  1.
</event>
<event>
 5   0  0.2628383E-02  0.9001322E+03  0.7818609E-02  0.9425416E-01
        2   -1    0    0  501    0  0.00000000000E+00  0.00000000000E+00  0.10566245166E+04  0.10566245166E+04  0.25500000920E-02 0.  1.
       -2   -1    0    0    0  501  0.00000000000E+00  0.00000000000E+00 -0.19170432742E+03  0.19170432744E+03  0.25500000920E-02 0. -1.
    10030    2    1    2    0    0  0.00000000000E+00  0.00000000000E+00  0.86492018913E+03  0.12483288440E+04  0.90013219540E+03 0.  0.
        2    1    3    3  502    0  0.31011888166E+03 -0.39351734081E+02  0.88149535220E+03  0.93528409357E+03  0.25500000920E-02 0.  1.
       -2    1    3    3    0  502 -0.31011888166E+03  0.39351734081E+02 -0.16575163065E+02  0.31304475043E+03  0.25500000920E-02 0. -1.
</event>
<event>
 5   0  0.1459111E-02  0.8971144E+03  0.7818609E-02  0.9429196E-01
        1   -1    0    0  501    0  0.00000000000E+00  0.00000000000E+00  0.97320343698E+03  0.97320343699E+03  0.50400001928E-02 0. -1.
       -1   -1    0    0    0  501  0.00000000000E+00  0.00000000000E+00 -0.20674357248E+03  0.20674357254E+03  0.50400001928E-02 0.  1.
    10030    2    1    2    0    0  0.00000000000E+00  0.00000000000E+00  0.76645986451E+03  0.11799470095E+04  0.89711438591E+03 0.  0.
        2    1    3    3  502    0 -0.42094229810E+03  0.14470652455E+03  0.45611957422E+03  0.63732053362E+03  0.25500000920E-02 0. -1.
       -2    1    3    3    0  502  0.42094229810E+03 -0.14470652455E+03  0.31034029029E+03  0.54262647591E+03  0.25500000920E-02 0.  1.
</event>
<event>
 5   0  0.1459111E-02  0.8727761E+03  0.7818609E-02  0.9460267E-01
        1   -1    0    0  501    0  0.00000000000E+00  0.00000000000E+00  0.92691185687E+03  0.92691185689E+03  0.50400001928E-02 0. -1.
       -1   -1    0    0    0  501  0.00000000000E+00  0.00000000000E+00 -0.20545051062E+03  0.20545051068E+03  0.50400001928E-02 0.  1.
    10030    2    1    2    0    0  0.00000000000E+00  0.00000000000E+00  0.72146134625E+03  0.11323623676E+04  0.87277606370E+03 0.  0.
        2    1    3    3  502    0  0.49785567400E+02 -0.30274701884E+03  0.76335136613E+03  0.82270266094E+03  0.25500000920E-02 0. -1.
       -2    1    3    3    0  502 -0.49785567400E+02  0.30274701884E+03 -0.41890019882E+02  0.30965970663E+03  0.25500000920E-02 0.  1.
</event>
<event>
 5   0  0.2679861E-02  0.8996654E+03  0.7818609E-02  0.9426000E-01
        2   -1    0    0  501    0  0.00000000000E+00  0.00000000000E+00  0.11272961725E+04  0.11272961725E+04  0.25500000920E-02 0.  1.
       -2   -1    0    0    0  501  0.00000000000E+00  0.00000000000E+00 -0.17949981367E+03  0.17949981368E+03  0.25500000920E-02 0. -1.
    10030    2    1    2    0    0  0.00000000000E+00  0.00000000000E+00  0.94779635886E+03  0.13067959862E+04  0.89966538875E+03 0.  0.
        1    1    3    3  502    0 -0.22685861525E+03 -0.25903076909E+03  0.53445748793E+02  0.34845117123E+03  0.50400001928E-02 0. -1.
       -1    1    3    3    0  502  0.22685861525E+03  0.25903076909E+03  0.89435061006E+03  0.95834481498E+03  0.50400001928E-02 0.  1.
</event>
<event>
 5   0  0.1559275E-02  0.9082790E+03  0.7818609E-02  0.9415291E-01
       -1   -1    0    0    0  501  0.00000000000E+00  0.00000000000E+00  0.20939075749E+03  0.20939075755E+03  0.50400001928E-02 0.  1.
        1   -1    0    0  501    0  0.00000000000E+00  0.00000000000E+00 -0.98496558630E+03  0.98496558631E+03  0.50400001928E-02 0. -1.
    10030    2    1    2    0    0  0.00000000000E+00  0.00000000000E+00 -0.77557482880E+03  0.11943563439E+04  0.90827901058E+03 0.  0.
        1    1    3    3  502    0  0.21991556160E+03  0.95325934320E+02 -0.89501819938E+03  0.92655677929E+03  0.50400001928E-02 0. -1.
       -1    1    3    3    0  502 -0.21991556160E+03 -0.95325934320E+02  0.11944337058E+03  0.26779956458E+03  0.50400001928E-02 0.  1.
</event>
<event>
 5   0  0.1537870E-02  0.9039585E+03  0.7818609E-02  0.9420647E-01
       -1   -1    0    0    0  501  0.00000000000E+00  0.00000000000E+00  0.22220313743E+03  0.22220313749E+03  0.50400001928E-02 0.  1.
        1   -1    0    0  501    0  0.00000000000E+00  0.00000000000E+00 -0.91936256840E+03  0.91936256842E+03  0.50400001928E-02 0. -1.
    10030    2    1    2    0    0  0.00000000000E+00  0.00000000000E+00 -0.69715943097E+03  0.11415657059E+04  0.90395851050E+03 0.  0.
        5    1    3    3  502    0  0.92994387737E+02 -0.43902733008E+03 -0.28092332345E+03  0.52946478293E+03  0.46999998093E+01 0.  1.
       -5    1    3    3    0  502 -0.92994387737E+02  0.43902733008E+03 -0.41623610752E+03  0.61210092298E+03  0.46999998093E+01 0. -1.
</event>
<event>
 5   0  0.2679861E-02  0.8875591E+03  0.7818609E-02  0.9441268E-01
       -2   -1    0    0    0  501  0.00000000000E+00  0.00000000000E+00  0.15919746436E+03  0.15919746438E+03  0.25500000920E-02 0. -1.
        2   -1    0    0  501    0  0.00000000000E+00  0.00000000000E+00 -0.12370817452E+04  0.12370817452E+04  0.25500000920E-02 0.  1.
    10030    2    1    2    0    0  0.00000000000E+00  0.00000000000E+00 -0.10778842808E+04  0.13962792096E+04  0.88755907309E+03 0.  0.
        1    1    3    3  502    0 -0.63624558572E+02 -0.17644434271E+03 -0.11716598896E+04  0.11865781000E+04  0.50400001928E-02 0.  1.
       -1    1    3    3    0  502  0.63624558572E+02  0.17644434271E+03  0.93775608756E+02  0.20970110956E+03  0.50400001928E-02 0. -1.
</event>
<event>
 5   0  0.1560728E-02  0.8641799E+03  0.7818609E-02  0.9471500E-01
        1   -1    0    0  501    0  0.00000000000E+00  0.00000000000E+00  0.10187871824E+04  0.10187871824E+04  0.50400001928E-02 0.  1.
       -1   -1    0    0    0  501  0.00000000000E+00  0.00000000000E+00 -0.18325878945E+03  0.18325878952E+03  0.50400001928E-02 0. -1.
    10030    2    1    2    0    0  0.00000000000E+00  0.00000000000E+00  0.83552839294E+03  0.12020459719E+04  0.86417985583E+03 0.  0.
        4    1    3    3  502    0  0.22521669330E+03  0.28999453121E+03  0.73458951256E+03  0.82124463586E+03  0.12699999809E+01 0.  1.
       -4    1    3    3    0  502 -0.22521669330E+03 -0.28999453121E+03  0.10093888039E+03  0.38080133607E+03  0.12699999809E+01 0. -1.
</event>
<event>
 5   0  0.2628383E-02  0.7740218E+03  0.7818609E-02  0.9598400E-01
        2   -1    0    0  501    0  0.00000000000E+00  0.00000000000E+00  0.30123891243E+03  0.30123891244E+03  0.25500000920E-02 0.  1.
       -2   -1    0    0    0  501  0.00000000000E+00  0.00000000000E+00 -0.49720480702E+03  0.49720480703E+03  0.25500000920E-02 0. -1.
    10030    2    1    2    0    0  0.00000000000E+00  0.00000000000E+00 -0.19596589460E+03  0.79844371947E+03  0.77402179641E+03 0.  0.
        2    1    3    3  502    0  0.47697281722E+02 -0.16496292201E+03 -0.45575402510E+03  0.48703134162E+03  0.25500000920E-02 0. -1.
       -2    1    3    3    0  502 -0.47697281722E+02  0.16496292201E+03  0.25978813050E+03  0.31141237785E+03  0.25500000920E-02 0.  1.
</event>
<event>
 5   0  0.1560728E-02  0.9230087E+03  0.7818609E-02  0.9397268E-01
       -1   -1    0    0    0  501  0.00000000000E+00  0.00000000000E+00  0.31925391029E+03  0.31925391033E+03  0.50400001928E-02 0.  1.
        1   -1    0    0  501    0  0.00000000000E+00  0.00000000000E+00 -0.66713748417E+03  0.66713748419E+03  0.50400001928E-02 0. -1.
    10030    2    1    2    0    0  0.00000000000E+00  0.00000000000E+00 -0.34788357387E+03  0.98639139452E+03  0.92300866855E+03 0.  0.
        4    1    3    3  502    0  0.32010378248E+03 -0.26458589367E+03 -0.38904063062E+03  0.56905742405E+03  0.12699999809E+01 0. -1.
       -4    1    3    3    0  502 -0.32010378248E+03  0.26458589367E+03  0.41157056746E+02  0.41733397047E+03  0.12699999809E+01 0.  1.
</event>
<event>
 5   0  0.1559275E-02  0.9170426E+03  0.7818609E-02  0.9404525E-01
       -1   -1    0    0    0  501  0.00000000000E+00  0.00000000000E+00  0.28639793714E+03  0.28639793718E+03  0.50400001928E-02 0.  1.
        1   -1    0    0  501    0  0.00000000000E+00  0.00000000000E+00 -0.73408969345E+03  0.73408969347E+03  0.50400001928E-02 0. -1.
    10030    2    1    2    0    0  0.00000000000E+00  0.00000000000E+00 -0.44769175631E+03  0.10204876307E+04  0.91704258115E+03 0.  0.
        1    1    3    3  502    0  0.63140686453E+02 -0.24929872110E+03 -0.64627906755E+03  0.69556684209E+03  0.50400001928E-02 0. -1.
       -1    1    3    3    0  502 -0.63140686453E+02  0.24929872110E+03  0.19858731125E+03  0.32492078856E+03  0.50400001928E-02 0.  1.
</event>
<event>
 5   0  0.2803717E-02  0.8902330E+03  0.7818609E-02  0.9437874E-01
        2   -1    0    0  501    0  0.00000000000E+00  0.00000000000E+00  0.61657870406E+03  0.61657870406E+03  0.25500000920E-02 0. -1.
       -2   -1    0    0    0  501  0.00000000000E+00  0.00000000000E+00 -0.32133562620E+03  0.32133562621E+03  0.25500000920E-02 0.  1.
    10030    2    1    2    0    0  0.00000000000E+00  0.00000000000E+00  0.29524307785E+03  0.93791433027E+03  0.89023301215E+03 0.  0.
        5    1    3    3  502    0  0.19689672051E+03 -0.22825700140E+03 -0.19738861650E+03  0.36035251236E+03  0.46999998093E+01 0.  1.
       -5    1    3    3    0  502 -0.19689672051E+03  0.22825700140E+03  0.49263169435E+03  0.57756181792E+03  0.46999998093E+01 0. -1.
</event>
<event>
 5   0  0.1497410E-02  0.9433898E+03  0.7818609E-02  0.9372910E-01
       -1   -1    0    0    0  501  0.00000000000E+00  0.00000000000E+00  0.14965648021E+03  0.14965648029E+03  0.50400001928E-02 0.  1.
        1   -1    0    0  501    0  0.00000000000E+00  0.00000000000E+00 -0.14867120450E+04  0.14867120451E+04  0.50400001928E-02 0. -1.
    10030    2    1    2    0    0  0.00000000000E+00  0.00000000000E+00 -0.13370555648E+04  0.16363685253E+04  0.94338982784E+03 0.  0.
        3    1    3    3  502    0 -0.18650212824E+03  0.85302007657E+02  0.68276688023E+02  0.21615085629E+03  0.10100000352E+00 0.  1.
       -3    1    3    3    0  502  0.18650212824E+03 -0.85302007657E+02 -0.14053322529E+04  0.14202176690E+04  0.10100000352E+00 0. -1.
</event>
<event>
 5   0  0.1040163E-02  0.8826558E+03  0.7818609E-02  0.9447526E-01
       -3   -1    0    0    0  501  0.00000000000E+00  0.00000000000E+00  0.14379956977E+04  0.14379957013E+04  0.10100000352E+00 0.  1.
        3   -1    0    0  501    0  0.00000000000E+00  0.00000000000E+00 -0.13544566244E+03  0.13544570010E+03  0.10100000352E+00 0. -1.
    10030    2    1    2    0    0  0.00000000000E+00  0.00000000000E+00  0.13025500353E+04  0.15734414014E+04  0.88265579312E+03 0.  0.
        5    1    3    3  502    0  0.99061340530E+02  0.27368557359E+03  0.12425878172E+04  0.12762301970E+04  0.46999998093E+01 0.  1.
       -5    1    3    3    0  502 -0.99061340530E+02 -0.27368557359E+03  0.59962218066E+02  0.29721120431E+03  0.46999998093E+01 0. -1.
</event>
<event>
 5   0  0.1497410E-02  0.8913367E+03  0.7818609E-02  0.9436476E-01
       -1   -1    0    0    0  501  0.00000000000E+00  0.00000000000E+00  0.10558132852E+03  0.10558132864E+03  0.50400001928E-02 0.  1.
        1   -1    0    0  501    0  0.00000000000E+00  0.00000000000E+00 -0.18812063991E+04  0.18812063991E+04  0.50400001928E-02 0. -1.
    10030    2    1    2    0    0  0.00000000000E+00  0.00000000000E+00 -0.17756250706E+04  0.19867877277E+04  0.89133668378E+03 0.  0.
        3    1    3    3  502    0  0.11220276566E+03 -0.41233350155E+03 -0.60575942012E+03  0.74131832730E+03  0.10100000352E+00 0.  1.
       -3    1    3    3    0  502 -0.11220276566E+03  0.41233350155E+03 -0.11698656504E+04  0.12454694004E+04  0.10100000352E+00 0. -1.
</event>
<event>
 5   0  0.2628383E-02  0.8587499E+03  0.7818609E-02  0.9478668E-01
       -2   -1    0    0    0  501  0.00000000000E+00  0.00000000000E+00  0.20865392662E+03  0.20865392664E+03  0.25500000920E-02 0. -1.
        2   -1    0    0  501    0  0.00000000000E+00  0.00000000000E+00 -0.88358203003E+03  0.88358203004E+03  0.25500000920E-02 0.  1.
    10030    2    1    2    0    0  0.00000000000E+00  0.00000000000E+00 -0.67492810341E+03  0.10922359567E+04  0.85874992884E+03 0.  0.
        2    1    3    3  502    0 -0.30755894940E+03 -0.57795591615E+02 -0.71138695574E+03  0.77717709601E+03  0.25500000920E-02 0.  1.
       -2    1    3    3    0  502  0.30755894940E+03  0.57795591615E+02  0.36458852327E+02  0.31505886067E+03  0.25500000920E-02 0. -1.
</event>
<event>
 5   0  0.2705111E-02  0.8993871E+03  0.7818609E-02  0.9426348E-01
        2   -1    0    0  501    0  0.00000000000E+00  0.00000000000E+00  0.35947550442E+03  0.35947550443E+03  0.25500000920E-02 0.  1.
       -2   -1    0    0    0  501  0.00000000000E+00  0.00000000000E+00 -0.56255368826E+03  0.56255368826E+03  0.25500000920E-02 0. -1.
    10030    2    1    2    0    0  0.00000000000E+00  0.00000000000E+00 -0.20307818383E+03  0.92202919269E+03  0.89938705985E+03 0.  0.
        4    1    3    3  502    0  0.37573857474E+03 -0.52426197430E+02  0.14598215287E+03  0.40649770550E+03  0.12699999809E+01 0.  1.
       -4    1    3    3    0  502 -0.37573857474E+03  0.52426197430E+02 -0.34906033670E+03  0.51553148719E+03  0.12699999809E+01 0. -1.
</event>
<event>
 5   0  0.1497410E-02  0.8629664E+03  0.7818609E-02  0.9473097E-01
       -1   -1    0    0    0  501  0.00000000000E+00  0.00000000000E+00  0.86343182261E+02  0.86343182408E+02  0.50400001928E-02 0. -1.
        1   -1    0    0  501    0  0.00000000000E+00  0.00000000000E+00 -0.21562529185E+04  0.21562529185E+04  0.50400001928E-02 0.  1.
    10030    2    1    2    0    0  0.00000000000E+00  0.00000000000E+00 -0.20699097362E+04  0.22425961009E+04  0.86296636994E+03 0.  0.
        3    1    3    3  502    0 -0.22311142636E+03  0.16080477466E+02 -0.76104667082E+02  0.23628207905E+03  0.10100000352E+00 0. -1.
       -3    1    3    3    0  502  0.22311142636E+03 -0.16080477466E+02 -0.19938050691E+04  0.20063140218E+04  0.10100000352E+00 0.  1.
</event>
<event>
 5   0  0.2628383E-02  0.8761439E+03  0.7818609E-02  0.9455904E-01
        2   -1    0    0  501    0  0.00000000000E+00  0.00000000000E+00  0.18346744995E+04  0.18346744995E+04  0.25500000920E-02 0.  1.
       -2   -1    0    0    0  501  0.00000000000E+00  0.00000000000E+00 -0.10460003474E+03  0.10460003477E+03  0.25500000920E-02 0. -1.
    10030    2    1    2    0    0  0.00000000000E+00  0.00000000000E+00  0.17300744647E+04  0.19392745343E+04  0.87614386126E+03 0.  0.
        2    1    3    3  502    0 -0.35652551703E+03  0.25450829632E+03  0.85463198974E+03  0.96035449449E+03  0.25500000920E-02 0.  1.
       -2    1    3    3    0  502  0.35652551703E+03 -0.25450829632E+03  0.87544247500E+03  0.97892003976E+03  0.25500000920E-02 0. -1.
</event>
<event>
 5   0  0.2705111E-02  0.8916065E+03  0.7818609E-02  0.9436135E-01
        2   -1    0    0  501    0  0.00000000000E+00  0.00000000000E+00  0.13928772929E+04  0.13928772929E+04  0.25500000920E-02 0. -1.
       -2   -1    0    0    0  501  0.00000000000E+00  0.00000000000E+00 -0.14268346283E+03  0.14268346285E+03  0.25500000920E-02 0.  1.
    10030    2    1    2    0    0  0.00000000000E+00  0.00000000000E+00  0.12501938300E+04  0.15355607557E+04  0.89160653983E+03 0.  0.
        4    1    3    3  502    0  0.22879719341E+02 -0.11813095526E+03  0.13643785657E+04  0.13696747379E+04  0.12699999809E+01 0. -1.
       -4    1    3    3    0  502 -0.22879719341E+02  0.11813095526E+03 -0.11418473568E+03  0.16588601783E+03  0.12699999809E+01 0.  1.
</event>
<event>
 5   0  0.2414128E-02  0.8822574E+03  0.7818609E-02  0.9448036E-01
       -2   -1    0    0    0  501  0.00000000000E+00  0.00000000000E+00  0.41606130028E+03  0.41606130029E+03  0.25500000920E-02 0. -1.
        2   -1    0    0  501    0  0.00000000000E+00  0.00000000000E+00 -0.46770637314E+03  0.46770637314E+03  0.25500000920E-02 0.  1.
    10030    2    1    2    0    0  0.00000000000E+00  0.00000000000E+00 -0.51645072853E+02  0.88376767344E+03  0.88225738142E+03 0.  0.
        3    1    3    3  502    0 -0.26150825845E+03  0.14754393459E+03 -0.34954557014E+03  0.46080136466E+03  0.10100000352E+00 0.  1.
       -3    1    3    3    0  502  0.26150825845E+03 -0.14754393459E+03  0.29790049729E+03  0.42296630877E+03  0.10100000352E+00 0. -1.
</event>
<event>
 5   0  0.1497410E-02  0.9288040E+03  0.7818609E-02  0.9390274E-01
        1   -1    0    0  501    0  0.00000000000E+00  0.00000000000E+00  0.46727489165E+03  0.46727489167E+03  0.50400001928E-02 0. -1.
       -1   -1    0    0    0  501  0.00000000000E+00  0.00000000000E+00 -0.46154676715E+03  0.46154676718E+03  0.50400001928E-02 0.  1.
    10030    2    1    2    0    0  0.00000000000E+00  0.00000000000E+00  0.57281244945E+01  0.92882165885E+03  0.92880399576E+03 0.  0.
        3    1    3    3  502    0 -0.36337533608E+03 -0.25784504838E+03  0.13379974735E+03  0.46521832126E+03  0.10100000352E+00 0. -1.
       -3    1    3    3    0  502  0.36337533608E+03  0.25784504838E+03 -0.12807162286E+03  0.46360333759E+03  0.10100000352E+00 0.  1.
</event>
<event>
 5   0  0.2628383E-02  0.8774324E+03  0.7818609E-02  0.9454240E-01
        2   -1    0    0  501    0  0.00000000000E+00  0.00000000000E+00  0.20743559847E+04  0.20743559847E+04  0.25500000920E-02 0. -1.
       -2   -1    0    0    0  501  0.00000000000E+00  0.00000000000E+00 -0.92786349704E+02  0.92786349739E+02  0.25500000920E-02 0.  1.
    10030    2    1    2    0    0  0.00000000000E+00  0.00000000000E+00  0.19815696350E+04  0.21671423345E+04  0.87743243580E+03 0.  0.
        2    1    3    3  502    0  0.13014952711E+01 -0.25567649295E+03  0.18713187793E+04  0.18887048835E+04  0.25500000920E-02 0. -1.
       -2    1    3    3    0  502 -0.13014952711E+01  0.25567649295E+03  0.11025085569E+03  0.27843745100E+03  0.25500000920E-02 0.  1.
</event>
<event>
 5   0  0.1537870E-02  0.9232506E+03  0.7818609E-02  0.9396975E-01
        1   -1    0    0  501    0  0.00000000000E+00  0.00000000000E+00  0.97121045983E+03  0.97121045985E+03  0.50400001928E-02 0.  1.
       -1   -1    0    0    0  501  0.00000000000E+00  0.00000000000E+00 -0.21941475815E+03  0.21941475821E+03  0.50400001928E-02 0. -1.
    10030    2    1    2    0    0  0.00000000000E+00  0.00000000000E+00  0.75179570168E+03  0.11906252181E+04  0.92325057963E+03 0.  0.
        5    1    3    3  502    0  0.21783664642E+03 -0.18976632329E+03  0.84017540251E+03  0.88847107942E+03  0.46999998093E+01 0.  1.
       -5    1    3    3    0  502 -0.21783664642E+03  0.18976632329E+03 -0.88379700827E+02  0.30215413864E+03  0.46999998093E+01 0. -1.
</event>
<event>
 5   0  0.1459111E-02  0.8974027E+03  0.7818609E-02  0.9428834E-01
       -1   -1    0    0    0  501  0.00000000000E+00  0.00000000000E+00  0.15897557475E+03  0.15897557483E+03  0.50400001928E-02 0. -1.
        1   -1    0    0  501    0  0.00000000000E+00  0.00000000000E+00 -0.12664392132E+04  0.12664392132E+04  0.50400001928E-02 0.  1.
    10030    2    1    2    0    0  0.00000000000E+00  0.00000000000E+00 -0.11074636385E+04  0.14254147881E+04  0.89740270084E+03 0.  0.
        2    1    3    3  502    0  0.46986525334E+01 -0.30660812692E+03 -0.33426381215E+02  0.30846060332E+03  0.25500000920E-02 0. -1.
       -2    1    3    3    0  502 -0.46986525334E+01  0.30660812692E+03 -0.10740372573E+04  0.11169541847E+04  0.25500000920E-02 0.  1.
</event>
<event>
 5   0  0.2628383E-02  0.8912480E+03  0.7818609E-02  0.9436588E-01
        2   -1    0    0  501    0  0.00000000000E+00  0.00000000000E+00  0.78347420617E+03  0.78347420617E+03  0.25500000920E-02 0.  1.
       -2   -1    0    0    0  501  0.00000000000E+00  0.00000000000E+00 -0.25346178536E+03  0.25346178537E+03  0.25500000920E-02 0. -1.
    10030    2    1    2    0    0  0.00000000000E+00  0.00000000000E+00  0.53001242081E+03  0.10369359915E+04  0.89124804872E+03 0.  0.
        2    1    3    3  502    0  0.19059016405E+03 -0.18751114925E+03 -0.14977477184E+03  0.30645966132E+03  0.25500000920E-02 0. -1.
       -2    1    3    3    0  502 -0.19059016405E+03  0.18751114925E+03  0.67978719265E+03  0.73047633023E+03  0.25500000920E-02 0.  1.
</event>
<event>
 5   0  0.1497410E-02  0.8044884E+03  0.7818609E-02  0.9553543E-01
       -1   -1    0    0    0  501  0.00000000000E+00  0.00000000000E+00  0.35919663918E+03  0.35919663922E+03  0.50400001928E-02 0. -1.
        1   -1    0    0  501    0  0.00000000000E+00  0.00000000000E+00 -0.45045070912E+03  0.45045070915E+03  0.50400001928E-02 0.  1.
    10030    2    1    2    0    0  0.00000000000E+00  0.00000000000E+00 -0.91254069939E+02  0.80964734836E+03  0.80448836128E+03 0.  0.
        3    1    3    3  502    0  0.39438723854E+03  0.12880064049E+02 -0.12418643550E+03  0.41367797976E+03  0.10100000352E+00 0.  1.
       -3    1    3    3    0  502 -0.39438723854E+03 -0.12880064049E+02  0.32932365561E+02  0.39596936861E+03  0.10100000352E+00 0. -1.
</event>
<event>
 5   0  0.1497410E-02  0.8959807E+03  0.7818609E-02  0.9430620E-01
       -1   -1    0    0    0  501  0.00000000000E+00  0.00000000000E+00  0.78987753488E+03  0.78987753489E+03  0.50400001928E-02 0.  1.
        1   -1    0    0  501    0  0.00000000000E+00  0.00000000000E+00 -0.25408413719E+03  0.25408413724E+03  0.50400001928E-02 0. -1.
    10030    2    1    2    0    0  0.00000000000E+00  0.00000000000E+00  0.53579339769E+03  0.10439616721E+04  0.89598069615E+03 0.  0.
        3    1    3    3  502    0  0.33139188612E+03 -0.28841524195E+03  0.37008209204E+03  0.57442553828E+03  0.10100000352E+00 0. -1.
       -3    1    3    3    0  502 -0.33139188612E+03  0.28841524195E+03  0.16571130565E+03  0.46953613385E+03  0.10100000352E+00 0.  1.
</event>
<event>
 5   0  0.1497410E-02  0.8877440E+03  0.7818609E-02  0.9441033E-01
        1   -1    0    0  501    0  0.00000000000E+00  0.00000000000E+00  0.29648468430E+03  0.29648468435E+03  0.50400001928E-02 0. -1.
       -1   -1    0    0    0  501  0.00000000000E+00  0.00000000000E+00 -0.66452786317E+03  0.66452786319E+03  0.50400001928E-02 0.  1.
    10030    2    1    2    0    0  0.00000000000E+00  0.00000000000E+00 -0.36804317887E+03  0.96101254754E+03  0.88774395803E+03 0.  0.
        3    1    3    3  502    0  0.10069404379E+03  0.60320705571E+02  0.27937917152E+03  0.30303565740E+03  0.10100000352E+00 0. -1.
       -3    1    3    3    0  502 -0.10069404379E+03 -0.60320705571E+02 -0.64742235039E+03  0.65797689014E+03  0.10100000352E+00 0.  1.
</event>
<event>
 5   0  0.1459111E-02  0.9160588E+03  0.7818609E-02  0.9405727E-01
       -1   -1    0    0    0  501  0.00000000000E+00  0.00000000000E+00  0.17531253028E+03  0.17531253035E+03  0.50400001928E-02 0.  1.
        1   -1    0    0  501    0  0.00000000000E+00  0.00000000000E+00 -0.11966682940E+04  0.11966682940E+04  0.50400001928E-02 0. -1.
    10030    2    1    2    0    0  0.00000000000E+00  0.00000000000E+00 -0.10213557637E+04  0.13719808244E+04  0.91605883345E+03 0.  0.
        2    1    3    3  502    0  0.39699252544E+03  0.22843352074E+03 -0.51434890287E+03  0.68872326267E+03  0.25500000920E-02 0.  1.
       -2    1    3    3    0  502 -0.39699252544E+03 -0.22843352074E+03 -0.50700686086E+03  0.68325756170E+03  0.25500000920E-02 0. -1.
</event>
<event>
 5   0  0.2803717E-02  0.9166133E+03  0.7818609E-02  0.9405049E-01
        2   -1    0    0  501    0  0.00000000000E+00  0.00000000000E+00  0.11108255913E+04  0.11108255913E+04  0.25500000920E-02 0.  1.
       -2   -1    0    0    0  501  0.00000000000E+00  0.00000000000E+00 -0.18908909365E+03  0.18908909366E+03  0.25500000920E-02 0. -1.
    10030    2    1    2    0    0  0.00000000000E+00  0.00000000000E+00  0.92173649763E+03  0.12999146849E+04  0.91661334109E+03 0.  0.
        5    1    3    3  502    0  0.19295519365E+03 -0.11556752661E+03  0.10271349076E+04  0.10514826524E+04  0.46999998093E+01 0.  1.
       -5    1    3    3    0  502 -0.19295519365E+03  0.11556752661E+03 -0.10539840996E+03  0.24843203252E+03  0.46999998093E+01 0. -1.
</event>
<event>
 5   0  0.1560728E-02  0.9251365E+03  0.7818609E-02  0.9394694E-01
        1   -1    0    0  501    0  0.00000000000E+00  0.00000000000E+00  0.55525814303E+03  0.55525814306E+03  0.50400001928E-02 0. -1.
       -1   -1    0    0    0  501  0.00000000000E+00  0.00000000000E+00 -0.38535120466E+03  0.38535120469E+03  0.50400001928E-02 0.  1.
    10030    2    1    2    0    0  0.00000000000E+00  0.00000000000E+00  0.16990693837E+03  0.94060934775E+03  0.92513651823E+03 0.  0.
        4    1    3    3  502    0  0.29564203899E+03 -0.12018414563E+03 -0.25548899650E+03  0.40880886036E+03  0.12699999809E+01 0.  1.
       -4    1    3    3    0  502 -0.29564203899E+03  0.12018414563E+03  0.42539593487E+03  0.53180048739E+03  0.12699999809E+01 0. -1.
</event>
<event>
 5   0  0.1497410E-02  0.8957654E+03  0.7818609E-02  0.9430890E-01
        1   -1    0    0  501    0  0.00000000000E+00  0.00000000000E+00  0.11193056631E+04  0.11193056631E+04  0.50400001928E-02 0.  1.
       -1   -1    0    0    0  501  0.00000000000E+00  0.00000000000E+00 -0.17921726486E+03  0.17921726493E+03  0.50400001928E-02 0. -1.
    10030    2    1    2    0    0  0.00000000000E+00  0.00000000000E+00  0.94008839819E+03  0.12985229280E+04  0.89576537002E+03 0.  0.
        3    1    3    3  502    0 -0.19936255577E+03 -0.39448602662E+03  0.36516678212E+03  0.57333362260E+03  0.10100000352E+00 0. -1.
       -3    1    3    3    0  502  0.19936255577E+03  0.39448602662E+03  0.57492161607E+03  0.72518930540E+03  0.10100000352E+00 0.  1.
</event>
<event>
 5   0  0.2628383E-02  0.6212763E+03  0.7818609E-02  0.9862222E-01
        2   -1    0    0  501    0  0.00000000000E+00  0.00000000000E+00  0.10381964376E+04  0.10381964376E+04  0.25500000920E-02 0.  1.
       -2   -1    0    0    0  501  0.00000000000E+00  0.00000000000E+00 -0.92945866062E+02  0.92945866097E+02  0.25500000920E-02 0. -1.
    10030    2    1    2    0    0  0.00000000000E+00  0.00000000000E+00  0.94525057157E+03  0.11311423037E+04  0.62127632197E+03 0.  0.
        2    1    3    3  502    0  0.15909275681E+03  0.18892254718E+03  0.12961361786E+03  0.27892996261E+03  0.25500000920E-02 0. -1.
       -2    1    3    3    0  502 -0.15909275681E+03 -0.18892254718E+03  0.81563695371E+03  0.85221234112E+03  0.25500000920E-02 0.  1.
</event>
<event>
 5   0  0.1040163E-02  0.8875584E+03  0.7818609E-02  0.9441269E-01
       -4   -1    0    0    0  501  0.00000000000E+00  0.00000000000E+00  0.30319326552E+03  0.30319592536E+03  0.12699999809E+01 0.  1.
        4   -1    0    0  501    0  0.00000000000E+00  0.00000000000E+00 -0.64954643198E+03  0.64954767354E+03  0.12699999809E+01 0. -1.
    10030    2    1    2    0    0  0.00000000000E+00  0.00000000000E+00 -0.34635316646E+03  0.95274359889E+03  0.88755836389E+03 0.  0.
        1    1    3    3  502    0  0.37911517159E+03 -0.11765309713E+03 -0.38616623530E+03  0.55380043870E+03  0.50400001928E-02 0. -1.
       -1    1    3    3    0  502 -0.37911517159E+03  0.11765309713E+03  0.39813068840E+02  0.39894316020E+03  0.50400001928E-02 0.  1.
</event>
<event>
 5   0  0.2803717E-02  0.9232027E+03  0.7818609E-02  0.9397033E-01
       -2   -1    0    0    0  501  0.00000000000E+00  0.00000000000E+00  0.11281467910E+03  0.11281467913E+03  0.25500000920E-02 0.  1.
        2   -1    0    0  501    0  0.00000000000E+00  0.00000000000E+00 -0.18887239490E+04  0.18887239490E+04  0.25500000920E-02 0. -1.
    10030    2    1    2    0    0  0.00000000000E+00  0.00000000000E+00 -0.17759092699E+04  0.20015386281E+04  0.92320265652E+03 0.  0.
        5    1    3    3  502    0 -0.46525270733E+02 -0.37496351973E+03 -0.31315273499E+03  0.49076365735E+03  0.46999998093E+01 0.  1.
       -5    1    3    3    0  502  0.46525270733E+02  0.37496351973E+03 -0.14627565349E+04  0.15107749708E+04  0.46999998093E+01 0. -1.
</event>
<event>
 5   0  0.1559275E-02  0.9109710E+03  0.7818609E-02  0.9411970E-01
       -1   -1    0    0    0  501  0.00000000000E+00  0.00000000000E+00  0.12051143739E+03  0.12051143750E+03  0.50400001928E-02 0. -1.
        1   -1    0    0  501    0  0.00000000000E+00  0.00000000000E+00 -0.17215548468E+04  0.17215548468E+04  0.50400001928E-02 0.  1.
    10030    2    1    2    0    0  0.00000000000E+00  0.00000000000E+00 -0.16010434094E+04  0.18420662843E+04  0.91097101872E+03 0.  0.
        1    1    3    3  502    0  0.38606870019E+03  0.30642662000E+02 -0.31572972328E+03  0.49967316536E+03  0.50400001928E-02 0. -1.
       -1    1    3    3    0  502 -0.38606870019E+03 -0.30642662000E+02 -0.12853136861E+04  0.13423931189E+04  0.50400001928E-02 0.  1.
</event>
<event>
 5   0  0.2414128E-02  0.9251934E+03  0.7818609E-02  0.9394625E-01
        2   -1    0    0  501    0  0.00000000000E+00  0.00000000000E+00  0.18468228106E+03  0.18468228107E+03  0.25500000920E-02 0.  1.
       -2   -1    0    0    0  501  0.00000000000E+00  0.00000000000E+00 -0.11587236347E+04  0.11587236347E+04  0.25500000920E-02 0. -1.
    10030    2    1    2    0    0  0.00000000000E+00  0.00000000000E+00 -0.97404135361E+03  0.13434059157E+04  0.92519343702E+03 0.  0.
        3    1    3    3  502    0 -0.29163159919E+03  0.23533950455E+03 -0.93197201460E+02  0.38615981226E+03  0.10100000352E+00 0.  1.
       -3    1    3    3    0  502  0.29163159919E+03 -0.23533950455E+03 -0.88084415215E+03  0.95724610348E+03  0.10100000352E+00 0. -1.
</event>
<event>
 5   0  0.2803717E-02  0.8060129E+03  0.7818609E-02  0.9551354E-01
        2   -1    0    0  501    0  0.00000000000E+00  0.00000000000E+00  0.10942356671E+04  0.10942356671E+04  0.25500000920E-02 0.  1.
       -2   -1    0    0    0  501  0.00000000000E+00  0.00000000000E+00 -0.14842705716E+03  0.14842705719E+03  0.25500000920E-02 0. -1.
    10030    2    1    2    0    0  0.00000000000E+00  0.00000000000E+00  0.94580860993E+03  0.12426627243E+04  0.80601285332E+03 0.  0.
        5    1    3    3  502    0 -0.11756751440E+03 -0.14394752749E+03  0.10241689057E+04  0.10409068395E+04  0.46999998093E+01 0.  1.
       -5    1    3    3    0  502  0.11756751440E+03  0.14394752749E+03 -0.78360295737E+02  0.20175588482E+03  0.46999998093E+01 0. -1.
</event>
<event>
 5   0  0.1559275E-02  0.1032139E+04  0.7818609E-02  0.9273981E-01
       -1   -1    0    0    0  501  0.00000000000E+00  0.00000000000E+00  0.50287179099E+03  0.50287179101E+03  0.50400001928E-02 0.  1.
        1   -1    0    0  501    0  0.00000000000E+00  0.00000000000E+00 -0.52961366181E+03  0.52961366183E+03  0.50400001928E-02 0. -1.
    10030    2    1    2    0    0  0.00000000000E+00  0.00000000000E+00 -0.26741870822E+02  0.10324854528E+04  0.10321390811E+04 0.  0.
        1    1    3    3  502    0 -0.95506357055E+02  0.66402259550E+01  0.49391088273E+03  0.50310388286E+03  0.50400001928E-02 0.  1.
       -1    1    3    3    0  502  0.95506357055E+02 -0.66402259550E+01 -0.52065275355E+03  0.52938156999E+03  0.50400001928E-02 0. -1.
</event>
<event>
 5   0  0.2628383E-02  0.8951427E+03  0.7818609E-02  0.9431674E-01
        2   -1    0    0  501    0  0.00000000000E+00  0.00000000000E+00  0.65809031293E+03  0.65809031294E+03  0.25500000920E-02 0.  1.
       -2   -1    0    0    0  501  0.00000000000E+00  0.00000000000E+00 -0.30439607087E+03  0.30439607088E+03  0.25500000920E-02 0. -1.
    10030    2    1    2    0    0  0.00000000000E+00  0.00000000000E+00  0.35369424206E+03  0.96248638382E+03  0.89514268258E+03 0.  0.
        2    1    3    3  502    0 -0.21690061129E+03  0.21141040486E+03  0.53115188290E+03  0.61144301220E+03  0.25500000920E-02 0.  1.
       -2    1    3    3    0  502  0.21690061129E+03 -0.21141040486E+03 -0.17745764084E+03  0.35104337162E+03  0.25500000920E-02 0. -1.
</event>
<event>
 5   0  0.2803717E-02  0.8920881E+03  0.7818609E-02  0.9435526E-01
        2   -1    0    0  501    0  0.00000000000E+00  0.00000000000E+00  0.86771266921E+03  0.86771266921E+03  0.25500000920E-02 0.  1.
       -2   -1    0    0    0  501  0.00000000000E+00  0.00000000000E+00 -0.22928706548E+03  0.22928706550E+03  0.25500000920E-02 0. -1.
    10030    2    1    2    0    0  0.00000000000E+00  0.00000000000E+00  0.63842560373E+03  0.10969997347E+04  0.89208809344E+03 0.  0.
        5    1    3    3  502    0 -0.91092556029E+02  0.27530606204E+03  0.73593727104E+03  0.79102277999E+03  0.46999998093E+01 0.  1.
       -5    1    3    3    0  502  0.91092556029E+02 -0.27530606204E+03 -0.97511667317E+02  0.30597695472E+03  0.46999998093E+01 0. -1.
</event>
<event>
 5   0  0.1459111E-02  0.8660436E+03  0.7818609E-02  0.9469053E-01
        1   -1    0    0  501    0  0.00000000000E+00  0.00000000000E+00  0.58208842140E+03  0.58208842142E+03  0.50400001928E-02 0.  1.
       -1   -1    0    0    0  501  0.00000000000E+00  0.00000000000E+00 -0.32212952752E+03  0.32212952756E+03  0.50400001928E-02 0. -1.
    10030    2    1    2    0    0  0.00000000000E+00  0.00000000000E+00  0.25995889388E+03  0.90421794898E+03  0.86604357440E+03 0.  0.
        2    1    3    3  502    0 -0.10644572593E+03  0.11794069517E+03 -0.29060064171E+03  0.33119395090E+03  0.25500000920E-02 0. -1.
       -2    1    3    3    0  502  0.10644572593E+03 -0.11794069517E+03  0.55055953559E+03  0.57302399808E+03  0.25500000920E-02 0.  1.
</event>
<event>
 5   0  0.2803717E-02  0.8995519E+03  0.7818609E-02  0.9426142E-01
        2   -1    0    0  501    0  0.00000000000E+00  0.00000000000E+00  0.37084568910E+03  0.37084568911E+03  0.25500000920E-02 0. -1.
       -2   -1    0    0    0  501  0.00000000000E+00  0.00000000000E+00 -0.54550564662E+03  0.54550564662E+03  0.25500000920E-02 0.  1.
    10030    2    1    2    0    0  0.00000000000E+00  0.00000000000E+00 -0.17465995751E+03  0.91635133573E+03  0.89955192721E+03 0.  0.
        5    1    3    3  502    0  0.31298499193E+03  0.32135964943E+03 -0.54404571420E+02  0.45189996332E+03  0.46999998093E+01 0. -1.
       -5    1    3    3    0  502 -0.31298499193E+03 -0.32135964943E+03 -0.12025538609E+03  0.46445137242E+03  0.46999998093E+01 0.  1.
</event>
<event>
 5   0  0.1560728E-02  0.9079748E+03  0.7818609E-02  0.9415667E-01
       -1   -1    0    0    0  501  0.00000000000E+00  0.00000000000E+00  0.92628293258E+03  0.92628293260E+03  0.50400001928E-02 0.  1.
        1   -1    0    0  501    0  0.00000000000E+00  0.00000000000E+00 -0.22250711651E+03  0.22250711657E+03  0.50400001928E-02 0. -1.
    10030    2    1    2    0    0  0.00000000000E+00  0.00000000000E+00  0.70377581607E+03  0.11487900492E+04  0.90797476714E+03 0.  0.
        4    1    3    3  502    0  0.26428411788E+03 -0.10438394194E+03 -0.96080939634E+02  0.29995876743E+03  0.12699999809E+01 0. -1.
       -4    1    3    3    0  502 -0.26428411788E+03  0.10438394194E+03  0.79985675571E+03  0.84883128173E+03  0.12699999809E+01 0.  1.
</event>
<event>
 5   0  0.1537870E-02  0.8452337E+03  0.7818609E-02  0.9496756E-01
        1   -1    0    0  501    0  0.00000000000E+00  0.00000000000E+00  0.42857414240E+03  0.42857414243E+03  0.50400001928E-02 0. -1.
       -1   -1    0    0    0  501  0.00000000000E+00  0.00000000000E+00 -0.41674239737E+03  0.41674239740E+03  0.50400001928E-02 0.  1.
    10030    2    1    2    0    0  0.00000000000E+00  0.00000000000E+00  0.11831745027E+02  0.84531653984E+03  0.84523373237E+03 0.  0.
        5    1    3    3  502    0  0.40230777199E+03 -0.20318344160E+02 -0.12184071119E+03  0.42087008377E+03  0.46999998093E+01 0.  1.
       -5    1    3    3    0  502 -0.40230777199E+03  0.20318344160E+02  0.13367245622E+03  0.42444645606E+03  0.46999998093E+01 0. -1.
</event>
<event>
 5   0  0.1537870E-02  0.8954262E+03  0.7818609E-02  0.9431317E-01
        1   -1    0    0  501    0  0.00000000000E+00  0.00000000000E+00  0.25551687870E+03  0.25551687875E+03  0.50400001928E-02 0. -1.
       -1   -1    0    0    0  501  0.00000000000E+00  0.00000000000E+00 -0.78447659449E+03  0.78447659451E+03  0.50400001928E-02 0.  1.
    10030    2    1    2    0    0  0.00000000000E+00  0.00000000000E+00 -0.52895971579E+03  0.10399934733E+04  0.89542617980E+03 0.  0.
        5    1    3    3  502    0  0.13519774027E+03 -0.10751208783E+03  0.21522554520E+03  0.27600978843E+03  0.46999998093E+01 0. -1.
       -5    1    3    3    0  502 -0.13519774027E+03  0.10751208783E+03 -0.74418526099E+03  0.76398368482E+03  0.46999998093E+01 0.  1.
</event>
<event>
 5   0  0.1537870E-02  0.9263212E+03  0.7818609E-02  0.9393264E-01
       -1   -1    0    0    0  501  0.00000000000E+00  0.00000000000E+00  0.76123038688E+03  0.76123038690E+03  0.50400001928E-02 0.  1.
        1   -1    0    0  501    0  0.00000000000E+00  0.00000000000E+00 -0.28180397120E+03  0.28180397125E+03  0.50400001928E-02 0. -1.
    10030    2    1    2    0    0  0.00000000000E+00  0.00000000000E+00  0.47942641568E+03  0.10430343581E+04  0.92632121007E+03 0.  0.
        5    1    3    3  502    0  0.31613075579E+03  0.11277902401E+03  0.59904174474E+03  0.68668105038E+03  0.46999998093E+01 0.  1.
       -5    1    3    3    0  502 -0.31613075579E+03 -0.11277902401E+03 -0.11961532906E+03  0.35635330777E+03  0.46999998093E+01 0. -1.
</event>
<event>
 5   0  0.2414128E-02  0.9041674E+03  0.7818609E-02  0.9420387E-01
       -2   -1    0    0    0  501  0.00000000000E+00  0.00000000000E+00  0.10920847182E+04  0.10920847182E+04  0.25500000920E-02 0. -1.
        2   -1    0    0  501    0  0.00000000000E+00  0.00000000000E+00 -0.18714633950E+03  0.18714633952E+03  0.25500000920E-02 0.  1.
    10030    2    1    2    0    0  0.00000000000E+00  0.00000000000E+00  0.90493837871E+03  0.12792310577E+04  0.90416736824E+03 0.  0.
        3    1    3    3  502    0  0.20783723541E+03  0.17221144507E+03 -0.60636556942E+02  0.27664038113E+03  0.10100000352E+00 0.  1.
       -3    1    3    3    0  502 -0.20783723541E+03 -0.17221144507E+03  0.96557493565E+03  0.10025906766E+04  0.10100000352E+00 0. -1.
</event>
<event>
 5   0  0.1497410E-02  0.8922056E+03  0.7818609E-02  0.9435378E-01
        1   -1    0    0  501    0  0.00000000000E+00  0.00000000000E+00  0.69376111914E+03  0.69376111916E+03  0.50400001928E-02 0. -1.
       -1   -1    0    0    0  501  0.00000000000E+00  0.00000000000E+00 -0.28685336157E+03  0.28685336162E+03  0.50400001928E-02 0.  1.
    10030    2    1    2    0    0  0.00000000000E+00  0.00000000000E+00  0.40690775757E+03  0.98061448078E+03  0.89220560228E+03 0.  0.
        3    1    3    3  502    0 -0.32770053017E+03 -0.30220222707E+03  0.22229535896E+03  0.49812554677E+03  0.10100000352E+00 0.  1.
       -3    1    3    3    0  502  0.32770053017E+03  0.30220222707E+03  0.18461239860E+03  0.48248893401E+03  0.10100000352E+00 0. -1.
</event>
<event>
 5   0  0.1537870E-02  0.9217235E+03  0.7818609E-02  0.9398826E-01
       -1   -1    0    0    0  501  0.00000000000E+00  0.00000000000E+00  0.33749244130E+03  0.33749244134E+03  0.50400001928E-02 0.  1.
        1   -1    0    0  501    0  0.00000000000E+00  0.00000000000E+00 -0.62932828227E+03  0.62932828229E+03  0.50400001928E-02 0. -1.
    10030    2    1    2    0    0  0.00000000000E+00  0.00000000000E+00 -0.29183584096E+03  0.96682072363E+03  0.92172346914E+03 0.  0.
        5    1    3    3  502    0 -0.36754405044E+03  0.23248917407E+03 -0.30579451794E+03  0.53166927903E+03  0.46999998093E+01 0.  1.
       -5    1    3    3    0  502  0.36754405044E+03 -0.23248917407E+03  0.13958676974E+02  0.43515144459E+03  0.46999998093E+01 0. -1.
</event>
<event>
 5   0  0.2414128E-02  0.8740950E+03  0.7818609E-02  0.9458556E-01
       -2   -1    0    0    0  501  0.00000000000E+00  0.00000000000E+00  0.17821520918E+03  0.17821520920E+03  0.25500000920E-02 0. -1.
        2   -1    0    0  501    0  0.00000000000E+00  0.00000000000E+00 -0.10717969091E+04  0.10717969091E+04  0.25500000920E-02 0.  1.
    10030    2    1    2    0    0  0.00000000000E+00  0.00000000000E+00 -0.89358169992E+03  0.12500121183E+04  0.87409498424E+03 0.  0.
        3    1    3    3  502    0  0.29946466410E+03 -0.31653358832E+03 -0.39855075671E+03  0.59052122185E+03  0.10100000352E+00 0. -1.
       -3    1    3    3    0  502 -0.29946466410E+03  0.31653358832E+03 -0.49503094321E+03  0.65949089646E+03  0.10100000352E+00 0.  1.
</event>
<event>
 5   0  0.2679861E-02  0.8319798E+03  0.7818609E-02  0.9514847E-01
        2   -1    0    0  501    0  0.00000000000E+00  0.00000000000E+00  0.14961323225E+04  0.14961323225E+04  0.25500000920E-02 0.  1.
       -2   -1    0    0    0  501  0.00000000000E+00  0.00000000000E+00 -0.11566329136E+03  0.11566329139E+03  0.25500000920E-02 0. -1.
    10030    2    1    2    0    0  0.00000000000E+00  0.00000000000E+00  0.13804690312E+04  0.16117956139E+04  0.83197978043E+03 0.  0.
        1    1    3    3  502    0 -0.36288756605E+03  0.17192684817E+03  0.47977756937E+03  0.62564586054E+03  0.50400001928E-02 0.  1.
       -1    1    3    3    0  502  0.36288756605E+03 -0.17192684817E+03  0.90069146180E+03  0.98614975338E+03  0.50400001928E-02 0. -1.
</event>
<event>
 5   0  0.2705111E-02  0.8684710E+03  0.7818609E-02  0.9465876E-01
        2   -1    0    0  501    0  0.00000000000E+00  0.00000000000E+00  0.13607524413E+04  0.13607524413E+04  0.25500000920E-02 0.  1.
       -2   -1    0    0    0  501  0.00000000000E+00  0.00000000000E+00 -0.13857075308E+03  0.13857075310E+03  0.25500000920E-02 0. -1.
    10030    2    1    2    0    0  0.00000000000E+00  0.00000000000E+00  0.12221816882E+04  0.14993231944E+04  0.86847104858E+03 0.  0.
        4    1    3    3  502    0  0.18169251481E+03 -0.33026560858E+03  0.98325324169E+03  0.10530318572E+04  0.12699999809E+01 0.  1.
       -4    1    3    3    0  502 -0.18169251481E+03  0.33026560858E+03  0.23892844649E+03  0.44629133713E+03  0.12699999809E+01 0. -1.
</event>
<event>
 5   0  0.1459111E-02  0.8109060E+03  0.7818609E-02  0.9544364E-01
       -1   -1    0    0    0  501  0.00000000000E+00  0.00000000000E+00  0.15417801471E+03  0.15417801479E+03  0.50400001928E-02 0. -1.
        1   -1    0    0  501    0  0.00000000000E+00  0.00000000000E+00 -0.10662487530E+04  0.10662487530E+04  0.50400001928E-02 0.  1.
    10030    2    1    2    0    0  0.00000000000E+00  0.00000000000E+00 -0.91207073832E+03  0.12204267678E+04  0.81090595259E+03 0.  0.
        2    1    3    3  502    0  0.96399855754E+01  0.14430973411E+03  0.11403395080E+03  0.18417918075E+03  0.25500000920E-02 0. -1.
       -2    1    3    3    0  502 -0.96399855754E+01 -0.14430973411E+03 -0.10261046891E+04  0.10362475871E+04  0.25500000920E-02 0.  1.
</event>
<event>
 5   0  0.2803717E-02  0.8905008E+03  0.7818609E-02  0.9437534E-01
       -2   -1    0    0    0  501  0.00000000000E+00  0.00000000000E+00  0.91956244532E+02  0.91956244567E+02  0.25500000920E-02 0. -1.
        2   -1    0    0  501    0  0.00000000000E+00  0.00000000000E+00 -0.21558938639E+04  0.21558938639E+04  0.25500000920E-02 0.  1.
    10030    2    1    2    0    0  0.00000000000E+00  0.00000000000E+00 -0.20639376194E+04  0.22478501085E+04  0.89050076558E+03 0.  0.
        5    1    3    3  502    0  0.15512733763E+03  0.41111098088E+03 -0.12131019995E+04  0.12902384588E+04  0.46999998093E+01 0.  1.
       -5    1    3    3    0  502 -0.15512733763E+03 -0.41111098088E+03 -0.85083561993E+03  0.95761164969E+03  0.46999998093E+01 0. -1.
</event>
<event>
 5   0  0.1560728E-02  0.8798740E+03  0.7818609E-02  0.9451096E-01
        1   -1    0    0  501    0  0.00000000000E+00  0.00000000000E+00  0.30372478234E+03  0.30372478238E+03  0.50400001928E-02 0. -1.
       -1   -1    0    0    0  501  0.00000000000E+00  0.00000000000E+00 -0.63723661173E+03  0.63723661175E+03  0.50400001928E-02 0.  1.
    10030    2    1    2    0    0  0.00000000000E+00  0.00000000000E+00 -0.33351182939E+03  0.94096139413E+03  0.87987397103E+03 0.  0.
        4    1    3    3  502    0 -0.35558807820E+03 -0.19727580686E+03  0.12775168905E+02  0.40684818196E+03  0.12699999809E+01 0.  1.
       -4    1    3    3    0  502  0.35558807820E+03  0.19727580686E+03 -0.34628699829E+03  0.53411321217E+03  0.12699999809E+01 0. -1.
</event>
<event>
 5   0  0.2679861E-02  0.8471703E+03  0.7818609E-02  0.9494143E-01
       -2   -1    0    0    0  501  0.00000000000E+00  0.00000000000E+00  0.48472205774E+03  0.48472205775E+03  0.25500000920E-02 0. -1.
        2   -1    0    0  501    0  0.00000000000E+00  0.00000000000E+00 -0.37015931817E+03  0.37015931818E+03  0.25500000920E-02 0.  1.
    10030    2    1    2    0    0  0.00000000000E+00  0.00000000000E+00  0.11456273957E+03  0.85488137593E+03  0.84717031677E+03 0.  0.
        1    1    3    3  502    0  0.39563695570E+03 -0.83316723359E+02  0.18474063379E+03  0.44452151681E+03  0.50400001928E-02 0. -1.
       -1    1    3    3    0  502 -0.39563695570E+03  0.83316723359E+02 -0.70177894226E+02  0.41035985912E+03  0.50400001928E-02 0.  1.
</event>
<event>
 5   0  0.2803717E-02  0.9116406E+03  0.7818609E-02  0.9411146E-01
       -2   -1    0    0    0  501  0.00000000000E+00  0.00000000000E+00  0.33365062911E+03  0.33365062912E+03  0.25500000920E-02 0. -1.
        2   -1    0    0  501    0  0.00000000000E+00  0.00000000000E+00 -0.62272361113E+03  0.62272361113E+03  0.25500000920E-02 0.  1.
    10030    2    1    2    0    0  0.00000000000E+00  0.00000000000E+00 -0.28907298201E+03  0.95637424026E+03  0.91164055334E+03 0.  0.
        5    1    3    3  502    0  0.85185686049E+02  0.19937085549E+03 -0.56513967798E+03  0.60531833340E+03  0.46999998093E+01 0.  1.
       -5    1    3    3    0  502 -0.85185686049E+02 -0.19937085549E+03  0.27606669596E+03  0.35105590686E+03  0.46999998093E+01 0. -1.
</event>
<event>
 5   0  0.2628383E-02  0.8368856E+03  0.7818609E-02  0.9508110E-01
        2   -1    0    0  501    0  0.00000000000E+00  0.00000000000E+00  0.41905384607E+03  0.41905384608E+03  0.25500000920E-02 0. -1.
       -2   -1    0    0    0  501  0.00000000000E+00  0.00000000000E+00 -0.41783265257E+03  0.41783265257E+03  0.25500000920E-02 0.  1.
    10030    2    1    2    0    0  0.00000000000E+00  0.00000000000E+00  0.12211935040E+01  0.83688649865E+03  0.83688560766E+03 0.  0.
        2    1    3    3  502    0  0.27410677350E+03  0.31068386847E+03 -0.58001671409E+02  0.41835772169E+03  0.25500000920E-02 0. -1.
       -2    1    3    3    0  502 -0.27410677350E+03 -0.31068386847E+03  0.59222864913E+02  0.41852877696E+03  0.25500000920E-02 0.  1.
</event>
<event>
 5   0  0.1559275E-02  0.8880908E+03  0.7818609E-02  0.9440592E-01
       -1   -1    0    0    0  501  0.00000000000E+00  0.00000000000E+00  0.19470543253E+03  0.19470543260E+03  0.50400001928E-02 0.  1.
        1   -1    0    0  501    0  0.00000000000E+00  0.00000000000E+00 -0.10126904544E+04  0.10126904544E+04  0.50400001928E-02 0. -1.
    10030    2    1    2    0    0  0.00000000000E+00  0.00000000000E+00 -0.81798502187E+03  0.12073958870E+04  0.88809083543E+03 0.  0.
        1    1    3    3  502    0 -0.26797478066E+03  0.25791677810E+03 -0.79195818604E+02  0.38026770203E+03  0.50400001928E-02 0.  1.
       -1    1    3    3    0  502  0.26797478066E+03 -0.25791677810E+03 -0.73878920327E+03  0.82712818498E+03  0.50400001928E-02 0. -1.
</event>
<event>
 5   0  0.1560728E-02  0.8949080E+03  0.7818609E-02  0.9431969E-01
       -1   -1    0    0    0  501  0.00000000000E+00  0.00000000000E+00  0.31319767188E+03  0.31319767192E+03  0.50400001928E-02 0. -1.
        1   -1    0    0  501    0  0.00000000000E+00  0.00000000000E+00 -0.63926105146E+03  0.63926105148E+03  0.50400001928E-02 0.  1.
    10030    2    1    2    0    0  0.00000000000E+00  0.00000000000E+00 -0.32606337958E+03  0.95245872340E+03  0.89490797978E+03 0.  0.
        4    1    3    3  502    0  0.39595473249E+03  0.90294653797E+02  0.36877708972E+02  0.40779265933E+03  0.12699999809E+01 0. -1.
       -4    1    3    3    0  502 -0.39595473249E+03 -0.90294653797E+02 -0.36294108855E+03  0.54466606407E+03  0.12699999809E+01 0.  1.
</event>
<event>
 5   0  0.2628383E-02  0.8600658E+03  0.7818609E-02  0.9476926E-01
        2   -1    0    0  501    0  0.00000000000E+00  0.00000000000E+00  0.20174371624E+03  0.20174371625E+03  0.25500000920E-02 0.  1.
       -2   -1    0    0    0  501  0.00000000000E+00  0.00000000000E+00 -0.91664967000E+03  0.91664967000E+03  0.25500000920E-02 0. -1.
    10030    2    1    2    0    0  0.00000000000E+00  0.00000000000E+00 -0.71490595376E+03  0.11183933863E+04  0.86006583684E+03 0.  0.
        2    1    3    3  502    0 -0.11686016895E+03 -0.34101215088E+03 -0.66236603392E+03  0.75410499868E+03  0.25500000920E-02 0. -1.
       -2    1    3    3    0  502  0.11686016895E+03  0.34101215088E+03 -0.52539919840E+02  0.36428838757E+03  0.25500000920E-02 0.  1.
</event>
<event>
 5   0  0.2803717E-02  0.9173076E+03  0.7818609E-02  0.9404201E-01
        2   -1    0    0  501    0  0.00000000000E+00  0.00000000000E+00  0.20822503016E+04  0.20822503016E+04  0.25500000920E-02 0.  1.
       -2   -1    0    0    0  501  0.00000000000E+00  0.00000000000E+00 -0.10102691000E+03  0.10102691004E+03  0.25500000920E-02 0. -1.
    10030    2    1    2    0    0  0.00000000000E+00  0.00000000000E+00  0.19812233915E+04  0.21832772116E+04  0.91730761222E+03 0.  0.
        5    1    3    3  502    0  0.20723447895E+03 -0.40361059301E+03  0.83106408416E+03  0.94685650551E+03  0.46999998093E+01 0.  1.
       -5    1    3    3    0  502 -0.20723447895E+03  0.40361059301E+03  0.11501593074E+04  0.12364207061E+04  0.46999998093E+01 0. -1.
</event>
<event>
 5   0  0.1560728E-02  0.8239593E+03  0.7818609E-02  0.9525970E-01
       -1   -1    0    0    0  501  0.00000000000E+00  0.00000000000E+00  0.28412692328E+03  0.28412692332E+03  0.50400001928E-02 0.  1.
        1   -1    0    0  501    0  0.00000000000E+00  0.00000000000E+00 -0.59736411579E+03  0.59736411581E+03  0.50400001928E-02 0. -1.
    10030    2    1    2    0    0  0.00000000000E+00  0.00000000000E+00 -0.31323719251E+03  0.88149103913E+03  0.82395929105E+03 0.  0.
        4    1    3    3  502    0  0.36549744797E+03  0.60255712510E+02 -0.34950300272E+03  0.50928685156E+03  0.12699999809E+01 0. -1.
       -4    1    3    3    0  502 -0.36549744797E+03 -0.60255712510E+02  0.36265810204E+02  0.37220418758E+03  0.12699999809E+01 0.  1.
</event>
<event>
 5   0  0.1459111E-02  0.8936266E+03  0.7818609E-02  0.9433584E-01
       -1   -1    0    0    0  501  0.00000000000E+00  0.00000000000E+00  0.54029460596E+03  0.54029460598E+03  0.50400001928E-02 0. -1.
        1   -1    0    0  501    0  0.00000000000E+00  0.00000000000E+00 -0.36950604800E+03  0.36950604803E+03  0.50400001928E-02 0.  1.
    10030    2    1    2    0    0  0.00000000000E+00  0.00000000000E+00  0.17078855796E+03  0.90980065401E+03  0.89362659904E+03 0.  0.
        2    1    3    3  502    0 -0.16194791504E+02  0.17276970270E+03  0.50458731328E+03  0.53359160242E+03  0.25500000920E-02 0. -1.
       -2    1    3    3    0  502  0.16194791504E+02 -0.17276970270E+03 -0.33379875532E+03  0.37620905160E+03  0.25500000920E-02 0.  1.
</event>
<event>
 5   0  0.1040163E-02  0.8874063E+03  0.7818609E-02  0.9441462E-01
        3   -1    0    0  501    0  0.00000000000E+00  0.00000000000E+00  0.12791660211E+03  0.12791664199E+03  0.10100000352E+00 0.  1.
       -3   -1    0    0    0  501  0.00000000000E+00  0.00000000000E+00 -0.15390689570E+04  0.15390689603E+04  0.10100000352E+00 0. -1.
    10030    2    1    2    0    0  0.00000000000E+00  0.00000000000E+00 -0.14111523549E+04  0.16669856023E+04  0.88740634976E+03 0.  0.
        4    1    3    3  502    0 -0.12024313545E+03  0.23764301667E+03 -0.13722113055E+04  0.13978190494E+04  0.12699999809E+01 0. -1.
       -4    1    3    3    0  502  0.12024313545E+03 -0.23764301667E+03 -0.38941049427E+02  0.26916655295E+03  0.12699999809E+01 0.  1.
</event>
<event>
 5   0  0.2705111E-02  0.9261516E+03  0.7818609E-02  0.9393468E-01
       -2   -1    0    0    0  501  0.00000000000E+00  0.00000000000E+00  0.94226451609E+02  0.94226451644E+02  0.25500000920E-02 0. -1.
        2   -1    0    0  501    0  0.00000000000E+00  0.00000000000E+00 -0.22757857670E+04  0.22757857670E+04  0.25500000920E-02 0.  1.
    10030    2    1    2    0    0  0.00000000000E+00  0.00000000000E+00 -0.21815593154E+04  0.23700122187E+04  0.92615164524E+03 0.  0.
        4    1    3    3  502    0 -0.41595743247E+03 -0.19812365133E+03 -0.12098218453E+04  0.12945825880E+04  0.12699999809E+01 0.  1.
       -4    1    3    3    0  502  0.41595743247E+03  0.19812365133E+03 -0.97173747016E+03  0.10754296307E+04  0.12699999809E+01 0. -1.
</event>
<event>
 5   0  0.1537870E-02  0.9127983E+03  0.7818609E-02  0.9409723E-01
       -1   -1    0    0    0  501  0.00000000000E+00  0.00000000000E+00  0.19143211164E+03  0.19143211170E+03  0.50400001928E-02 0. -1.
        1   -1    0    0  501    0  0.00000000000E+00  0.00000000000E+00 -0.10881150501E+04  0.10881150501E+04  0.50400001928E-02 0.  1.
    10030    2    1    2    0    0  0.00000000000E+00  0.00000000000E+00 -0.89668293846E+03  0.12795471618E+04  0.91279825108E+03 0.  0.
        5    1    3    3  502    0  0.10503930931E+02  0.15046877669E+03  0.15544715541E+03  0.21664970216E+03  0.46999998093E+01 0. -1.
       -5    1    3    3    0  502 -0.10503930931E+02 -0.15046877669E+03 -0.10521300939E+04  0.10628974597E+04  0.46999998093E+01 0.  1.
</event>
<event>
 5   0  0.2705111E-02  0.9523422E+03  0.7818609E-02  0.9362417E-01
        2   -1    0    0  501    0  0.00000000000E+00  0.00000000000E+00  0.66367723397E+03  0.66367723398E+03  0.25500000920E-02 0. -1.
       -2   -1    0    0    0  501  0.00000000000E+00  0.00000000000E+00 -0.34164031780E+03  0.34164031781E+03  0.25500000920E-02 0.  1.
    10030    2    1    2    0    0  0.00000000000E+00  0.00000000000E+00  0.32203691617E+03  0.10053175518E+04  0.95234216779E+03 0.  0.
        4    1    3    3  502    0 -0.38165110449E+03  0.18200438775E+03 -0.70147158752E+02  0.42860867875E+03  0.12699999809E+01 0.  1.
       -4    1    3    3    0  502  0.38165110449E+03 -0.18200438775E+03  0.39218407493E+03  0.57670887304E+03  0.12699999809E+01 0. -1.
</event>
<event>
 5   0  0.2705111E-02  0.6416634E+03  0.7818609E-02  0.9822549E-01
        2   -1    0    0  501    0  0.00000000000E+00  0.00000000000E+00  0.57839689390E+03  0.57839689390E+03  0.25500000920E-02 0.  1.
       -2   -1    0    0    0  501  0.00000000000E+00  0.00000000000E+00 -0.17796253983E+03  0.17796253985E+03  0.25500000920E-02 0. -1.
    10030    2    1    2    0    0  0.00000000000E+00  0.00000000000E+00  0.40043435407E+03  0.75635943375E+03  0.64166340172E+03 0.  0.
        4    1    3    3  502    0 -0.28647075803E+03  0.13490554953E+03  0.26108401605E+03  0.41040404340E+03  0.12699999809E+01 0. -1.
       -4    1    3    3    0  502  0.28647075803E+03 -0.13490554953E+03  0.13935033802E+03  0.34595539035E+03  0.12699999809E+01 0.  1.
</event>
<event>
 5   0  0.2414128E-02  0.9348814E+03  0.7818609E-02  0.9382999E-01
       -2   -1    0    0    0  501  0.00000000000E+00  0.00000000000E+00  0.32441563840E+03  0.32441563841E+03  0.25500000920E-02 0.  1.
        2   -1    0    0  501    0  0.00000000000E+00  0.00000000000E+00 -0.67352113845E+03  0.67352113846E+03  0.25500000920E-02 0. -1.
    10030    2    1    2    0    0  0.00000000000E+00  0.00000000000E+00 -0.34910550005E+03  0.99793677687E+03  0.93488136170E+03 0.  0.
        3    1    3    3  502    0  0.10450407515E+03  0.42090600208E+02 -0.65881176621E+03  0.66837539890E+03  0.10100000352E+00 0. -1.
       -3    1    3    3    0  502 -0.10450407515E+03 -0.42090600208E+02  0.30970626616E+03  0.32956137797E+03  0.10100000352E+00 0.  1.
</event>
<event>
 5   0  0.1459111E-02  0.9141892E+03  0.7818609E-02  0.9408016E-01
        1   -1    0    0  501    0  0.00000000000E+00  0.00000000000E+00  0.17609152839E+04  0.17609152839E+04  0.50400001928E-02 0.  1.
       -1   -1    0    0    0  501  0.00000000000E+00  0.00000000000E+00 -0.11865162912E+03  0.11865162922E+03  0.50400001928E-02 0. -1.
    10030    2    1    2    0    0  0.00000000000E+00  0.00000000000E+00  0.16422636548E+04  0.18795669132E+04  0.91418918673E+03 0.  0.
        2    1    3    3  502    0  0.14701649788E+03  0.18839064307E+03  0.20004880492E+02  0.23980216908E+03  0.25500000920E-02 0. -1.
       -2    1    3    3    0  502 -0.14701649788E+03 -0.18839064307E+03  0.16222587743E+04  0.16397647441E+04  0.25500000920E-02 0.  1.
</event>
<event>
 5   0  0.1560728E-02  0.8440124E+03  0.7818609E-02  0.9498409E-01
        1   -1    0    0  501    0  0.00000000000E+00  0.00000000000E+00  0.96388608908E+03  0.96388608909E+03  0.50400001928E-02 0. -1.
       -1   -1    0    0    0  501  0.00000000000E+00  0.00000000000E+00 -0.18476168103E+03  0.18476168110E+03  0.50400001928E-02 0.  1.
    10030    2    1    2    0    0  0.00000000000E+00  0.00000000000E+00  0.77912440804E+03  0.11486477702E+04  0.84401235581E+03 0.  0.
        4    1    3    3  502    0 -0.37886027887E+03 -0.13794900047E+03  0.22000361492E+03  0.45931279224E+03  0.12699999809E+01 0.  1.
       -4    1    3    3    0  502  0.37886027887E+03  0.13794900047E+03  0.55912079312E+03  0.68933497796E+03  0.12699999809E+01 0. -1.
</event>
<event>
 5   0  0.1537870E-02  0.9134044E+03  0.7818609E-02  0.9408979E-01
       -1   -1    0    0    0  501  0.00000000000E+00  0.00000000000E+00  0.55365432692E+03  0.55365432695E+03  0.50400001928E-02 0.  1.
        1   -1    0    0  501    0  0.00000000000E+00  0.00000000000E+00 -0.37672763655E+03  0.37672763659E+03  0.50400001928E-02 0. -1.
    10030    2    1    2    0    0  0.00000000000E+00  0.00000000000E+00  0.17692669037E+03  0.93038196353E+03  0.91340437064E+03 0.  0.
        5    1    3    3  502    0  0.24600167936E+03 -0.37164476426E+03  0.18990429176E+03  0.48448156526E+03  0.46999998093E+01 0. -1.
       -5    1    3    3    0  502 -0.24600167936E+03  0.37164476426E+03 -0.12977601392E+02  0.44590039828E+03  0.46999998093E+01 0.  1.
</event>
<event>
 5   0  0.2679861E-02  0.8444734E+03  0.7818609E-02  0.9497785E-01
       -2   -1    0    0    0  501  0.00000000000E+00  0.00000000000E+00  0.68827290645E+02  0.68827290693E+02  0.25500000920E-02 0.  1.
        2   -1    0    0  501    0  0.00000000000E+00  0.00000000000E+00 -0.25903073217E+04  0.25903073217E+04  0.25500000920E-02 0. -1.
    10030    2    1    2    0    0  0.00000000000E+00  0.00000000000E+00 -0.25214800310E+04  0.26591346124E+04  0.84447340978E+03 0.  0.
        1    1    3    3  502    0 -0.20115574816E+03  0.27953376472E+03 -0.20299991461E+04  0.20590044424E+04  0.50400001928E-02 0. -1.
       -1    1    3    3    0  502  0.20115574816E+03 -0.27953376472E+03 -0.49148088497E+03  0.60013017001E+03  0.50400001928E-02 0.  1.
</event>
<event>
 5   0  0.2803717E-02  0.9389621E+03  0.7818609E-02  0.9378146E-01
       -2   -1    0    0    0  501  0.00000000000E+00  0.00000000000E+00  0.19939019417E+03  0.19939019418E+03  0.25500000920E-02 0.  1.
        2   -1    0    0  501    0  0.00000000000E+00  0.00000000000E+00 -0.11054327193E+04  0.11054327193E+04  0.25500000920E-02 0. -1.
    10030    2    1    2    0    0  0.00000000000E+00  0.00000000000E+00 -0.90604252513E+03  0.13048229135E+04  0.93896207496E+03 0.  0.
        5    1    3    3  502    0  0.32027868309E+03 -0.20895696329E+03 -0.83142542126E+03  0.91516761769E+03  0.46999998093E+01 0. -1.
       -5    1    3    3    0  502 -0.32027868309E+03  0.20895696329E+03 -0.74617103864E+02  0.38965529579E+03  0.46999998093E+01 0.  1.
</event>
<event>
 5   0  0.2705111E-02  0.8912350E+03  0.7818609E-02  0.9436605E-01
       -2   -1    0    0    0  501  0.00000000000E+00  0.00000000000E+00  0.40323496219E+03  0.40323496220E+03  0.25500000920E-02 0. -1.
        2   -1    0    0  501    0  0.00000000000E+00  0.00000000000E+00 -0.49245474592E+03  0.49245474592E+03  0.25500000920E-02 0.  1.
    10030    2    1    2    0    0  0.00000000000E+00  0.00000000000E+00 -0.89219783728E+02  0.89568970812E+03  0.89123503265E+03 0.  0.
        4    1    3    3  502    0  0.29478929136E+03 -0.94768567082E+02 -0.36666685237E+03  0.47992499532E+03  0.12699999809E+01 0.  1.
       -4    1    3    3    0  502 -0.29478929136E+03  0.94768567082E+02  0.27744706864E+03  0.41576471280E+03  0.12699999809E+01 0. -1.
</event>
<event>
 5   0  0.1537870E-02  0.9033264E+03  0.7818609E-02  0.9421433E-01
        1   -1    0    0  501    0  0.00000000000E+00  0.00000000000E+00  0.52518343492E+03  0.52518343494E+03  0.50400001928E-02 0.  1.
       -1   -1    0    0    0  501  0.00000000000E+00  0.00000000000E+00 -0.38843503502E+03  0.38843503505E+03  0.50400001928E-02 0. -1.
    10030    2    1    2    0    0  0.00000000000E+00  0.00000000000E+00  0.13674839990E+03  0.91361847000E+03  0.90332639940E+03 0.  0.
        5    1    3    3  502    0  0.20783357670E+03 -0.14963369219E+03 -0.30787577071E+03  0.40049296826E+03  0.46999998093E+01 0. -1.
       -5    1    3    3    0  502 -0.20783357670E+03  0.14963369219E+03  0.44462417061E+03  0.51312550173E+03  0.46999998093E+01 0.  1.
</event>
<event>
 5   0  0.1559275E-02  0.9029121E+03  0.7818609E-02  0.9421948E-01
        1   -1    0    0  501    0  0.00000000000E+00  0.00000000000E+00  0.17489513376E+04  0.17489513376E+04  0.50400001928E-02 0. -1.
       -1   -1    0    0    0  501  0.00000000000E+00  0.00000000000E+00 -0.11653416628E+03  0.11653416639E+03  0.50400001928E-02 0.  1.
    10030    2    1    2    0    0  0.00000000000E+00  0.00000000000E+00  0.16324171713E+04  0.18654855040E+04  0.90291214656E+03 0.  0.
        1    1    3    3  502    0  0.26212481245E+03  0.33026236912E+03  0.48287203587E+03  0.64105230115E+03  0.50400001928E-02 0.  1.
       -1    1    3    3    0  502 -0.26212481245E+03 -0.33026236912E+03  0.11495451354E+04  0.12244332028E+04  0.50400001928E-02 0. -1.
</event>
<event>
 5   0  0.1040163E-02  0.8498377E+03  0.7818609E-02  0.9490555E-01
        4   -1    0    0  501    0  0.00000000000E+00  0.00000000000E+00  0.24369073724E+03  0.24369404653E+03  0.12699999809E+01 0.  1.
       -4   -1    0    0    0  501  0.00000000000E+00  0.00000000000E+00 -0.74091397279E+03  0.74091506124E+03  0.12699999809E+01 0. -1.
    10030    2    1    2    0    0  0.00000000000E+00  0.00000000000E+00 -0.49722323555E+03  0.98460910777E+03  0.84983771930E+03 0.  0.
        5    1    3    3  502    0 -0.38604525190E+03  0.17041706084E+03 -0.30608765827E+03  0.52132969960E+03  0.46999998093E+01 0. -1.
       -5    1    3    3    0  502  0.38604525190E+03 -0.17041706084E+03 -0.19113557728E+03  0.46327940817E+03  0.46999998093E+01 0.  1.
</event>
<event>
 5   0  0.1459111E-02  0.9298659E+03  0.7818609E-02  0.9388999E-01
        1   -1    0    0  501    0  0.00000000000E+00  0.00000000000E+00  0.46864924120E+03  0.46864924123E+03  0.50400001928E-02 0. -1.
       -1   -1    0    0    0  501  0.00000000000E+00  0.00000000000E+00 -0.46124616097E+03  0.46124616100E+03  0.50400001928E-02 0.  1.
    10030    2    1    2    0    0  0.00000000000E+00  0.00000000000E+00  0.74030802277E+01  0.92989540223E+03  0.92986593307E+03 0.  0.
        2    1    3    3  502    0  0.27625928966E+03 -0.37362974320E+03 -0.11928518078E+02  0.46482326715E+03  0.25500000920E-02 0.  1.
       -2    1    3    3    0  502 -0.27625928966E+03  0.37362974320E+03  0.19331598306E+02  0.46507213508E+03  0.25500000920E-02 0. -1.
</event>
<event>
 5   0  0.1497410E-02  0.9103582E+03  0.7818609E-02  0.9412725E-01
       -1   -1    0    0    0  501  0.00000000000E+00  0.00000000000E+00  0.14918636750E+03  0.14918636759E+03  0.50400001928E-02 0.  1.
        1   -1    0    0  501    0  0.00000000000E+00  0.00000000000E+00 -0.13887865099E+04  0.13887865099E+04  0.50400001928E-02 0. -1.
    10030    2    1    2    0    0  0.00000000000E+00  0.00000000000E+00 -0.12396001424E+04  0.15379728775E+04  0.91035820361E+03 0.  0.
        3    1    3    3  502    0  0.29329259034E+03 -0.25414774073E+03 -0.10216408166E+04  0.10928685127E+04  0.10100000352E+00 0. -1.
       -3    1    3    3    0  502 -0.29329259034E+03  0.25414774073E+03 -0.21795932579E+03  0.44510436480E+03  0.10100000352E+00 0.  1.
</event>
<event>
 5   0  0.2679861E-02  0.9062927E+03  0.7818609E-02  0.9417749E-01
       -2   -1    0    0    0  501  0.00000000000E+00  0.00000000000E+00  0.52603164431E+03  0.52603164432E+03  0.25500000920E-02 0. -1.
        2   -1    0    0  501    0  0.00000000000E+00  0.00000000000E+00 -0.39035977303E+03  0.39035977303E+03  0.25500000920E-02 0.  1.
    10030    2    1    2    0    0  0.00000000000E+00  0.00000000000E+00  0.13567187128E+03  0.91639141735E+03  0.90629265314E+03 0.  0.
        1    1    3    3  502    0 -0.21693207588E+03  0.12879064735E+03  0.44845441771E+03  0.51454632560E+03  0.50400001928E-02 0. -1.
       -1    1    3    3    0  502  0.21693207588E+03 -0.12879064735E+03 -0.31278254643E+03  0.40184509176E+03  0.50400001928E-02 0.  1.
</event>
<event>
 5   0  0.1459111E-02  0.8890436E+03  0.7818609E-02  0.9439382E-01
        1   -1    0    0  501    0  0.00000000000E+00  0.00000000000E+00  0.16398789715E+04  0.16398789715E+04  0.50400001928E-02 0.  1.
       -1   -1    0    0    0  501  0.00000000000E+00  0.00000000000E+00 -0.12049647613E+03  0.12049647624E+03  0.50400001928E-02 0. -1.
    10030    2    1    2    0    0  0.00000000000E+00  0.00000000000E+00  0.15193824954E+04  0.17603754478E+04  0.88904361524E+03 0.  0.
        2    1    3    3  502    0 -0.32711958889E+03 -0.29772133590E+03  0.84722811090E+03  0.95574091217E+03  0.25500000920E-02 0.  1.
       -2    1    3    3    0  502  0.32711958889E+03  0.29772133590E+03  0.67215438449E+03  0.80463453560E+03  0.25500000920E-02 0. -1.
</event>
<event>
 5   0  0.1560728E-02  0.8860052E+03  0.7818609E-02  0.9443247E-01
       -1   -1    0    0    0  501  0.00000000000E+00  0.00000000000E+00  0.12456936093E+04  0.12456936093E+04  0.50400001928E-02 0. -1.
        1   -1    0    0  501    0  0.00000000000E+00  0.00000000000E+00 -0.15754381318E+03  0.15754381326E+03  0.50400001928E-02 0.  1.
    10030    2    1    2    0    0  0.00000000000E+00  0.00000000000E+00  0.10881497961E+04  0.14032374226E+04  0.88600524000E+03 0.  0.
        4    1    3    3  502    0 -0.29958465136E+03  0.57963047308E+02  0.35439724345E+02  0.30719418150E+03  0.12699999809E+01 0.  1.
       -4    1    3    3    0  502  0.29958465136E+03 -0.57963047308E+02  0.10527100718E+04  0.10960432411E+04  0.12699999809E+01 0. -1.
</event>
<event>
 5   0  0.2705111E-02  0.9093149E+03  0.7818609E-02  0.9414012E-01
        2   -1    0    0  501    0  0.00000000000E+00  0.00000000000E+00  0.53530349069E+03  0.53530349070E+03  0.25500000920E-02 0. -1.
       -2   -1    0    0    0  501  0.00000000000E+00  0.00000000000E+00 -0.38616108623E+03  0.38616108624E+03  0.25500000920E-02 0.  1.
    10030    2    1    2    0    0  0.00000000000E+00  0.00000000000E+00  0.14914240446E+03  0.92146457693E+03  0.90931485731E+03 0.  0.
        4    1    3    3  502    0  0.25391463851E+03  0.17328193638E+03 -0.26488594728E+03  0.40578991004E+03  0.12699999809E+01 0.  1.
       -4    1    3    3    0  502 -0.25391463851E+03 -0.17328193638E+03  0.41402835175E+03  0.51567466689E+03  0.12699999809E+01 0. -1.
</event>
<event>
 5   0  0.1537870E-02  0.9013045E+03  0.7818609E-02  0.9423952E-01
       -1   -1    0    0    0  501  0.00000000000E+00  0.00000000000E+00  0.37126400664E+03  0.37126400667E+03  0.50400001928E-02 0.  1.
        1   -1    0    0  501    0  0.00000000000E+00  0.00000000000E+00 -0.54701630999E+03  0.54701631002E+03  0.50400001928E-02 0. -1.
    10030    2    1    2    0    0  0.00000000000E+00  0.00000000000E+00 -0.17575230336E+03  0.91828031669E+03  0.90130453670E+03 0.  0.
        5    1    3    3  502    0  0.23342560796E+03 -0.81998479009E+02  0.29585290223E+03  0.38569715421E+03  0.46999998093E+01 0.  1.
       -5    1    3    3    0  502 -0.23342560796E+03  0.81998479009E+02 -0.47160520559E+03  0.53258316247E+03  0.46999998093E+01 0. -1.
</event>
<event>
 5   0  0.1537870E-02  0.8515044E+03  0.7818609E-02  0.9488320E-01
        1   -1    0    0  501    0  0.00000000000E+00  0.00000000000E+00  0.10875062250E+04  0.10875062250E+04  0.50400001928E-02 0. -1.
       -1   -1    0    0    0  501  0.00000000000E+00  0.00000000000E+00 -0.16667944864E+03  0.16667944872E+03  0.50400001928E-02 0.  1.
    10030    2    1    2    0    0  0.00000000000E+00  0.00000000000E+00  0.92082677632E+03  0.12541856737E+04  0.85150440521E+03 0.  0.
        5    1    3    3  502    0  0.32330223817E+03  0.16756942042E+03  0.13557506801E+03  0.38859559561E+03  0.46999998093E+01 0.  1.
       -5    1    3    3    0  502 -0.32330223817E+03 -0.16756942042E+03  0.78525170831E+03  0.86559007808E+03  0.46999998093E+01 0. -1.
</event>
<event>
 5   0  0.1040163E-02  0.9219354E+03  0.7818609E-02  0.9398569E-01
       -3   -1    0    0    0  501  0.00000000000E+00  0.00000000000E+00  0.86241701807E+03  0.86241702399E+03  0.10100000352E+00 0.  1.
        3   -1    0    0  501    0  0.00000000000E+00  0.00000000000E+00 -0.24639031068E+03  0.24639033138E+03  0.10100000352E+00 0. -1.
    10030    2    1    2    0    0  0.00000000000E+00  0.00000000000E+00  0.61602670739E+03  0.11088073554E+04  0.92193538120E+03 0.  0.
        1    1    3    3  502    0  0.16645691900E+03  0.40928187458E+03  0.46607356862E+03  0.64221813283E+03  0.50400001928E-02 0.  1.
       -1    1    3    3    0  502 -0.16645691900E+03 -0.40928187458E+03  0.14995313877E+03  0.46658922254E+03  0.50400001928E-02 0. -1.
</event>
<event>
 5   0  0.1459111E-02  0.8423729E+03  0.7818609E-02  0.9500631E-01
       -1   -1    0    0    0  501  0.00000000000E+00  0.00000000000E+00  0.22344096568E+03  0.22344096573E+03  0.50400001928E-02 0. -1.
        1   -1    0    0  501    0  0.00000000000E+00  0.00000000000E+00 -0.79393694321E+03  0.79393694322E+03  0.50400001928E-02 0.  1.
    10030    2    1    2    0    0  0.00000000000E+00  0.00000000000E+00 -0.57049597753E+03  0.10173779090E+04  0.84237292766E+03 0.  0.
        2    1    3    3  502    0  0.22860960734E+03 -0.83953937884E+02 -0.70027820946E+03  0.74141768721E+03  0.25500000920E-02 0.  1.
       -2    1    3    3    0  502 -0.22860960734E+03  0.83953937884E+02  0.12978223193E+03  0.27596022175E+03  0.25500000920E-02 0. -1.
</event>
<event>
 5   0  0.2679861E-02  0.8841181E+03  0.7818609E-02  0.9445655E-01
        2   -1    0    0  501    0  0.00000000000E+00  0.00000000000E+00  0.18620891713E+04  0.18620891714E+04  0.25500000920E-02 0. -1.
       -2   -1    0    0    0  501  0.00000000000E+00  0.00000000000E+00 -0.10494460668E+03  0.10494460671E+03  0.25500000920E-02 0.  1.
    10030    2    1    2    0    0  0.00000000000E+00  0.00000000000E+00  0.17571445647E+04  0.19670337781E+04  0.88411812722E+03 0.  0.
        1    1    3    3  502    0  0.14277051916E+03 -0.34606970867E+03  0.14016190988E+04  0.14507528262E+04  0.50400001928E-02 0. -1.
       -1    1    3    3    0  502 -0.14277051916E+03  0.34606970867E+03  0.35552546585E+03  0.51628095190E+03  0.50400001928E-02 0.  1.
</event>
<event>
 5   0  0.1459111E-02  0.8777828E+03  0.7818609E-02  0.9453788E-01
        1   -1    0    0  501    0  0.00000000000E+00  0.00000000000E+00  0.37096763810E+03  0.37096763813E+03  0.50400001928E-02 0.  1.
       -1   -1    0    0    0  501  0.00000000000E+00  0.00000000000E+00 -0.51925189661E+03  0.51925189664E+03  0.50400001928E-02 0. -1.
    10030    2    1    2    0    0  0.00000000000E+00  0.00000000000E+00 -0.14828425852E+03  0.89021953477E+03  0.87778277424E+03 0.  0.
        2    1    3    3  502    0 -0.35148194959E+03  0.18745174055E+03 -0.26100229910E+03  0.47623514787E+03  0.25500000920E-02 0. -1.
       -2    1    3    3    0  502  0.35148194959E+03 -0.18745174055E+03  0.11271804058E+03  0.41398438690E+03  0.25500000920E-02 0.  1.
</event>
<event>
 5   0  0.2679861E-02  0.8965700E+03  0.7818609E-02  0.9429879E-01
        2   -1    0    0  501    0  0.00000000000E+00  0.00000000000E+00  0.13831110150E+04  0.13831110150E+04  0.25500000920E-02 0. -1.
       -2   -1    0    0    0  501  0.00000000000E+00  0.00000000000E+00 -0.14529524841E+03  0.14529524843E+03  0.25500000920E-02 0.  1.
    10030    2    1    2    0    0  0.00000000000E+00  0.00000000000E+00  0.12378157666E+04  0.15284062635E+04  0.89657003859E+03 0.  0.
        1    1    3    3  502    0  0.35512668136E+03  0.11357679101E+03  0.19462349300E+03  0.42058643740E+03  0.50400001928E-02 0.  1.
       -1    1    3    3    0  502 -0.35512668136E+03 -0.11357679101E+03  0.10431922736E+04  0.11078198261E+04  0.50400001928E-02 0. -1.
</event>
<event>
 5   0  0.2414128E-02  0.8835139E+03  0.7818609E-02  0.9446428E-01
       -2   -1    0    0    0  501  0.00000000000E+00  0.00000000000E+00  0.10351499370E+03  0.10351499373E+03  0.25500000920E-02 0. -1.
        2   -1    0    0  501    0  0.00000000000E+00  0.00000000000E+00 -0.18852263542E+04  0.18852263542E+04  0.25500000920E-02 0.  1.
    10030    2    1    2    0    0  0.00000000000E+00  0.00000000000E+00 -0.17817113605E+04  0.19887413480E+04  0.88351388041E+03 0.  0.
        3    1    3    3  502    0 -0.64397578161E+02 -0.40087393801E+03 -0.49902163976E+03  0.64332695373E+03  0.10100000352E+00 0. -1.
       -3    1    3    3    0  502  0.64397578161E+02  0.40087393801E+03 -0.12826897208E+04  0.13454143942E+04  0.10100000352E+00 0.  1.
</event>
<event>
 5   0  0.2414128E-02  0.7448828E+03  0.7818609E-02  0.9643413E-01
       -2   -1    0    0    0  501  0.00000000000E+00  0.00000000000E+00  0.22521603415E+03  0.22521603416E+03  0.25500000920E-02 0.  1.
        2   -1    0    0  501    0  0.00000000000E+00  0.00000000000E+00 -0.61590908655E+03  0.61590908655E+03  0.25500000920E-02 0. -1.
    10030    2    1    2    0    0  0.00000000000E+00  0.00000000000E+00 -0.39069305240E+03  0.84112512071E+03  0.74488281461E+03 0.  0.
        3    1    3    3  502    0 -0.16773355067E+03  0.28614888552E+03 -0.38663546635E+03  0.50941409751E+03  0.10100000352E+00 0. -1.
       -3    1    3    3    0  502  0.16773355067E+03 -0.28614888552E+03 -0.40575860479E+01  0.33171102320E+03  0.10100000352E+00 0.  1.
</event>
<event>
 5   0  0.1559275E-02  0.9143343E+03  0.7818609E-02  0.9407838E-01
        1   -1    0    0  501    0  0.00000000000E+00  0.00000000000E+00  0.20633304383E+03  0.20633304389E+03  0.50400001928E-02 0. -1.
       -1   -1    0    0    0  501  0.00000000000E+00  0.00000000000E+00 -0.10129341470E+04  0.10129341470E+04  0.50400001928E-02 0.  1.
    10030    2    1    2    0    0  0.00000000000E+00  0.00000000000E+00 -0.80660110317E+03  0.12192671909E+04  0.91433426228E+03 0.  0.
        1    1    3    3  502    0  0.99550969300E+02 -0.19680214968E+03  0.13070076665E+03  0.25636726007E+03  0.50400001928E-02 0. -1.
       -1    1    3    3    0  502 -0.99550969300E+02  0.19680214968E+03 -0.93730186982E+03  0.96289993084E+03  0.50400001928E-02 0.  1.
</event>
<event>
 5   0  0.1497410E-02  0.8652356E+03  0.7818609E-02  0.9470113E-01
        1   -1    0    0  501    0  0.00000000000E+00  0.00000000000E+00  0.63814658604E+03  0.63814658606E+03  0.50400001928E-02 0. -1.
       -1   -1    0    0    0  501  0.00000000000E+00  0.00000000000E+00 -0.29328398467E+03  0.29328398472E+03  0.50400001928E-02 0.  1.
    10030    2    1    2    0    0  0.00000000000E+00  0.00000000000E+00  0.34486260137E+03  0.93143057078E+03  0.86523562939E+03 0.  0.
        3    1    3    3  502    0 -0.37176129578E+03  0.22116994602E+03  0.17885049650E+03  0.46809199562E+03  0.10100000352E+00 0.  1.
       -3    1    3    3    0  502  0.37176129578E+03 -0.22116994602E+03  0.16601210487E+03  0.46333857516E+03  0.10100000352E+00 0. -1.
</event>
<event>
 5   0  0.2414128E-02  0.9281635E+03  0.7818609E-02  0.9391045E-01
       -2   -1    0    0    0  501  0.00000000000E+00  0.00000000000E+00  0.18074110169E+03  0.18074110171E+03  0.25500000920E-02 0. -1.
        2   -1    0    0  501    0  0.00000000000E+00  0.00000000000E+00 -0.11916041610E+04  0.11916041610E+04  0.25500000920E-02 0.  1.
    10030    2    1    2    0    0  0.00000000000E+00  0.00000000000E+00 -0.10108630593E+04  0.13723452627E+04  0.92816345295E+03 0.  0.
        3    1    3    3  502    0 -0.89656117706E+02 -0.43846144699E+03 -0.32383223662E+03  0.55240744710E+03  0.10100000352E+00 0. -1.
       -3    1    3    3    0  502  0.89656117706E+02  0.43846144699E+03 -0.68703082264E+03  0.81993781557E+03  0.10100000352E+00 0.  1.
</event>
<event>
 5   0  0.1497410E-02  0.8694655E+03  0.7818609E-02  0.9464577E-01
        1   -1    0    0  501    0  0.00000000000E+00  0.00000000000E+00  0.38603474516E+03  0.38603474519E+03  0.50400001928E-02 0.  1.
       -1   -1    0    0    0  501  0.00000000000E+00  0.00000000000E+00 -0.48957400393E+03  0.48957400396E+03  0.50400001928E-02 0. -1.
    10030    2    1    2    0    0  0.00000000000E+00  0.00000000000E+00 -0.10353925878E+03  0.87560874915E+03  0.86946552749E+03 0.  0.
        3    1    3    3  502    0 -0.15235661711E+02 -0.24972961850E+03  0.30626384277E+03  0.39546751995E+03  0.10100000352E+00 0.  1.
       -3    1    3    3    0  502  0.15235661711E+02  0.24972961850E+03 -0.40980310155E+03  0.48014122920E+03  0.10100000352E+00 0. -1.
</event>
<event>
 5   0  0.2628383E-02  0.8939565E+03  0.7818609E-02  0.9433168E-01
       -2   -1    0    0    0  501  0.00000000000E+00  0.00000000000E+00  0.48285975368E+03  0.48285975369E+03  0.25500000920E-02 0.  1.
        2   -1    0    0  501    0  0.00000000000E+00  0.00000000000E+00 -0.41376307196E+03  0.41376307197E+03  0.25500000920E-02 0. -1.
    10030    2    1    2    0    0  0.00000000000E+00  0.00000000000E+00  0.69096681722E+02  0.89662282565E+03  0.89395645311E+03 0.  0.
        2    1    3    3  502    0 -0.10061351080E+02 -0.33359979685E+03 -0.26365896664E+03  0.42533058429E+03  0.25500000920E-02 0. -1.
       -2    1    3    3    0  502  0.10061351080E+02  0.33359979685E+03  0.33275564836E+03  0.47129224136E+03  0.25500000920E-02 0.  1.
</event>
<event>
 5   0  0.1559275E-02  0.8686501E+03  0.7818609E-02  0.9465642E-01
        1   -1    0    0  501    0  0.00000000000E+00  0.00000000000E+00  0.45599451188E+03  0.45599451191E+03  0.50400001928E-02 0. -1.
       -1   -1    0    0    0  501  0.00000000000E+00  0.00000000000E+00 -0.41368534583E+03  0.41368534587E+03  0.50400001928E-02 0.  1.
    10030    2    1    2    0    0  0.00000000000E+00  0.00000000000E+00  0.42309166044E+02  0.86967985777E+03  0.86865009612E+03 0.  0.
        1    1    3    3  502    0  0.19980005402E+03  0.17816731797E+03  0.36357551917E+03  0.45149840857E+03  0.50400001928E-02 0. -1.
       -1    1    3    3    0  502 -0.19980005402E+03 -0.17816731797E+03 -0.32126635312E+03  0.41818144920E+03  0.50400001928E-02 0.  1.
</event>
<event>
 5   0  0.1559275E-02  0.8995697E+03  0.7818609E-02  0.9426119E-01
        1   -1    0    0  501    0  0.00000000000E+00  0.00000000000E+00  0.76870549983E+03  0.76870549985E+03  0.50400001928E-02 0. -1.
       -1   -1    0    0    0  501  0.00000000000E+00  0.00000000000E+00 -0.26317805529E+03  0.26317805533E+03  0.50400001928E-02 0.  1.
    10030    2    1    2    0    0  0.00000000000E+00  0.00000000000E+00  0.50552744455E+03  0.10318835552E+04  0.89956971618E+03 0.  0.
        1    1    3    3  502    0  0.25967514883E+03 -0.34090790079E+03  0.40944504240E+03  0.59270112410E+03  0.50400001928E-02 0. -1.
       -1    1    3    3    0  502 -0.25967514883E+03  0.34090790079E+03  0.96082402150E+02  0.43918243108E+03  0.50400001928E-02 0.  1.
</event>
<event>
 5   0  0.1459111E-02  0.9063242E+03  0.7818609E-02  0.9417710E-01
        1   -1    0    0  501    0  0.00000000000E+00  0.00000000000E+00  0.27895928141E+03  0.27895928145E+03  0.50400001928E-02 0.  1.
       -1   -1    0    0    0  501  0.00000000000E+00  0.00000000000E+00 -0.73615010836E+03  0.73615010838E+03  0.50400001928E-02 0. -1.
    10030    2    1    2    0    0  0.00000000000E+00  0.00000000000E+00 -0.45719082696E+03  0.10151093898E+04  0.90632423617E+03 0.  0.
        2    1    3    3  502    0  0.11000671410E+03 -0.63901066491E+02  0.25854776459E+03  0.28815233823E+03  0.25500000920E-02 0.  1.
       -2    1    3    3    0  502 -0.11000671410E+03  0.63901066491E+02 -0.71573859154E+03  0.72695705160E+03  0.25500000920E-02 0. -1.
</event>
<event>
 5   0  0.2705111E-02  0.8523786E+03  0.7818609E-02  0.9487150E-01
       -2   -1    0    0    0  501  0.00000000000E+00  0.00000000000E+00  0.14985035647E+03  0.14985035650E+03  0.25500000920E-02 0.  1.
        2   -1    0    0  501    0  0.00000000000E+00  0.00000000000E+00 -0.12121245945E+04  0.12121245945E+04  0.25500000920E-02 0. -1.
    10030    2    1    2    0    0  0.00000000000E+00  0.00000000000E+00 -0.10622742381E+04  0.13619749510E+04  0.85237856050E+03 0.  0.
        4    1    3    3  502    0  0.40149446602E+03 -0.11181489257E+03 -0.67347439185E+03  0.79200362740E+03  0.12699999809E+01 0. -1.
       -4    1    3    3    0  502 -0.40149446602E+03  0.11181489257E+03 -0.38879984621E+03  0.56997132363E+03  0.12699999809E+01 0.  1.
</event>
<event>
 5   0  0.1497410E-02  0.9063269E+03  0.7818609E-02  0.9417707E-01
       -1   -1    0    0    0  501  0.00000000000E+00  0.00000000000E+00  0.10060981076E+04  0.10060981076E+04  0.50400001928E-02 0. -1.
        1   -1    0    0  501    0  0.00000000000E+00  0.00000000000E+00 -0.20411239779E+03  0.20411239785E+03  0.50400001928E-02 0.  1.
    10030    2    1    2    0    0  0.00000000000E+00  0.00000000000E+00  0.80198570982E+03  0.12102105055E+04  0.90632686643E+03 0.  0.
        3    1    3    3  502    0 -0.10989965357E+03  0.43541161341E+03  0.48217022904E+03  0.65890010390E+03  0.10100000352E+00 0. -1.
       -3    1    3    3    0  502  0.10989965357E+03 -0.43541161341E+03  0.31981548078E+03  0.55131040158E+03  0.10100000352E+00 0.  1.
</event>
<event>
 5   0  0.1537870E-02  0.9036929E+03  0.7818609E-02  0.9420977E-01
        1   -1    0    0  501    0  0.00000000000E+00  0.00000000000E+00  0.49145165862E+03  0.49145165864E+03  0.50400001928E-02 0. -1.
       -1   -1    0    0    0  501  0.00000000000E+00  0.00000000000E+00 -0.41543296448E+03  0.41543296451E+03  0.50400001928E-02 0.  1.
    10030    2    1    2    0    0  0.00000000000E+00  0.00000000000E+00  0.76018694142E+02  0.90688462315E+03  0.90369291125E+03 0.  0.
        5    1    3    3  502    0  0.33142826180E+03  0.86639955564E+02  0.33365459158E+03  0.47822447773E+03  0.46999998093E+01 0. -1.
       -5    1    3    3    0  502 -0.33142826180E+03 -0.86639955564E+02 -0.25763589744E+03  0.42866014542E+03  0.46999998093E+01 0.  1.
</event>
<event>
 5   0  0.1459111E-02  0.9020148E+03  0.7818609E-02  0.9423066E-01
        1   -1    0    0  501    0  0.00000000000E+00  0.00000000000E+00  0.10881100138E+04  0.10881100139E+04  0.50400001928E-02 0.  1.
       -1   -1    0    0    0  501  0.00000000000E+00  0.00000000000E+00 -0.18693669390E+03  0.18693669397E+03  0.50400001928E-02 0. -1.
    10030    2    1    2    0    0  0.00000000000E+00  0.00000000000E+00  0.90117331994E+03  0.12750467078E+04  0.90201483056E+03 0.  0.
        2    1    3    3  502    0 -0.31243335901E+03 -0.58089944693E+02  0.90296512756E+03  0.95725391986E+03  0.25500000920E-02 0.  1.
       -2    1    3    3    0  502  0.31243335901E+03  0.58089944693E+02 -0.17918076188E+01  0.31779278796E+03  0.25500000920E-02 0. -1.
</event>
<event>
 5   0  0.2628383E-02  0.8793565E+03  0.7818609E-02  0.9451761E-01
        2   -1    0    0  501    0  0.00000000000E+00  0.00000000000E+00  0.11264931760E+04  0.11264931760E+04  0.25500000920E-02 0.  1.
       -2   -1    0    0    0  501  0.00000000000E+00  0.00000000000E+00 -0.17160954091E+03  0.17160954093E+03  0.25500000920E-02 0. -1.
    10030    2    1    2    0    0  0.00000000000E+00  0.00000000000E+00  0.95488363511E+03  0.12981027170E+04  0.87935653017E+03 0.  0.
        2    1    3    3  502    0  0.29096043554E+03 -0.14364975839E+03  0.39472188189E+02  0.32688114321E+03  0.25500000920E-02 0. -1.
       -2    1    3    3    0  502 -0.29096043554E+03  0.14364975839E+03  0.91541144692E+03  0.97122157374E+03  0.25500000920E-02 0.  1.
</event>
<event>
 5   0  0.1040163E-02  0.9076301E+03  0.7818609E-02  0.9416093E-01
        3   -1    0    0  501    0  0.00000000000E+00  0.00000000000E+00  0.42627408094E+03  0.42627409291E+03  0.10100000352E+00 0.  1.
       -3   -1    0    0    0  501  0.00000000000E+00  0.00000000000E+00 -0.48313533263E+03  0.48313534318E+03  0.10100000352E+00 0. -1.
    10030    2    1    2    0    0  0.00000000000E+00  0.00000000000E+00 -0.56861251685E+02  0.90940943609E+03  0.90763005708E+03 0.  0.
        2    1    3    3  502    0 -0.29854642213E+03 -0.31917464568E+03  0.94061487800E+02  0.44704584117E+03  0.25500000920E-02 0.  1.
       -2    1    3    3    0  502  0.29854642213E+03  0.31917464568E+03 -0.15092273949E+03  0.46236359492E+03  0.25500000920E-02 0. -1.
</event>
<event>
 5   0  0.2705111E-02  0.9073039E+03  0.7818609E-02  0.9416497E-01
        2   -1    0    0  501    0  0.00000000000E+00  0.00000000000E+00  0.25524449466E+03  0.25524449467E+03  0.25500000920E-02 0.  1.
       -2   -1    0    0    0  501  0.00000000000E+00  0.00000000000E+00 -0.80628615763E+03  0.80628615763E+03  0.25500000920E-02 0. -1.
    10030    2    1    2    0    0  0.00000000000E+00  0.00000000000E+00 -0.55104166297E+03  0.10615306523E+04  0.90730392452E+03 0.  0.
        4    1    3    3  502    0  0.32818973964E+03  0.29462896504E+03 -0.15123929151E+03  0.46625064980E+03  0.12699999809E+01 0.  1.
       -4    1    3    3    0  502 -0.32818973964E+03 -0.29462896504E+03 -0.39980237146E+03  0.59528000250E+03  0.12699999809E+01 0. -1.
</event>
<event>
 5   0  0.2705111E-02  0.8728243E+03  0.7818609E-02  0.9460205E-01
        2   -1    0    0  501    0  0.00000000000E+00  0.00000000000E+00  0.41948032901E+03  0.41948032902E+03  0.25500000920E-02 0. -1.
       -2   -1    0    0    0  501  0.00000000000E+00  0.00000000000E+00 -0.45402739056E+03  0.45402739057E+03  0.25500000920E-02 0.  1.
    10030    2    1    2    0    0  0.00000000000E+00  0.00000000000E+00 -0.34547061550E+02  0.87350771959E+03  0.87282428743E+03 0.  0.
        4    1    3    3  502    0  0.87605510911E+01  0.39283263256E+03 -0.20731619530E+03  0.44427001046E+03  0.12699999809E+01 0.  1.
       -4    1    3    3    0  502 -0.87605510911E+01 -0.39283263256E+03  0.17276913375E+03  0.42923770913E+03  0.12699999809E+01 0. -1.
</event>
<event>
 5   0  0.1560728E-02  0.9030948E+03  0.7818609E-02  0.9421721E-01
        1   -1    0    0  501    0  0.00000000000E+00  0.00000000000E+00  0.12463306989E+04  0.12463306989E+04  0.50400001928E-02 0. -1.
       -1   -1    0    0    0  501  0.00000000000E+00  0.00000000000E+00 -0.16359626233E+03  0.16359626241E+03  0.50400001928E-02 0.  1.
    10030    2    1    2    0    0  0.00000000000E+00  0.00000000000E+00  0.10827344366E+04  0.14099269613E+04  0.90309477694E+03 0.  0.
        4    1    3    3  502    0  0.13477309222E+03  0.39745014753E+03  0.80150095341E+03  0.90472968193E+03  0.12699999809E+01 0. -1.
       -4    1    3    3    0  502 -0.13477309222E+03 -0.39745014753E+03  0.28123348319E+03  0.50519727941E+03  0.12699999809E+01 0.  1.
</event>
<event>
 5   0  0.2628383E-02  0.9102472E+03  0.7818609E-02  0.9412862E-01
        2   -1    0    0  501    0  0.00000000000E+00  0.00000000000E+00  0.66754225779E+03  0.66754225779E+03  0.25500000920E-02 0.  1.
       -2   -1    0    0    0  501  0.00000000000E+00  0.00000000000E+00 -0.31029867111E+03  0.31029867112E+03  0.25500000920E-02 0. -1.
    10030    2    1    2    0    0  0.00000000000E+00  0.00000000000E+00  0.35724358668E+03  0.97784092892E+03  0.91024716536E+03 0.  0.
        2    1    3    3  502    0 -0.16518703050E+03  0.18892119196E+02  0.63374985365E+03  0.65519656914E+03  0.25500000920E-02 0.  1.
       -2    1    3    3    0  502  0.16518703050E+03 -0.18892119196E+02 -0.27650626697E+03  0.32264435977E+03  0.25500000920E-02 0. -1.
</event>
<event>
 5   0  0.1040163E-02  0.9424041E+03  0.7818609E-02  0.9374073E-01
       -3   -1    0    0    0  501  0.00000000000E+00  0.00000000000E+00  0.47570637421E+03  0.47570638494E+03  0.10100000352E+00 0.  1.
        3   -1    0    0  501    0  0.00000000000E+00  0.00000000000E+00 -0.46674037760E+03  0.46674038853E+03  0.10100000352E+00 0. -1.
    10030    2    1    2    0    0  0.00000000000E+00  0.00000000000E+00  0.89659966113E+01  0.94244677347E+03  0.94240412336E+03 0.  0.
        4    1    3    3  502    0  0.44210736844E+03 -0.30234255721E+01  0.16746799130E+03  0.47277394952E+03  0.12699999809E+01 0.  1.
       -4    1    3    3    0  502 -0.44210736844E+03  0.30234255721E+01 -0.15850199469E+03  0.46967282395E+03  0.12699999809E+01 0. -1.
</event>
<event>
 5   0  0.2705111E-02  0.6392873E+03  0.7818609E-02  0.9827091E-01
       -2   -1    0    0    0  501  0.00000000000E+00  0.00000000000E+00  0.14711655699E+03  0.14711655701E+03  0.25500000920E-02 0.  1.
        2   -1    0    0  501    0  0.00000000000E+00  0.00000000000E+00 -0.69449744818E+03  0.69449744819E+03  0.25500000920E-02 0. -1.
    10030    2    1    2    0    0  0.00000000000E+00  0.00000000000E+00 -0.54738089119E+03  0.84161400520E+03  0.63928733266E+03 0.  0.
        4    1    3    3  502    0 -0.22557935154E+03  0.12458921864E+03 -0.24731686929E+02  0.25888566295E+03  0.12699999809E+01 0.  1.
       -4    1    3    3    0  502  0.22557935154E+03 -0.12458921864E+03 -0.52264920426E+03  0.58272834225E+03  0.12699999809E+01 0. -1.
</event>
<event>
 5   0  0.2803717E-02  0.9010861E+03  0.7818609E-02  0.9424225E-01
        2   -1    0    0  501    0  0.00000000000E+00  0.00000000000E+00  0.95415483157E+03  0.95415483158E+03  0.25500000920E-02 0. -1.
       -2   -1    0    0    0  501  0.00000000000E+00  0.00000000000E+00 -0.21274224000E+03  0.21274224002E+03  0.25500000920E-02 0.  1.
    10030    2    1    2    0    0  0.00000000000E+00  0.00000000000E+00  0.74141259157E+03  0.11668970716E+04  0.90108609175E+03 0.  0.
        5    1    3    3  502    0 -0.24358106708E+02 -0.31349665492E+03 -0.47102924196E+02  0.31798466232E+03  0.46999998093E+01 0.  1.
       -5    1    3    3    0  502  0.24358106708E+02  0.31349665492E+03  0.78851551577E+03  0.84891240927E+03  0.46999998093E+01 0. -1.
</event>
<event>
 5   0  0.1040163E-02  0.8782911E+03  0.7818609E-02  0.9453133E-01
        4   -1    0    0  501    0  0.00000000000E+00  0.00000000000E+00  0.48550568427E+03  0.48550734532E+03  0.12699999809E+01 0.  1.
       -4   -1    0    0    0  501  0.00000000000E+00  0.00000000000E+00 -0.39720893770E+03  0.39721096799E+03  0.12699999809E+01 0. -1.
    10030    2    1    2    0    0  0.00000000000E+00  0.00000000000E+00  0.88296746566E+02  0.88271831330E+03  0.87829112781E+03 0.  0.
        4    1    3    3  502    0 -0.66106652137E+02  0.19675414001E+03 -0.34479708839E+03  0.40245363227E+03  0.12699999809E+01 0. -1.
       -4    1    3    3    0  502  0.66106652137E+02 -0.19675414001E+03  0.43309383496E+03  0.48026468103E+03  0.12699999809E+01 0.  1.
</event>
<event>
 5   0  0.2414128E-02  0.8931494E+03  0.7818609E-02  0.9434186E-01
        2   -1    0    0  501    0  0.00000000000E+00  0.00000000000E+00  0.25694106888E+03  0.25694106889E+03  0.25500000920E-02 0. -1.
       -2   -1    0    0    0  501  0.00000000000E+00  0.00000000000E+00 -0.77616621589E+03  0.77616621589E+03  0.25500000920E-02 0.  1.
    10030    2    1    2    0    0  0.00000000000E+00  0.00000000000E+00 -0.51922514701E+03  0.10331072848E+04  0.89314943239E+03 0.  0.
        3    1    3    3  502    0  0.28407743091E+03  0.24962226021E+03  0.15131931027E+02  0.37847093031E+03  0.10100000352E+00 0. -1.
       -3    1    3    3    0  502 -0.28407743091E+03 -0.24962226021E+03 -0.53435707804E+03  0.65463635447E+03  0.10100000352E+00 0.  1.
</event>
<event>
 5   0  0.1537870E-02  0.8777922E+03  0.7818609E-02  0.9453776E-01
        1   -1    0    0  501    0  0.00000000000E+00  0.00000000000E+00  0.54070664186E+03  0.54070664189E+03  0.50400001928E-02 0.  1.
       -1   -1    0    0    0  501  0.00000000000E+00  0.00000000000E+00 -0.35625561810E+03  0.35625561813E+03  0.50400001928E-02 0. -1.
    10030    2    1    2    0    0  0.00000000000E+00  0.00000000000E+00  0.18445102377E+03  0.89696226002E+03  0.87779218254E+03 0.  0.
        5    1    3    3  502    0  0.41606587419E+03 -0.12125964930E+03  0.21482258152E+02  0.43393351061E+03  0.46999998093E+01 0. -1.
       -5    1    3    3    0  502 -0.41606587419E+03  0.12125964930E+03  0.16296876562E+03  0.46302874941E+03  0.46999998093E+01 0.  1.
</event>
<event>
 5   0  0.1459111E-02  0.9127647E+03  0.7818609E-02  0.9409764E-01
        1   -1    0    0  501    0  0.00000000000E+00  0.00000000000E+00  0.18249486100E+03  0.18249486107E+03  0.50400001928E-02 0. -1.
       -1   -1    0    0    0  501  0.00000000000E+00  0.00000000000E+00 -0.11413189619E+04  0.11413189619E+04  0.50400001928E-02 0.  1.
    10030    2    1    2    0    0  0.00000000000E+00  0.00000000000E+00 -0.95882410091E+03  0.13238138230E+04  0.91276469118E+03 0.  0.
        2    1    3    3  502    0  0.13899202935E+02  0.38424608326E+03 -0.83598963333E+03  0.92017221615E+03  0.25500000920E-02 0.  1.
       -2    1    3    3    0  502 -0.13899202935E+02 -0.38424608326E+03 -0.12283446759E+03  0.40364160684E+03  0.25500000920E-02 0. -1.
</event>
<event>
 5   0  0.2679861E-02  0.9042844E+03  0.7818609E-02  0.9420241E-01
       -2   -1    0    0    0  501  0.00000000000E+00  0.00000000000E+00  0.13129084686E+03  0.13129084688E+03  0.25500000920E-02 0. -1.
        2   -1    0    0  501    0  0.00000000000E+00  0.00000000000E+00 -0.15570969543E+04  0.15570969543E+04  0.25500000920E-02 0.  1.
    10030    2    1    2    0    0  0.00000000000E+00  0.00000000000E+00 -0.14258061074E+04  0.16883878012E+04  0.90428441940E+03 0.  0.
        1    1    3    3  502    0 -0.18153659489E+03  0.32689747171E+03 -0.11875100316E+04  0.12449889829E+04  0.50400001928E-02 0.  1.
       -1    1    3    3    0  502  0.18153659489E+03 -0.32689747171E+03 -0.23829607585E+03  0.44339881832E+03  0.50400001928E-02 0. -1.
</event>
<event>
 5   0  0.1560728E-02  0.8802639E+03  0.7818609E-02  0.9450594E-01
       -1   -1    0    0    0  501  0.00000000000E+00  0.00000000000E+00  0.26123770798E+03  0.26123770803E+03  0.50400001928E-02 0.  1.
        1   -1    0    0  501    0  0.00000000000E+00  0.00000000000E+00 -0.74153209866E+03  0.74153209867E+03  0.50400001928E-02 0. -1.
    10030    2    1    2    0    0  0.00000000000E+00  0.00000000000E+00 -0.48029439067E+03  0.10027698067E+04  0.88026392833E+03 0.  0.
        4    1    3    3  502    0 -0.39566057397E+03  0.19278640930E+03 -0.23923331715E+03  0.50094718518E+03  0.12699999809E+01 0. -1.
       -4    1    3    3    0  502  0.39566057397E+03 -0.19278640930E+03 -0.24106107352E+03  0.50182262152E+03  0.12699999809E+01 0.  1.
</event>
<event>
 5   0  0.2414128E-02  0.9035038E+03  0.7818609E-02  0.9421212E-01
       -2   -1    0    0    0  501  0.00000000000E+00  0.00000000000E+00  0.33562116121E+03  0.33562116122E+03  0.25500000920E-02 0.  1.
        2   -1    0    0  501    0  0.00000000000E+00  0.00000000000E+00 -0.60806592917E+03  0.60806592917E+03  0.25500000920E-02 0. -1.
    10030    2    1    2    0    0  0.00000000000E+00  0.00000000000E+00 -0.27244476796E+03  0.94368709039E+03  0.90350383119E+03 0.  0.
        3    1    3    3  502    0  0.19941095918E+03 -0.48412906831E+02 -0.55657811497E+03  0.59320127145E+03  0.10100000352E+00 0. -1.
       -3    1    3    3    0  502 -0.19941095918E+03  0.48412906831E+02  0.28413334701E+03  0.35048581894E+03  0.10100000352E+00 0.  1.
</event>
<event>
 5   0  0.1497410E-02  0.9121180E+03  0.7818609E-02  0.9410559E-01
        1   -1    0    0  501    0  0.00000000000E+00  0.00000000000E+00  0.17466148354E+03  0.17466148362E+03  0.50400001928E-02 0.  1.
       -1   -1    0    0    0  501  0.00000000000E+00  0.00000000000E+00 -0.11908166930E+04  0.11908166930E+04  0.50400001928E-02 0. -1.
    10030    2    1    2    0    0  0.00000000000E+00  0.00000000000E+00 -0.10161552094E+04  0.13654781766E+04  0.91211799737E+03 0.  0.
        3    1    3    3  502    0  0.19309900030E+02 -0.73166128982E+02  0.16519765116E+03  0.18170423446E+03  0.10100000352E+00 0.  1.
       -3    1    3    3    0  502 -0.19309900030E+02  0.73166128982E+02 -0.11813528606E+04  0.11837739421E+04  0.10100000352E+00 0. -1.
</event>
<event>
 5   0  0.1497410E-02  0.8906774E+03  0.7818609E-02  0.9437311E-01
       -1   -1    0    0    0  501  0.00000000000E+00  0.00000000000E+00  0.49644598993E+03  0.49644598996E+03  0.50400001928E-02 0. -1.
        1   -1    0    0  501    0  0.00000000000E+00  0.00000000000E+00 -0.39949272415E+03  0.39949272418E+03  0.50400001928E-02 0.  1.
    10030    2    1    2    0    0  0.00000000000E+00  0.00000000000E+00  0.96953265782E+02  0.89593871413E+03  0.89067740722E+03 0.  0.
        3    1    3    3  502    0  0.55963571035E+02 -0.44180685150E+03  0.49639063455E+02  0.44809514853E+03  0.10100000352E+00 0.  1.
       -3    1    3    3    0  502 -0.55963571035E+02  0.44180685150E+03  0.47314202328E+02  0.44784356561E+03  0.10100000352E+00 0. -1.
</event>
<event>
 5   0  0.1537870E-02  0.8586717E+03  0.7818609E-02  0.9478771E-01
        1   -1    0    0  501    0  0.00000000000E+00  0.00000000000E+00  0.76557118820E+03  0.76557118822E+03  0.50400001928E-02 0. -1.
       -1   -1    0    0    0  501  0.00000000000E+00  0.00000000000E+00 -0.24077350909E+03  0.24077350915E+03  0.50400001928E-02 0.  1.
    10030    2    1    2    0    0  0.00000000000E+00  0.00000000000E+00  0.52479767911E+03  0.10063446974E+04  0.85867167527E+03 0.  0.
        5    1    3    3  502    0  0.22944412726E+03 -0.36281041788E+03  0.26894144232E+03  0.50658424399E+03  0.46999998093E+01 0.  1.
       -5    1    3    3    0  502 -0.22944412726E+03  0.36281041788E+03  0.25585623679E+03  0.49976045338E+03  0.46999998093E+01 0. -1.
</event>
<event>
 5   0  0.2628383E-02  0.8355140E+03  0.7818609E-02  0.9509989E-01
       -2   -1    0    0    0  501  0.00000000000E+00  0.00000000000E+00  0.10131795925E+03  0.10131795928E+03  0.25500000920E-02 0.  1.
        2   -1    0    0  501    0  0.00000000000E+00  0.00000000000E+00 -0.17225070637E+04  0.17225070637E+04  0.25500000920E-02 0. -1.
    10030    2    1    2    0    0  0.00000000000E+00  0.00000000000E+00 -0.16211891045E+04  0.18238250230E+04  0.83551397481E+03 0.  0.
        2    1    3    3  502    0  0.30698908052E+03  0.18986291909E+03 -0.12696775878E+04  0.13199891669E+04  0.25500000920E-02 0. -1.
       -2    1    3    3    0  502 -0.30698908052E+03 -0.18986291909E+03 -0.35151151665E+03  0.50383585615E+03  0.25500000920E-02 0.  1.
</event>
<event>
 5   0  0.2803717E-02  0.9025702E+03  0.7818609E-02  0.9422374E-01
       -2   -1    0    0    0  501  0.00000000000E+00  0.00000000000E+00  0.10584633295E+03  0.10584633299E+03  0.25500000920E-02 0. -1.
        2   -1    0    0  501    0  0.00000000000E+00  0.00000000000E+00 -0.19240935875E+04  0.19240935875E+04  0.25500000920E-02 0.  1.
    10030    2    1    2    0    0  0.00000000000E+00  0.00000000000E+00 -0.18182472546E+04  0.20299399205E+04  0.90257022006E+03 0.  0.
        5    1    3    3  502    0 -0.38570944419E+03 -0.16268159017E+03 -0.53011040472E+03  0.67548220281E+03  0.46999998093E+01 0. -1.
       -5    1    3    3    0  502  0.38570944419E+03  0.16268159017E+03 -0.12881368498E+04  0.13544577177E+04  0.46999998093E+01 0.  1.
</event>
<event>
 5   0  0.1560728E-02  0.9370326E+03  0.7818609E-02  0.9380437E-01
        1   -1    0    0  501    0  0.00000000000E+00  0.00000000000E+00  0.17687065957E+04  0.17687065957E+04  0.50400001928E-02 0.  1.
       -1   -1    0    0    0  501  0.00000000000E+00  0.00000000000E+00 -0.12410622890E+03  0.12410622901E+03  0.50400001928E-02 0. -1.
    10030    2    1    2    0    0  0.00000000000E+00  0.00000000000E+00  0.16446003668E+04  0.18928128247E+04  0.93703256237E+03 0.  0.
        4    1    3    3  502    0  0.39564958543E+03 -0.20520465061E+03  0.53056221154E+03  0.69292526026E+03  0.12699999809E+01 0. -1.
       -4    1    3    3    0  502 -0.39564958543E+03  0.20520465061E+03  0.11140381553E+04  0.11998875645E+04  0.12699999809E+01 0.  1.
</event>
<event>
 5   0  0.2705111E-02  0.9147312E+03  0.7818609E-02  0.9407352E-01
        2   -1    0    0  501    0  0.00000000000E+00  0.00000000000E+00  0.13000216775E+04  0.13000216775E+04  0.25500000920E-02 0.  1.
       -2   -1    0    0    0  501  0.00000000000E+00  0.00000000000E+00 -0.16090754436E+03  0.16090754438E+03  0.25500000920E-02 0. -1.
    10030    2    1    2    0    0  0.00000000000E+00  0.00000000000E+00  0.11391141331E+04  0.14609292219E+04  0.91473120808E+03 0.  0.
        4    1    3    3  502    0 -0.29193034962E+03 -0.13085058075E+03  0.47527064119E+02  0.32342794906E+03  0.12699999809E+01 0. -1.
       -4    1    3    3    0  502  0.29193034962E+03  0.13085058075E+03  0.10915870690E+04  0.11375012728E+04  0.12699999809E+01 0.  1.
</event>
<event>
 5   0  0.1537870E-02  0.8548981E+03  0.7818609E-02  0.9483786E-01
       -1   -1    0    0    0  501  0.00000000000E+00  0.00000000000E+00  0.96921696088E+03  0.96921696090E+03  0.50400001928E-02 0.  1.
        1   -1    0    0  501    0  0.00000000000E+00  0.00000000000E+00 -0.18851578224E+03  0.18851578231E+03  0.50400001928E-02 0. -1.
    10030    2    1    2    0    0  0.00000000000E+00  0.00000000000E+00  0.78070117864E+03  0.11577327432E+04  0.85489810759E+03 0.  0.
        5    1    3    3  502    0  0.32921045551E+03 -0.82899613786E+02  0.38669785249E+02  0.34171525028E+03  0.46999998093E+01 0. -1.
       -5    1    3    3    0  502 -0.32921045551E+03  0.82899613786E+02  0.74203139339E+03  0.81601749293E+03  0.46999998093E+01 0.  1.
</event>
<event>
 5   0  0.2628383E-02  0.9104061E+03  0.7818609E-02  0.9412666E-01
        2   -1    0    0  501    0  0.00000000000E+00  0.00000000000E+00  0.14829119168E+04  0.14829119168E+04  0.25500000920E-02 0. -1.
       -2   -1    0    0    0  501  0.00000000000E+00  0.00000000000E+00 -0.13973169915E+03  0.13973169917E+03  0.25500000920E-02 0.  1.
    10030    2    1    2    0    0  0.00000000000E+00  0.00000000000E+00  0.13431802177E+04  0.16226436160E+04  0.91040606730E+03 0.  0.
        2    1    3    3  502    0 -0.18937030867E+03 -0.28143717946E+03  0.12126138870E+04  0.12591665652E+04  0.25500000920E-02 0. -1.
       -2    1    3    3    0  502  0.18937030867E+03  0.28143717946E+03  0.13056633068E+03  0.36347705086E+03  0.25500000920E-02 0.  1.
</event>
<event>
 5   0  0.2414128E-02  0.9137516E+03  0.7818609E-02  0.9408553E-01
        2   -1    0    0  501    0  0.00000000000E+00  0.00000000000E+00  0.34764715532E+03  0.34764715533E+03  0.25500000920E-02 0.  1.
       -2   -1    0    0    0  501  0.00000000000E+00  0.00000000000E+00 -0.60042346794E+03  0.60042346795E+03  0.25500000920E-02 0. -1.
    10030    2    1    2    0    0  0.00000000000E+00  0.00000000000E+00 -0.25277631262E+03  0.94807062328E+03  0.91375163064E+03 0.  0.
        3    1    3    3  502    0  0.77087545712E+02  0.32614616685E+03 -0.44856913111E+03  0.55993578868E+03  0.10100000352E+00 0. -1.
       -3    1    3    3    0  502 -0.77087545712E+02 -0.32614616685E+03  0.19579281849E+03  0.38813483460E+03  0.10100000352E+00 0.  1.
</event>
<event>
 5   0  0.1459111E-02  0.8996777E+03  0.7818609E-02  0.9425984E-01
        1   -1    0    0  501    0  0.00000000000E+00  0.00000000000E+00  0.13163454497E+04  0.13163454497E+04  0.50400001928E-02 0. -1.
       -1   -1    0    0    0  501  0.00000000000E+00  0.00000000000E+00 -0.15372482812E+03  0.15372482820E+03  0.50400001928E-02 0.  1.
    10030    2    1    2    0    0  0.00000000000E+00  0.00000000000E+00  0.11626206215E+04  0.14700702779E+04  0.89967767131E+03 0.  0.
        2    1    3    3  502    0 -0.50229908549E+02  0.41698062799E+03  0.84457698605E+03  0.94324237246E+03  0.25500000920E-02 0.  1.
       -2    1    3    3    0  502  0.50229908549E+02 -0.41698062799E+03  0.31804363548E+03  0.52682790540E+03  0.25500000920E-02 0. -1.
</event>
<event>
 5   0  0.1537870E-02  0.9122933E+03  0.7818609E-02  0.9410343E-01
       -1   -1    0    0    0  501  0.00000000000E+00  0.00000000000E+00  0.67155423191E+03  0.67155423193E+03  0.50400001928E-02 0. -1.
        1   -1    0    0  501    0  0.00000000000E+00  0.00000000000E+00 -0.30983318706E+03  0.30983318710E+03  0.50400001928E-02 0.  1.
    10030    2    1    2    0    0  0.00000000000E+00  0.00000000000E+00  0.36172104485E+03  0.98138741903E+03  0.91229334753E+03 0.  0.
        5    1    3    3  502    0  0.21708253961E+03 -0.32939196466E+03  0.42716382664E+03  0.58147650011E+03  0.46999998093E+01 0. -1.
       -5    1    3    3    0  502 -0.21708253961E+03  0.32939196466E+03 -0.65442781794E+02  0.39991091892E+03  0.46999998093E+01 0.  1.
</event>
<event>
 5   0  0.2414128E-02  0.9571102E+03  0.7818609E-02  0.9356878E-01
        2   -1    0    0  501    0  0.00000000000E+00  0.00000000000E+00  0.15146821325E+04  0.15146821325E+04  0.25500000920E-02 0. -1.
       -2   -1    0    0    0  501  0.00000000000E+00  0.00000000000E+00 -0.15119673705E+03  0.15119673707E+03  0.25500000920E-02 0.  1.
    10030    2    1    2    0    0  0.00000000000E+00  0.00000000000E+00  0.13634853954E+04  0.16658788695E+04  0.95711022586E+03 0.  0.
        3    1    3    3  502    0  0.13329435163E+03  0.42355657727E+03  0.99235499281E+03  0.10871688003E+04  0.10100000352E+00 0. -1.
       -3    1    3    3    0  502 -0.13329435163E+03 -0.42355657727E+03  0.37113040262E+03  0.57871006927E+03  0.10100000352E+00 0.  1.
</event>
<event>
 5   0  0.2414128E-02  0.8687198E+03  0.7818609E-02  0.9465551E-01
        2   -1    0    0  501    0  0.00000000000E+00  0.00000000000E+00  0.38919579041E+03  0.38919579041E+03  0.25500000920E-02 0.  1.
       -2   -1    0    0    0  501  0.00000000000E+00  0.00000000000E+00 -0.48476505048E+03  0.48476505049E+03  0.25500000920E-02 0. -1.
    10030    2    1    2    0    0  0.00000000000E+00  0.00000000000E+00 -0.95569260075E+02  0.87396084090E+03  0.86871978679E+03 0.  0.
        3    1    3    3  502    0  0.50183097404E+02  0.14997837166E+02  0.38600725379E+03  0.38954446288E+03  0.10100000352E+00 0.  1.
       -3    1    3    3    0  502 -0.50183097404E+02 -0.14997837166E+02 -0.48157651387E+03  0.48441637802E+03  0.10100000352E+00 0. -1.
</event>
<event>
 5   0  0.2628383E-02  0.8994205E+03  0.7818609E-02  0.9426306E-01
       -2   -1    0    0    0  501  0.00000000000E+00  0.00000000000E+00  0.25391482273E+03  0.25391482275E+03  0.25500000920E-02 0. -1.
        2   -1    0    0  501    0  0.00000000000E+00  0.00000000000E+00 -0.79648491114E+03  0.79648491114E+03  0.25500000920E-02 0.  1.
    10030    2    1    2    0    0  0.00000000000E+00  0.00000000000E+00 -0.54257008841E+03  0.10503997339E+04  0.89942053575E+03 0.  0.
        2    1    3    3  502    0  0.20559701779E+03 -0.62157764411E+02 -0.73270996918E+03  0.76354280846E+03  0.25500000920E-02 0.  1.
       -2    1    3    3    0  502 -0.20559701779E+03  0.62157764411E+02  0.19013988077E+03  0.28685692543E+03  0.25500000920E-02 0. -1.
</event>
<event>
 5   0  0.1559275E-02  0.9225811E+03  0.7818609E-02  0.9397786E-01
        1   -1    0    0  501    0  0.00000000000E+00  0.00000000000E+00  0.67226281750E+03  0.67226281752E+03  0.50400001928E-02 0.  1.
       -1   -1    0    0    0  501  0.00000000000E+00  0.00000000000E+00 -0.31652649575E+03  0.31652649579E+03  0.50400001928E-02 0. -1.
    10030    2    1    2    0    0  0.00000000000E+00  0.00000000000E+00  0.35573632175E+03  0.98878931331E+03  0.92258114847E+03 0.  0.
        1    1    3    3  502    0  0.32249479537E+03  0.21334482916E+03  0.44745481931E+03  0.59138373712E+03  0.50400001928E-02 0.  1.
       -1    1    3    3    0  502 -0.32249479537E+03 -0.21334482916E+03 -0.91718497558E+02  0.39740557620E+03  0.50400001928E-02 0. -1.
</event>
<event>
 5   0  0.2705111E-02  0.8873193E+03  0.7818609E-02  0.9441573E-01
        2   -1    0    0  501    0  0.00000000000E+00  0.00000000000E+00  0.13166499740E+04  0.13166499740E+04  0.25500000920E-02 0.  1.
       -2   -1    0    0    0  501  0.00000000000E+00  0.00000000000E+00 -0.14949598071E+03  0.14949598073E+03  0.25500000920E-02 0. -1.
    10030    2    1    2    0    0  0.00000000000E+00  0.00000000000E+00  0.11671539933E+04  0.14661459547E+04  0.88731928668E+03 0.  0.
        4    1    3    3  502    0  0.42346048494E+02  0.38160292594E+02  0.13105708647E+04  0.13118105808E+04  0.12699999809E+01 0.  1.
       -4    1    3    3    0  502 -0.42346048494E+02 -0.38160292594E+02 -0.14341687136E+03  0.15433537392E+03  0.12699999809E+01 0. -1.
</event>
<event>
 5   0  0.2414128E-02  0.8991023E+03  0.7818609E-02  0.9426704E-01
       -2   -1    0    0    0  501  0.00000000000E+00  0.00000000000E+00  0.76320662565E+03  0.76320662566E+03  0.25500000920E-02 0.  1.
        2   -1    0    0  501    0  0.00000000000E+00  0.00000000000E+00 -0.26479882875E+03  0.26479882876E+03  0.25500000920E-02 0. -1.
    10030    2    1    2    0    0  0.00000000000E+00  0.00000000000E+00  0.49840779690E+03  0.10280054544E+04  0.89910226465E+03 0.  0.
        3    1    3    3  502    0 -0.20906769159E+03  0.29922967379E+03 -0.50804636306E+02  0.36854961486E+03  0.10100000352E+00 0. -1.
       -3    1    3    3    0  502  0.20906769159E+03 -0.29922967379E+03  0.54921243321E+03  0.65945583956E+03  0.10100000352E+00 0.  1.
</event>
<event>
 5   0  0.1040163E-02  0.8948773E+03  0.7818609E-02  0.9432008E-01
       -4   -1    0    0    0  501  0.00000000000E+00  0.00000000000E+00  0.77435121236E+03  0.77435225381E+03  0.12699999809E+01 0. -1.
        4   -1    0    0  501    0  0.00000000000E+00  0.00000000000E+00 -0.25853799327E+03  0.25854111252E+03  0.12699999809E+01 0.  1.
    10030    2    1    2    0    0  0.00000000000E+00  0.00000000000E+00  0.51581321909E+03  0.10328933663E+04  0.89487732636E+03 0.  0.
        5    1    3    3  502    0 -0.12778879973E+03 -0.41751185358E+03  0.14521021630E+03  0.46016760221E+03  0.46999998093E+01 0.  1.
       -5    1    3    3    0  502  0.12778879973E+03  0.41751185358E+03  0.37060300279E+03  0.57272576412E+03  0.46999998093E+01 0. -1.
</event>
<event>
 5   0  0.1560728E-02  0.9235728E+03  0.7818609E-02  0.9396585E-01
        1   -1    0    0  501    0  0.00000000000E+00  0.00000000000E+00  0.64042247562E+03  0.64042247564E+03  0.50400001928E-02 0. -1.
       -1   -1    0    0    0  501  0.00000000000E+00  0.00000000000E+00 -0.33297815177E+03  0.33297815181E+03  0.50400001928E-02 0.  1.
    10030    2    1    2    0    0  0.00000000000E+00  0.00000000000E+00  0.30744432385E+03  0.97340062745E+03  0.92357282834E+03 0.  0.
        4    1    3    3  502    0 -0.19223217816E+03  0.13784375385E+02 -0.28856307785E+03  0.34700645833E+03  0.12699999809E+01 0.  1.
       -4    1    3    3    0  502  0.19223217816E+03 -0.13784375385E+02  0.59600740170E+03  0.62639416912E+03  0.12699999809E+01 0. -1.
</event>
<event>
 5   0  0.2679861E-02  0.8997327E+03  0.7818609E-02  0.9425916E-01
       -2   -1    0    0    0  501  0.00000000000E+00  0.00000000000E+00  0.20350982683E+03  0.20350982684E+03  0.25500000920E-02 0.  1.
        2   -1    0    0  501    0  0.00000000000E+00  0.00000000000E+00 -0.99444700755E+03  0.99444700755E+03  0.25500000920E-02 0. -1.
    10030    2    1    2    0    0  0.00000000000E+00  0.00000000000E+00 -0.79093718072E+03  0.11979568344E+04  0.89973271210E+03 0.  0.
        1    1    3    3  502    0 -0.10444487277E+03 -0.37765876804E+03 -0.68973256808E+03  0.79326281397E+03  0.50400001928E-02 0. -1.
       -1    1    3    3    0  502  0.10444487277E+03  0.37765876804E+03 -0.10120461264E+03  0.40469402043E+03  0.50400001928E-02 0.  1.
</event>
<event>
 5   0  0.1537870E-02  0.9272871E+03  0.7818609E-02  0.9392100E-01
        1   -1    0    0  501    0  0.00000000000E+00  0.00000000000E+00  0.15982147620E+04  0.15982147620E+04  0.50400001928E-02 0. -1.
       -1   -1    0    0    0  501  0.00000000000E+00  0.00000000000E+00 -0.13450342269E+03  0.13450342279E+03  0.50400001928E-02 0.  1.
    10030    2    1    2    0    0  0.00000000000E+00  0.00000000000E+00  0.14637113393E+04  0.17327181848E+04  0.92728713088E+03 0.  0.
        5    1    3    3  502    0 -0.21906025158E+03  0.13523510550E+03  0.14523349297E+04  0.14749829713E+04  0.46999998093E+01 0. -1.
       -5    1    3    3    0  502  0.21906025158E+03 -0.13523510550E+03  0.11376409599E+02  0.25773521349E+03  0.46999998093E+01 0.  1.
</event>
<event>
 5   0  0.1560728E-02  0.9030642E+03  0.7818609E-02  0.9421759E-01
       -1   -1    0    0    0  501  0.00000000000E+00  0.00000000000E+00  0.20835673717E+03  0.20835673723E+03  0.50400001928E-02 0.  1.
        1   -1    0    0  501    0  0.00000000000E+00  0.00000000000E+00 -0.97852001021E+03  0.97852001022E+03  0.50400001928E-02 0. -1.
    10030    2    1    2    0    0  0.00000000000E+00  0.00000000000E+00 -0.77016327304E+03  0.11868767475E+04  0.90306419844E+03 0.  0.
        4    1    3    3  502    0 -0.15166046164E+03  0.41940362866E+03 -0.47782272858E+03  0.65361798645E+03  0.12699999809E+01 0. -1.
       -4    1    3    3    0  502  0.15166046164E+03 -0.41940362866E+03 -0.29234054446E+03  0.53325876101E+03  0.12699999809E+01 0.  1.
</event>
<event>
 5   0  0.2414128E-02  0.9170348E+03  0.7818609E-02  0.9404534E-01
       -2   -1    0    0    0  501  0.00000000000E+00  0.00000000000E+00  0.15230037559E+03  0.15230037561E+03  0.25500000920E-02 0.  1.
        2   -1    0    0  501    0  0.00000000000E+00  0.00000000000E+00 -0.13804183126E+04  0.13804183126E+04  0.25500000920E-02 0. -1.
    10030    2    1    2    0    0  0.00000000000E+00  0.00000000000E+00 -0.12281179371E+04  0.15327186882E+04  0.91703484666E+03 0.  0.
        3    1    3    3  502    0  0.22772527251E+03 -0.52352354050E+02 -0.12734383145E+04  0.12946986985E+04  0.10100000352E+00 0. -1.
       -3    1    3    3    0  502 -0.22772527251E+03  0.52352354050E+02  0.45320377476E+02  0.23801998977E+03  0.10100000352E+00 0.  1.
</event>
<event>
 5   0  0.1560728E-02  0.8224103E+03  0.7818609E-02  0.9528134E-01
        1   -1    0    0  501    0  0.00000000000E+00  0.00000000000E+00  0.73399398757E+03  0.73399398759E+03  0.50400001928E-02 0. -1.
       -1   -1    0    0    0  501  0.00000000000E+00  0.00000000000E+00 -0.23036927774E+03  0.23036927779E+03  0.50400001928E-02 0.  1.
    10030    2    1    2    0    0  0.00000000000E+00  0.00000000000E+00  0.50362470983E+03  0.96436326538E+03  0.82241027429E+03 0.  0.
        4    1    3    3  502    0  0.30513596643E+03  0.17372307206E+03  0.86263761301E+00  0.35112678739E+03  0.12699999809E+01 0.  1.
       -4    1    3    3    0  502 -0.30513596643E+03 -0.17372307206E+03  0.50276207222E+03  0.61323647799E+03  0.12699999809E+01 0. -1.
</event>
<event>
 5   0  0.1559275E-02  0.9241795E+03  0.7818609E-02  0.9395851E-01
       -1   -1    0    0    0  501  0.00000000000E+00  0.00000000000E+00  0.17673944633E+03  0.17673944640E+03  0.50400001928E-02 0.  1.
        1   -1    0    0  501    0  0.00000000000E+00  0.00000000000E+00 -0.12081452438E+04  0.12081452438E+04  0.50400001928E-02 0. -1.
    10030    2    1    2    0    0  0.00000000000E+00  0.00000000000E+00 -0.10314057975E+04  0.13848846902E+04  0.92417946640E+03 0.  0.
        1    1    3    3  502    0 -0.38278837959E+03 -0.17318384199E+02 -0.12869450552E+03  0.40421423250E+03  0.50400001928E-02 0.  1.
       -1    1    3    3    0  502  0.38278837959E+03  0.17318384199E+02 -0.90271129194E+03  0.98067045770E+03  0.50400001928E-02 0. -1.
</event>
<event>
 5   0  0.1459111E-02  0.9153782E+03  0.7818609E-02  0.9406559E-01
        1   -1    0    0  501    0  0.00000000000E+00  0.00000000000E+00  0.63300700199E+03  0.63300700201E+03  0.50400001928E-02 0. -1.
       -1   -1    0    0    0  501  0.00000000000E+00  0.00000000000E+00 -0.33092734652E+03  0.33092734656E+03  0.50400001928E-02 0.  1.
    10030    2    1    2    0    0  0.00000000000E+00  0.00000000000E+00  0.30207965547E+03  0.96393434857E+03  0.91537823336E+03 0.  0.
        2    1    3    3  502    0 -0.81011928563E+02  0.35529485873E+03 -0.14056416930E+03  0.39058373610E+03  0.25500000920E-02 0.  1.
       -2    1    3    3    0  502  0.81011928563E+02 -0.35529485873E+03  0.44264382477E+03  0.57335061247E+03  0.25500000920E-02 0. -1.
</event>
<event>
 5   0  0.2679861E-02  0.9120531E+03  0.7818609E-02  0.9410639E-01
       -2   -1    0    0    0  501  0.00000000000E+00  0.00000000000E+00  0.47546719946E+03  0.47546719947E+03  0.25500000920E-02 0.  1.
        2   -1    0    0  501    0  0.00000000000E+00  0.00000000000E+00 -0.43738073284E+03  0.43738073285E+03  0.25500000920E-02 0. -1.
    10030    2    1    2    0    0  0.00000000000E+00  0.00000000000E+00  0.38086466621E+02  0.91284793232E+03  0.91205305142E+03 0.  0.
        1    1    3    3  502    0 -0.42971307670E+03  0.11457116701E+03  0.12002869831E+03  0.46063735089E+03  0.50400001928E-02 0.  1.
       -1    1    3    3    0  502  0.42971307670E+03 -0.11457116701E+03 -0.81942231689E+02  0.45221058143E+03  0.50400001928E-02 0. -1.
</event>
<event>
 5   0  0.1537870E-02  0.8815826E+03  0.7818609E-02  0.9448901E-01
       -1   -1    0    0    0  501  0.00000000000E+00  0.00000000000E+00  0.29781208969E+03  0.29781208973E+03  0.50400001928E-02 0. -1.
        1   -1    0    0  501    0  0.00000000000E+00  0.00000000000E+00 -0.65241469796E+03  0.65241469798E+03  0.50400001928E-02 0.  1.
    10030    2    1    2    0    0  0.00000000000E+00  0.00000000000E+00 -0.35460260827E+03  0.95022678771E+03  0.88158263270E+03 0.  0.
        5    1    3    3  502    0  0.11606692349E+02  0.11323563040E+03  0.28166896001E+03  0.30383633148E+03  0.46999998093E+01 0. -1.
       -5    1    3    3    0  502 -0.11606692349E+02 -0.11323563040E+03 -0.63627156828E+03  0.64639045622E+03  0.46999998093E+01 0.  1.
</event>
<event>
 5   0  0.2414128E-02  0.9402875E+03  0.7818609E-02  0.9376576E-01
       -2   -1    0    0    0  501  0.00000000000E+00  0.00000000000E+00  0.35044375534E+03  0.35044375535E+03  0.25500000920E-02 0. -1.
        2   -1    0    0  501    0  0.00000000000E+00  0.00000000000E+00 -0.63072928522E+03  0.63072928522E+03  0.25500000920E-02 0.  1.
    10030    2    1    2    0    0  0.00000000000E+00  0.00000000000E+00 -0.28028552988E+03  0.98117304058E+03  0.94028748652E+03 0.  0.
        3    1    3    3  502    0  0.11772728741E+02  0.19483453717E+03 -0.58645067214E+03  0.61808049238E+03  0.10100000352E+00 0.  1.
       -3    1    3    3    0  502 -0.11772728741E+02 -0.19483453717E+03  0.30616514226E+03  0.36309254819E+03  0.10100000352E+00 0. -1.
</event>
<event>
 5   0  0.2628383E-02  0.9121658E+03  0.7818609E-02  0.9410500E-01
       -2   -1    0    0    0  501  0.00000000000E+00  0.00000000000E+00  0.18611531469E+03  0.18611531471E+03  0.25500000920E-02 0.  1.
        2   -1    0    0  501    0  0.00000000000E+00  0.00000000000E+00 -0.11176492045E+04  0.11176492045E+04  0.25500000920E-02 0. -1.
    10030    2    1    2    0    0  0.00000000000E+00  0.00000000000E+00 -0.93153388980E+03  0.13037645192E+04  0.91216584768E+03 0.  0.
        2    1    3    3  502    0  0.33933914596E+03 -0.27879188641E+03 -0.64161033718E+03  0.77752157313E+03  0.25500000920E-02 0. -1.
       -2    1    3    3    0  502 -0.33933914596E+03  0.27879188641E+03 -0.28992355262E+03  0.52624294606E+03  0.25500000920E-02 0.  1.
</event>
<event>
 5   0  0.2705111E-02  0.9211529E+03  0.7818609E-02  0.9399519E-01
       -2   -1    0    0    0  501  0.00000000000E+00  0.00000000000E+00  0.53672477659E+03  0.53672477660E+03  0.25500000920E-02 0. -1.
        2   -1    0    0  501    0  0.00000000000E+00  0.00000000000E+00 -0.39523171033E+03  0.39523171033E+03  0.25500000920E-02 0.  1.
    10030    2    1    2    0    0  0.00000000000E+00  0.00000000000E+00  0.14149306626E+03  0.93195648693E+03  0.92115286773E+03 0.  0.
        4    1    3    3  502    0 -0.33114182770E+03  0.31562448915E+03  0.12480834352E+03  0.47418610663E+03  0.12699999809E+01 0.  1.
       -4    1    3    3    0  502  0.33114182770E+03 -0.31562448915E+03  0.16684722744E+02  0.45777038030E+03  0.12699999809E+01 0. -1.
</event>
<event>
 5   0  0.2414128E-02  0.8883845E+03  0.7818609E-02  0.9440219E-01
        2   -1    0    0  501    0  0.00000000000E+00  0.00000000000E+00  0.73580536832E+03  0.73580536833E+03  0.25500000920E-02 0. -1.
       -2   -1    0    0    0  501  0.00000000000E+00  0.00000000000E+00 -0.26815074910E+03  0.26815074912E+03  0.25500000920E-02 0.  1.
    10030    2    1    2    0    0  0.00000000000E+00  0.00000000000E+00  0.46765461922E+03  0.10039561174E+04  0.88838451296E+03 0.  0.
        3    1    3    3  502    0  0.92994883704E+02 -0.43325600533E+03  0.26862122103E+03  0.51818547368E+03  0.10100000352E+00 0. -1.
       -3    1    3    3    0  502 -0.92994883704E+02  0.43325600533E+03  0.19903339819E+03  0.48577064376E+03  0.10100000352E+00 0.  1.
</event>
<event>
 5   0  0.1559275E-02  0.6374153E+03  0.7818609E-02  0.9830684E-01
       -1   -1    0    0    0  501  0.00000000000E+00  0.00000000000E+00  0.60316478924E+03  0.60316478926E+03  0.50400001928E-02 0. -1.
        1   -1    0    0  501    0  0.00000000000E+00  0.00000000000E+00 -0.16840269167E+03  0.16840269174E+03  0.50400001928E-02 0.  1.
    10030    2    1    2    0    0  0.00000000000E+00  0.00000000000E+00  0.43476209757E+03  0.77156748101E+03  0.63741532477E+03 0.  0.
        1    1    3    3  502    0  0.24864168786E+03 -0.16624719366E+03  0.84154486997E+02  0.31071336638E+03  0.50400001928E-02 0.  1.
       -1    1    3    3    0  502 -0.24864168786E+03  0.16624719366E+03  0.35060761058E+03  0.46085411462E+03  0.50400001928E-02 0. -1.
</event>
<event>
 5   0  0.1537870E-02  0.8358807E+03  0.7818609E-02  0.9509486E-01
        1   -1    0    0  501    0  0.00000000000E+00  0.00000000000E+00  0.18255025690E+04  0.18255025691E+04  0.50400001928E-02 0. -1.
       -1   -1    0    0    0  501  0.00000000000E+00  0.00000000000E+00 -0.95685500948E+02  0.95685501080E+02  0.50400001928E-02 0.  1.
    10030    2    1    2    0    0  0.00000000000E+00  0.00000000000E+00  0.17298170681E+04  0.19211880701E+04  0.83588068032E+03 0.  0.
        5    1    3    3  502    0  0.17747531601E+03  0.10020990637E+03  0.17034702946E+04  0.17156260221E+04  0.46999998093E+01 0. -1.
       -5    1    3    3    0  502 -0.17747531601E+03 -0.10020990637E+03  0.26346773520E+02  0.20556204805E+03  0.46999998093E+01 0.  1.
</event>
<event>
 5   0  0.1537870E-02  0.8428342E+03  0.7818609E-02  0.9500005E-01
       -1   -1    0    0    0  501  0.00000000000E+00  0.00000000000E+00  0.19250178343E+03  0.19250178350E+03  0.50400001928E-02 0.  1.
        1   -1    0    0  501    0  0.00000000000E+00  0.00000000000E+00 -0.92254919506E+03  0.92254919507E+03  0.50400001928E-02 0. -1.
    10030    2    1    2    0    0  0.00000000000E+00  0.00000000000E+00 -0.73004741163E+03  0.11150509786E+04  0.84283418393E+03 0.  0.
        5    1    3    3  502    0  0.35941731991E+03 -0.53654428756E+02 -0.64725761154E+03  0.74230998462E+03  0.46999998093E+01 0. -1.
       -5    1    3    3    0  502 -0.35941731991E+03  0.53654428756E+02 -0.82789800085E+02  0.37274099395E+03  0.46999998093E+01 0.  1.
</event>
<event>
 5   0  0.2705111E-02  0.8688831E+03  0.7818609E-02  0.9465337E-01
        2   -1    0    0  501    0  0.00000000000E+00  0.00000000000E+00  0.17710365360E+04  0.17710365360E+04  0.25500000920E-02 0. -1.
       -2   -1    0    0    0  501  0.00000000000E+00  0.00000000000E+00 -0.10657005475E+03  0.10657005478E+03  0.25500000920E-02 0.  1.
    10030    2    1    2    0    0  0.00000000000E+00  0.00000000000E+00  0.16644664813E+04  0.18776065908E+04  0.86888310063E+03 0.  0.
        4    1    3    3  502    0  0.39774214239E+03 -0.93584828138E+02  0.51331356104E+03  0.65608639426E+03  0.12699999809E+01 0.  1.
       -4    1    3    3    0  502 -0.39774214239E+03  0.93584828138E+02  0.11511529202E+04  0.12215201965E+04  0.12699999809E+01 0. -1.
</event>
<event>
 5   0  0.2628383E-02  0.1070075E+04  0.7818609E-02  0.9234859E-01
       -2   -1    0    0    0  501  0.00000000000E+00  0.00000000000E+00  0.13504625548E+03  0.13504625551E+03  0.25500000920E-02 0. -1.
        2   -1    0    0  501    0  0.00000000000E+00  0.00000000000E+00 -0.21197578350E+04  0.21197578350E+04  0.25500000920E-02 0.  1.
    10030    2    1    2    0    0  0.00000000000E+00  0.00000000000E+00 -0.19847115795E+04  0.22548040905E+04  0.10700754332E+04 0.  0.
        2    1    3    3  502    0  0.24733064860E+03 -0.40452723018E+02 -0.19884281806E+04  0.20041595500E+04  0.25500000920E-02 0.  1.
       -2    1    3    3    0  502 -0.24733064860E+03  0.40452723018E+02  0.37166011076E+01  0.25064454046E+03  0.25500000920E-02 0. -1.
</event>
<event>
 5   0  0.1459111E-02  0.8930372E+03  0.7818609E-02  0.9434327E-01
        1   -1    0    0  501    0  0.00000000000E+00  0.00000000000E+00  0.51964193086E+03  0.51964193088E+03  0.50400001928E-02 0.  1.
       -1   -1    0    0    0  501  0.00000000000E+00  0.00000000000E+00 -0.38368505940E+03  0.38368505943E+03  0.50400001928E-02 0. -1.
    10030    2    1    2    0    0  0.00000000000E+00  0.00000000000E+00  0.13595687146E+03  0.90332699031E+03  0.89303716637E+03 0.  0.
        2    1    3    3  502    0 -0.23639240964E+03 -0.37459174675E+03  0.10950669593E+02  0.44308042750E+03  0.25500000920E-02 0. -1.
       -2    1    3    3    0  502  0.23639240964E+03  0.37459174675E+03  0.12500620187E+03  0.46024656281E+03  0.25500000920E-02 0.  1.
</event>
<event>
 5   0  0.1040163E-02  0.8514195E+03  0.7818609E-02  0.9488434E-01
        4   -1    0    0  501    0  0.00000000000E+00  0.00000000000E+00  0.11740044628E+04  0.11740051497E+04  0.12699999809E+01 0. -1.
       -4   -1    0    0    0  501  0.00000000000E+00  0.00000000000E+00 -0.15436470692E+03  0.15436993115E+03  0.12699999809E+01 0.  1.
    10030    2    1    2    0    0  0.00000000000E+00  0.00000000000E+00  0.10196397558E+04  0.13283750808E+04  0.85141947575E+03 0.  0.
        4    1    3    3  502    0  0.13890133878E+03 -0.38215800197E+03  0.31315656990E+03  0.51323188770E+03  0.12699999809E+01 0.  1.
       -4    1    3    3    0  502 -0.13890133878E+03  0.38215800197E+03  0.70648318593E+03  0.81514319312E+03  0.12699999809E+01 0. -1.
</event>
<event>
 5   0  0.2679861E-02  0.9252770E+03  0.7818609E-02  0.9394524E-01
       -2   -1    0    0    0  501  0.00000000000E+00  0.00000000000E+00  0.11651179099E+03  0.11651179102E+03  0.25500000920E-02 0.  1.
        2   -1    0    0  501    0  0.00000000000E+00  0.00000000000E+00 -0.18370190566E+04  0.18370190566E+04  0.25500000920E-02 0. -1.
    10030    2    1    2    0    0  0.00000000000E+00  0.00000000000E+00 -0.17205072656E+04  0.19535308477E+04  0.92527699724E+03 0.  0.
        1    1    3    3  502    0 -0.24281008822E+03 -0.37606922065E+03 -0.61358825526E+03  0.75952310345E+03  0.50400001928E-02 0.  1.
       -1    1    3    3    0  502  0.24281008822E+03  0.37606922065E+03 -0.11069190104E+04  0.11940077442E+04  0.50400001928E-02 0. -1.
</event>
<event>
 5   0  0.1560728E-02  0.8735375E+03  0.7818609E-02  0.9459279E-01
       -1   -1    0    0    0  501  0.00000000000E+00  0.00000000000E+00  0.17943690813E+03  0.17943690820E+03  0.50400001928E-02 0.  1.
        1   -1    0    0  501    0  0.00000000000E+00  0.00000000000E+00 -0.10631420531E+04  0.10631420531E+04  0.50400001928E-02 0. -1.
    10030    2    1    2    0    0  0.00000000000E+00  0.00000000000E+00 -0.88370514497E+03  0.12425789613E+04  0.87353745876E+03 0.  0.
        4    1    3    3  502    0  0.12560363228E+02 -0.41303847189E+03 -0.24065120320E+03  0.47819782150E+03  0.12699999809E+01 0. -1.
       -4    1    3    3    0  502 -0.12560363228E+02  0.41303847189E+03 -0.64305394178E+03  0.76438113982E+03  0.12699999809E+01 0.  1.
</event>
<event>
 5   0  0.1537870E-02  0.8983657E+03  0.7818609E-02  0.9427627E-01
       -1   -1    0    0    0  501  0.00000000000E+00  0.00000000000E+00  0.41663006027E+03  0.41663006030E+03  0.50400001928E-02 0.  1.
        1   -1    0    0  501    0  0.00000000000E+00  0.00000000000E+00 -0.48427913539E+03  0.48427913542E+03  0.50400001928E-02 0. -1.
    10030    2    1    2    0    0  0.00000000000E+00  0.00000000000E+00 -0.67649075120E+02  0.90090919572E+03  0.89836572818E+03 0.  0.
        5    1    3    3  502    0  0.43860368974E+03 -0.31051128076E+01 -0.13084718544E+03  0.45774000734E+03  0.46999998093E+01 0.  1.
       -5    1    3    3    0  502 -0.43860368974E+03  0.31051128076E+01  0.63198110316E+02  0.44316918838E+03  0.46999998093E+01 0. -1.
</event>
<event>
 5   0  0.1559275E-02  0.8829785E+03  0.7818609E-02  0.9447113E-01
       -1   -1    0    0    0  501  0.00000000000E+00  0.00000000000E+00  0.17858255368E+03  0.17858255375E+03  0.50400001928E-02 0.  1.
        1   -1    0    0  501    0  0.00000000000E+00  0.00000000000E+00 -0.10914435433E+04  0.10914435434E+04  0.50400001928E-02 0. -1.
    10030    2    1    2    0    0  0.00000000000E+00  0.00000000000E+00 -0.91286098966E+03  0.12700260971E+04  0.88297853931E+03 0.  0.
        1    1    3    3  502    0 -0.15163681189E+03  0.25323724952E+03 -0.92865837922E+03  0.97443789570E+03  0.50400001928E-02 0. -1.
       -1    1    3    3    0  502  0.15163681189E+03 -0.25323724952E+03  0.15797389558E+02  0.29558820140E+03  0.50400001928E-02 0.  1.
</event>
<event>
 5   0  0.1497410E-02  0.1006596E+04  0.7818609E-02  0.9301340E-01
        1   -1    0    0  501    0  0.00000000000E+00  0.00000000000E+00  0.10598675801E+04  0.10598675801E+04  0.50400001928E-02 0. -1.
       -1   -1    0    0    0  501  0.00000000000E+00  0.00000000000E+00 -0.23900033887E+03  0.23900033893E+03  0.50400001928E-02 0.  1.
    10030    2    1    2    0    0  0.00000000000E+00  0.00000000000E+00  0.82086724126E+03  0.12988679191E+04  0.10065956703E+04 0.  0.
        3    1    3    3  502    0  0.22025232498E+03 -0.44516624298E+03  0.51545815126E+03  0.71580806537E+03  0.10100000352E+00 0.  1.
       -3    1    3    3    0  502 -0.22025232498E+03  0.44516624298E+03  0.30540909000E+03  0.58305985370E+03  0.10100000352E+00 0. -1.
</event>
<event>
 5   0  0.2414128E-02  0.8908797E+03  0.7818609E-02  0.9437055E-01
       -2   -1    0    0    0  501  0.00000000000E+00  0.00000000000E+00  0.38982274300E+03  0.38982274301E+03  0.25500000920E-02 0. -1.
        2   -1    0    0  501    0  0.00000000000E+00  0.00000000000E+00 -0.50899203662E+03  0.50899203662E+03  0.25500000920E-02 0.  1.
    10030    2    1    2    0    0  0.00000000000E+00  0.00000000000E+00 -0.11916929362E+03  0.89881477963E+03  0.89087972675E+03 0.  0.
        3    1    3    3  502    0  0.21226757634E+03 -0.12737515996E+03  0.31403079659E+03  0.39987161283E+03  0.10100000352E+00 0. -1.
       -3    1    3    3    0  502 -0.21226757634E+03  0.12737515996E+03 -0.43320009020E+03  0.49894316680E+03  0.10100000352E+00 0.  1.
</event>
<event>
 5   0  0.2679861E-02  0.8913031E+03  0.7818609E-02  0.9436519E-01
       -2   -1    0    0    0  501  0.00000000000E+00  0.00000000000E+00  0.57529446841E+03  0.57529446842E+03  0.25500000920E-02 0.  1.
        2   -1    0    0  501    0  0.00000000000E+00  0.00000000000E+00 -0.34522373685E+03  0.34522373686E+03  0.25500000920E-02 0. -1.
    10030    2    1    2    0    0  0.00000000000E+00  0.00000000000E+00  0.23007073157E+03  0.92051820527E+03  0.89130310485E+03 0.  0.
        1    1    3    3  502    0  0.10210711961E+03  0.30755052450E+03  0.43099135956E+03  0.53922791196E+03  0.50400001928E-02 0.  1.
       -1    1    3    3    0  502 -0.10210711961E+03 -0.30755052450E+03 -0.20092062800E+03  0.38129029331E+03  0.50400001928E-02 0. -1.
</event>
<event>
 5   0  0.1537870E-02  0.8988099E+03  0.7818609E-02  0.9427070E-01
       -1   -1    0    0    0  501  0.00000000000E+00  0.00000000000E+00  0.36192574148E+03  0.36192574151E+03  0.50400001928E-02 0. -1.
        1   -1    0    0  501    0  0.00000000000E+00  0.00000000000E+00 -0.55802828030E+03  0.55802828033E+03  0.50400001928E-02 0.  1.
    10030    2    1    2    0    0  0.00000000000E+00  0.00000000000E+00 -0.19610253883E+03  0.91995402184E+03  0.89880987788E+03 0.  0.
        5    1    3    3  502    0  0.89620462096E+02 -0.40227253580E+03  0.85293069407E+02  0.42089430736E+03  0.46999998093E+01 0. -1.
       -5    1    3    3    0  502 -0.89620462096E+02  0.40227253580E+03 -0.28139560823E+03  0.49905971448E+03  0.46999998093E+01 0.  1.
</event>
<event>
 5   0  0.2705111E-02  0.9080783E+03  0.7818609E-02  0.9415539E-01
        2   -1    0    0  501    0  0.00000000000E+00  0.00000000000E+00  0.47754560196E+03  0.47754560197E+03  0.25500000920E-02 0.  1.
       -2   -1    0    0    0  501  0.00000000000E+00  0.00000000000E+00 -0.43168972990E+03  0.43168972991E+03  0.25500000920E-02 0. -1.
    10030    2    1    2    0    0  0.00000000000E+00  0.00000000000E+00  0.45855872063E+02  0.90923533188E+03  0.90807826080E+03 0.  0.
        4    1    3    3  502    0  0.39387574291E+03  0.47365116138E+02  0.24404492812E+03  0.46576935808E+03  0.12699999809E+01 0.  1.
       -4    1    3    3    0  502 -0.39387574291E+03 -0.47365116138E+02 -0.19818905606E+03  0.44346597380E+03  0.12699999809E+01 0. -1.
</event>
<event>
 5   0  0.1459111E-02  0.9171976E+03  0.7818609E-02  0.9404335E-01
        1   -1    0    0  501    0  0.00000000000E+00  0.00000000000E+00  0.60222197511E+03  0.60222197513E+03  0.50400001928E-02 0.  1.
       -1   -1    0    0    0  501  0.00000000000E+00  0.00000000000E+00 -0.34922815086E+03  0.34922815090E+03  0.50400001928E-02 0. -1.
    10030    2    1    2    0    0  0.00000000000E+00  0.00000000000E+00  0.25299382424E+03  0.95145012602E+03  0.91719761622E+03 0.  0.
        2    1    3    3  502    0  0.37392018413E+03  0.25287746414E+03  0.21044849112E+03  0.49804807337E+03  0.25500000920E-02 0.  1.
       -2    1    3    3    0  502 -0.37392018413E+03 -0.25287746414E+03  0.42545333120E+02  0.45340205265E+03  0.25500000920E-02 0. -1.
</event>
<event>
 5   0  0.2803717E-02  0.1213929E+04  0.7818609E-02  0.9100751E-01
       -2   -1    0    0    0  501  0.00000000000E+00  0.00000000000E+00  0.33474581841E+03  0.33474581842E+03  0.25500000920E-02 0. -1.
        2   -1    0    0  501    0  0.00000000000E+00  0.00000000000E+00 -0.11005547674E+04  0.11005547674E+04  0.25500000920E-02 0.  1.
    10030    2    1    2    0    0  0.00000000000E+00  0.00000000000E+00 -0.76580894897E+03  0.14353005858E+04  0.12139293329E+04 0.  0.
        5    1    3    3  502    0  0.45381815448E+03  0.38082239935E+03 -0.53890152970E+03  0.80088299138E+03  0.46999998093E+01 0. -1.
       -5    1    3    3    0  502 -0.45381815448E+03 -0.38082239935E+03 -0.22690741928E+03  0.63441759441E+03  0.46999998093E+01 0.  1.
</event>
<event>
 5   0  0.2803717E-02  0.8779501E+03  0.7818609E-02  0.9453573E-01
        2   -1    0    0  501    0  0.00000000000E+00  0.00000000000E+00  0.58552437520E+03  0.58552437520E+03  0.25500000920E-02 0.  1.
       -2   -1    0    0    0  501  0.00000000000E+00  0.00000000000E+00 -0.32910513306E+03  0.32910513307E+03  0.25500000920E-02 0. -1.
    10030    2    1    2    0    0  0.00000000000E+00  0.00000000000E+00  0.25641924213E+03  0.91462950827E+03  0.87795006104E+03 0.  0.
        5    1    3    3  502    0 -0.34987352776E+03 -0.21405411247E+03 -0.34675835540E+02  0.41164930714E+03  0.46999998093E+01 0.  1.
       -5    1    3    3    0  502  0.34987352776E+03  0.21405411247E+03  0.29109507767E+03  0.50298020114E+03  0.46999998093E+01 0. -1.
</event>
<event>
 5   0  0.2414128E-02  0.9190843E+03  0.7818609E-02  0.9402035E-01
       -2   -1    0    0    0  501  0.00000000000E+00  0.00000000000E+00  0.13410495691E+03  0.13410495694E+03  0.25500000920E-02 0. -1.
        2   -1    0    0  501    0  0.00000000000E+00  0.00000000000E+00 -0.15747291839E+04  0.15747291839E+04  0.25500000920E-02 0.  1.
    10030    2    1    2    0    0  0.00000000000E+00  0.00000000000E+00 -0.14406242270E+04  0.17088341409E+04  0.91908430382E+03 0.  0.
        3    1    3    3  502    0 -0.23555253430E+03  0.38690874738E+03 -0.86427847613E+03  0.97578720514E+03  0.10100000352E+00 0.  1.
       -3    1    3    3    0  502  0.23555253430E+03 -0.38690874738E+03 -0.57634575090E+03  0.73304693573E+03  0.10100000352E+00 0. -1.
</event>
<event>
 5   0  0.2803717E-02  0.8689857E+03  0.7818609E-02  0.9465203E-01
       -2   -1    0    0    0  501  0.00000000000E+00  0.00000000000E+00  0.51628517202E+03  0.51628517202E+03  0.25500000920E-02 0.  1.
        2   -1    0    0  501    0  0.00000000000E+00  0.00000000000E+00 -0.36565842862E+03  0.36565842863E+03  0.25500000920E-02 0. -1.
    10030    2    1    2    0    0  0.00000000000E+00  0.00000000000E+00  0.15062674339E+03  0.88194360065E+03  0.86898567244E+03 0.  0.
        5    1    3    3  502    0 -0.16799746879E+02  0.18996745268E+03  0.47150872867E+03  0.50863782378E+03  0.46999998093E+01 0.  1.
       -5    1    3    3    0  502  0.16799746879E+02 -0.18996745268E+03 -0.32088198527E+03  0.37330577687E+03  0.46999998093E+01 0. -1.
</event>
<event>
 5   0  0.2628383E-02  0.8854156E+03  0.7818609E-02  0.9443999E-01
        2   -1    0    0  501    0  0.00000000000E+00  0.00000000000E+00  0.16988108914E+04  0.16988108914E+04  0.25500000920E-02 0. -1.
       -2   -1    0    0    0  501  0.00000000000E+00  0.00000000000E+00 -0.11536904293E+03  0.11536904295E+03  0.25500000920E-02 0.  1.
    10030    2    1    2    0    0  0.00000000000E+00  0.00000000000E+00  0.15834418485E+04  0.18141799344E+04  0.88541557854E+03 0.  0.
        2    1    3    3  502    0 -0.17409927368E+03  0.10972293394E+03 -0.11409478371E+02  0.20610641798E+03  0.25500000920E-02 0.  1.
       -2    1    3    3    0  502  0.17409927368E+03 -0.10972293394E+03  0.15948513268E+04  0.16080735164E+04  0.25500000920E-02 0. -1.
</event>
<event>
 5   0  0.2803717E-02  0.8974737E+03  0.7818609E-02  0.9428745E-01
        2   -1    0    0  501    0  0.00000000000E+00  0.00000000000E+00  0.55763303976E+03  0.55763303976E+03  0.25500000920E-02 0.  1.
       -2   -1    0    0    0  501  0.00000000000E+00  0.00000000000E+00 -0.36110621549E+03  0.36110621550E+03  0.25500000920E-02 0. -1.
    10030    2    1    2    0    0  0.00000000000E+00  0.00000000000E+00  0.19652682427E+03  0.91873925526E+03  0.89747369126E+03 0.  0.
        5    1    3    3  502    0 -0.31708500541E+03 -0.18885949683E+01  0.42327034455E+03  0.52889161652E+03  0.46999998093E+01 0.  1.
       -5    1    3    3    0  502  0.31708500541E+03  0.18885949683E+01 -0.22674352028E+03  0.38984763875E+03  0.46999998093E+01 0. -1.
</event>
<event>
 5   0  0.2628383E-02  0.8160497E+03  0.7818609E-02  0.9537072E-01
        2   -1    0    0  501    0  0.00000000000E+00  0.00000000000E+00  0.41125493187E+03  0.41125493188E+03  0.25500000920E-02 0.  1.
       -2   -1    0    0    0  501  0.00000000000E+00  0.00000000000E+00 -0.40482015681E+03  0.40482015682E+03  0.25500000920E-02 0. -1.
    10030    2    1    2    0    0  0.00000000000E+00  0.00000000000E+00  0.64347750584E+01  0.81607508870E+03  0.81604971911E+03 0.  0.
        2    1    3    3  502    0  0.10372167442E+03  0.37891386726E+03  0.11344958311E+03  0.40890672832E+03  0.25500000920E-02 0.  1.
       -2    1    3    3    0  502 -0.10372167442E+03 -0.37891386726E+03 -0.10701480805E+03  0.40716836038E+03  0.25500000920E-02 0. -1.
</event>
<event>
 5   0  0.2705111E-02  0.9059505E+03  0.7818609E-02  0.9418173E-01
        2   -1    0    0  501    0  0.00000000000E+00  0.00000000000E+00  0.77091638213E+03  0.77091638213E+03  0.25500000920E-02 0.  1.
       -2   -1    0    0    0  501  0.00000000000E+00  0.00000000000E+00 -0.26615929564E+03  0.26615929565E+03  0.25500000920E-02 0. -1.
    10030    2    1    2    0    0  0.00000000000E+00  0.00000000000E+00  0.50475708649E+03  0.10370756778E+04  0.90595046503E+03 0.  0.
        4    1    3    3  502    0 -0.17266092343E+03  0.40229152734E+03  0.11920130405E+03  0.45371889011E+03  0.12699999809E+01 0. -1.
       -4    1    3    3    0  502  0.17266092343E+03 -0.40229152734E+03  0.38555578244E+03  0.58335678768E+03  0.12699999809E+01 0.  1.
</event>
<event>
 5   0  0.2679861E-02  0.9135056E+03  0.7818609E-02  0.9408854E-01
        2   -1    0    0  501    0  0.00000000000E+00  0.00000000000E+00  0.13726286799E+04  0.13726286799E+04  0.25500000920E-02 0.  1.
       -2   -1    0    0    0  501  0.00000000000E+00  0.00000000000E+00 -0.15198804004E+03  0.15198804006E+03  0.25500000920E-02 0. -1.
    10030    2    1    2    0    0  0.00000000000E+00  0.00000000000E+00  0.12206406399E+04  0.15246167200E+04  0.91350564919E+03 0.  0.
        1    1    3    3  502    0 -0.24033703344E+03  0.24378783431E+03  0.10566968975E+03  0.35827430993E+03  0.50400001928E-02 0. -1.
       -1    1    3    3    0  502  0.24033703344E+03 -0.24378783431E+03  0.11149709501E+04  0.11663424100E+04  0.50400001928E-02 0.  1.
</event>
<event>
 5   0  0.1559275E-02  0.8932790E+03  0.7818609E-02  0.9434022E-01
       -1   -1    0    0    0  501  0.00000000000E+00  0.00000000000E+00  0.12746963028E+03  0.12746963038E+03  0.50400001928E-02 0.  1.
        1   -1    0    0  501    0  0.00000000000E+00  0.00000000000E+00 -0.15649753550E+04  0.15649753550E+04  0.50400001928E-02 0. -1.
    10030    2    1    2    0    0  0.00000000000E+00  0.00000000000E+00 -0.14375057247E+04  0.16924449854E+04  0.89327897096E+03 0.  0.
        1    1    3    3  502    0 -0.21684843259E+03 -0.38923947469E+03 -0.77734050748E+03  0.89598486369E+03  0.50400001928E-02 0. -1.
       -1    1    3    3    0  502  0.21684843259E+03  0.38923947469E+03 -0.66016521725E+03  0.79646012170E+03  0.50400001928E-02 0.  1.
</event>
<event>
 5   0  0.1537870E-02  0.8877509E+03  0.7818609E-02  0.9441024E-01
        1   -1    0    0  501    0  0.00000000000E+00  0.00000000000E+00  0.33510519516E+03  0.33510519520E+03  0.50400001928E-02 0. -1.
       -1   -1    0    0    0  501  0.00000000000E+00  0.00000000000E+00 -0.58795099587E+03  0.58795099589E+03  0.50400001928E-02 0.  1.
    10030    2    1    2    0    0  0.00000000000E+00  0.00000000000E+00 -0.25284580071E+03  0.92305619108E+03  0.88775094084E+03 0.  0.
        5    1    3    3  502    0  0.80500440791E+02 -0.32518270615E+03  0.17632541273E+03  0.37859854004E+03  0.46999998093E+01 0. -1.
       -5    1    3    3    0  502 -0.80500440791E+02  0.32518270615E+03 -0.42917121344E+03  0.54445765105E+03  0.46999998093E+01 0.  1.
</event>
<event>
 5   0  0.1459111E-02  0.9227567E+03  0.7818609E-02  0.9397573E-01
       -1   -1    0    0    0  501  0.00000000000E+00  0.00000000000E+00  0.24786221070E+03  0.24786221075E+03  0.50400001928E-02 0. -1.
        1   -1    0    0  501    0  0.00000000000E+00  0.00000000000E+00 -0.85882386796E+03  0.85882386798E+03  0.50400001928E-02 0.  1.
    10030    2    1    2    0    0  0.00000000000E+00  0.00000000000E+00 -0.61096165727E+03  0.11066860787E+04  0.92275670152E+03 0.  0.
        2    1    3    3  502    0 -0.17520454491E+03  0.59387386328E+02  0.20143339897E+03  0.27349389104E+03  0.25500000920E-02 0. -1.
       -2    1    3    3    0  502  0.17520454491E+03 -0.59387386328E+02 -0.81239505623E+03  0.83319218768E+03  0.25500000920E-02 0.  1.
</event>
<event>
 5   0  0.1537870E-02  0.9125046E+03  0.7818609E-02  0.9410084E-01
       -1   -1    0    0    0  501  0.00000000000E+00  0.00000000000E+00  0.38438235845E+03  0.38438235848E+03  0.50400001928E-02 0.  1.
        1   -1    0    0  501    0  0.00000000000E+00  0.00000000000E+00 -0.54156015848E+03  0.54156015850E+03  0.50400001928E-02 0. -1.
    10030    2    1    2    0    0  0.00000000000E+00  0.00000000000E+00 -0.15717780003E+03  0.92594251698E+03  0.91250462132E+03 0.  0.
        5    1    3    3  502    0  0.28870972567E+03 -0.29352071782E+03  0.12086708629E+03  0.42911380778E+03  0.46999998093E+01 0.  1.
       -5    1    3    3    0  502 -0.28870972567E+03  0.29352071782E+03 -0.27804488632E+03  0.49682870920E+03  0.46999998093E+01 0. -1.
</event>
<event>
 5   0  0.2679861E-02  0.8963243E+03  0.7818609E-02  0.9430188E-01
       -2   -1    0    0    0  501  0.00000000000E+00  0.00000000000E+00  0.64393879048E+03  0.64393879049E+03  0.25500000920E-02 0. -1.
        2   -1    0    0  501    0  0.00000000000E+00  0.00000000000E+00 -0.31190746532E+03  0.31190746533E+03  0.25500000920E-02 0.  1.
    10030    2    1    2    0    0  0.00000000000E+00  0.00000000000E+00  0.33203132516E+03  0.95584625582E+03  0.89632430731E+03 0.  0.
        1    1    3    3  502    0  0.40735950367E+03 -0.35669357759E+02  0.36159374508E+03  0.54586088412E+03  0.50400001928E-02 0. -1.
       -1    1    3    3    0  502 -0.40735950367E+03  0.35669357759E+02 -0.29562419912E+02  0.40998537170E+03  0.50400001928E-02 0.  1.
</event>
<event>
 5   0  0.2705111E-02  0.9011769E+03  0.7818609E-02  0.9424111E-01
        2   -1    0    0  501    0  0.00000000000E+00  0.00000000000E+00  0.12169997593E+04  0.12169997593E+04  0.25500000920E-02 0.  1.
       -2   -1    0    0    0  501  0.00000000000E+00  0.00000000000E+00 -0.16682827147E+03  0.16682827149E+03  0.25500000920E-02 0. -1.
    10030    2    1    2    0    0  0.00000000000E+00  0.00000000000E+00  0.10501714878E+04  0.13838280308E+04  0.90117693321E+03 0.  0.
        4    1    3    3  502    0  0.32248391985E+03 -0.24242478004E+03  0.83320831168E+03  0.92574475753E+03  0.12699999809E+01 0.  1.
       -4    1    3    3    0  502 -0.32248391985E+03  0.24242478004E+03  0.21696317615E+03  0.45808327326E+03  0.12699999809E+01 0. -1.
</event>
<event>
 5   0  0.1560728E-02  0.8505329E+03  0.7818609E-02  0.9489622E-01
       -1   -1    0    0    0  501  0.00000000000E+00  0.00000000000E+00  0.91791364205E+03  0.91791364206E+03  0.50400001928E-02 0.  1.
        1   -1    0    0  501    0  0.00000000000E+00  0.00000000000E+00 -0.19702459185E+03  0.19702459192E+03  0.50400001928E-02 0. -1.
    10030    2    1    2    0    0  0.00000000000E+00  0.00000000000E+00  0.72088905020E+03  0.11149382340E+04  0.85053291699E+03 0.  0.
        4    1    3    3  502    0 -0.22125883611E+03  0.10808058690E+03  0.81494622541E+03  0.85133768214E+03  0.12699999809E+01 0.  1.
       -4    1    3    3    0  502  0.22125883611E+03 -0.10808058690E+03 -0.94057175209E+02  0.26360055184E+03  0.12699999809E+01 0. -1.
</event>
<event>
 5   0  0.1459111E-02  0.9068680E+03  0.7818609E-02  0.9417037E-01
        1   -1    0    0  501    0  0.00000000000E+00  0.00000000000E+00  0.88181000763E+03  0.88181000765E+03  0.50400001928E-02 0.  1.
       -1   -1    0    0    0  501  0.00000000000E+00  0.00000000000E+00 -0.23315950370E+03  0.23315950375E+03  0.50400001928E-02 0. -1.
    10030    2    1    2    0    0  0.00000000000E+00  0.00000000000E+00  0.64865050393E+03  0.11149695114E+04  0.90686798108E+03 0.  0.
        2    1    3    3  502    0  0.22874765626E+03  0.23414898979E+03  0.71009601239E+03  0.78191277422E+03  0.25500000920E-02 0.  1.
       -2    1    3    3    0  502 -0.22874765626E+03 -0.23414898979E+03 -0.61445508462E+02  0.33305673718E+03  0.25500000920E-02 0. -1.
</event>
<event>
 5   0  0.1459111E-02  0.9135297E+03  0.7818609E-02  0.9408825E-01
        1   -1    0    0  501    0  0.00000000000E+00  0.00000000000E+00  0.11073318287E+04  0.11073318288E+04  0.50400001928E-02 0. -1.
       -1   -1    0    0    0  501  0.00000000000E+00  0.00000000000E+00 -0.18841158712E+03  0.18841158718E+03  0.50400001928E-02 0.  1.
    10030    2    1    2    0    0  0.00000000000E+00  0.00000000000E+00  0.91892024163E+03  0.12957434159E+04  0.91352974198E+03 0.  0.
        2    1    3    3  502    0 -0.26047443039E+03 -0.37323309759E+03  0.40481476443E+03  0.60911810639E+03  0.25500000920E-02 0. -1.
       -2    1    3    3    0  502  0.26047443039E+03  0.37323309759E+03  0.51410547720E+03  0.68662530955E+03  0.25500000920E-02 0.  1.
</event>
<event>
 5   0  0.2628383E-02  0.8344944E+03  0.7818609E-02  0.9511388E-01
       -2   -1    0    0    0  501  0.00000000000E+00  0.00000000000E+00  0.18419378411E+03  0.18419378413E+03  0.25500000920E-02 0.  1.
        2   -1    0    0  501    0  0.00000000000E+00  0.00000000000E+00 -0.94517437930E+03  0.94517437930E+03  0.25500000920E-02 0. -1.
    10030    2    1    2    0    0  0.00000000000E+00  0.00000000000E+00 -0.76098059519E+03  0.11293681634E+04  0.83449444714E+03 0.  0.
        2    1    3    3  502    0 -0.22443375005E+03  0.31567444517E+03 -0.17050462477E+03  0.42319344344E+03  0.25500000920E-02 0. -1.
       -2    1    3    3    0  502  0.22443375005E+03 -0.31567444517E+03 -0.59047597042E+03  0.70617471999E+03  0.25500000920E-02 0.  1.
</event>
<event>
 5   0  0.1560728E-02  0.9266584E+03  0.7818609E-02  0.9392857E-01
       -1   -1    0    0    0  501  0.00000000000E+00  0.00000000000E+00  0.46247195378E+03  0.46247195381E+03  0.50400001928E-02 0. -1.
        1   -1    0    0  501    0  0.00000000000E+00  0.00000000000E+00 -0.46418800928E+03  0.46418800930E+03  0.50400001928E-02 0.  1.
    10030    2    1    2    0    0  0.00000000000E+00  0.00000000000E+00 -0.17160554986E+01  0.92665996311E+03  0.92665837415E+03 0.  0.
        4    1    3    3  502    0  0.29021550402E+03 -0.34821071464E+03 -0.96757004129E+02  0.46350757417E+03  0.12699999809E+01 0. -1.
       -4    1    3    3    0  502 -0.29021550402E+03  0.34821071464E+03  0.95040948630E+02  0.46315238894E+03  0.12699999809E+01 0.  1.
</event>
<event>
 5   0  0.1459111E-02  0.8614325E+03  0.7818609E-02  0.9475120E-01
       -1   -1    0    0    0  501  0.00000000000E+00  0.00000000000E+00  0.21858886130E+03  0.21858886136E+03  0.50400001928E-02 0.  1.
        1   -1    0    0  501    0  0.00000000000E+00  0.00000000000E+00 -0.84870063349E+03  0.84870063350E+03  0.50400001928E-02 0. -1.
    10030    2    1    2    0    0  0.00000000000E+00  0.00000000000E+00 -0.63011177218E+03  0.10672894949E+04  0.86143253967E+03 0.  0.
        2    1    3    3  502    0  0.23908387889E+03  0.55754637449E+02  0.12341859578E+03  0.27477596426E+03  0.25500000920E-02 0.  1.
       -2    1    3    3    0  502 -0.23908387889E+03 -0.55754637449E+02 -0.75353036796E+03  0.79251353060E+03  0.25500000920E-02 0. -1.
</event>
<event>
 5   0  0.1497410E-02  0.8995512E+03  0.7818609E-02  0.9426143E-01
        1   -1    0    0  501    0  0.00000000000E+00  0.00000000000E+00  0.76051311657E+03  0.76051311659E+03  0.50400001928E-02 0.  1.
       -1   -1    0    0    0  501  0.00000000000E+00  0.00000000000E+00 -0.26600210006E+03  0.26600210010E+03  0.50400001928E-02 0. -1.
    10030    2    1    2    0    0  0.00000000000E+00  0.00000000000E+00  0.49451101652E+03  0.10265152167E+04  0.89955119067E+03 0.  0.
        3    1    3    3  502    0  0.10695983963E+02  0.44864867048E+03  0.28145250136E+03  0.52973158705E+03  0.10100000352E+00 0.  1.
       -3    1    3    3    0  502 -0.10695983963E+02 -0.44864867048E+03  0.21305851515E+03  0.49678362964E+03  0.10100000352E+00 0. -1.
</event>
<event>
 5   0  0.1560728E-02  0.9020373E+03  0.7818609E-02  0.9423038E-01
       -1   -1    0    0    0  501  0.00000000000E+00  0.00000000000E+00  0.83575575007E+02  0.83575575159E+02  0.50400001928E-02 0. -1.
        1   -1    0    0  501    0  0.00000000000E+00  0.00000000000E+00 -0.24339387826E+04  0.24339387826E+04  0.50400001928E-02 0.  1.
    10030    2    1    2    0    0  0.00000000000E+00  0.00000000000E+00 -0.23503632075E+04  0.25175143577E+04  0.90203732402E+03 0.  0.
        4    1    3    3  502    0  0.26558320541E+03  0.12033600417E+03 -0.21355219702E+04  0.21553354474E+04  0.12699999809E+01 0.  1.
       -4    1    3    3    0  502 -0.26558320541E+03 -0.12033600417E+03 -0.21484123739E+03  0.36217891031E+03  0.12699999809E+01 0. -1.
</event>
<event>
 5   0  0.2705111E-02  0.8838572E+03  0.7818609E-02  0.9445989E-01
       -2   -1    0    0    0  501  0.00000000000E+00  0.00000000000E+00  0.22002942453E+03  0.22002942455E+03  0.25500000920E-02 0.  1.
        2   -1    0    0  501    0  0.00000000000E+00  0.00000000000E+00 -0.88761255210E+03  0.88761255211E+03  0.25500000920E-02 0. -1.
    10030    2    1    2    0    0  0.00000000000E+00  0.00000000000E+00 -0.66758312757E+03  0.11076419767E+04  0.88385718090E+03 0.  0.
        4    1    3    3  502    0  0.36353410608E+02  0.30036759550E+03  0.69878014748E+02  0.31052666993E+03  0.12699999809E+01 0.  1.
       -4    1    3    3    0  502 -0.36353410608E+02 -0.30036759550E+03 -0.73746114232E+03  0.79711530673E+03  0.12699999809E+01 0. -1.
</event>
<event>
 5   0  0.2628383E-02  0.7141368E+03  0.7818609E-02  0.9693357E-01
       -2   -1    0    0    0  501  0.00000000000E+00  0.00000000000E+00  0.15506483699E+03  0.15506483701E+03  0.25500000920E-02 0. -1.
        2   -1    0    0  501    0  0.00000000000E+00  0.00000000000E+00 -0.82222287665E+03  0.82222287665E+03  0.25500000920E-02 0.  1.
    10030    2    1    2    0    0  0.00000000000E+00  0.00000000000E+00 -0.66715803966E+03  0.97728771366E+03  0.71413683940E+03 0.  0.
        2    1    3    3  502    0  0.11404258307E+03 -0.10942421896E+03 -0.77174846886E+03  0.78776587235E+03  0.25500000920E-02 0.  1.
       -2    1    3    3    0  502 -0.11404258307E+03  0.10942421896E+03  0.10459042920E+03  0.18952184131E+03  0.25500000920E-02 0. -1.
</event>
<event>
 5   0  0.2803717E-02  0.9163085E+03  0.7818609E-02  0.9405422E-01
       -2   -1    0    0    0  501  0.00000000000E+00  0.00000000000E+00  0.76265569261E+03  0.76265569261E+03  0.25500000920E-02 0.  1.
        2   -1    0    0  501    0  0.00000000000E+00  0.00000000000E+00 -0.27522946558E+03  0.27522946559E+03  0.25500000920E-02 0. -1.
    10030    2    1    2    0    0  0.00000000000E+00  0.00000000000E+00  0.48742622702E+03  0.10378851582E+04  0.91630850418E+03 0.  0.
        5    1    3    3  502    0  0.31201733341E+02 -0.94347886086E+02  0.75027374930E+03  0.75684071023E+03  0.46999998093E+01 0.  1.
       -5    1    3    3    0  502 -0.31201733341E+02  0.94347886086E+02 -0.26284752228E+03  0.28104444797E+03  0.46999998093E+01 0. -1.
</event>
<event>
 5   0  0.2414128E-02  0.9107610E+03  0.7818609E-02  0.9412229E-01
       -2   -1    0    0    0  501  0.00000000000E+00  0.00000000000E+00  0.39185309342E+03  0.39185309343E+03  0.25500000920E-02 0. -1.
        2   -1    0    0  501    0  0.00000000000E+00  0.00000000000E+00 -0.52920697218E+03  0.52920697219E+03  0.25500000920E-02 0.  1.
    10030    2    1    2    0    0  0.00000000000E+00  0.00000000000E+00 -0.13735387876E+03  0.92106006562E+03  0.91076097659E+03 0.  0.
        3    1    3    3  502    0  0.35867043509E+03  0.14524788612E+03  0.17410012650E+03  0.42432569292E+03  0.10100000352E+00 0. -1.
       -3    1    3    3    0  502 -0.35867043509E+03 -0.14524788612E+03 -0.31145400526E+03  0.49673437270E+03  0.10100000352E+00 0.  1.
</event>
<event>
 5   0  0.2679861E-02  0.9018372E+03  0.7818609E-02  0.9423288E-01
       -2   -1    0    0    0  501  0.00000000000E+00  0.00000000000E+00  0.29793734565E+03  0.29793734566E+03  0.25500000920E-02 0. -1.
        2   -1    0    0  501    0  0.00000000000E+00  0.00000000000E+00 -0.68245078660E+03  0.68245078661E+03  0.25500000920E-02 0.  1.
    10030    2    1    2    0    0  0.00000000000E+00  0.00000000000E+00 -0.38451344096E+03  0.98038813227E+03  0.90183718243E+03 0.  0.
        1    1    3    3  502    0 -0.19687244493E+03 -0.34481977706E+03 -0.42457134976E+03  0.58130909961E+03  0.50400001928E-02 0.  1.
       -1    1    3    3    0  502  0.19687244493E+03  0.34481977706E+03  0.40057908806E+02  0.39907903266E+03  0.50400001928E-02 0. -1.
</event>
<event>
 5   0  0.1497410E-02  0.9407895E+03  0.7818609E-02  0.9375982E-01
       -1   -1    0    0    0  501  0.00000000000E+00  0.00000000000E+00  0.80761578678E+03  0.80761578680E+03  0.50400001928E-02 0.  1.
        1   -1    0    0  501    0  0.00000000000E+00  0.00000000000E+00 -0.27398077902E+03  0.27398077907E+03  0.50400001928E-02 0. -1.
    10030    2    1    2    0    0  0.00000000000E+00  0.00000000000E+00  0.53363500776E+03  0.10815965659E+04  0.94078946092E+03 0.  0.
        3    1    3    3  502    0 -0.31684912939E+03  0.27923663040E+03  0.50495370482E+03  0.65828923792E+03  0.10100000352E+00 0.  1.
       -3    1    3    3    0  502  0.31684912939E+03 -0.27923663040E+03  0.28681302949E+02  0.42330732794E+03  0.10100000352E+00 0. -1.
</event>
<event>
 5   0  0.1559275E-02  0.8710839E+03  0.7818609E-02  0.9462468E-01
       -1   -1    0    0    0  501  0.00000000000E+00  0.00000000000E+00  0.17052155959E+04  0.17052155959E+04  0.50400001928E-02 0.  1.
        1   -1    0    0  501    0  0.00000000000E+00  0.00000000000E+00 -0.11124505344E+03  0.11124505356E+03  0.50400001928E-02 0. -1.
    10030    2    1    2    0    0  0.00000000000E+00  0.00000000000E+00  0.15939705425E+04  0.18164606495E+04  0.87108392296E+03 0.  0.
        1    1    3    3  502    0 -0.35380101690E+03  0.11876319954E+03  0.32876064628E+03  0.49735643124E+03  0.50400001928E-02 0. -1.
       -1    1    3    3    0  502  0.35380101690E+03 -0.11876319954E+03  0.12652098962E+04  0.13191042183E+04  0.50400001928E-02 0.  1.
</event>
<event>
 5   0  0.2414128E-02  0.9011277E+03  0.7818609E-02  0.9424173E-01
       -2   -1    0    0    0  501  0.00000000000E+00  0.00000000000E+00  0.79520868310E+02  0.79520868351E+02  0.25500000920E-02 0.  1.
        2   -1    0    0  501    0  0.00000000000E+00  0.00000000000E+00 -0.25528871440E+04  0.25528871440E+04  0.25500000920E-02 0. -1.
    10030    2    1    2    0    0  0.00000000000E+00  0.00000000000E+00 -0.24733662757E+04  0.26324080124E+04  0.90112774332E+03 0.  0.
        3    1    3    3  502    0  0.17025208439E+03  0.11718766734E+03 -0.67133123088E+02  0.21731449108E+03  0.10100000352E+00 0.  1.
       -3    1    3    3    0  502 -0.17025208439E+03 -0.11718766734E+03 -0.24062331526E+04  0.24150935213E+04  0.10100000352E+00 0. -1.
</event>
<event>
 5   0  0.1459111E-02  0.8612456E+03  0.7818609E-02  0.9475367E-01
        1   -1    0    0  501    0  0.00000000000E+00  0.00000000000E+00  0.21397039745E+03  0.21397039751E+03  0.50400001928E-02 0. -1.
       -1   -1    0    0    0  501  0.00000000000E+00  0.00000000000E+00 -0.86664326339E+03  0.86664326340E+03  0.50400001928E-02 0.  1.
    10030    2    1    2    0    0  0.00000000000E+00  0.00000000000E+00 -0.65267286593E+03  0.10806136609E+04  0.86124561783E+03 0.  0.
        2    1    3    3  502    0 -0.65527642657E+02  0.26456492848E+03 -0.74464170363E+03  0.79295632927E+03  0.25500000920E-02 0.  1.
       -2    1    3    3    0  502  0.65527642657E+02 -0.26456492848E+03  0.91968837696E+02  0.28765733164E+03  0.25500000920E-02 0. -1.
</event>
<event>
 5   0  0.2679861E-02  0.9151157E+03  0.7818609E-02  0.9406881E-01
       -2   -1    0    0    0  501  0.00000000000E+00  0.00000000000E+00  0.10289963766E+03  0.10289963769E+03  0.25500000920E-02 0. -1.
        2   -1    0    0  501    0  0.00000000000E+00  0.00000000000E+00 -0.20345958540E+04  0.20345958540E+04  0.25500000920E-02 0.  1.
    10030    2    1    2    0    0  0.00000000000E+00  0.00000000000E+00 -0.19316962164E+04  0.21374954917E+04  0.91511567836E+03 0.  0.
        1    1    3    3  502    0  0.34324897391E+03 -0.15756044133E+03 -0.36254191383E+03  0.52352821325E+03  0.50400001928E-02 0. -1.
       -1    1    3    3    0  502 -0.34324897391E+03  0.15756044133E+03 -0.15691543025E+04  0.16139672785E+04  0.50400001928E-02 0.  1.
</event>
<event>
 5   0  0.1040163E-02  0.8791258E+03  0.7818609E-02  0.9452058E-01
       -3   -1    0    0    0  501  0.00000000000E+00  0.00000000000E+00  0.77970358579E+03  0.77970359233E+03  0.10100000352E+00 0.  1.
        3   -1    0    0  501    0  0.00000000000E+00  0.00000000000E+00 -0.24780636758E+03  0.24780638816E+03  0.10100000352E+00 0. -1.
    10030    2    1    2    0    0  0.00000000000E+00  0.00000000000E+00  0.53189721822E+03  0.10275099805E+04  0.87912576419E+03 0.  0.
        5    1    3    3  502    0 -0.17686748794E+03 -0.29925949781E+03  0.58033921528E+03  0.67650133046E+03  0.46999998093E+01 0.  1.
       -5    1    3    3    0  502  0.17686748794E+03  0.29925949781E+03 -0.48441997064E+02  0.35100865004E+03  0.46999998093E+01 0. -1.
</event>
<event>
 5   0  0.2414128E-02  0.7026190E+03  0.7818609E-02  0.9712764E-01
       -2   -1    0    0    0  501  0.00000000000E+00  0.00000000000E+00  0.62146110638E+02  0.62146110690E+02  0.25500000920E-02 0. -1.
        2   -1    0    0  501    0  0.00000000000E+00  0.00000000000E+00 -0.19859388150E+04  0.19859388150E+04  0.25500000920E-02 0.  1.
    10030    2    1    2    0    0  0.00000000000E+00  0.00000000000E+00 -0.19237927044E+04  0.20480849257E+04  0.70261902443E+03 0.  0.
        3    1    3    3  502    0 -0.24152170392E+03  0.15659524345E+03 -0.37481797523E+03  0.47259213757E+03  0.10100000352E+00 0. -1.
       -3    1    3    3    0  502  0.24152170392E+03 -0.15659524345E+03 -0.15489747291E+04  0.15754927881E+04  0.10100000352E+00 0.  1.
</event>
<event>
 5   0  0.1040163E-02  0.8980554E+03  0.7818609E-02  0.9428016E-01
       -3   -1    0    0    0  501  0.00000000000E+00  0.00000000000E+00  0.18626692701E+03  0.18626695440E+03  0.10100000352E+00 0.  1.
        3   -1    0    0  501    0  0.00000000000E+00  0.00000000000E+00 -0.10824564853E+04  0.10824564901E+04  0.10100000352E+00 0. -1.
    10030    2    1    2    0    0  0.00000000000E+00  0.00000000000E+00 -0.89618955833E+03  0.12687234444E+04  0.89805537359E+03 0.  0.
        4    1    3    3  502    0 -0.24984308881E+03 -0.36765513790E+03 -0.53780556021E+03  0.69773082413E+03  0.12699999809E+01 0.  1.
       -4    1    3    3    0  502  0.24984308881E+03  0.36765513790E+03 -0.35838399812E+03  0.57099262032E+03  0.12699999809E+01 0. -1.
</event>
<event>
 5   0  0.1559275E-02  0.8930205E+03  0.7818609E-02  0.9434348E-01
       -1   -1    0    0    0  501  0.00000000000E+00  0.00000000000E+00  0.44034277304E+03  0.44034277307E+03  0.50400001928E-02 0. -1.
        1   -1    0    0  501    0  0.00000000000E+00  0.00000000000E+00 -0.45276411218E+03  0.45276411221E+03  0.50400001928E-02 0.  1.
    10030    2    1    2    0    0  0.00000000000E+00  0.00000000000E+00 -0.12421339133E+02  0.89310688528E+03  0.89302050305E+03 0.  0.
        1    1    3    3  502    0  0.72345800810E+02 -0.26947902087E+03  0.34241815500E+03  0.44170470960E+03  0.50400001928E-02 0. -1.
       -1    1    3    3    0  502 -0.72345800810E+02  0.26947902087E+03 -0.35483949414E+03  0.45140217568E+03  0.50400001928E-02 0.  1.
</event>
<event>
 5   0  0.2414128E-02  0.9167696E+03  0.7818609E-02  0.9404858E-01
        2   -1    0    0  501    0  0.00000000000E+00  0.00000000000E+00  0.16573347020E+04  0.16573347020E+04  0.25500000920E-02 0. -1.
       -2   -1    0    0    0  501  0.00000000000E+00  0.00000000000E+00 -0.12677982947E+03  0.12677982949E+03  0.25500000920E-02 0.  1.
    10030    2    1    2    0    0  0.00000000000E+00  0.00000000000E+00  0.15305548725E+04  0.17841145314E+04  0.91676956953E+03 0.  0.
        3    1    3    3  502    0 -0.72947084784E+02  0.45147075541E+03  0.70468309221E+03  0.84007463408E+03  0.10100000352E+00 0. -1.
       -3    1    3    3    0  502  0.72947084784E+02 -0.45147075541E+03  0.82587178027E+03  0.94403989737E+03  0.10100000352E+00 0.  1.
</event>
<event>
 5   0  0.2679861E-02  0.9049805E+03  0.7818609E-02  0.9419377E-01
        2   -1    0    0  501    0  0.00000000000E+00  0.00000000000E+00  0.99928897135E+03  0.99928897135E+03  0.25500000920E-02 0. -1.
       -2   -1    0    0    0  501  0.00000000000E+00  0.00000000000E+00 -0.20489309217E+03  0.20489309219E+03  0.25500000920E-02 0.  1.
    10030    2    1    2    0    0  0.00000000000E+00  0.00000000000E+00  0.79439587917E+03  0.12041820635E+04  0.90498045796E+03 0.  0.
        1    1    3    3  502    0 -0.11991835443E+03 -0.89459594012E+02 -0.17102986355E+03  0.22723257896E+03  0.50400001928E-02 0.  1.
       -1    1    3    3    0  502  0.11991835443E+03  0.89459594012E+02  0.96542574272E+03  0.97694948458E+03  0.50400001928E-02 0. -1.
</event>
<event>
 5   0  0.1459111E-02  0.8880481E+03  0.7818609E-02  0.9440646E-01
       -1   -1    0    0    0  501  0.00000000000E+00  0.00000000000E+00  0.15445538450E+03  0.15445538458E+03  0.50400001928E-02 0. -1.
        1   -1    0    0  501    0  0.00000000000E+00  0.00000000000E+00 -0.12764679733E+04  0.12764679733E+04  0.50400001928E-02 0.  1.
    10030    2    1    2    0    0  0.00000000000E+00  0.00000000000E+00 -0.11220125888E+04  0.14309233578E+04  0.88804808805E+03 0.  0.
        2    1    3    3  502    0 -0.25514407156E+02 -0.31097983046E+03 -0.10700330569E+04  0.11145986644E+04  0.25500000920E-02 0.  1.
       -2    1    3    3    0  502  0.25514407156E+02  0.31097983046E+03 -0.51979531891E+02  0.31632469342E+03  0.25500000920E-02 0. -1.
</event>
<event>
 5   0  0.2705111E-02  0.8926862E+03  0.7818609E-02  0.9434771E-01
       -2   -1    0    0    0  501  0.00000000000E+00  0.00000000000E+00  0.20902999581E+03  0.20902999583E+03  0.25500000920E-02 0. -1.
        2   -1    0    0  501    0  0.00000000000E+00  0.00000000000E+00 -0.95307924376E+03  0.95307924377E+03  0.25500000920E-02 0.  1.
    10030    2    1    2    0    0  0.00000000000E+00  0.00000000000E+00 -0.74404924795E+03  0.11621092396E+04  0.89268617182E+03 0.  0.
        4    1    3    3  502    0 -0.11273499987E+03 -0.20013044360E+03  0.12617847011E+03  0.26207631307E+03  0.12699999809E+01 0. -1.
       -4    1    3    3    0  502  0.11273499987E+03  0.20013044360E+03 -0.87022771806E+03  0.90003292653E+03  0.12699999809E+01 0.  1.
</event>
<event>
 5   0  0.2628383E-02  0.9301367E+03  0.7818609E-02  0.9388674E-01
       -2   -1    0    0    0  501  0.00000000000E+00  0.00000000000E+00  0.26757200841E+03  0.26757200843E+03  0.25500000920E-02 0. -1.
        2   -1    0    0  501    0  0.00000000000E+00  0.00000000000E+00 -0.80833782879E+03  0.80833782879E+03  0.25500000920E-02 0.  1.
    10030    2    1    2    0    0  0.00000000000E+00  0.00000000000E+00 -0.54076582037E+03  0.10759098372E+04  0.93013671325E+03 0.  0.
        2    1    3    3  502    0 -0.44655301489E+03  0.65051442357E+02 -0.40046809808E+03  0.60333737066E+03  0.25500000920E-02 0.  1.
       -2    1    3    3    0  502  0.44655301489E+03 -0.65051442357E+02 -0.14029772230E+03  0.47257246655E+03  0.25500000920E-02 0. -1.
</event>
<event>
 5   0  0.1497410E-02  0.9057934E+03  0.7818609E-02  0.9418368E-01
        1   -1    0    0  501    0  0.00000000000E+00  0.00000000000E+00  0.91088912509E+03  0.91088912511E+03  0.50400001928E-02 0.  1.
       -1   -1    0    0    0  501  0.00000000000E+00  0.00000000000E+00 -0.22518154252E+03  0.22518154257E+03  0.50400001928E-02 0. -1.
    10030    2    1    2    0    0  0.00000000000E+00  0.00000000000E+00  0.68570758258E+03  0.11360706677E+04  0.90579339430E+03 0.  0.
        3    1    3    3  502    0  0.23142230152E+03 -0.74367328746E+02 -0.13643271093E+03  0.27874840993E+03  0.10100000352E+00 0. -1.
       -3    1    3    3    0  502 -0.23142230152E+03  0.74367328746E+02  0.82214029351E+03  0.85732225775E+03  0.10100000352E+00 0.  1.
</event>
<event>
 5   0  0.1560728E-02  0.8691701E+03  0.7818609E-02  0.9464963E-01
       -1   -1    0    0    0  501  0.00000000000E+00  0.00000000000E+00  0.14279705074E+03  0.14279705083E+03  0.50400001928E-02 0.  1.
        1   -1    0    0  501    0  0.00000000000E+00  0.00000000000E+00 -0.13226055106E+04  0.13226055106E+04  0.50400001928E-02 0. -1.
    10030    2    1    2    0    0  0.00000000000E+00  0.00000000000E+00 -0.11798084599E+04  0.14654025615E+04  0.86917010138E+03 0.  0.
        4    1    3    3  502    0  0.39148734261E+03 -0.15598229663E+03 -0.76888610772E+03  0.87680116094E+03  0.12699999809E+01 0. -1.
       -4    1    3    3    0  502 -0.39148734261E+03  0.15598229663E+03 -0.41092235217E+03  0.58860140053E+03  0.12699999809E+01 0.  1.
</event>
<event>
 5   0  0.1537870E-02  0.8706200E+03  0.7818609E-02  0.9463072E-01
        1   -1    0    0  501    0  0.00000000000E+00  0.00000000000E+00  0.36745319702E+03  0.36745319705E+03  0.50400001928E-02 0.  1.
       -1   -1    0    0    0  501  0.00000000000E+00  0.00000000000E+00 -0.51569775760E+03  0.51569775762E+03  0.50400001928E-02 0. -1.
    10030    2    1    2    0    0  0.00000000000E+00  0.00000000000E+00 -0.14824456058E+03  0.88315095468E+03  0.87061998542E+03 0.  0.
        5    1    3    3  502    0 -0.34062699566E+03 -0.70308354462E+02  0.19137501866E+03  0.39700944906E+03  0.46999998093E+01 0.  1.
       -5    1    3    3    0  502  0.34062699566E+03  0.70308354462E+02 -0.33961957924E+03  0.48614150562E+03  0.46999998093E+01 0. -1.
</event>
<event>
 5   0  0.1560728E-02  0.8995214E+03  0.7818609E-02  0.9426180E-01
       -1   -1    0    0    0  501  0.00000000000E+00  0.00000000000E+00  0.22404209715E+03  0.22404209721E+03  0.50400001928E-02 0.  1.
        1   -1    0    0  501    0  0.00000000000E+00  0.00000000000E+00 -0.90288695249E+03  0.90288695250E+03  0.50400001928E-02 0. -1.
    10030    2    1    2    0    0  0.00000000000E+00  0.00000000000E+00 -0.67884485533E+03  0.11269290497E+04  0.89952139800E+03 0.  0.
        4    1    3    3  502    0 -0.13154643508E+03  0.28427479830E+03  0.64919710015E+02  0.31989499399E+03  0.12699999809E+01 0.  1.
       -4    1    3    3    0  502  0.13154643508E+03 -0.28427479830E+03 -0.74376456535E+03  0.80703405572E+03  0.12699999809E+01 0. -1.
</event>
<event>
 5   0  0.1559275E-02  0.9207478E+03  0.7818609E-02  0.9400011E-01
       -1   -1    0    0    0  501  0.00000000000E+00  0.00000000000E+00  0.14704313968E+03  0.14704313976E+03  0.50400001928E-02 0. -1.
        1   -1    0    0  501    0  0.00000000000E+00  0.00000000000E+00 -0.14413738141E+04  0.14413738141E+04  0.50400001928E-02 0.  1.
    10030    2    1    2    0    0  0.00000000000E+00  0.00000000000E+00 -0.12943306744E+04  0.15884169539E+04  0.92074780727E+03 0.  0.
        1    1    3    3  502    0 -0.36021713196E+03 -0.21932945695E+03 -0.96564999194E+03  0.10537275264E+04  0.50400001928E-02 0.  1.
       -1    1    3    3    0  502  0.36021713196E+03  0.21932945695E+03 -0.32868068250E+03  0.53468942753E+03  0.50400001928E-02 0. -1.
</event>
<event>
 5   0  0.2803717E-02  0.1067599E+04  0.7818609E-02  0.9237361E-01
       -2   -1    0    0    0  501  0.00000000000E+00  0.00000000000E+00  0.10383506489E+03  0.10383506492E+03  0.25500000920E-02 0. -1.
        2   -1    0    0  501    0  0.00000000000E+00  0.00000000000E+00 -0.27441759610E+04  0.27441759610E+04  0.25500000920E-02 0.  1.
    10030    2    1    2    0    0  0.00000000000E+00  0.00000000000E+00 -0.26403408961E+04  0.28480110259E+04  0.10675985931E+04 0.  0.
        5    1    3    3  502    0  0.39412194582E+03  0.29695518626E+03 -0.18629964409E+04  0.19272499370E+04  0.46999998093E+01 0.  1.
       -5    1    3    3    0  502 -0.39412194582E+03 -0.29695518626E+03 -0.77734445515E+03  0.92076108887E+03  0.46999998093E+01 0. -1.
</event>
<event>
 5   0  0.1560728E-02  0.8967270E+03  0.7818609E-02  0.9429682E-01
       -1   -1    0    0    0  501  0.00000000000E+00  0.00000000000E+00  0.12425768740E+04  0.12425768740E+04  0.50400001928E-02 0. -1.
        1   -1    0    0  501    0  0.00000000000E+00  0.00000000000E+00 -0.16178462931E+03  0.16178462938E+03  0.50400001928E-02 0.  1.
    10030    2    1    2    0    0  0.00000000000E+00  0.00000000000E+00  0.10807922447E+04  0.14043615034E+04  0.89672702426E+03 0.  0.
        4    1    3    3  502    0  0.43958542070E+03 -0.31473886934E+02  0.41123082116E+03  0.60277553768E+03  0.12699999809E+01 0.  1.
       -4    1    3    3    0  502 -0.43958542070E+03  0.31473886934E+02  0.66956142355E+03  0.80158596573E+03  0.12699999809E+01 0. -1.
</event>
<event>
 5   0  0.2803717E-02  0.6424472E+03  0.7818609E-02  0.9821056E-01
       -2   -1    0    0    0  501  0.00000000000E+00  0.00000000000E+00  0.19574666633E+03  0.19574666634E+03  0.25500000920E-02 0. -1.
        2   -1    0    0  501    0  0.00000000000E+00  0.00000000000E+00 -0.52713334720E+03  0.52713334721E+03  0.25500000920E-02 0.  1.
    10030    2    1    2    0    0  0.00000000000E+00  0.00000000000E+00 -0.33138668088E+03  0.72288001355E+03  0.64244718206E+03 0.  0.
        5    1    3    3  502    0  0.60691129480E+02 -0.12177972610E+03  0.16167687751E+03  0.21136512864E+03  0.46999998093E+01 0. -1.
       -5    1    3    3    0  502 -0.60691129480E+02  0.12177972610E+03 -0.49306355838E+03  0.51151488491E+03  0.46999998093E+01 0.  1.
</event>
<event>
 5   0  0.2414128E-02  0.8987240E+03  0.7818609E-02  0.9427178E-01
        2   -1    0    0  501    0  0.00000000000E+00  0.00000000000E+00  0.14480659971E+04  0.14480659971E+04  0.25500000920E-02 0.  1.
       -2   -1    0    0    0  501  0.00000000000E+00  0.00000000000E+00 -0.13944543743E+03  0.13944543746E+03  0.25500000920E-02 0. -1.
    10030    2    1    2    0    0  0.00000000000E+00  0.00000000000E+00  0.13086205596E+04  0.15875114345E+04  0.89872397634E+03 0.  0.
        3    1    3    3  502    0 -0.27069631270E+02 -0.35513431774E+03  0.11382959781E+04  0.11927157635E+04  0.10100000352E+00 0.  1.
       -3    1    3    3    0  502  0.27069631270E+02  0.35513431774E+03  0.17032458154E+03  0.39479567102E+03  0.10100000352E+00 0. -1.
</event>
<event>
 5   0  0.2414128E-02  0.9223846E+03  0.7818609E-02  0.9398024E-01
       -2   -1    0    0    0  501  0.00000000000E+00  0.00000000000E+00  0.38426592934E+03  0.38426592934E+03  0.25500000920E-02 0. -1.
        2   -1    0    0  501    0  0.00000000000E+00  0.00000000000E+00 -0.55351857382E+03  0.55351857383E+03  0.25500000920E-02 0.  1.
    10030    2    1    2    0    0  0.00000000000E+00  0.00000000000E+00 -0.16925264449E+03  0.93778450317E+03  0.92238458179E+03 0.  0.
        3    1    3    3  502    0  0.24344032138E+03 -0.20682260152E+02  0.31306599053E+03  0.39711619280E+03  0.10100000352E+00 0. -1.
       -3    1    3    3    0  502 -0.24344032138E+03  0.20682260152E+02 -0.48231863501E+03  0.54066831037E+03  0.10100000352E+00 0.  1.
</event>
<event>
 5   0  0.1537870E-02  0.9076655E+03  0.7818609E-02  0.9416050E-01
       -1   -1    0    0    0  501  0.00000000000E+00  0.00000000000E+00  0.12627323691E+03  0.12627323701E+03  0.50400001928E-02 0.  1.
        1   -1    0    0  501    0  0.00000000000E+00  0.00000000000E+00 -0.16310991868E+04  0.16310991868E+04  0.50400001928E-02 0. -1.
    10030    2    1    2    0    0  0.00000000000E+00  0.00000000000E+00 -0.15048259499E+04  0.17573724238E+04  0.90766552017E+03 0.  0.
        5    1    3    3  502    0  0.41955279692E+03 -0.28534161949E+02 -0.42211237820E+03  0.59585207697E+03  0.46999998093E+01 0.  1.
       -5    1    3    3    0  502 -0.41955279692E+03  0.28534161949E+02 -0.10827135717E+04  0.11615203468E+04  0.46999998093E+01 0. -1.
</event>
<event>
 5   0  0.2803717E-02  0.1109782E+04  0.7818609E-02  0.9195710E-01
       -2   -1    0    0    0  501  0.00000000000E+00  0.00000000000E+00  0.44316205243E+03  0.44316205244E+03  0.25500000920E-02 0. -1.
        2   -1    0    0  501    0  0.00000000000E+00  0.00000000000E+00 -0.69478843832E+03  0.69478843833E+03  0.25500000920E-02 0.  1.
    10030    2    1    2    0    0  0.00000000000E+00  0.00000000000E+00 -0.25162638589E+03  0.11379504908E+04  0.11097817269E+04 0.  0.
        5    1    3    3  502    0 -0.20246920704E+03 -0.69847048394E+02  0.39904771347E+03  0.45291672258E+03  0.46999998093E+01 0. -1.
       -5    1    3    3    0  502  0.20246920704E+03  0.69847048394E+02 -0.65067409937E+03  0.68503376818E+03  0.46999998093E+01 0.  1.
</event>
<event>
 5   0  0.2414128E-02  0.9265792E+03  0.7818609E-02  0.9392953E-01
       -2   -1    0    0    0  501  0.00000000000E+00  0.00000000000E+00  0.30070741899E+03  0.30070741900E+03  0.25500000920E-02 0.  1.
        2   -1    0    0  501    0  0.00000000000E+00  0.00000000000E+00 -0.71377434877E+03  0.71377434878E+03  0.25500000920E-02 0. -1.
    10030    2    1    2    0    0  0.00000000000E+00  0.00000000000E+00 -0.41306692978E+03  0.10144817678E+04  0.92657917561E+03 0.  0.
        3    1    3    3  502    0 -0.27052562935E+03 -0.35274999813E+03 -0.34937304507E+03  0.56540093044E+03  0.10100000352E+00 0.  1.
       -3    1    3    3    0  502  0.27052562935E+03  0.35274999813E+03 -0.63693884716E+02  0.44908083734E+03  0.10100000352E+00 0. -1.
</event>
<event>
 5   0  0.1559275E-02  0.8785448E+03  0.7818609E-02  0.9452806E-01
        1   -1    0    0  501    0  0.00000000000E+00  0.00000000000E+00  0.36685971266E+03  0.36685971270E+03  0.50400001928E-02 0. -1.
       -1   -1    0    0    0  501  0.00000000000E+00  0.00000000000E+00 -0.52597832812E+03  0.52597832814E+03  0.50400001928E-02 0.  1.
    10030    2    1    2    0    0  0.00000000000E+00  0.00000000000E+00 -0.15911861546E+03  0.89283804084E+03  0.87854483857E+03 0.  0.
        1    1    3    3  502    0  0.18696382628E+03  0.29599736756E+03 -0.34918749950E+03  0.49447125677E+03  0.50400001928E-02 0.  1.
       -1    1    3    3    0  502 -0.18696382628E+03 -0.29599736756E+03  0.19006888405E+03  0.39836678407E+03  0.50400001928E-02 0. -1.
</event>
<event>
 5   0  0.1497410E-02  0.8835981E+03  0.7818609E-02  0.9446320E-01
       -1   -1    0    0    0  501  0.00000000000E+00  0.00000000000E+00  0.12015777138E+03  0.12015777148E+03  0.50400001928E-02 0.  1.
        1   -1    0    0  501    0  0.00000000000E+00  0.00000000000E+00 -0.16244177196E+04  0.16244177196E+04  0.50400001928E-02 0. -1.
    10030    2    1    2    0    0  0.00000000000E+00  0.00000000000E+00 -0.15042599482E+04  0.17445754911E+04  0.88359812827E+03 0.  0.
        3    1    3    3  502    0 -0.24463652210E+03  0.36534599203E+03 -0.66694017066E+03  0.79883285065E+03  0.10100000352E+00 0.  1.
       -3    1    3    3    0  502  0.24463652210E+03 -0.36534599203E+03 -0.83731977753E+03  0.94574264041E+03  0.10100000352E+00 0. -1.
</event>
<event>
 5   0  0.1459111E-02  0.7906129E+03  0.7818609E-02  0.9573705E-01
        1   -1    0    0  501    0  0.00000000000E+00  0.00000000000E+00  0.56416686503E+03  0.56416686505E+03  0.50400001928E-02 0.  1.
       -1   -1    0    0    0  501  0.00000000000E+00  0.00000000000E+00 -0.27698754436E+03  0.27698754440E+03  0.50400001928E-02 0. -1.
    10030    2    1    2    0    0  0.00000000000E+00  0.00000000000E+00  0.28717932067E+03  0.84115440945E+03  0.79061291308E+03 0.  0.
        2    1    3    3  502    0  0.38213575294E+03 -0.72647478920E+02  0.68646559923E+02  0.39499081010E+03  0.25500000920E-02 0. -1.
       -2    1    3    3    0  502 -0.38213575294E+03  0.72647478920E+02  0.21853276075E+03  0.44616359936E+03  0.25500000920E-02 0.  1.
</event>
<event>
 5   0  0.1040163E-02  0.8774054E+03  0.7818609E-02  0.9454275E-01
        3   -1    0    0  501    0  0.00000000000E+00  0.00000000000E+00  0.19541590311E+04  0.19541590337E+04  0.10100000352E+00 0.  1.
       -3   -1    0    0    0  501  0.00000000000E+00  0.00000000000E+00 -0.98487388797E+02  0.98487440585E+02  0.10100000352E+00 0. -1.
    10030    2    1    2    0    0  0.00000000000E+00  0.00000000000E+00  0.18556716423E+04  0.20526464743E+04  0.87740543899E+03 0.  0.
        4    1    3    3  502    0 -0.12827932817E+03  0.28827633330E+03  0.16408872165E+04  0.16709492214E+04  0.12699999809E+01 0.  1.
       -4    1    3    3    0  502  0.12827932817E+03 -0.28827633330E+03  0.21478442577E+03  0.38169725285E+03  0.12699999809E+01 0. -1.
</event>
<event>
 5   0  0.2679861E-02  0.8838111E+03  0.7818609E-02  0.9446048E-01
       -2   -1    0    0    0  501  0.00000000000E+00  0.00000000000E+00  0.12076827764E+03  0.12076827766E+03  0.25500000920E-02 0.  1.
        2   -1    0    0  501    0  0.00000000000E+00  0.00000000000E+00 -0.16169853411E+04  0.16169853411E+04  0.25500000920E-02 0. -1.
    10030    2    1    2    0    0  0.00000000000E+00  0.00000000000E+00 -0.14962170635E+04  0.17377536188E+04  0.88381114416E+03 0.  0.
        1    1    3    3  502    0 -0.20879929155E+03 -0.19651964171E+03 -0.86974079863E+02  0.29963578612E+03  0.50400001928E-02 0.  1.
       -1    1    3    3    0  502  0.20879929155E+03  0.19651964171E+03 -0.14092429836E+04  0.14381178327E+04  0.50400001928E-02 0. -1.
</event>
<event>
 5   0  0.2803717E-02  0.8923735E+03  0.7818609E-02  0.9435165E-01
        2   -1    0    0  501    0  0.00000000000E+00  0.00000000000E+00  0.12673715032E+04  0.12673715032E+04  0.25500000920E-02 0.  1.
       -2   -1    0    0    0  501  0.00000000000E+00  0.00000000000E+00 -0.15708308201E+03  0.15708308203E+03  0.25500000920E-02 0. -1.
    10030    2    1    2    0    0  0.00000000000E+00  0.00000000000E+00  0.11102884212E+04  0.14244545852E+04  0.89237351325E+03 0.  0.
        5    1    3    3  502    0  0.28989681378E+03 -0.46373583386E+02  0.18865039867E+02  0.29422551147E+03  0.46999998093E+01 0. -1.
       -5    1    3    3    0  502 -0.28989681378E+03  0.46373583386E+02  0.10914233813E+04  0.11302290737E+04  0.46999998093E+01 0.  1.
</event>
<event>
 5   0  0.2628383E-02  0.8981539E+03  0.7818609E-02  0.9427892E-01
       -2   -1    0    0    0  501  0.00000000000E+00  0.00000000000E+00  0.36956854188E+03  0.36956854189E+03  0.25500000920E-02 0. -1.
        2   -1    0    0  501    0  0.00000000000E+00  0.00000000000E+00 -0.54569067216E+03  0.54569067217E+03  0.25500000920E-02 0.  1.
    10030    2    1    2    0    0  0.00000000000E+00  0.00000000000E+00 -0.17612213028E+03  0.91525921406E+03  0.89815389781E+03 0.  0.
        2    1    3    3  502    0  0.27611122706E+02  0.29379847632E+01 -0.54481505160E+03  0.54552217765E+03  0.25500000920E-02 0.  1.
       -2    1    3    3    0  502 -0.27611122706E+02 -0.29379847632E+01  0.36869292132E+03  0.36973703641E+03  0.25500000920E-02 0. -1.
</event>
<event>
 5   0  0.2414128E-02  0.9136581E+03  0.7818609E-02  0.9408667E-01
        2   -1    0    0  501    0  0.00000000000E+00  0.00000000000E+00  0.54159456585E+03  0.54159456585E+03  0.25500000920E-02 0.  1.
       -2   -1    0    0    0  501  0.00000000000E+00  0.00000000000E+00 -0.38533026433E+03  0.38533026434E+03  0.25500000920E-02 0. -1.
    10030    2    1    2    0    0  0.00000000000E+00  0.00000000000E+00  0.15626430152E+03  0.92692483019E+03  0.91365809190E+03 0.  0.
        3    1    3    3  502    0 -0.38700729642E+03 -0.23782376394E+03  0.28868047791E+02  0.45515729650E+03  0.10100000352E+00 0. -1.
       -3    1    3    3    0  502  0.38700729642E+03  0.23782376394E+03  0.12739625373E+03  0.47176753369E+03  0.10100000352E+00 0.  1.
</event>
<event>
 5   0  0.1459111E-02  0.9163079E+03  0.7818609E-02  0.9405422E-01
       -1   -1    0    0    0  501  0.00000000000E+00  0.00000000000E+00  0.22131208506E+03  0.22131208511E+03  0.50400001928E-02 0.  1.
        1   -1    0    0  501    0  0.00000000000E+00  0.00000000000E+00 -0.94845713278E+03  0.94845713279E+03  0.50400001928E-02 0. -1.
    10030    2    1    2    0    0  0.00000000000E+00  0.00000000000E+00 -0.72714504772E+03  0.11697692179E+04  0.91630786460E+03 0.  0.
        2    1    3    3  502    0  0.18700674400E+03 -0.61588537127E+02 -0.89169541198E+03  0.91317324641E+03  0.25500000920E-02 0. -1.
       -2    1    3    3    0  502 -0.18700674400E+03  0.61588537127E+02  0.16455036425E+03  0.25659597150E+03  0.25500000920E-02 0.  1.
</event>
<event>
 5   0  0.1559275E-02  0.9093945E+03  0.7818609E-02  0.9413913E-01
       -1   -1    0    0    0  501  0.00000000000E+00  0.00000000000E+00  0.26008188876E+03  0.26008188881E+03  0.50400001928E-02 0.  1.
        1   -1    0    0  501    0  0.00000000000E+00  0.00000000000E+00 -0.79494041285E+03  0.79494041287E+03  0.50400001928E-02 0. -1.
    10030    2    1    2    0    0  0.00000000000E+00  0.00000000000E+00 -0.53485852409E+03  0.10550223017E+04  0.90939453278E+03 0.  0.
        1    1    3    3  502    0 -0.12312796197E+03  0.37071903241E+03  0.25526246553E+01  0.39064000298E+03  0.50400001928E-02 0.  1.
       -1    1    3    3    0  502  0.12312796197E+03 -0.37071903241E+03 -0.53741114875E+03  0.66438229870E+03  0.50400001928E-02 0. -1.
</event>
<event>
 5   0  0.2414128E-02  0.9046159E+03  0.7818609E-02  0.9419830E-01
       -2   -1    0    0    0  501  0.00000000000E+00  0.00000000000E+00  0.12302990497E+03  0.12302990500E+03  0.25500000920E-02 0.  1.
        2   -1    0    0  501    0  0.00000000000E+00  0.00000000000E+00 -0.16628677352E+04  0.16628677352E+04  0.25500000920E-02 0. -1.
    10030    2    1    2    0    0  0.00000000000E+00  0.00000000000E+00 -0.15398378302E+04  0.17858976402E+04  0.90461585100E+03 0.  0.
        3    1    3    3  502    0 -0.88186447963E+02  0.74766908538E+02 -0.16332033827E+04  0.16372905178E+04  0.10100000352E+00 0. -1.
       -3    1    3    3    0  502  0.88186447963E+02 -0.74766908538E+02  0.93365552520E+02  0.14860712236E+03  0.10100000352E+00 0.  1.
</event>
<event>
 5   0  0.2803717E-02  0.8972641E+03  0.7818609E-02  0.9429008E-01
        2   -1    0    0  501    0  0.00000000000E+00  0.00000000000E+00  0.11422826108E+04  0.11422826108E+04  0.25500000920E-02 0. -1.
       -2   -1    0    0    0  501  0.00000000000E+00  0.00000000000E+00 -0.17620044298E+03  0.17620044300E+03  0.25500000920E-02 0.  1.
    10030    2    1    2    0    0  0.00000000000E+00  0.00000000000E+00  0.96608216781E+03  0.13184830538E+04  0.89726406825E+03 0.  0.
        5    1    3    3  502    0 -0.57296712560E+02  0.24505774363E-01 -0.17076543853E+03  0.18018279292E+03  0.46999998093E+01 0.  1.
       -5    1    3    3    0  502  0.57296712560E+02 -0.24505774363E-01  0.11368476063E+04  0.11383002609E+04  0.46999998093E+01 0. -1.
</event>
<event>
 5   0  0.1497410E-02  0.8932785E+03  0.7818609E-02  0.9434023E-01
        1   -1    0    0  501    0  0.00000000000E+00  0.00000000000E+00  0.15287975596E+04  0.15287975596E+04  0.50400001928E-02 0. -1.
       -1   -1    0    0    0  501  0.00000000000E+00  0.00000000000E+00 -0.13048594736E+03  0.13048594746E+03  0.50400001928E-02 0.  1.
    10030    2    1    2    0    0  0.00000000000E+00  0.00000000000E+00  0.13983116122E+04  0.16592835070E+04  0.89327845148E+03 0.  0.
        3    1    3    3  502    0  0.16001517441E+03 -0.12381441713E+03 -0.40482201631E+02  0.20633391573E+03  0.10100000352E+00 0.  1.
       -3    1    3    3    0  502 -0.16001517441E+03  0.12381441713E+03  0.14387938138E+04  0.14529495913E+04  0.10100000352E+00 0. -1.
</event>
<event>
 5   0  0.1459111E-02  0.9021486E+03  0.7818609E-02  0.9422900E-01
        1   -1    0    0  501    0  0.00000000000E+00  0.00000000000E+00  0.42561463473E+03  0.42561463476E+03  0.50400001928E-02 0. -1.
       -1   -1    0    0    0  501  0.00000000000E+00  0.00000000000E+00 -0.47805695837E+03  0.47805695839E+03  0.50400001928E-02 0.  1.
    10030    2    1    2    0    0  0.00000000000E+00  0.00000000000E+00 -0.52442323637E+02  0.90367159315E+03  0.90214863020E+03 0.  0.
        2    1    3    3  502    0 -0.29136104140E+02  0.35864283049E+03 -0.29869957151E+03  0.46764840046E+03  0.25500000920E-02 0.  1.
       -2    1    3    3    0  502  0.29136104140E+02 -0.35864283049E+03  0.24625724787E+03  0.43602319269E+03  0.25500000920E-02 0. -1.
</event>
<event>
 5   0  0.1459111E-02  0.9393260E+03  0.7818609E-02  0.9377715E-01
       -1   -1    0    0    0  501  0.00000000000E+00  0.00000000000E+00  0.44730085260E+03  0.44730085263E+03  0.50400001928E-02 0.  1.
        1   -1    0    0  501    0  0.00000000000E+00  0.00000000000E+00 -0.49314308023E+03  0.49314308025E+03  0.50400001928E-02 0. -1.
    10030    2    1    2    0    0  0.00000000000E+00  0.00000000000E+00 -0.45842227631E+02  0.94044393288E+03  0.93932597167E+03 0.  0.
        2    1    3    3  502    0  0.17675434534E+03 -0.26646839064E+03 -0.36733026942E+03  0.48701029625E+03  0.25500000920E-02 0.  1.
       -2    1    3    3    0  502 -0.17675434534E+03  0.26646839064E+03  0.32148804179E+03  0.45343363663E+03  0.25500000920E-02 0. -1.
</event>
<event>
 5   0  0.2705111E-02  0.9836744E+03  0.7818609E-02  0.9326634E-01
       -2   -1    0    0    0  501  0.00000000000E+00  0.00000000000E+00  0.17531075782E+03  0.17531075784E+03  0.25500000920E-02 0. -1.
        2   -1    0    0  501    0  0.00000000000E+00  0.00000000000E+00 -0.13798574420E+04  0.13798574420E+04  0.25500000920E-02 0.  1.
    10030    2    1    2    0    0  0.00000000000E+00  0.00000000000E+00 -0.12045466841E+04  0.15551681998E+04  0.98367444584E+03 0.  0.
        4    1    3    3  502    0 -0.31809216224E+03 -0.19309204520E+02 -0.11945535113E+04  0.12363313364E+04  0.12699999809E+01 0.  1.
       -4    1    3    3    0  502  0.31809216224E+03  0.19309204520E+02 -0.99931728119E+01  0.31883686339E+03  0.12699999809E+01 0. -1.
</event>
<event>
 5   0  0.1040163E-02  0.9188363E+03  0.7818609E-02  0.9402337E-01
        3   -1    0    0  501    0  0.00000000000E+00  0.00000000000E+00  0.18803004161E+03  0.18803006874E+03  0.10100000352E+00 0.  1.
       -3   -1    0    0    0  501  0.00000000000E+00  0.00000000000E+00 -0.11225069204E+04  0.11225069250E+04  0.10100000352E+00 0. -1.
    10030    2    1    2    0    0  0.00000000000E+00  0.00000000000E+00 -0.93447687882E+03  0.13105369937E+04  0.91883631559E+03 0.  0.
        3    1    3    3  502    0  0.19659209440E+03  0.41259363456E+03 -0.40059683768E+03  0.60774978027E+03  0.10100000352E+00 0. -1.
       -3    1    3    3    0  502 -0.19659209440E+03 -0.41259363456E+03 -0.53388004114E+03  0.70278721345E+03  0.10100000352E+00 0.  1.
</event>
<event>
 5   0  0.1537870E-02  0.9101992E+03  0.7818609E-02  0.9412921E-01
       -1   -1    0    0    0  501  0.00000000000E+00  0.00000000000E+00  0.61281683582E+03  0.61281683584E+03  0.50400001928E-02 0.  1.
        1   -1    0    0  501    0  0.00000000000E+00  0.00000000000E+00 -0.33797314523E+03  0.33797314527E+03  0.50400001928E-02 0. -1.
    10030    2    1    2    0    0  0.00000000000E+00  0.00000000000E+00  0.27484369059E+03  0.95078998111E+03  0.91019917267E+03 0.  0.
        5    1    3    3  502    0 -0.17150286849E+03 -0.35248354623E+03  0.37889215886E+03  0.54519651715E+03  0.46999998093E+01 0. -1.
       -5    1    3    3    0  502  0.17150286849E+03  0.35248354623E+03 -0.10404846828E+03  0.40559346396E+03  0.46999998093E+01 0.  1.
</event>
<event>
 5   0  0.2803717E-02  0.9005514E+03  0.7818609E-02  0.9424892E-01
       -2   -1    0    0    0  501  0.00000000000E+00  0.00000000000E+00  0.12278072401E+03  0.12278072404E+03  0.25500000920E-02 0. -1.
        2   -1    0    0  501    0  0.00000000000E+00  0.00000000000E+00 -0.16513033085E+04  0.16513033085E+04  0.25500000920E-02 0.  1.
    10030    2    1    2    0    0  0.00000000000E+00  0.00000000000E+00 -0.15285225845E+04  0.17740840325E+04  0.90055142174E+03 0.  0.
        5    1    3    3  502    0 -0.14559982471E+03 -0.24137794060E+03 -0.14559057960E+04  0.14829519197E+04  0.46999998093E+01 0.  1.
       -5    1    3    3    0  502  0.14559982471E+03  0.24137794060E+03 -0.72616788428E+02  0.29113211283E+03  0.46999998093E+01 0. -1.
</event>
<event>
 5   0  0.1459111E-02  0.9042541E+03  0.7818609E-02  0.9420279E-01
        1   -1    0    0  501    0  0.00000000000E+00  0.00000000000E+00  0.36004610212E+03  0.36004610215E+03  0.50400001928E-02 0.  1.
       -1   -1    0    0    0  501  0.00000000000E+00  0.00000000000E+00 -0.56775751579E+03  0.56775751581E+03  0.50400001928E-02 0. -1.
    10030    2    1    2    0    0  0.00000000000E+00  0.00000000000E+00 -0.20771141367E+03  0.92780361796E+03  0.90425412475E+03 0.  0.
        2    1    3    3  502    0  0.13356358471E+03 -0.24868611782E+03 -0.46623176160E+03  0.54502850558E+03  0.25500000920E-02 0. -1.
       -2    1    3    3    0  502 -0.13356358471E+03  0.24868611782E+03  0.25852034793E+03  0.38277511238E+03  0.25500000920E-02 0.  1.
</event>
<event>
 5   0  0.1040163E-02  0.8935387E+03  0.7818609E-02  0.9433695E-01
        3   -1    0    0  501    0  0.00000000000E+00  0.00000000000E+00  0.10724315623E+04  0.10724315670E+04  0.10100000352E+00 0.  1.
       -3   -1    0    0    0  501  0.00000000000E+00  0.00000000000E+00 -0.18612174089E+03  0.18612176829E+03  0.10100000352E+00 0. -1.
    10030    2    1    2    0    0  0.00000000000E+00  0.00000000000E+00  0.88630982140E+03  0.12585533353E+04  0.89353869439E+03 0.  0.
        3    1    3    3  502    0 -0.11404678705E+03 -0.26880189791E+03  0.91943299823E+03  0.96468553342E+03  0.10100000352E+00 0.  1.
       -3    1    3    3    0  502  0.11404678705E+03  0.26880189791E+03 -0.33123176825E+02  0.29386780191E+03  0.10100000352E+00 0. -1.
</event>
<event>
 5   0  0.2679861E-02  0.8997795E+03  0.7818609E-02  0.9425857E-01
       -2   -1    0    0    0  501  0.00000000000E+00  0.00000000000E+00  0.78777192518E+03  0.78777192518E+03  0.25500000920E-02 0. -1.
        2   -1    0    0  501    0  0.00000000000E+00  0.00000000000E+00 -0.25692816838E+03  0.25692816839E+03  0.25500000920E-02 0.  1.
    10030    2    1    2    0    0  0.00000000000E+00  0.00000000000E+00  0.53084375680E+03  0.10447000936E+04  0.89977952377E+03 0.  0.
        1    1    3    3  502    0  0.11712689428E+03  0.31089051602E+03  0.61764535016E+03  0.70132546005E+03  0.50400001928E-02 0. -1.
       -1    1    3    3    0  502 -0.11712689428E+03 -0.31089051602E+03 -0.86801593365E+02  0.34337463353E+03  0.50400001928E-02 0.  1.
</event>
<event>
 5   0  0.1497410E-02  0.8475371E+03  0.7818609E-02  0.9493649E-01
       -1   -1    0    0    0  501  0.00000000000E+00  0.00000000000E+00  0.38900486942E+03  0.38900486946E+03  0.50400001928E-02 0.  1.
        1   -1    0    0  501    0  0.00000000000E+00  0.00000000000E+00 -0.46163888722E+03  0.46163888724E+03  0.50400001928E-02 0. -1.
    10030    2    1    2    0    0  0.00000000000E+00  0.00000000000E+00 -0.72634017792E+02  0.85064375670E+03  0.84753707900E+03 0.  0.
        3    1    3    3  502    0  0.10974806394E+03 -0.31584577564E+03 -0.29761063481E+03  0.44763298770E+03  0.10100000352E+00 0. -1.
       -3    1    3    3    0  502 -0.10974806394E+03  0.31584577564E+03  0.22497661701E+03  0.40301076900E+03  0.10100000352E+00 0.  1.
</event>
<event>
 5   0  0.1040163E-02  0.8880343E+03  0.7818609E-02  0.9440664E-01
       -4   -1    0    0    0  501  0.00000000000E+00  0.00000000000E+00  0.19178514395E+03  0.19178934887E+03  0.12699999809E+01 0.  1.
        4   -1    0    0  501    0  0.00000000000E+00  0.00000000000E+00 -0.10279638050E+04  0.10279645895E+04  0.12699999809E+01 0. -1.
    10030    2    1    2    0    0  0.00000000000E+00  0.00000000000E+00 -0.83617866102E+03  0.12197539384E+04  0.88803429944E+03 0.  0.
        1    1    3    3  502    0 -0.33868223809E+03  0.14118431866E+03 -0.74668900707E+02  0.37445175256E+03  0.50400001928E-02 0.  1.
       -1    1    3    3    0  502  0.33868223809E+03 -0.14118431866E+03 -0.76150976031E+03  0.84530218580E+03  0.50400001928E-02 0. -1.
</event>
<event>
 5   0  0.2628383E-02  0.8856972E+03  0.7818609E-02  0.9443639E-01
        2   -1    0    0  501    0  0.00000000000E+00  0.00000000000E+00  0.59406115051E+03  0.59406115052E+03  0.25500000920E-02 0.  1.
       -2   -1    0    0    0  501  0.00000000000E+00  0.00000000000E+00 -0.33012576839E+03  0.33012576840E+03  0.25500000920E-02 0. -1.
    10030    2    1    2    0    0  0.00000000000E+00  0.00000000000E+00  0.26393538212E+03  0.92418691892E+03  0.88569722544E+03 0.  0.
        2    1    3    3  502    0 -0.17039916985E+03 -0.24571356290E+02  0.55771252866E+03  0.58368047189E+03  0.25500000920E-02 0.  1.
       -2    1    3    3    0  502  0.17039916985E+03  0.24571356290E+02 -0.29377714654E+03  0.34050644703E+03  0.25500000920E-02 0. -1.
</event>
<event>
 5   0  0.2628383E-02  0.9074648E+03  0.7818609E-02  0.9416298E-01
        2   -1    0    0  501    0  0.00000000000E+00  0.00000000000E+00  0.48454186669E+03  0.48454186670E+03  0.25500000920E-02 0.  1.
       -2   -1    0    0    0  501  0.00000000000E+00  0.00000000000E+00 -0.42488195262E+03  0.42488195262E+03  0.25500000920E-02 0. -1.
    10030    2    1    2    0    0  0.00000000000E+00  0.00000000000E+00  0.59659914077E+02  0.90942381932E+03  0.90746480803E+03 0.  0.
        2    1    3    3  502    0 -0.32738003610E+02 -0.14737746590E+03  0.45863354277E+03  0.48284223189E+03  0.25500000920E-02 0.  1.
       -2    1    3    3    0  502  0.32738003610E+02  0.14737746590E+03 -0.39897362870E+03  0.42658158743E+03  0.25500000920E-02 0. -1.
</event>
<event>
 5   0  0.2705111E-02  0.8983079E+03  0.7818609E-02  0.9427699E-01
        2   -1    0    0  501    0  0.00000000000E+00  0.00000000000E+00  0.61981689704E+03  0.61981689704E+03  0.25500000920E-02 0. -1.
       -2   -1    0    0    0  501  0.00000000000E+00  0.00000000000E+00 -0.32548204553E+03  0.32548204554E+03  0.25500000920E-02 0.  1.
    10030    2    1    2    0    0  0.00000000000E+00  0.00000000000E+00  0.29433485151E+03  0.94529894258E+03  0.89830790157E+03 0.  0.
        4    1    3    3  502    0 -0.62406349112E+02  0.31806229357E+02 -0.31969747034E+03  0.32728317109E+03  0.12699999809E+01 0.  1.
       -4    1    3    3    0  502  0.62406349112E+02 -0.31806229357E+02  0.61403232185E+03  0.61801577149E+03  0.12699999809E+01 0. -1.
</event>
<event>
 5   0  0.2628383E-02  0.1090379E+04  0.7818609E-02  0.9214620E-01
       -2   -1    0    0    0  501  0.00000000000E+00  0.00000000000E+00  0.68168159293E+03  0.68168159294E+03  0.25500000920E-02 0.  1.
        2   -1    0    0  501    0  0.00000000000E+00  0.00000000000E+00 -0.43602741007E+03  0.43602741008E+03  0.25500000920E-02 0. -1.
    10030    2    1    2    0    0  0.00000000000E+00  0.00000000000E+00  0.24565418286E+03  0.11177090030E+04  0.10903794926E+04 0.  0.
        2    1    3    3  502    0  0.35786493820E+03  0.14360587810E+03  0.51789846067E+03  0.64568473560E+03  0.25500000920E-02 0.  1.
       -2    1    3    3    0  502 -0.35786493820E+03 -0.14360587810E+03 -0.27224427781E+03  0.47202426742E+03  0.25500000920E-02 0. -1.
</event>
<event>
 5   0  0.2628383E-02  0.9044268E+03  0.7818609E-02  0.9420065E-01
       -2   -1    0    0    0  501  0.00000000000E+00  0.00000000000E+00  0.50698030158E+03  0.50698030159E+03  0.25500000920E-02 0.  1.
        2   -1    0    0  501    0  0.00000000000E+00  0.00000000000E+00 -0.40336271196E+03  0.40336271197E+03  0.25500000920E-02 0. -1.
    10030    2    1    2    0    0  0.00000000000E+00  0.00000000000E+00  0.10361758962E+03  0.91034301356E+03  0.90442677838E+03 0.  0.
        2    1    3    3  502    0 -0.59693042897E+02 -0.43950483227E+03 -0.36910808065E+02  0.44507321277E+03  0.25500000920E-02 0.  1.
       -2    1    3    3    0  502  0.59693042897E+02  0.43950483227E+03  0.14052839769E+03  0.46526980079E+03  0.25500000920E-02 0. -1.
</event>
<event>
 5   0  0.2414128E-02  0.8437585E+03  0.7818609E-02  0.9498753E-01
        2   -1    0    0  501    0  0.00000000000E+00  0.00000000000E+00  0.54410968509E+03  0.54410968510E+03  0.25500000920E-02 0.  1.
       -2   -1    0    0    0  501  0.00000000000E+00  0.00000000000E+00 -0.32710699597E+03  0.32710699598E+03  0.25500000920E-02 0. -1.
    10030    2    1    2    0    0  0.00000000000E+00  0.00000000000E+00  0.21700268912E+03  0.87121668108E+03  0.84375845969E+03 0.  0.
        3    1    3    3  502    0 -0.40769722675E+03 -0.10838494595E+03  0.10415126707E+03  0.43452482305E+03  0.10100000352E+00 0. -1.
       -3    1    3    3    0  502  0.40769722675E+03  0.10838494595E+03  0.11285142205E+03  0.43669185803E+03  0.10100000352E+00 0.  1.
</event>
<event>
 5   0  0.1459111E-02  0.9126320E+03  0.7818609E-02  0.9409927E-01
        1   -1    0    0  501    0  0.00000000000E+00  0.00000000000E+00  0.24492761363E+03  0.24492761369E+03  0.50400001928E-02 0. -1.
       -1   -1    0    0    0  501  0.00000000000E+00  0.00000000000E+00 -0.85014628579E+03  0.85014628580E+03  0.50400001928E-02 0.  1.
    10030    2    1    2    0    0  0.00000000000E+00  0.00000000000E+00 -0.60521867215E+03  0.10950738995E+04  0.91263202016E+03 0.  0.
        2    1    3    3  502    0 -0.27461863328E+03 -0.19432764186E+03  0.67315853650E+02  0.34308898306E+03  0.25500000920E-02 0. -1.
       -2    1    3    3    0  502  0.27461863328E+03  0.19432764186E+03 -0.67253452580E+03  0.75198491643E+03  0.25500000920E-02 0.  1.
</event>
<event>
 5   0  0.1559275E-02  0.9255451E+03  0.7818609E-02  0.9394200E-01
        1   -1    0    0  501    0  0.00000000000E+00  0.00000000000E+00  0.54189192958E+03  0.54189192961E+03  0.50400001928E-02 0.  1.
       -1   -1    0    0    0  501  0.00000000000E+00  0.00000000000E+00 -0.39520504320E+03  0.39520504323E+03  0.50400001928E-02 0. -1.
    10030    2    1    2    0    0  0.00000000000E+00  0.00000000000E+00  0.14668688638E+03  0.93709697284E+03  0.92554507933E+03 0.  0.
        1    1    3    3  502    0  0.42421738043E+03  0.18277804144E+03  0.44881641942E+02  0.46409326660E+03  0.50400001928E-02 0.  1.
       -1    1    3    3    0  502 -0.42421738043E+03 -0.18277804144E+03  0.10180524444E+03  0.47300370624E+03  0.50400001928E-02 0. -1.
</event>
<event>
 5   0  0.1497410E-02  0.9030019E+03  0.7818609E-02  0.9421837E-01
       -1   -1    0    0    0  501  0.00000000000E+00  0.00000000000E+00  0.99902517636E+02  0.99902517763E+02  0.50400001928E-02 0. -1.
        1   -1    0    0  501    0  0.00000000000E+00  0.00000000000E+00 -0.20405201537E+04  0.20405201537E+04  0.50400001928E-02 0.  1.
    10030    2    1    2    0    0  0.00000000000E+00  0.00000000000E+00 -0.19406176360E+04  0.21404226714E+04  0.90300188434E+03 0.  0.
        3    1    3    3  502    0  0.54878556265E+02  0.20222538694E+03 -0.22331334109E+02  0.21072603481E+03  0.10100000352E+00 0. -1.
       -3    1    3    3    0  502 -0.54878556265E+02 -0.20222538694E+03 -0.19182863019E+04  0.19296966366E+04  0.10100000352E+00 0.  1.
</event>
<event>
 5   0  0.1040163E-02  0.8742386E+03  0.7818609E-02  0.9458370E-01
        3   -1    0    0  501    0  0.00000000000E+00  0.00000000000E+00  0.26920642409E+03  0.26920644304E+03  0.10100000352E+00 0. -1.
       -3   -1    0    0    0  501  0.00000000000E+00  0.00000000000E+00 -0.70976485374E+03  0.70976486093E+03  0.10100000352E+00 0.  1.
    10030    2    1    2    0    0  0.00000000000E+00  0.00000000000E+00 -0.44055842965E+03  0.97897130397E+03  0.87423857388E+03 0.  0.
        4    1    3    3  502    0 -0.44711204937E+02  0.14396125512E+03  0.23917646069E+03  0.28272058126E+03  0.12699999809E+01 0. -1.
       -4    1    3    3    0  502  0.44711204937E+02 -0.14396125512E+03 -0.67973489034E+03  0.69625072270E+03  0.12699999809E+01 0.  1.
</event>
<event>
 5   0  0.1459111E-02  0.9059771E+03  0.7818609E-02  0.9418140E-01
       -1   -1    0    0    0  501  0.00000000000E+00  0.00000000000E+00  0.26351085430E+03  0.26351085435E+03  0.50400001928E-02 0. -1.
        1   -1    0    0  501    0  0.00000000000E+00  0.00000000000E+00 -0.77871036784E+03  0.77871036785E+03  0.50400001928E-02 0.  1.
    10030    2    1    2    0    0  0.00000000000E+00  0.00000000000E+00 -0.51519951354E+03  0.10422212222E+04  0.90597711740E+03 0.  0.
        2    1    3    3  502    0 -0.10390204423E+02  0.27716911051E+03 -0.66960408743E+03  0.72477603857E+03  0.25500000920E-02 0.  1.
       -2    1    3    3    0  502  0.10390204423E+02 -0.27716911051E+03  0.15440457389E+03  0.31744518364E+03  0.25500000920E-02 0. -1.
</event>
<event>
 5   0  0.1559275E-02  0.7983765E+03  0.7818609E-02  0.9562370E-01
       -1   -1    0    0    0  501  0.00000000000E+00  0.00000000000E+00  0.41266893565E+03  0.41266893568E+03  0.50400001928E-02 0. -1.
        1   -1    0    0  501    0  0.00000000000E+00  0.00000000000E+00 -0.38614795053E+03  0.38614795057E+03  0.50400001928E-02 0.  1.
    10030    2    1    2    0    0  0.00000000000E+00  0.00000000000E+00  0.26520985115E+02  0.79881688624E+03  0.79837651212E+03 0.  0.
        1    1    3    3  502    0 -0.25246067677E+03 -0.29117106875E+03  0.11740574954E+03  0.40286610014E+03  0.50400001928E-02 0. -1.
       -1    1    3    3    0  502  0.25246067677E+03  0.29117106875E+03 -0.90884764420E+02  0.39595078611E+03  0.50400001928E-02 0.  1.
</event>
<event>
 5   0  0.2705111E-02  0.8867285E+03  0.7818609E-02  0.9442325E-01
        2   -1    0    0  501    0  0.00000000000E+00  0.00000000000E+00  0.23655815071E+04  0.23655815071E+04  0.25500000920E-02 0. -1.
       -2   -1    0    0    0  501  0.00000000000E+00  0.00000000000E+00 -0.83096632604E+02  0.83096632643E+02  0.25500000920E-02 0.  1.
    10030    2    1    2    0    0  0.00000000000E+00  0.00000000000E+00  0.22824848745E+04  0.24486781397E+04  0.88672849833E+03 0.  0.
        4    1    3    3  502    0  0.24029972568E+02 -0.20941608544E+03  0.22183509854E+04  0.22283436099E+04  0.12699999809E+01 0. -1.
       -4    1    3    3    0  502 -0.24029972568E+02  0.20941608544E+03  0.64133889118E+02  0.22033452987E+03  0.12699999809E+01 0.  1.
</event>
<event>
 5   0  0.2705111E-02  0.8917324E+03  0.7818609E-02  0.9435976E-01
        2   -1    0    0  501    0  0.00000000000E+00  0.00000000000E+00  0.38630106872E+03  0.38630106873E+03  0.25500000920E-02 0.  1.
       -2   -1    0    0    0  501  0.00000000000E+00  0.00000000000E+00 -0.51461588888E+03  0.51461588889E+03  0.25500000920E-02 0. -1.
    10030    2    1    2    0    0  0.00000000000E+00  0.00000000000E+00 -0.12831482016E+03  0.90091695762E+03  0.89173239902E+03 0.  0.
        4    1    3    3  502    0  0.21187125850E+03  0.73656081317E+02  0.32514293568E+03  0.39501163276E+03  0.12699999809E+01 0.  1.
       -4    1    3    3    0  502 -0.21187125850E+03 -0.73656081317E+02 -0.45345775584E+03  0.50590532486E+03  0.12699999809E+01 0. -1.
</event>
<event>
 5   0  0.2628383E-02  0.8910610E+03  0.7818609E-02  0.9436825E-01
       -2   -1    0    0    0  501  0.00000000000E+00  0.00000000000E+00  0.21772544962E+03  0.21772544964E+03  0.25500000920E-02 0. -1.
        2   -1    0    0  501    0  0.00000000000E+00  0.00000000000E+00 -0.91168685947E+03  0.91168685948E+03  0.25500000920E-02 0.  1.
    10030    2    1    2    0    0  0.00000000000E+00  0.00000000000E+00 -0.69396140985E+03  0.11294123091E+04  0.89106101116E+03 0.  0.
        2    1    3    3  502    0  0.22739382265E+03 -0.19269879210E+03  0.72742108179E+02  0.30680969568E+03  0.25500000920E-02 0. -1.
       -2    1    3    3    0  502 -0.22739382265E+03  0.19269879210E+03 -0.76670351803E+03  0.82260261343E+03  0.25500000920E-02 0.  1.
</event>
<event>
 5   0  0.1537870E-02  0.8976346E+03  0.7818609E-02  0.9428543E-01
        1   -1    0    0  501    0  0.00000000000E+00  0.00000000000E+00  0.35179327450E+03  0.35179327454E+03  0.50400001928E-02 0. -1.
       -1   -1    0    0    0  501  0.00000000000E+00  0.00000000000E+00 -0.57260041954E+03  0.57260041956E+03  0.50400001928E-02 0.  1.
    10030    2    1    2    0    0  0.00000000000E+00  0.00000000000E+00 -0.22080714504E+03  0.92439369410E+03  0.89763461742E+03 0.  0.
        5    1    3    3  502    0  0.39378399639E+03  0.21462985053E+03 -0.93077087077E+02  0.45805812152E+03  0.46999998093E+01 0. -1.
       -5    1    3    3    0  502 -0.39378399639E+03 -0.21462985053E+03 -0.12773005796E+03  0.46633557258E+03  0.46999998093E+01 0.  1.
</event>
<event>
 5   0  0.1560728E-02  0.5300403E+03  0.7818609E-02  0.1006222E+00
        1   -1    0    0  501    0  0.00000000000E+00  0.00000000000E+00  0.29916014908E+03  0.29916014913E+03  0.50400001928E-02 0. -1.
       -1   -1    0    0    0  501  0.00000000000E+00  0.00000000000E+00 -0.23477621855E+03  0.23477621860E+03  0.50400001928E-02 0.  1.
    10030    2    1    2    0    0  0.00000000000E+00  0.00000000000E+00  0.64383930537E+02  0.53393636773E+03  0.53004033268E+03 0.  0.
        4    1    3    3  502    0  0.78400604166E+02 -0.66964223929E+02 -0.21374025072E+03  0.23731280980E+03  0.12699999809E+01 0.  1.
       -4    1    3    3    0  502 -0.78400604166E+02  0.66964223929E+02  0.27812418125E+03  0.29662355793E+03  0.12699999809E+01 0. -1.
</event>
<event>
 5   0  0.1497410E-02  0.8316231E+03  0.7818609E-02  0.9515339E-01
        1   -1    0    0  501    0  0.00000000000E+00  0.00000000000E+00  0.23238411187E+03  0.23238411192E+03  0.50400001928E-02 0.  1.
       -1   -1    0    0    0  501  0.00000000000E+00  0.00000000000E+00 -0.74402357348E+03  0.74402357350E+03  0.50400001928E-02 0. -1.
    10030    2    1    2    0    0  0.00000000000E+00  0.00000000000E+00 -0.51163946162E+03  0.97640768542E+03  0.83162312947E+03 0.  0.
        3    1    3    3  502    0 -0.12343777476E+03 -0.39664812269E+03 -0.23440635505E+03  0.47698319358E+03  0.10100000352E+00 0. -1.
       -3    1    3    3    0  502  0.12343777476E+03  0.39664812269E+03 -0.27723310657E+03  0.49942449184E+03  0.10100000352E+00 0.  1.
</event>
<event>
 5   0  0.1040163E-02  0.9070220E+03  0.7818609E-02  0.9416846E-01
       -3   -1    0    0    0  501  0.00000000000E+00  0.00000000000E+00  0.16922961828E+03  0.16922964842E+03  0.10100000352E+00 0. -1.
        3   -1    0    0  501    0  0.00000000000E+00  0.00000000000E+00 -0.12153439104E+04  0.12153439146E+04  0.10100000352E+00 0.  1.
    10030    2    1    2    0    0  0.00000000000E+00  0.00000000000E+00 -0.10461142922E+04  0.13845735630E+04  0.90702196183E+03 0.  0.
        4    1    3    3  502    0  0.29869290853E+03  0.28447054185E+03 -0.81079282812E+03  0.90968542135E+03  0.12699999809E+01 0.  1.
       -4    1    3    3    0  502 -0.29869290853E+03 -0.28447054185E+03 -0.23532146403E+03  0.47488814169E+03  0.12699999809E+01 0. -1.
</event>
<event>
 5   0  0.1560728E-02  0.8986497E+03  0.7818609E-02  0.9427271E-01
       -1   -1    0    0    0  501  0.00000000000E+00  0.00000000000E+00  0.28131439553E+03  0.28131439558E+03  0.50400001928E-02 0.  1.
        1   -1    0    0  501    0  0.00000000000E+00  0.00000000000E+00 -0.71767677540E+03  0.71767677542E+03  0.50400001928E-02 0. -1.
    10030    2    1    2    0    0  0.00000000000E+00  0.00000000000E+00 -0.43636237987E+03  0.99899117100E+03  0.89864967210E+03 0.  0.
        4    1    3    3  502    0 -0.53667639723E+02  0.60396902726E+02  0.27317066877E+03  0.28487160018E+03  0.12699999809E+01 0.  1.
       -4    1    3    3    0  502  0.53667639723E+02 -0.60396902726E+02 -0.70953304864E+03  0.71411957082E+03  0.12699999809E+01 0. -1.
</event>
<event>
 5   0  0.1459111E-02  0.8938185E+03  0.7818609E-02  0.9433342E-01
        1   -1    0    0  501    0  0.00000000000E+00  0.00000000000E+00  0.10016385337E+04  0.10016385337E+04  0.50400001928E-02 0.  1.
       -1   -1    0    0    0  501  0.00000000000E+00  0.00000000000E+00 -0.19940115651E+03  0.19940115657E+03  0.50400001928E-02 0. -1.
    10030    2    1    2    0    0  0.00000000000E+00  0.00000000000E+00  0.80223737722E+03  0.12010396903E+04  0.89381850972E+03 0.  0.
        2    1    3    3  502    0 -0.83566657697E+02  0.67484181673E+02 -0.18179831839E+03  0.21115901504E+03  0.25500000920E-02 0. -1.
       -2    1    3    3    0  502  0.83566657697E+02 -0.67484181673E+02  0.98403569561E+03  0.98988067529E+03  0.25500000920E-02 0.  1.
</event>
<event>
 5   0  0.2679861E-02  0.8668731E+03  0.7818609E-02  0.9467966E-01
       -2   -1    0    0    0  501  0.00000000000E+00  0.00000000000E+00  0.13791872422E+03  0.13791872425E+03  0.25500000920E-02 0.  1.
        2   -1    0    0  501    0  0.00000000000E+00  0.00000000000E+00 -0.13621590971E+04  0.13621590971E+04  0.25500000920E-02 0. -1.
    10030    2    1    2    0    0  0.00000000000E+00  0.00000000000E+00 -0.12242403729E+04  0.15000778214E+04  0.86687310464E+03 0.  0.
        1    1    3    3  502    0  0.18133753300E+03  0.14295746416E+03 -0.12468595674E+04  0.12680610862E+04  0.50400001928E-02 0. -1.
       -1    1    3    3    0  502 -0.18133753300E+03 -0.14295746416E+03  0.22619194485E+02  0.23201673521E+03  0.50400001928E-02 0.  1.
</event>
<event>
 5   0  0.2628383E-02  0.9697817E+03  0.7818609E-02  0.9342323E-01
       -2   -1    0    0    0  501  0.00000000000E+00  0.00000000000E+00  0.20417365675E+03  0.20417365677E+03  0.25500000920E-02 0.  1.
        2   -1    0    0  501    0  0.00000000000E+00  0.00000000000E+00 -0.11515645541E+04  0.11515645541E+04  0.25500000920E-02 0. -1.
    10030    2    1    2    0    0  0.00000000000E+00  0.00000000000E+00 -0.94739089738E+03  0.13557382109E+04  0.96978171981E+03 0.  0.
        2    1    3    3  502    0 -0.35968124031E+03 -0.30820866060E+02 -0.92625906561E+03  0.99412090665E+03  0.25500000920E-02 0. -1.
       -2    1    3    3    0  502  0.35968124031E+03  0.30820866060E+02 -0.21131831770E+02  0.36161730425E+03  0.25500000920E-02 0.  1.
</event>
<event>
 5   0  0.2414128E-02  0.9696642E+03  0.7818609E-02  0.9342457E-01
        2   -1    0    0  501    0  0.00000000000E+00  0.00000000000E+00  0.64941433865E+03  0.64941433865E+03  0.25500000920E-02 0.  1.
       -2   -1    0    0    0  501  0.00000000000E+00  0.00000000000E+00 -0.36196026185E+03  0.36196026186E+03  0.25500000920E-02 0. -1.
    10030    2    1    2    0    0  0.00000000000E+00  0.00000000000E+00  0.28745407680E+03  0.10113746005E+04  0.96966423894E+03 0.  0.
        3    1    3    3  502    0 -0.27209469760E+03 -0.18813831145E+03  0.51341765190E+03  0.61076120062E+03  0.10100000352E+00 0.  1.
       -3    1    3    3    0  502  0.27209469760E+03  0.18813831145E+03 -0.22596357510E+03  0.40061339989E+03  0.10100000352E+00 0. -1.
</event>
<event>
 5   0  0.2803717E-02  0.8217383E+03  0.7818609E-02  0.9529074E-01
        2   -1    0    0  501    0  0.00000000000E+00  0.00000000000E+00  0.17135879622E+03  0.17135879623E+03  0.25500000920E-02 0. -1.
       -2   -1    0    0    0  501  0.00000000000E+00  0.00000000000E+00 -0.98514618659E+03  0.98514618659E+03  0.25500000920E-02 0.  1.
    10030    2    1    2    0    0  0.00000000000E+00  0.00000000000E+00 -0.81378739037E+03  0.11565049828E+04  0.82173831514E+03 0.  0.
        5    1    3    3  502    0 -0.17119901965E+03 -0.33814392485E+03 -0.18373959623E+03  0.42122766702E+03  0.46999998093E+01 0. -1.
       -5    1    3    3    0  502  0.17119901965E+03  0.33814392485E+03 -0.63004779414E+03  0.73527731580E+03  0.46999998093E+01 0.  1.
</event>
<event>
 5   0  0.1040163E-02  0.8941459E+03  0.7818609E-02  0.9432929E-01
       -3   -1    0    0    0  501  0.00000000000E+00  0.00000000000E+00  0.95337596869E+02  0.95337650368E+02  0.10100000352E+00 0.  1.
        3   -1    0    0  501    0  0.00000000000E+00  0.00000000000E+00 -0.20964885277E+04  0.20964885302E+04  0.10100000352E+00 0. -1.
    10030    2    1    2    0    0  0.00000000000E+00  0.00000000000E+00 -0.20011509309E+04  0.21918261805E+04  0.89414593751E+03 0.  0.
        3    1    3    3  502    0 -0.31594894265E+03 -0.18073826591E+03 -0.16368970530E+04  0.16768786562E+04  0.10100000352E+00 0. -1.
       -3    1    3    3    0  502  0.31594894265E+03  0.18073826591E+03 -0.36425387785E+03  0.51494752437E+03  0.10100000352E+00 0.  1.
</event>
<event>
 5   0  0.1497410E-02  0.8742832E+03  0.7818609E-02  0.9458312E-01
       -1   -1    0    0    0  501  0.00000000000E+00  0.00000000000E+00  0.89341751791E+02  0.89341751934E+02  0.50400001928E-02 0.  1.
        1   -1    0    0  501    0  0.00000000000E+00  0.00000000000E+00 -0.21388965070E+04  0.21388965070E+04  0.50400001928E-02 0. -1.
    10030    2    1    2    0    0  0.00000000000E+00  0.00000000000E+00 -0.20495547552E+04  0.22282382590E+04  0.87428316008E+03 0.  0.
        3    1    3    3  502    0  0.61504232791E+02  0.35257245959E+03 -0.16644958486E+04  0.17025382669E+04  0.10100000352E+00 0. -1.
       -3    1    3    3    0  502 -0.61504232791E+02 -0.35257245959E+03 -0.38505890659E+03  0.52569999206E+03  0.10100000352E+00 0.  1.
</event>
<event>
 5   0  0.1459111E-02  0.9092319E+03  0.7818609E-02  0.9414114E-01
        1   -1    0    0  501    0  0.00000000000E+00  0.00000000000E+00  0.12279753057E+04  0.12279753057E+04  0.50400001928E-02 0.  1.
       -1   -1    0    0    0  501  0.00000000000E+00  0.00000000000E+00 -0.16830602313E+03  0.16830602320E+03  0.50400001928E-02 0. -1.
    10030    2    1    2    0    0  0.00000000000E+00  0.00000000000E+00  0.10596692825E+04  0.13962813289E+04  0.90923185217E+03 0.  0.
        2    1    3    3  502    0  0.27455268652E+03  0.19041530893E+03  0.56413101772E+02  0.33885041775E+03  0.25500000920E-02 0. -1.
       -2    1    3    3    0  502 -0.27455268652E+03 -0.19041530893E+03  0.10032561808E+04  0.10574309111E+04  0.25500000920E-02 0.  1.
</event>
<event>
 5   0  0.1497410E-02  0.8451348E+03  0.7818609E-02  0.9496890E-01
        1   -1    0    0  501    0  0.00000000000E+00  0.00000000000E+00  0.43429068752E+03  0.43429068755E+03  0.50400001928E-02 0. -1.
       -1   -1    0    0    0  501  0.00000000000E+00  0.00000000000E+00 -0.41116056326E+03  0.41116056329E+03  0.50400001928E-02 0.  1.
    10030    2    1    2    0    0  0.00000000000E+00  0.00000000000E+00  0.23130124266E+02  0.84545125084E+03  0.84513479096E+03 0.  0.
        3    1    3    3  502    0 -0.31881945308E+03 -0.24243773925E+03 -0.12317498749E+03  0.41903936428E+03  0.10100000352E+00 0.  1.
       -3    1    3    3    0  502  0.31881945308E+03  0.24243773925E+03  0.14630511175E+03  0.42641188656E+03  0.10100000352E+00 0. -1.
</event>
<event>
 5   0  0.2628383E-02  0.8877565E+03  0.7818609E-02  0.9441017E-01
        2   -1    0    0  501    0  0.00000000000E+00  0.00000000000E+00  0.27604826991E+04  0.27604826991E+04  0.25500000920E-02 0.  1.
       -2   -1    0    0    0  501  0.00000000000E+00  0.00000000000E+00 -0.71374432613E+02  0.71374432658E+02  0.25500000920E-02 0. -1.
    10030    2    1    2    0    0  0.00000000000E+00  0.00000000000E+00  0.26891082665E+04  0.28318571317E+04  0.88775646762E+03 0.  0.
        2    1    3    3  502    0 -0.28357304662E+03 -0.13980201041E+03  0.35070802795E+03  0.47218046948E+03  0.25500000920E-02 0. -1.
       -2    1    3    3    0  502  0.28357304662E+03  0.13980201041E+03  0.23384002385E+04  0.23596766623E+04  0.25500000920E-02 0.  1.
</event>
<event>
 5   0  0.2679861E-02  0.9088153E+03  0.7818609E-02  0.9414628E-01
        2   -1    0    0  501    0  0.00000000000E+00  0.00000000000E+00  0.13229575094E+04  0.13229575094E+04  0.25500000920E-02 0.  1.
       -2   -1    0    0    0  501  0.00000000000E+00  0.00000000000E+00 -0.15607932404E+03  0.15607932406E+03  0.25500000920E-02 0. -1.
    10030    2    1    2    0    0  0.00000000000E+00  0.00000000000E+00  0.11668781853E+04  0.14790368334E+04  0.90881530316E+03 0.  0.
        1    1    3    3  502    0  0.37827320721E+03  0.25114427660E+03  0.61265354049E+03  0.76256699880E+03  0.50400001928E-02 0.  1.
       -1    1    3    3    0  502 -0.37827320721E+03 -0.25114427660E+03  0.55422464482E+03  0.71646983461E+03  0.50400001928E-02 0. -1.
</event>
<event>
 5   0  0.2679861E-02  0.9023420E+03  0.7818609E-02  0.9422659E-01
       -2   -1    0    0    0  501  0.00000000000E+00  0.00000000000E+00  0.11240099413E+03  0.11240099416E+03  0.25500000920E-02 0. -1.
        2   -1    0    0  501    0  0.00000000000E+00  0.00000000000E+00 -0.18109738873E+04  0.18109738873E+04  0.25500000920E-02 0.  1.
    10030    2    1    2    0    0  0.00000000000E+00  0.00000000000E+00 -0.16985728931E+04  0.19233748814E+04  0.90234198685E+03 0.  0.
        1    1    3    3  502    0  0.75853433894E+02 -0.32654823716E+03 -0.14928826026E+04  0.15300607700E+04  0.50400001928E-02 0.  1.
       -1    1    3    3    0  502 -0.75853433894E+02  0.32654823716E+03 -0.20569029052E+03  0.39331411145E+03  0.50400001928E-02 0. -1.
</event>
<event>
 5   0  0.2414128E-02  0.9061889E+03  0.7818609E-02  0.9417878E-01
        2   -1    0    0  501    0  0.00000000000E+00  0.00000000000E+00  0.46856764435E+03  0.46856764435E+03  0.25500000920E-02 0. -1.
       -2   -1    0    0    0  501  0.00000000000E+00  0.00000000000E+00 -0.43813218381E+03  0.43813218382E+03  0.25500000920E-02 0.  1.
    10030    2    1    2    0    0  0.00000000000E+00  0.00000000000E+00  0.30435460537E+02  0.90669982817E+03  0.90618886616E+03 0.  0.
        3    1    3    3  502    0  0.30228704799E+03 -0.77012928351E+02  0.34401541366E+03  0.46438676289E+03  0.10100000352E+00 0. -1.
       -3    1    3    3    0  502 -0.30228704799E+03  0.77012928351E+02 -0.31357995312E+03  0.44231306528E+03  0.10100000352E+00 0.  1.
</event>
<event>
 5   0  0.1560728E-02  0.8962391E+03  0.7818609E-02  0.9430295E-01
       -1   -1    0    0    0  501  0.00000000000E+00  0.00000000000E+00  0.19771706675E+03  0.19771706681E+03  0.50400001928E-02 0.  1.
        1   -1    0    0  501    0  0.00000000000E+00  0.00000000000E+00 -0.10156489386E+04  0.10156489386E+04  0.50400001928E-02 0. -1.
    10030    2    1    2    0    0  0.00000000000E+00  0.00000000000E+00 -0.81793187187E+03  0.12133660054E+04  0.89623909542E+03 0.  0.
        4    1    3    3  502    0  0.17048408126E+03  0.35455180219E+03 -0.69945167264E+03  0.80249988016E+03  0.12699999809E+01 0.  1.
       -4    1    3    3    0  502 -0.17048408126E+03 -0.35455180219E+03 -0.11848019923E+03  0.41086612529E+03  0.12699999809E+01 0. -1.
</event>
<event>
 5   0  0.2414128E-02  0.9232544E+03  0.7818609E-02  0.9396970E-01
        2   -1    0    0  501    0  0.00000000000E+00  0.00000000000E+00  0.61803338087E+03  0.61803338087E+03  0.25500000920E-02 0.  1.
       -2   -1    0    0    0  501  0.00000000000E+00  0.00000000000E+00 -0.34480286043E+03  0.34480286044E+03  0.25500000920E-02 0. -1.
    10030    2    1    2    0    0  0.00000000000E+00  0.00000000000E+00  0.27323052043E+03  0.96283624131E+03  0.92325441255E+03 0.  0.
        3    1    3    3  502    0 -0.13611512141E+03 -0.37164900283E+03  0.38439200742E+03  0.55173139584E+03  0.10100000352E+00 0.  1.
       -3    1    3    3    0  502  0.13611512141E+03  0.37164900283E+03 -0.11116148699E+03  0.41110484547E+03  0.10100000352E+00 0. -1.
</event>
<event>
 5   0  0.1459111E-02  0.8390839E+03  0.7818609E-02  0.9505106E-01
       -1   -1    0    0    0  501  0.00000000000E+00  0.00000000000E+00  0.12770250591E+03  0.12770250601E+03  0.50400001928E-02 0.  1.
        1   -1    0    0  501    0  0.00000000000E+00  0.00000000000E+00 -0.13783241742E+04  0.13783241742E+04  0.50400001928E-02 0. -1.
    10030    2    1    2    0    0  0.00000000000E+00  0.00000000000E+00 -0.12506216683E+04  0.15060266802E+04  0.83908390782E+03 0.  0.
        2    1    3    3  502    0  0.33822698259E+03 -0.24731265911E+03 -0.58705036901E+03  0.72124141511E+03  0.25500000920E-02 0.  1.
       -2    1    3    3    0  502 -0.33822698259E+03  0.24731265911E+03 -0.66357129929E+03  0.78478526512E+03  0.25500000920E-02 0. -1.
</event>
<event>
 5   0  0.2803717E-02  0.8976529E+03  0.7818609E-02  0.9428520E-01
        2   -1    0    0  501    0  0.00000000000E+00  0.00000000000E+00  0.10971554079E+04  0.10971554079E+04  0.25500000920E-02 0.  1.
       -2   -1    0    0    0  501  0.00000000000E+00  0.00000000000E+00 -0.18360678682E+03  0.18360678684E+03  0.25500000920E-02 0. -1.
    10030    2    1    2    0    0  0.00000000000E+00  0.00000000000E+00  0.91354862105E+03  0.12807621947E+04  0.89765289303E+03 0.  0.
        5    1    3    3  502    0  0.30113100847E+03 -0.30451774226E+03  0.64826287174E+03  0.77696703951E+03  0.46999998093E+01 0. -1.
       -5    1    3    3    0  502 -0.30113100847E+03  0.30451774226E+03  0.26528574931E+03  0.50379515519E+03  0.46999998093E+01 0.  1.
</event>
<event>
 5   0  0.2414128E-02  0.8897155E+03  0.7818609E-02  0.9438530E-01
        2   -1    0    0  501    0  0.00000000000E+00  0.00000000000E+00  0.16944246423E+04  0.16944246423E+04  0.25500000920E-02 0.  1.
       -2   -1    0    0    0  501  0.00000000000E+00  0.00000000000E+00 -0.11679388549E+03  0.11679388551E+03  0.25500000920E-02 0. -1.
    10030    2    1    2    0    0  0.00000000000E+00  0.00000000000E+00  0.15776307568E+04  0.18112185278E+04  0.88971554481E+03 0.  0.
        3    1    3    3  502    0  0.14232804677E+03 -0.29304393572E+03  0.14054977529E+04  0.14427598430E+04  0.10100000352E+00 0.  1.
       -3    1    3    3    0  502 -0.14232804677E+03  0.29304393572E+03  0.17213300399E+03  0.36845868483E+03  0.10100000352E+00 0. -1.
</event>
<event>
 5   0  0.1459111E-02  0.8975381E+03  0.7818609E-02  0.9428664E-01
       -1   -1    0    0    0  501  0.00000000000E+00  0.00000000000E+00  0.12780640393E+03  0.12780640403E+03  0.50400001928E-02 0.  1.
        1   -1    0    0  501    0  0.00000000000E+00  0.00000000000E+00 -0.15757713986E+04  0.15757713986E+04  0.50400001928E-02 0. -1.
    10030    2    1    2    0    0  0.00000000000E+00  0.00000000000E+00 -0.14479649947E+04  0.17035778026E+04  0.89753813505E+03 0.  0.
        2    1    3    3  502    0  0.13459878486E+03  0.42741363932E+03 -0.77025864851E+03  0.89112156161E+03  0.25500000920E-02 0. -1.
       -2    1    3    3    0  502 -0.13459878486E+03 -0.42741363932E+03 -0.67770634616E+03  0.81245624103E+03  0.25500000920E-02 0.  1.
</event>
<event>
 5   0  0.1459111E-02  0.9071935E+03  0.7818609E-02  0.9416634E-01
       -1   -1    0    0    0  501  0.00000000000E+00  0.00000000000E+00  0.48416058237E+03  0.48416058239E+03  0.50400001928E-02 0. -1.
        1   -1    0    0  501    0  0.00000000000E+00  0.00000000000E+00 -0.42496235523E+03  0.42496235526E+03  0.50400001928E-02 0.  1.
    10030    2    1    2    0    0  0.00000000000E+00  0.00000000000E+00  0.59198227141E+02  0.90912293765E+03  0.90719352162E+03 0.  0.
        2    1    3    3  502    0  0.59856901271E+02  0.22927495437E+03 -0.35800530203E+03  0.42932231438E+03  0.25500000920E-02 0.  1.
       -2    1    3    3    0  502 -0.59856901271E+02 -0.22927495437E+03  0.41720352917E+03  0.47980062327E+03  0.25500000920E-02 0. -1.
</event>
<event>
 5   0  0.1040163E-02  0.8438780E+03  0.7818609E-02  0.9498591E-01
       -3   -1    0    0    0  501  0.00000000000E+00  0.00000000000E+00  0.55024779785E+03  0.55024780712E+03  0.10100000352E+00 0.  1.
        3   -1    0    0  501    0  0.00000000000E+00  0.00000000000E+00 -0.32354969662E+03  0.32354971238E+03  0.10100000352E+00 0. -1.
    10030    2    1    2    0    0  0.00000000000E+00  0.00000000000E+00  0.22669810124E+03  0.87379751950E+03  0.84387799828E+03 0.  0.
        1    1    3    3  502    0 -0.31084164178E+03 -0.27735047293E+03  0.18270680770E+03  0.45489294203E+03  0.50400001928E-02 0. -1.
       -1    1    3    3    0  502  0.31084164178E+03  0.27735047293E+03  0.43991293538E+02  0.41890457748E+03  0.50400001928E-02 0.  1.
</event>
<event>
 5   0  0.1537870E-02  0.8785170E+03  0.7818609E-02  0.9452842E-01
       -1   -1    0    0    0  501  0.00000000000E+00  0.00000000000E+00  0.39275535369E+03  0.39275535372E+03  0.50400001928E-02 0.  1.
        1   -1    0    0  501    0  0.00000000000E+00  0.00000000000E+00 -0.49126770904E+03  0.49126770906E+03  0.50400001928E-02 0. -1.
    10030    2    1    2    0    0  0.00000000000E+00  0.00000000000E+00 -0.98512355351E+02  0.88402306278E+03  0.87851698411E+03 0.  0.
        5    1    3    3  502    0 -0.50086655759E+02  0.35556356218E+03 -0.30380766598E+03  0.47037783508E+03  0.46999998093E+01 0. -1.
       -5    1    3    3    0  502  0.50086655759E+02 -0.35556356218E+03  0.20529531063E+03  0.41364522770E+03  0.46999998093E+01 0.  1.
</event>
<event>
 5   0  0.2628383E-02  0.8906621E+03  0.7818609E-02  0.9437330E-01
        2   -1    0    0  501    0  0.00000000000E+00  0.00000000000E+00  0.12037915420E+04  0.12037915420E+04  0.25500000920E-02 0. -1.
       -2   -1    0    0    0  501  0.00000000000E+00  0.00000000000E+00 -0.16474593090E+03  0.16474593092E+03  0.25500000920E-02 0.  1.
    10030    2    1    2    0    0  0.00000000000E+00  0.00000000000E+00  0.10390456111E+04  0.13685374729E+04  0.89066213169E+03 0.  0.
        2    1    3    3  502    0  0.49411261661E+02  0.61812151152E+02  0.11929015299E+04  0.11955234313E+04  0.25500000920E-02 0. -1.
       -2    1    3    3    0  502 -0.49411261661E+02 -0.61812151152E+02 -0.15385591884E+03  0.17301404156E+03  0.25500000920E-02 0.  1.
</event>
<event>
 5   0  0.2628383E-02  0.8941988E+03  0.7818609E-02  0.9432862E-01
        2   -1    0    0  501    0  0.00000000000E+00  0.00000000000E+00  0.74134244952E+03  0.74134244952E+03  0.25500000920E-02 0.  1.
       -2   -1    0    0    0  501  0.00000000000E+00  0.00000000000E+00 -0.26964308987E+03  0.26964308988E+03  0.25500000920E-02 0. -1.
    10030    2    1    2    0    0  0.00000000000E+00  0.00000000000E+00  0.47169935965E+03  0.10109855394E+04  0.89419878942E+03 0.  0.
        2    1    3    3  502    0 -0.41102612367E+03 -0.17300001521E+03  0.27207121815E+03  0.52239279029E+03  0.25500000920E-02 0.  1.
       -2    1    3    3    0  502  0.41102612367E+03  0.17300001521E+03  0.19962814150E+03  0.48859274911E+03  0.25500000920E-02 0. -1.
</event>
<event>
 5   0  0.1497410E-02  0.8796114E+03  0.7818609E-02  0.9451433E-01
        1   -1    0    0  501    0  0.00000000000E+00  0.00000000000E+00  0.13045316216E+04  0.13045316216E+04  0.50400001928E-02 0. -1.
       -1   -1    0    0    0  501  0.00000000000E+00  0.00000000000E+00 -0.14827471056E+03  0.14827471065E+03  0.50400001928E-02 0.  1.
    10030    2    1    2    0    0  0.00000000000E+00  0.00000000000E+00  0.11562569110E+04  0.14528063322E+04  0.87961138846E+03 0.  0.
        3    1    3    3  502    0 -0.38989372121E+03 -0.70960398541E+02  0.26311608176E+03  0.47569168028E+03  0.10100000352E+00 0.  1.
       -3    1    3    3    0  502  0.38989372121E+03  0.70960398541E+02  0.89314082923E+03  0.97711465194E+03  0.10100000352E+00 0. -1.
</event>
<event>
 5   0  0.2705111E-02  0.8992242E+03  0.7818609E-02  0.9426552E-01
        2   -1    0    0  501    0  0.00000000000E+00  0.00000000000E+00  0.22559228686E+04  0.22559228686E+04  0.25500000920E-02 0.  1.
       -2   -1    0    0    0  501  0.00000000000E+00  0.00000000000E+00 -0.89609020629E+02  0.89609020665E+02  0.25500000920E-02 0. -1.
    10030    2    1    2    0    0  0.00000000000E+00  0.00000000000E+00  0.21663138480E+04  0.23455318893E+04  0.89922419655E+03 0.  0.
        4    1    3    3  502    0 -0.14285117227E+03 -0.19186754039E+03  0.20761637346E+04  0.20898988196E+04  0.12699999809E+01 0.  1.
       -4    1    3    3    0  502  0.14285117227E+03  0.19186754039E+03  0.90150113421E+02  0.25563306970E+03  0.12699999809E+01 0. -1.
</event>
<event>
 5   0  0.1559275E-02  0.9079752E+03  0.7818609E-02  0.9415667E-01
       -1   -1    0    0    0  501  0.00000000000E+00  0.00000000000E+00  0.43406355542E+03  0.43406355545E+03  0.50400001928E-02 0.  1.
        1   -1    0    0  501    0  0.00000000000E+00  0.00000000000E+00 -0.47482622502E+03  0.47482622505E+03  0.50400001928E-02 0. -1.
    10030    2    1    2    0    0  0.00000000000E+00  0.00000000000E+00 -0.40762669594E+02  0.90888978050E+03  0.90797524078E+03 0.  0.
        1    1    3    3  502    0  0.45250877134E+03 -0.25888036728E+02 -0.46299127778E+02  0.45560727369E+03  0.50400001928E-02 0.  1.
       -1    1    3    3    0  502 -0.45250877134E+03  0.25888036728E+02  0.55364581843E+01  0.45328250681E+03  0.50400001928E-02 0. -1.
</event>
<event>
 5   0  0.2628383E-02  0.8854163E+03  0.7818609E-02  0.9443998E-01
        2   -1    0    0  501    0  0.00000000000E+00  0.00000000000E+00  0.66807789491E+03  0.66807789491E+03  0.25500000920E-02 0.  1.
       -2   -1    0    0    0  501  0.00000000000E+00  0.00000000000E+00 -0.29336476930E+03  0.29336476931E+03  0.25500000920E-02 0. -1.
    10030    2    1    2    0    0  0.00000000000E+00  0.00000000000E+00  0.37471312561E+03  0.96144266422E+03  0.88541632585E+03 0.  0.
        2    1    3    3  502    0  0.35567944595E+03 -0.25288957085E+03  0.10661087222E+03  0.44925146789E+03  0.25500000920E-02 0. -1.
       -2    1    3    3    0  502 -0.35567944595E+03  0.25288957085E+03  0.26810225339E+03  0.51219119633E+03  0.25500000920E-02 0.  1.
</event>
<event>
 5   0  0.1497410E-02  0.9303299E+03  0.7818609E-02  0.9388442E-01
       -1   -1    0    0    0  501  0.00000000000E+00  0.00000000000E+00  0.17985995478E+03  0.17985995485E+03  0.50400001928E-02 0.  1.
        1   -1    0    0  501    0  0.00000000000E+00  0.00000000000E+00 -0.12030383808E+04  0.12030383808E+04  0.50400001928E-02 0. -1.
    10030    2    1    2    0    0  0.00000000000E+00  0.00000000000E+00 -0.10231784260E+04  0.13828983356E+04  0.93032989594E+03 0.  0.
        3    1    3    3  502    0 -0.20480275773E+03  0.33636329357E+01 -0.11323940211E+04  0.11507700521E+04  0.10100000352E+00 0. -1.
       -3    1    3    3    0  502  0.20480275773E+03 -0.33636329357E+01  0.10921559511E+03  0.23212828353E+03  0.10100000352E+00 0.  1.
</event>
<event>
 5   0  0.1040163E-02  0.8855135E+03  0.7818609E-02  0.9443874E-01
        3   -1    0    0  501    0  0.00000000000E+00  0.00000000000E+00  0.20720743620E+03  0.20720746081E+03  0.10100000352E+00 0. -1.
       -3   -1    0    0    0  501  0.00000000000E+00  0.00000000000E+00 -0.94607367487E+03  0.94607368026E+03  0.10100000352E+00 0.  1.
    10030    2    1    2    0    0  0.00000000000E+00  0.00000000000E+00 -0.73886623867E+03  0.11532811411E+04  0.88551345089E+03 0.  0.
        1    1    3    3  502    0  0.26641317043E+03 -0.32973814875E+03 -0.53586519393E+03  0.68326768562E+03  0.50400001928E-02 0.  1.
       -1    1    3    3    0  502 -0.26641317043E+03  0.32973814875E+03 -0.20300104474E+03  0.47001345546E+03  0.50400001928E-02 0. -1.
</event>
<event>
 5   0  0.2679861E-02  0.9277867E+03  0.7818609E-02  0.9391498E-01
       -2   -1    0    0    0  501  0.00000000000E+00  0.00000000000E+00  0.54950974577E+03  0.54950974578E+03  0.25500000920E-02 0. -1.
        2   -1    0    0  501    0  0.00000000000E+00  0.00000000000E+00 -0.39161639006E+03  0.39161639006E+03  0.25500000920E-02 0.  1.
    10030    2    1    2    0    0  0.00000000000E+00  0.00000000000E+00  0.15789335572E+03  0.94112613584E+03  0.92778666286E+03 0.  0.
        1    1    3    3  502    0 -0.35839144882E+02  0.77165891048E+02  0.54152739940E+03  0.54817054224E+03  0.50400001928E-02 0. -1.
       -1    1    3    3    0  502  0.35839144882E+02 -0.77165891048E+02 -0.38363404369E+03  0.39295559361E+03  0.50400001928E-02 0.  1.
</event>
<event>
 5   0  0.2803717E-02  0.9594260E+03  0.7818609E-02  0.9354200E-01
        2   -1    0    0  501    0  0.00000000000E+00  0.00000000000E+00  0.39585987761E+03  0.39585987762E+03  0.25500000920E-02 0. -1.
       -2   -1    0    0    0  501  0.00000000000E+00  0.00000000000E+00 -0.58132829045E+03  0.58132829046E+03  0.25500000920E-02 0.  1.
    10030    2    1    2    0    0  0.00000000000E+00  0.00000000000E+00 -0.18546841284E+03  0.97718816807E+03  0.95942596570E+03 0.  0.
        5    1    3    3  502    0  0.35288443825E+03 -0.32491733450E+03 -0.94707838429E+02  0.48896867555E+03  0.46999998093E+01 0. -1.
       -5    1    3    3    0  502 -0.35288443825E+03  0.32491733450E+03 -0.90760574414E+02  0.48821949252E+03  0.46999998093E+01 0.  1.
</event>
<event>
 5   0  0.1559275E-02  0.9091878E+03  0.7818609E-02  0.9414169E-01
       -1   -1    0    0    0  501  0.00000000000E+00  0.00000000000E+00  0.11821572607E+03  0.11821572618E+03  0.50400001928E-02 0. -1.
        1   -1    0    0  501    0  0.00000000000E+00  0.00000000000E+00 -0.17481227523E+04  0.17481227523E+04  0.50400001928E-02 0.  1.
    10030    2    1    2    0    0  0.00000000000E+00  0.00000000000E+00 -0.16299070262E+04  0.18663384785E+04  0.90918777054E+03 0.  0.
        1    1    3    3  502    0 -0.34371630659E+03  0.10713419621E+03 -0.24520079305E+03  0.43559392139E+03  0.50400001928E-02 0. -1.
       -1    1    3    3    0  502  0.34371630659E+03 -0.10713419621E+03 -0.13847062332E+04  0.14307445571E+04  0.50400001928E-02 0.  1.
</event>
<event>
 5   0  0.1459111E-02  0.9004522E+03  0.7818609E-02  0.9425016E-01
       -1   -1    0    0    0  501  0.00000000000E+00  0.00000000000E+00  0.14285581277E+03  0.14285581286E+03  0.50400001928E-02 0. -1.
        1   -1    0    0  501    0  0.00000000000E+00  0.00000000000E+00 -0.14189379551E+04  0.14189379551E+04  0.50400001928E-02 0.  1.
    10030    2    1    2    0    0  0.00000000000E+00  0.00000000000E+00 -0.12760821424E+04  0.15617937680E+04  0.90045218624E+03 0.  0.
        2    1    3    3  502    0 -0.28584907320E+03 -0.15493897513E+03 -0.97882235036E+02  0.33955369326E+03  0.25500000920E-02 0. -1.
       -2    1    3    3    0  502  0.28584907320E+03  0.15493897513E+03 -0.11781999073E+04  0.12222400747E+04  0.25500000920E-02 0.  1.
</event>
<event>
 5   0  0.1560728E-02  0.9105072E+03  0.7818609E-02  0.9412541E-01
        1   -1    0    0  501    0  0.00000000000E+00  0.00000000000E+00  0.49959307365E+03  0.49959307368E+03  0.50400001928E-02 0.  1.
       -1   -1    0    0    0  501  0.00000000000E+00  0.00000000000E+00 -0.41484927992E+03  0.41484927995E+03  0.50400001928E-02 0. -1.
    10030    2    1    2    0    0  0.00000000000E+00  0.00000000000E+00  0.84743793732E+02  0.91444235363E+03  0.91050717050E+03 0.  0.
        4    1    3    3  502    0 -0.90210971333E+02  0.44382611874E+03  0.88772995253E+02  0.46152128944E+03  0.12699999809E+01 0. -1.
       -4    1    3    3    0  502  0.90210971333E+02 -0.44382611874E+03 -0.40292015216E+01  0.45292106419E+03  0.12699999809E+01 0.  1.
</event>
<event>
 5   0  0.2628383E-02  0.8885592E+03  0.7818609E-02  0.9439997E-01
       -2   -1    0    0    0  501  0.00000000000E+00  0.00000000000E+00  0.15536419591E+03  0.15536419593E+03  0.25500000920E-02 0. -1.
        2   -1    0    0  501    0  0.00000000000E+00  0.00000000000E+00 -0.12704624282E+04  0.12704624282E+04  0.25500000920E-02 0.  1.
    10030    2    1    2    0    0  0.00000000000E+00  0.00000000000E+00 -0.11150982323E+04  0.14258266241E+04  0.88855922392E+03 0.  0.
        2    1    3    3  502    0  0.18334736044E+03  0.35350642221E+03 -0.87363393517E+03  0.96011421081E+03  0.25500000920E-02 0.  1.
       -2    1    3    3    0  502 -0.18334736044E+03 -0.35350642221E+03 -0.24146429712E+03  0.46571241331E+03  0.25500000920E-02 0. -1.
</event>
<event>
 5   0  0.2628383E-02  0.8882409E+03  0.7818609E-02  0.9440401E-01
       -2   -1    0    0    0  501  0.00000000000E+00  0.00000000000E+00  0.18453521156E+03  0.18453521157E+03  0.25500000920E-02 0.  1.
        2   -1    0    0  501    0  0.00000000000E+00  0.00000000000E+00 -0.10688635093E+04  0.10688635093E+04  0.25500000920E-02 0. -1.
    10030    2    1    2    0    0  0.00000000000E+00  0.00000000000E+00 -0.88432829776E+03  0.12533987209E+04  0.88824085434E+03 0.  0.
        2    1    3    3  502    0 -0.17018872835E+03 -0.34580289332E+03 -0.75356443892E+03  0.84640605380E+03  0.25500000920E-02 0. -1.
       -2    1    3    3    0  502  0.17018872835E+03  0.34580289332E+03 -0.13076385883E+03  0.40699266709E+03  0.25500000920E-02 0.  1.
</event>
<event>
 5   0  0.2705111E-02  0.9001483E+03  0.7818609E-02  0.9425396E-01
       -2   -1    0    0    0  501  0.00000000000E+00  0.00000000000E+00  0.99075721729E+02  0.99075721762E+02  0.25500000920E-02 0. -1.
        2   -1    0    0  501    0  0.00000000000E+00  0.00000000000E+00 -0.20445648645E+04  0.20445648645E+04  0.25500000920E-02 0.  1.
    10030    2    1    2    0    0  0.00000000000E+00  0.00000000000E+00 -0.19454891428E+04  0.21436405863E+04  0.90014829802E+03 0.  0.
        4    1    3    3  502    0  0.34329445233E+03 -0.28024799868E+03 -0.11598817501E+04  0.12416590953E+04  0.12699999809E+01 0.  1.
       -4    1    3    3    0  502 -0.34329445233E+03  0.28024799868E+03 -0.78560739269E+03  0.90198149101E+03  0.12699999809E+01 0. -1.
</event>
<event>
 5   0  0.1040163E-02  0.8821559E+03  0.7818609E-02  0.9448166E-01
       -3   -1    0    0    0  501  0.00000000000E+00  0.00000000000E+00  0.79828653470E+03  0.79828654109E+03  0.10100000352E+00 0.  1.
        3   -1    0    0  501    0  0.00000000000E+00  0.00000000000E+00 -0.24370917264E+03  0.24370919356E+03  0.10100000352E+00 0. -1.
    10030    2    1    2    0    0  0.00000000000E+00  0.00000000000E+00  0.55457736207E+03  0.10419957347E+04  0.88215591622E+03 0.  0.
        5    1    3    3  502    0  0.28539592041E+01 -0.77579005198E+02 -0.23554607612E+03  0.24805380687E+03  0.46999998093E+01 0. -1.
       -5    1    3    3    0  502 -0.28539592041E+01  0.77579005198E+02  0.79012343819E+03  0.79394192779E+03  0.46999998093E+01 0.  1.
</event>
<event>
 5   0  0.2803717E-02  0.7292876E+03  0.7818609E-02  0.9668417E-01
       -2   -1    0    0    0  501  0.00000000000E+00  0.00000000000E+00  0.30102422473E+03  0.30102422474E+03  0.25500000920E-02 0. -1.
        2   -1    0    0  501    0  0.00000000000E+00  0.00000000000E+00 -0.44170901809E+03  0.44170901810E+03  0.25500000920E-02 0.  1.
    10030    2    1    2    0    0  0.00000000000E+00  0.00000000000E+00 -0.14068479336E+03  0.74273324285E+03  0.72928763800E+03 0.  0.
        5    1    3    3  502    0 -0.11816887223E+03 -0.23582954648E+03 -0.32670449660E+03  0.41992544035E+03  0.46999998093E+01 0.  1.
       -5    1    3    3    0  502  0.11816887223E+03  0.23582954648E+03  0.18601970325E+03  0.32280780249E+03  0.46999998093E+01 0. -1.
</event>
<event>
 5   0  0.2628383E-02  0.8969640E+03  0.7818609E-02  0.9429385E-01
       -2   -1    0    0    0  501  0.00000000000E+00  0.00000000000E+00  0.14283020205E+03  0.14283020207E+03  0.25500000920E-02 0. -1.
        2   -1    0    0  501    0  0.00000000000E+00  0.00000000000E+00 -0.14082182839E+04  0.14082182839E+04  0.25500000920E-02 0.  1.
    10030    2    1    2    0    0  0.00000000000E+00  0.00000000000E+00 -0.12653880819E+04  0.15510484860E+04  0.89696399490E+03 0.  0.
        2    1    3    3  502    0 -0.22607960502E+02  0.15687209653E+03 -0.13581759626E+04  0.13673923797E+04  0.25500000920E-02 0.  1.
       -2    1    3    3    0  502  0.22607960502E+02 -0.15687209653E+03  0.92787880784E+02  0.18365610628E+03  0.25500000920E-02 0. -1.
</event>
<event>
 5   0  0.2679861E-02  0.9164510E+03  0.7818609E-02  0.9405247E-01
       -2   -1    0    0    0  501  0.00000000000E+00  0.00000000000E+00  0.15696081692E+03  0.15696081694E+03  0.25500000920E-02 0. -1.
        2   -1    0    0  501    0  0.00000000000E+00  0.00000000000E+00 -0.13377262699E+04  0.13377262699E+04  0.25500000920E-02 0.  1.
    10030    2    1    2    0    0  0.00000000000E+00  0.00000000000E+00 -0.11807654530E+04  0.14946870868E+04  0.91645099849E+03 0.  0.
        1    1    3    3  502    0  0.11981542905E+03  0.12549070578E+03 -0.12820810509E+04  0.12937679372E+04  0.50400001928E-02 0.  1.
       -1    1    3    3    0  502 -0.11981542905E+03 -0.12549070578E+03  0.10131559792E+03  0.20091914962E+03  0.50400001928E-02 0. -1.
</event>
<event>
 5   0  0.2705111E-02  0.8701293E+03  0.7818609E-02  0.9463711E-01
        2   -1    0    0  501    0  0.00000000000E+00  0.00000000000E+00  0.12372998922E+03  0.12372998925E+03  0.25500000920E-02 0.  1.
       -2   -1    0    0    0  501  0.00000000000E+00  0.00000000000E+00 -0.15297929776E+04  0.15297929776E+04  0.25500000920E-02 0. -1.
    10030    2    1    2    0    0  0.00000000000E+00  0.00000000000E+00 -0.14060629884E+04  0.16535229669E+04  0.87012934361E+03 0.  0.
        4    1    3    3  502    0  0.18864523221E+03 -0.29566532139E+03 -0.21381607397E+03  0.41076018831E+03  0.12699999809E+01 0.  1.
       -4    1    3    3    0  502 -0.18864523221E+03  0.29566532139E+03 -0.11922469144E+04  0.12427627785E+04  0.12699999809E+01 0. -1.
</event>
<event>
 5   0  0.2705111E-02  0.8907469E+03  0.7818609E-02  0.9437223E-01
       -2   -1    0    0    0  501  0.00000000000E+00  0.00000000000E+00  0.15701458414E+03  0.15701458416E+03  0.25500000920E-02 0. -1.
        2   -1    0    0  501    0  0.00000000000E+00  0.00000000000E+00 -0.12633062012E+04  0.12633062012E+04  0.25500000920E-02 0.  1.
    10030    2    1    2    0    0  0.00000000000E+00  0.00000000000E+00 -0.11062916170E+04  0.14203207853E+04  0.89074687277E+03 0.  0.
        4    1    3    3  502    0  0.46761640515E+02 -0.96011531520E+02  0.13629352284E+03  0.17315427363E+03  0.12699999809E+01 0. -1.
       -4    1    3    3    0  502 -0.46761640515E+02  0.96011531520E+02 -0.12425851399E+04  0.12471665117E+04  0.12699999809E+01 0.  1.
</event>
<event>
 5   0  0.2803717E-02  0.8887745E+03  0.7818609E-02  0.9439724E-01
       -2   -1    0    0    0  501  0.00000000000E+00  0.00000000000E+00  0.14667068277E+03  0.14667068279E+03  0.25500000920E-02 0. -1.
        2   -1    0    0  501    0  0.00000000000E+00  0.00000000000E+00 -0.13464177835E+04  0.13464177835E+04  0.25500000920E-02 0.  1.
    10030    2    1    2    0    0  0.00000000000E+00  0.00000000000E+00 -0.11997471007E+04  0.14930884663E+04  0.88877447221E+03 0.  0.
        5    1    3    3  502    0  0.32077684038E+03 -0.24419547318E+03 -0.28590563176E+03  0.49426038756E+03  0.46999998093E+01 0. -1.
       -5    1    3    3    0  502 -0.32077684038E+03  0.24419547318E+03 -0.91384146898E+03  0.99882807873E+03  0.46999998093E+01 0.  1.
</event>
<event>
 5   0  0.1459111E-02  0.9003104E+03  0.7818609E-02  0.9425193E-01
       -1   -1    0    0    0  501  0.00000000000E+00  0.00000000000E+00  0.65717750679E+03  0.65717750681E+03  0.50400001928E-02 0.  1.
        1   -1    0    0  501    0  0.00000000000E+00  0.00000000000E+00 -0.30834854208E+03  0.30834854212E+03  0.50400001928E-02 0. -1.
    10030    2    1    2    0    0  0.00000000000E+00  0.00000000000E+00  0.34882896471E+03  0.96552604893E+03  0.90031044898E+03 0.  0.
        2    1    3    3  502    0 -0.24205704109E+03  0.15235002921E+03 -0.19838278523E+03  0.34807739372E+03  0.25500000920E-02 0. -1.
       -2    1    3    3    0  502  0.24205704109E+03 -0.15235002921E+03  0.54721174994E+03  0.61744865521E+03  0.25500000920E-02 0.  1.
</event>
<event>
 5   0  0.2803717E-02  0.8338544E+03  0.7818609E-02  0.9512267E-01
        2   -1    0    0  501    0  0.00000000000E+00  0.00000000000E+00  0.41753266948E+03  0.41753266948E+03  0.25500000920E-02 0. -1.
       -2   -1    0    0    0  501  0.00000000000E+00  0.00000000000E+00 -0.41632259292E+03  0.41632259292E+03  0.25500000920E-02 0.  1.
    10030    2    1    2    0    0  0.00000000000E+00  0.00000000000E+00  0.12100765602E+01  0.83385526241E+03  0.83385438439E+03 0.  0.
        5    1    3    3  502    0  0.77166542925E+02  0.21685342784E+01  0.41029659199E+03  0.41752216861E+03  0.46999998093E+01 0. -1.
       -5    1    3    3    0  502 -0.77166542925E+02 -0.21685342784E+01 -0.40908651543E+03  0.41633309380E+03  0.46999998093E+01 0.  1.
</event>
<event>
 5   0  0.2414128E-02  0.1117775E+04  0.7818609E-02  0.9188038E-01
       -2   -1    0    0    0  501  0.00000000000E+00  0.00000000000E+00  0.41844671590E+03  0.41844671590E+03  0.25500000920E-02 0.  1.
        2   -1    0    0  501    0  0.00000000000E+00  0.00000000000E+00 -0.74646399602E+03  0.74646399602E+03  0.25500000920E-02 0. -1.
    10030    2    1    2    0    0  0.00000000000E+00  0.00000000000E+00 -0.32801728012E+03  0.11649107119E+04  0.11177753042E+04 0.  0.
        3    1    3    3  502    0  0.21319003970E+03 -0.83119579367E+02  0.36739180381E+03  0.43282283351E+03  0.10100000352E+00 0.  1.
       -3    1    3    3    0  502 -0.21319003970E+03  0.83119579367E+02 -0.69540908393E+03  0.73208787841E+03  0.10100000352E+00 0. -1.
</event>
<event>
 5   0  0.1040163E-02  0.9103968E+03  0.7818609E-02  0.9412677E-01
        4   -1    0    0  501    0  0.00000000000E+00  0.00000000000E+00  0.22065743633E+03  0.22066109106E+03  0.12699999809E+01 0. -1.
       -4   -1    0    0    0  501  0.00000000000E+00  0.00000000000E+00 -0.93902543156E+03  0.93902629037E+03  0.12699999809E+01 0.  1.
    10030    2    1    2    0    0  0.00000000000E+00  0.00000000000E+00 -0.71836799522E+03  0.11596873814E+04  0.91039675203E+03 0.  0.
        2    1    3    3  502    0 -0.75784603513E+02 -0.39020708835E+03 -0.64173431562E+03  0.75486939915E+03  0.25500000920E-02 0.  1.
       -2    1    3    3    0  502  0.75784603513E+02  0.39020708835E+03 -0.76633679606E+02  0.40481798229E+03  0.25500000920E-02 0. -1.
</event>
<event>
 5   0  0.1560728E-02  0.5249237E+03  0.7818609E-02  0.1007471E+00
        1   -1    0    0  501    0  0.00000000000E+00  0.00000000000E+00  0.24844691133E+03  0.24844691138E+03  0.50400001928E-02 0.  1.
       -1   -1    0    0    0  501  0.00000000000E+00  0.00000000000E+00 -0.27726732178E+03  0.27726732182E+03  0.50400001928E-02 0. -1.
    10030    2    1    2    0    0  0.00000000000E+00  0.00000000000E+00 -0.28820410448E+02  0.52571423320E+03  0.52492365058E+03 0.  0.
        4    1    3    3  502    0  0.14147727564E+03  0.89797143892E+02 -0.21671753488E+03  0.27394789541E+03  0.12699999809E+01 0. -1.
       -4    1    3    3    0  502 -0.14147727564E+03 -0.89797143892E+02  0.18789712444E+03  0.25176633779E+03  0.12699999809E+01 0.  1.
</event>
<event>
 5   0  0.1537870E-02  0.9021115E+03  0.7818609E-02  0.9422946E-01
        1   -1    0    0  501    0  0.00000000000E+00  0.00000000000E+00  0.72464825503E+03  0.72464825505E+03  0.50400001928E-02 0.  1.
       -1   -1    0    0    0  501  0.00000000000E+00  0.00000000000E+00 -0.28075870777E+03  0.28075870782E+03  0.50400001928E-02 0. -1.
    10030    2    1    2    0    0  0.00000000000E+00  0.00000000000E+00  0.44388954726E+03  0.10054069629E+04  0.90211154011E+03 0.  0.
        5    1    3    3  502    0 -0.11526241031E+02 -0.35477993504E+03  0.53206453423E+03  0.63962208774E+03  0.46999998093E+01 0.  1.
       -5    1    3    3    0  502  0.11526241031E+02  0.35477993504E+03 -0.88174986977E+02  0.36578487512E+03  0.46999998093E+01 0. -1.
</event>
<event>
 5   0  0.1537870E-02  0.9013013E+03  0.7818609E-02  0.9423956E-01
       -1   -1    0    0    0  501  0.00000000000E+00  0.00000000000E+00  0.26328195585E+03  0.26328195590E+03  0.50400001928E-02 0. -1.
        1   -1    0    0  501    0  0.00000000000E+00  0.00000000000E+00 -0.77136321845E+03  0.77136321846E+03  0.50400001928E-02 0.  1.
    10030    2    1    2    0    0  0.00000000000E+00  0.00000000000E+00 -0.50808126260E+03  0.10346451744E+04  0.90130131888E+03 0.  0.
        5    1    3    3  502    0  0.20673415300E+03 -0.25050262672E+03 -0.61262143790E+03  0.69341019043E+03  0.46999998093E+01 0.  1.
       -5    1    3    3    0  502 -0.20673415300E+03  0.25050262672E+03  0.10454017530E+03  0.34123498394E+03  0.46999998093E+01 0. -1.
</event>
<event>
 5   0  0.1040163E-02  0.9058462E+03  0.7818609E-02  0.9418303E-01
        3   -1    0    0  501    0  0.00000000000E+00  0.00000000000E+00  0.77402504587E+03  0.77402505246E+03  0.10100000352E+00 0.  1.
       -3   -1    0    0    0  501  0.00000000000E+00  0.00000000000E+00 -0.26502932807E+03  0.26502934732E+03  0.10100000352E+00 0. -1.
    10030    2    1    2    0    0  0.00000000000E+00  0.00000000000E+00  0.50899571780E+03  0.10390543998E+04  0.90584623693E+03 0.  0.
        4    1    3    3  502    0  0.33993974469E+03  0.85172262057E+02  0.58361315913E+03  0.68074905557E+03  0.12699999809E+01 0.  1.
       -4    1    3    3    0  502 -0.33993974469E+03 -0.85172262057E+02 -0.74617441327E+02  0.35830534422E+03  0.12699999809E+01 0. -1.
</event>
<event>
 5   0  0.2679861E-02  0.8855956E+03  0.7818609E-02  0.9443769E-01
        2   -1    0    0  501    0  0.00000000000E+00  0.00000000000E+00  0.16669924239E+04  0.16669924239E+04  0.25500000920E-02 0.  1.
       -2   -1    0    0    0  501  0.00000000000E+00  0.00000000000E+00 -0.11761895282E+03  0.11761895285E+03  0.25500000920E-02 0. -1.
    10030    2    1    2    0    0  0.00000000000E+00  0.00000000000E+00  0.15493734710E+04  0.17846113767E+04  0.88559562620E+03 0.  0.
        1    1    3    3  502    0  0.29545126374E+03 -0.64744023263E+02  0.12298878896E+03  0.32651107184E+03  0.50400001928E-02 0. -1.
       -1    1    3    3    0  502 -0.29545126374E+03  0.64744023263E+02  0.14263846821E+04  0.14581003049E+04  0.50400001928E-02 0.  1.
</event>
<event>
 5   0  0.2679861E-02  0.9003189E+03  0.7818609E-02  0.9425183E-01
       -2   -1    0    0    0  501  0.00000000000E+00  0.00000000000E+00  0.13136037057E+03  0.13136037059E+03  0.25500000920E-02 0. -1.
        2   -1    0    0  501    0  0.00000000000E+00  0.00000000000E+00 -0.15426533103E+04  0.15426533103E+04  0.25500000920E-02 0.  1.
    10030    2    1    2    0    0  0.00000000000E+00  0.00000000000E+00 -0.14112929397E+04  0.16740136809E+04  0.90031885580E+03 0.  0.
        1    1    3    3  502    0 -0.75500699485E+02  0.26585678397E+03 -0.13663418476E+04  0.13940122775E+04  0.50400001928E-02 0.  1.
       -1    1    3    3    0  502  0.75500699485E+02 -0.26585678397E+03 -0.44951092122E+02  0.28000140342E+03  0.50400001928E-02 0. -1.
</event>
<event>
 5   0  0.1560728E-02  0.8740967E+03  0.7818609E-02  0.9458554E-01
       -1   -1    0    0    0  501  0.00000000000E+00  0.00000000000E+00  0.39518492827E+03  0.39518492830E+03  0.50400001928E-02 0. -1.
        1   -1    0    0  501    0  0.00000000000E+00  0.00000000000E+00 -0.48334648458E+03  0.48334648461E+03  0.50400001928E-02 0.  1.
    10030    2    1    2    0    0  0.00000000000E+00  0.00000000000E+00 -0.88161556315E+02  0.87853141290E+03  0.87409666711E+03 0.  0.
        4    1    3    3  502    0 -0.36828017935E+03  0.23480037467E+03 -0.59912728324E+02  0.44085445939E+03  0.12699999809E+01 0.  1.
       -4    1    3    3    0  502  0.36828017935E+03 -0.23480037467E+03 -0.28248827991E+02  0.43767695351E+03  0.12699999809E+01 0. -1.
</event>
<event>
 5   0  0.2628383E-02  0.7728395E+03  0.7818609E-02  0.9600185E-01
       -2   -1    0    0    0  501  0.00000000000E+00  0.00000000000E+00  0.27384966006E+03  0.27384966007E+03  0.25500000920E-02 0.  1.
        2   -1    0    0  501    0  0.00000000000E+00  0.00000000000E+00 -0.54526351897E+03  0.54526351897E+03  0.25500000920E-02 0. -1.
    10030    2    1    2    0    0  0.00000000000E+00  0.00000000000E+00 -0.27141385891E+03  0.81911317904E+03  0.77283951586E+03 0.  0.
        2    1    3    3  502    0  0.18792935228E+03  0.20399581165E+03  0.14945357385E+03  0.31506841061E+03  0.25500000920E-02 0.  1.
       -2    1    3    3    0  502 -0.18792935228E+03 -0.20399581165E+03 -0.42086743276E+03  0.50404476843E+03  0.25500000920E-02 0. -1.
</event>
<event>
 5   0  0.1537870E-02  0.9257259E+03  0.7818609E-02  0.9393982E-01
        1   -1    0    0  501    0  0.00000000000E+00  0.00000000000E+00  0.57380937132E+03  0.57380937134E+03  0.50400001928E-02 0. -1.
       -1   -1    0    0    0  501  0.00000000000E+00  0.00000000000E+00 -0.37336805559E+03  0.37336805562E+03  0.50400001928E-02 0.  1.
    10030    2    1    2    0    0  0.00000000000E+00  0.00000000000E+00  0.20044131573E+03  0.94717742696E+03  0.92572585417E+03 0.  0.
        5    1    3    3  502    0 -0.29158240620E+03 -0.37112298741E+02  0.46602797727E+03  0.55100071499E+03  0.46999998093E+01 0. -1.
       -5    1    3    3    0  502  0.29158240620E+03  0.37112298741E+02 -0.26558666154E+03  0.39617671197E+03  0.46999998093E+01 0.  1.
</event>
<event>
 5   0  0.2803717E-02  0.8797635E+03  0.7818609E-02  0.9451238E-01
       -2   -1    0    0    0  501  0.00000000000E+00  0.00000000000E+00  0.11902405523E+03  0.11902405526E+03  0.25500000920E-02 0.  1.
        2   -1    0    0  501    0  0.00000000000E+00  0.00000000000E+00 -0.16256876120E+04  0.16256876120E+04  0.25500000920E-02 0. -1.
    10030    2    1    2    0    0  0.00000000000E+00  0.00000000000E+00 -0.15066635567E+04  0.17447116672E+04  0.87976345034E+03 0.  0.
        5    1    3    3  502    0  0.27035462035E+02  0.36397550448E+03 -0.26648818562E+03  0.45193708316E+03  0.46999998093E+01 0.  1.
       -5    1    3    3    0  502 -0.27035462035E+02 -0.36397550448E+03 -0.12401753711E+04  0.12927745841E+04  0.46999998093E+01 0. -1.
</event>
<event>
 5   0  0.2803717E-02  0.9290177E+03  0.7818609E-02  0.9390018E-01
        2   -1    0    0  501    0  0.00000000000E+00  0.00000000000E+00  0.42555649895E+03  0.42555649895E+03  0.25500000920E-02 0. -1.
       -2   -1    0    0    0  501  0.00000000000E+00  0.00000000000E+00 -0.50702662779E+03  0.50702662780E+03  0.25500000920E-02 0.  1.
    10030    2    1    2    0    0  0.00000000000E+00  0.00000000000E+00 -0.81470128849E+02  0.93258312675E+03  0.92901771049E+03 0.  0.
        5    1    3    3  502    0  0.44455749988E+03 -0.13268211116E+03 -0.63415431058E+02  0.46827291210E+03  0.46999998093E+01 0.  1.
       -5    1    3    3    0  502 -0.44455749988E+03  0.13268211116E+03 -0.18054697791E+02  0.46431021465E+03  0.46999998093E+01 0. -1.
</event>
<event>
 5   0  0.1559275E-02  0.9677559E+03  0.7818609E-02  0.9344634E-01
        1   -1    0    0  501    0  0.00000000000E+00  0.00000000000E+00  0.53671497984E+03  0.53671497986E+03  0.50400001928E-02 0.  1.
       -1   -1    0    0    0  501  0.00000000000E+00  0.00000000000E+00 -0.43624244596E+03  0.43624244599E+03  0.50400001928E-02 0. -1.
    10030    2    1    2    0    0  0.00000000000E+00  0.00000000000E+00  0.10047253388E+03  0.97295742585E+03  0.96775586924E+03 0.  0.
        1    1    3    3  502    0 -0.42148889747E+03  0.20329235650E+03  0.17401250119E+03  0.49926047661E+03  0.50400001928E-02 0.  1.
       -1    1    3    3    0  502  0.42148889747E+03 -0.20329235650E+03 -0.73539967307E+02  0.47369694924E+03  0.50400001928E-02 0. -1.
</event>
<event>
 5   0  0.1560728E-02  0.8445363E+03  0.7818609E-02  0.9497700E-01
        1   -1    0    0  501    0  0.00000000000E+00  0.00000000000E+00  0.90327249400E+03  0.90327249401E+03  0.50400001928E-02 0.  1.
       -1   -1    0    0    0  501  0.00000000000E+00  0.00000000000E+00 -0.19740487015E+03  0.19740487021E+03  0.50400001928E-02 0. -1.
    10030    2    1    2    0    0  0.00000000000E+00  0.00000000000E+00  0.70586762385E+03  0.11006773642E+04  0.84453629746E+03 0.  0.
        4    1    3    3  502    0 -0.18450656390E+03 -0.91725346213E+02  0.83330354638E+03  0.85840120257E+03  0.12699999809E+01 0.  1.
       -4    1    3    3    0  502  0.18450656390E+03  0.91725346213E+02 -0.12743592253E+03  0.24227616166E+03  0.12699999809E+01 0. -1.
</event>
<event>
 5   0  0.2414128E-02  0.9261238E+03  0.7818609E-02  0.9393502E-01
        2   -1    0    0  501    0  0.00000000000E+00  0.00000000000E+00  0.12474416833E+04  0.12474416833E+04  0.25500000920E-02 0. -1.
       -2   -1    0    0    0  501  0.00000000000E+00  0.00000000000E+00 -0.17189284688E+03  0.17189284690E+03  0.25500000920E-02 0.  1.
    10030    2    1    2    0    0  0.00000000000E+00  0.00000000000E+00  0.10755488364E+04  0.14193345302E+04  0.92612375474E+03 0.  0.
        3    1    3    3  502    0  0.40951163142E+03  0.84155489500E+02  0.84291958941E+03  0.94090135885E+03  0.10100000352E+00 0.  1.
       -3    1    3    3    0  502 -0.40951163142E+03 -0.84155489500E+02  0.23262924699E+03  0.47843317133E+03  0.10100000352E+00 0. -1.
</event>
<event>
 5   0  0.2679861E-02  0.9017543E+03  0.7818609E-02  0.9423391E-01
       -2   -1    0    0    0  501  0.00000000000E+00  0.00000000000E+00  0.19892063555E+03  0.19892063557E+03  0.25500000920E-02 0. -1.
        2   -1    0    0  501    0  0.00000000000E+00  0.00000000000E+00 -0.10219662870E+04  0.10219662870E+04  0.25500000920E-02 0.  1.
    10030    2    1    2    0    0  0.00000000000E+00  0.00000000000E+00 -0.82304565147E+03  0.12208869226E+04  0.90175425331E+03 0.  0.
        1    1    3    3  502    0  0.42547980974E+02 -0.44762643572E+03 -0.36640665984E+03  0.58002896225E+03  0.50400001928E-02 0. -1.
       -1    1    3    3    0  502 -0.42547980974E+02  0.44762643572E+03 -0.45663899163E+03  0.64085796035E+03  0.50400001928E-02 0.  1.
</event>
<event>
 5   0  0.2803717E-02  0.8920624E+03  0.7818609E-02  0.9435559E-01
        2   -1    0    0  501    0  0.00000000000E+00  0.00000000000E+00  0.13610377000E+04  0.13610377000E+04  0.25500000920E-02 0. -1.
       -2   -1    0    0    0  501  0.00000000000E+00  0.00000000000E+00 -0.14617070410E+03  0.14617070412E+03  0.25500000920E-02 0.  1.
    10030    2    1    2    0    0  0.00000000000E+00  0.00000000000E+00  0.12148669959E+04  0.15072084042E+04  0.89206241697E+03 0.  0.
        5    1    3    3  502    0  0.20711685537E+03  0.22077093388E+02  0.12737719357E+04  0.12906981925E+04  0.46999998093E+01 0. -1.
       -5    1    3    3    0  502 -0.20711685537E+03 -0.22077093388E+02 -0.58904939793E+02  0.21651021168E+03  0.46999998093E+01 0.  1.
</event>
<event>
 5   0  0.1040163E-02  0.9058531E+03  0.7818609E-02  0.9418294E-01
       -4   -1    0    0    0  501  0.00000000000E+00  0.00000000000E+00  0.21642731931E+03  0.21643104547E+03  0.12699999809E+01 0.  1.
        4   -1    0    0  501    0  0.00000000000E+00  0.00000000000E+00 -0.94784609044E+03  0.94784694126E+03  0.12699999809E+01 0. -1.
    10030    2    1    2    0    0  0.00000000000E+00  0.00000000000E+00 -0.73141877113E+03  0.11642779867E+04  0.90585308501E+03 0.  0.
        2    1    3    3  502    0  0.17873206625E+03  0.37965615214E+03 -0.14661281944E+03  0.44449889111E+03  0.25500000920E-02 0.  1.
       -2    1    3    3    0  502 -0.17873206625E+03 -0.37965615214E+03 -0.58480595169E+03  0.71977909563E+03  0.25500000920E-02 0. -1.
</event>
<event>
 5   0  0.2414128E-02  0.9279047E+03  0.7818609E-02  0.9391356E-01
       -2   -1    0    0    0  501  0.00000000000E+00  0.00000000000E+00  0.42461981987E+03  0.42461981988E+03  0.25500000920E-02 0.  1.
        2   -1    0    0  501    0  0.00000000000E+00  0.00000000000E+00 -0.50692826253E+03  0.50692826254E+03  0.25500000920E-02 0. -1.
    10030    2    1    2    0    0  0.00000000000E+00  0.00000000000E+00 -0.82308442659E+02  0.93154808242E+03  0.92790470962E+03 0.  0.
        3    1    3    3  502    0  0.14829682947E+03  0.13021688391E+03 -0.46268785265E+03  0.50301932932E+03  0.10100000352E+00 0. -1.
       -3    1    3    3    0  502 -0.14829682947E+03 -0.13021688391E+03  0.38037940999E+03  0.42852875310E+03  0.10100000352E+00 0.  1.
</event>
<event>
 5   0  0.2705111E-02  0.9146956E+03  0.7818609E-02  0.9407395E-01
        2   -1    0    0  501    0  0.00000000000E+00  0.00000000000E+00  0.23029651667E+03  0.23029651668E+03  0.25500000920E-02 0.  1.
       -2   -1    0    0    0  501  0.00000000000E+00  0.00000000000E+00 -0.90825079411E+03  0.90825079411E+03  0.25500000920E-02 0. -1.
    10030    2    1    2    0    0  0.00000000000E+00  0.00000000000E+00 -0.67795427744E+03  0.11385473108E+04  0.91469556499E+03 0.  0.
        4    1    3    3  502    0 -0.62516596072E+02 -0.45299355072E+03 -0.34811546704E+03  0.57471512341E+03  0.12699999809E+01 0. -1.
       -4    1    3    3    0  502  0.62516596072E+02  0.45299355072E+03 -0.32983881041E+03  0.56383218739E+03  0.12699999809E+01 0.  1.
</event>
<event>
 5   0  0.1537870E-02  0.9130516E+03  0.7818609E-02  0.9409412E-01
        1   -1    0    0  501    0  0.00000000000E+00  0.00000000000E+00  0.45023045399E+03  0.45023045402E+03  0.50400001928E-02 0. -1.
       -1   -1    0    0    0  501  0.00000000000E+00  0.00000000000E+00 -0.46290916540E+03  0.46290916542E+03  0.50400001928E-02 0.  1.
    10030    2    1    2    0    0  0.00000000000E+00  0.00000000000E+00 -0.12678711408E+02  0.91313961944E+03  0.91305159485E+03 0.  0.
        5    1    3    3  502    0  0.16389011012E+02  0.45102404964E+03 -0.74920165088E+02  0.45752203682E+03  0.46999998093E+01 0. -1.
       -5    1    3    3    0  502 -0.16389011012E+02 -0.45102404964E+03  0.62241453679E+02  0.45561758262E+03  0.46999998093E+01 0.  1.
</event>
<event>
 5   0  0.2414128E-02  0.9129885E+03  0.7818609E-02  0.9409489E-01
        2   -1    0    0  501    0  0.00000000000E+00  0.00000000000E+00  0.12232364927E+04  0.12232364927E+04  0.25500000920E-02 0. -1.
       -2   -1    0    0    0  501  0.00000000000E+00  0.00000000000E+00 -0.17035707002E+03  0.17035707004E+03  0.25500000920E-02 0.  1.
    10030    2    1    2    0    0  0.00000000000E+00  0.00000000000E+00  0.10528794226E+04  0.13935935627E+04  0.91298846618E+03 0.  0.
        3    1    3    3  502    0 -0.12566741903E+03  0.30551482082E+03  0.10073320342E+04  0.10601176554E+04  0.10100000352E+00 0. -1.
       -3    1    3    3    0  502  0.12566741903E+03 -0.30551482082E+03  0.45547388412E+02  0.33347590728E+03  0.10100000352E+00 0.  1.
</event>
<event>
 5   0  0.2705111E-02  0.8936027E+03  0.7818609E-02  0.9433614E-01
       -2   -1    0    0    0  501  0.00000000000E+00  0.00000000000E+00  0.18391780520E+03  0.18391780522E+03  0.25500000920E-02 0. -1.
        2   -1    0    0  501    0  0.00000000000E+00  0.00000000000E+00 -0.10854384797E+04  0.10854384797E+04  0.25500000920E-02 0.  1.
    10030    2    1    2    0    0  0.00000000000E+00  0.00000000000E+00 -0.90152067446E+03  0.12693562849E+04  0.89360273695E+03 0.  0.
        4    1    3    3  502    0 -0.57166793838E+02 -0.19397563332E+03  0.11518665091E+03  0.23273196190E+03  0.12699999809E+01 0. -1.
       -4    1    3    3    0  502  0.57166793838E+02  0.19397563332E+03 -0.10167073254E+04  0.10366243230E+04  0.12699999809E+01 0.  1.
</event>
<event>
 5   0  0.2679861E-02  0.8988950E+03  0.7818609E-02  0.9426964E-01
        2   -1    0    0  501    0  0.00000000000E+00  0.00000000000E+00  0.45319316461E+03  0.45319316462E+03  0.25500000920E-02 0. -1.
       -2   -1    0    0    0  501  0.00000000000E+00  0.00000000000E+00 -0.44573278053E+03  0.44573278053E+03  0.25500000920E-02 0.  1.
    10030    2    1    2    0    0  0.00000000000E+00  0.00000000000E+00  0.74603840870E+01  0.89892594515E+03  0.89889498694E+03 0.  0.
        1    1    3    3  502    0  0.11415737315E+03  0.14957697205E+03  0.41190827635E+03  0.45285053225E+03  0.50400001928E-02 0. -1.
       -1    1    3    3    0  502 -0.11415737315E+03 -0.14957697205E+03 -0.40444789226E+03  0.44607541290E+03  0.50400001928E-02 0.  1.
</event>
<event>
 5   0  0.1560728E-02  0.8849940E+03  0.7818609E-02  0.9444537E-01
       -1   -1    0    0    0  501  0.00000000000E+00  0.00000000000E+00  0.12736595292E+03  0.12736595302E+03  0.50400001928E-02 0. -1.
        1   -1    0    0  501    0  0.00000000000E+00  0.00000000000E+00 -0.15373307604E+04  0.15373307604E+04  0.50400001928E-02 0.  1.
    10030    2    1    2    0    0  0.00000000000E+00  0.00000000000E+00 -0.14099648074E+04  0.16646967134E+04  0.88499400526E+03 0.  0.
        4    1    3    3  502    0  0.12394328674E+03 -0.42318831938E+03 -0.77413902026E+03  0.89092262716E+03  0.12699999809E+01 0. -1.
       -4    1    3    3    0  502 -0.12394328674E+03  0.42318831938E+03 -0.63582578717E+03  0.77377408623E+03  0.12699999809E+01 0.  1.
</event>
<event>
 5   0  0.2414128E-02  0.8393298E+03  0.7818609E-02  0.9504771E-01
        2   -1    0    0  501    0  0.00000000000E+00  0.00000000000E+00  0.12747802073E+04  0.12747802073E+04  0.25500000920E-02 0. -1.
       -2   -1    0    0    0  501  0.00000000000E+00  0.00000000000E+00 -0.13815605754E+03  0.13815605757E+03  0.25500000920E-02 0.  1.
    10030    2    1    2    0    0  0.00000000000E+00  0.00000000000E+00  0.11366241498E+04  0.14129362649E+04  0.83932975093E+03 0.  0.
        3    1    3    3  502    0 -0.10630239269E+03  0.36261017774E+03  0.26096978641E+03  0.45922933193E+03  0.10100000352E+00 0.  1.
       -3    1    3    3    0  502  0.10630239269E+03 -0.36261017774E+03  0.87565436338E+03  0.95370693297E+03  0.10100000352E+00 0. -1.
</event>
<event>
 5   0  0.2803717E-02  0.9042984E+03  0.7818609E-02  0.9420224E-01
        2   -1    0    0  501    0  0.00000000000E+00  0.00000000000E+00  0.17975097106E+03  0.17975097108E+03  0.25500000920E-02 0.  1.
       -2   -1    0    0    0  501  0.00000000000E+00  0.00000000000E+00 -0.11373452460E+04  0.11373452460E+04  0.25500000920E-02 0. -1.
    10030    2    1    2    0    0  0.00000000000E+00  0.00000000000E+00 -0.95759427495E+03  0.13170962171E+04  0.90429842955E+03 0.  0.
        5    1    3    3  502    0 -0.35522591412E+03  0.26323386720E+03 -0.61650462905E+03  0.75866828492E+03  0.46999998093E+01 0. -1.
       -5    1    3    3    0  502  0.35522591412E+03 -0.26323386720E+03 -0.34108964590E+03  0.55842793218E+03  0.46999998093E+01 0.  1.
</event>
<event>
 5   0  0.1559275E-02  0.9205558E+03  0.7818609E-02  0.9400244E-01
       -1   -1    0    0    0  501  0.00000000000E+00  0.00000000000E+00  0.38622235945E+03  0.38622235948E+03  0.50400001928E-02 0. -1.
        1   -1    0    0  501    0  0.00000000000E+00  0.00000000000E+00 -0.54853311883E+03  0.54853311885E+03  0.50400001928E-02 0.  1.
    10030    2    1    2    0    0  0.00000000000E+00  0.00000000000E+00 -0.16231075938E+03  0.93475547833E+03  0.92055582213E+03 0.  0.
        1    1    3    3  502    0 -0.64027313619E+01  0.25487784365E+03  0.30796850573E+03  0.39981034341E+03  0.50400001928E-02 0. -1.
       -1    1    3    3    0  502  0.64027313619E+01 -0.25487784365E+03 -0.47027926511E+03  0.53494513492E+03  0.50400001928E-02 0.  1.
</event>
<event>
 5   0  0.1040163E-02  0.1092972E+04  0.7818609E-02  0.9212069E-01
        3   -1    0    0  501    0  0.00000000000E+00  0.00000000000E+00  0.13424112685E+04  0.13424112723E+04  0.10100000352E+00 0.  1.
       -3   -1    0    0    0  501  0.00000000000E+00  0.00000000000E+00 -0.22247033208E+03  0.22247035501E+03  0.10100000352E+00 0. -1.
    10030    2    1    2    0    0  0.00000000000E+00  0.00000000000E+00  0.11199409364E+04  0.15648816273E+04  0.10929715488E+04 0.  0.
        2    1    3    3  502    0  0.39419075167E+03 -0.51779490186E+02  0.10967960780E+04  0.11666315190E+04  0.25500000920E-02 0.  1.
       -2    1    3    3    0  502 -0.39419075167E+03  0.51779490186E+02  0.23144858407E+02  0.39825010833E+03  0.25500000920E-02 0. -1.
</event>
<event>
 5   0  0.1560728E-02  0.9371860E+03  0.7818609E-02  0.9380255E-01
        1   -1    0    0  501    0  0.00000000000E+00  0.00000000000E+00  0.18598094424E+04  0.18598094424E+04  0.50400001928E-02 0.  1.
       -1   -1    0    0    0  501  0.00000000000E+00  0.00000000000E+00 -0.11806554616E+03  0.11806554627E+03  0.50400001928E-02 0. -1.
    10030    2    1    2    0    0  0.00000000000E+00  0.00000000000E+00  0.17417438962E+04  0.19778749887E+04  0.93718603850E+03 0.  0.
        4    1    3    3  502    0 -0.41110919683E+03 -0.21553628827E+03  0.10061895342E+04  0.11081000202E+04  0.12699999809E+01 0. -1.
       -4    1    3    3    0  502  0.41110919683E+03  0.21553628827E+03  0.73555436210E+03  0.86977496847E+03  0.12699999809E+01 0.  1.
</event>
<event>
 5   0  0.2705111E-02  0.8987569E+03  0.7818609E-02  0.9427137E-01
       -2   -1    0    0    0  501  0.00000000000E+00  0.00000000000E+00  0.13617676066E+03  0.13617676068E+03  0.25500000920E-02 0. -1.
        2   -1    0    0  501    0  0.00000000000E+00  0.00000000000E+00 -0.14829329343E+04  0.14829329343E+04  0.25500000920E-02 0.  1.
    10030    2    1    2    0    0  0.00000000000E+00  0.00000000000E+00 -0.13467561736E+04  0.16191096950E+04  0.89875692662E+03 0.  0.
        4    1    3    3  502    0  0.34963653440E+03 -0.17327580982E+03 -0.27188552034E+03  0.47559810926E+03  0.12699999809E+01 0. -1.
       -4    1    3    3    0  502 -0.34963653440E+03  0.17327580982E+03 -0.10748706533E+04  0.11435115857E+04  0.12699999809E+01 0.  1.
</event>
<event>
 5   0  0.1497410E-02  0.9703377E+03  0.7818609E-02  0.9341690E-01
        1   -1    0    0  501    0  0.00000000000E+00  0.00000000000E+00  0.34484974273E+03  0.34484974277E+03  0.50400001928E-02 0. -1.
       -1   -1    0    0    0  501  0.00000000000E+00  0.00000000000E+00 -0.68258375712E+03  0.68258375714E+03  0.50400001928E-02 0.  1.
    10030    2    1    2    0    0  0.00000000000E+00  0.00000000000E+00 -0.33773401439E+03  0.10274334999E+04  0.97033774133E+03 0.  0.
        3    1    3    3  502    0  0.47660646669E+03 -0.14964519933E+02 -0.74095332901E+02  0.48256376729E+03  0.10100000352E+00 0.  1.
       -3    1    3    3    0  502 -0.47660646669E+03  0.14964519933E+02 -0.26363868149E+03  0.54486973262E+03  0.10100000352E+00 0. -1.
</event>
<event>
 5   0  0.2803717E-02  0.8910063E+03  0.7818609E-02  0.9436894E-01
        2   -1    0    0  501    0  0.00000000000E+00  0.00000000000E+00  0.12419153150E+04  0.12419153150E+04  0.25500000920E-02 0.  1.
       -2   -1    0    0    0  501  0.00000000000E+00  0.00000000000E+00 -0.15981207197E+03  0.15981207199E+03  0.25500000920E-02 0. -1.
    10030    2    1    2    0    0  0.00000000000E+00  0.00000000000E+00  0.10821032430E+04  0.14017273870E+04  0.89100630688E+03 0.  0.
        5    1    3    3  502    0 -0.24747106542E+03  0.15229981696E+03  0.98474159694E+01  0.29078552933E+03  0.46999998093E+01 0. -1.
       -5    1    3    3    0  502  0.24747106542E+03 -0.15229981696E+03  0.10722558271E+04  0.11109418577E+04  0.46999998093E+01 0.  1.
</event>
<event>
 5   0  0.2628383E-02  0.8830165E+03  0.7818609E-02  0.9447064E-01
        2   -1    0    0  501    0  0.00000000000E+00  0.00000000000E+00  0.35515096451E+03  0.35515096452E+03  0.25500000920E-02 0. -1.
       -2   -1    0    0    0  501  0.00000000000E+00  0.00000000000E+00 -0.54886387142E+03  0.54886387143E+03  0.25500000920E-02 0.  1.
    10030    2    1    2    0    0  0.00000000000E+00  0.00000000000E+00 -0.19371290691E+03  0.90401483595E+03  0.88301649663E+03 0.  0.
        2    1    3    3  502    0 -0.19346990038E+03  0.52145637064E+02 -0.49963268106E+03  0.53831457885E+03  0.25500000920E-02 0.  1.
       -2    1    3    3    0  502  0.19346990038E+03 -0.52145637064E+02  0.30591977415E+03  0.36570025710E+03  0.25500000920E-02 0. -1.
</event>
<event>
 5   0  0.2803717E-02  0.9079502E+03  0.7818609E-02  0.9415697E-01
        2   -1    0    0  501    0  0.00000000000E+00  0.00000000000E+00  0.28682703215E+03  0.28682703216E+03  0.25500000920E-02 0.  1.
       -2   -1    0    0    0  501  0.00000000000E+00  0.00000000000E+00 -0.71852851901E+03  0.71852851902E+03  0.25500000920E-02 0. -1.
    10030    2    1    2    0    0  0.00000000000E+00  0.00000000000E+00 -0.43170148686E+03  0.10053555512E+04  0.90795022469E+03 0.  0.
        5    1    3    3  502    0 -0.22713254238E+03  0.23510442171E+03 -0.56461426683E+03  0.65243746154E+03  0.46999998093E+01 0. -1.
       -5    1    3    3    0  502  0.22713254238E+03 -0.23510442171E+03  0.13291277997E+03  0.35291808963E+03  0.46999998093E+01 0.  1.
</event>
<event>
 5   0  0.1497410E-02  0.8846814E+03  0.7818609E-02  0.9444936E-01
       -1   -1    0    0    0  501  0.00000000000E+00  0.00000000000E+00  0.42889044547E+03  0.42889044550E+03  0.50400001928E-02 0.  1.
        1   -1    0    0  501    0  0.00000000000E+00  0.00000000000E+00 -0.45621280351E+03  0.45621280354E+03  0.50400001928E-02 0. -1.
    10030    2    1    2    0    0  0.00000000000E+00  0.00000000000E+00 -0.27322358045E+02  0.88510324903E+03  0.88468143996E+03 0.  0.
        3    1    3    3  502    0  0.10993230162E+03  0.34009109296E+03  0.24707435958E+03  0.43450294799E+03  0.10100000352E+00 0.  1.
       -3    1    3    3    0  502 -0.10993230162E+03 -0.34009109296E+03 -0.27439671763E+03  0.45060030104E+03  0.10100000352E+00 0. -1.
</event>
<event>
 5   0  0.1459111E-02  0.9607142E+03  0.7818609E-02  0.9352714E-01
        1   -1    0    0  501    0  0.00000000000E+00  0.00000000000E+00  0.11501065315E+04  0.11501065316E+04  0.50400001928E-02 0. -1.
       -1   -1    0    0    0  501  0.00000000000E+00  0.00000000000E+00 -0.20062743868E+03  0.20062743874E+03  0.50400001928E-02 0.  1.
    10030    2    1    2    0    0  0.00000000000E+00  0.00000000000E+00  0.94947909286E+03  0.13507339703E+04  0.96071416702E+03 0.  0.
        2    1    3    3  502    0  0.33660640321E+03 -0.22833847444E+03  0.11545858290E+03  0.42281557914E+03  0.25500000920E-02 0.  1.
       -2    1    3    3    0  502 -0.33660640321E+03  0.22833847444E+03  0.83402050997E+03  0.92791839116E+03  0.25500000920E-02 0. -1.
</event>
<event>
 5   0  0.2414128E-02  0.9043183E+03  0.7818609E-02  0.9420199E-01
       -2   -1    0    0    0  501  0.00000000000E+00  0.00000000000E+00  0.28499281123E+03  0.28499281125E+03  0.25500000920E-02 0. -1.
        2   -1    0    0  501    0  0.00000000000E+00  0.00000000000E+00 -0.71737920440E+03  0.71737920441E+03  0.25500000920E-02 0.  1.
    10030    2    1    2    0    0  0.00000000000E+00  0.00000000000E+00 -0.43238639317E+03  0.10023720157E+04  0.90431834260E+03 0.  0.
        3    1    3    3  502    0  0.31219348540E+03  0.61937192648E+02 -0.57218149381E+03  0.65474625636E+03  0.10100000352E+00 0.  1.
       -3    1    3    3    0  502 -0.31219348540E+03 -0.61937192648E+02  0.13979510064E+03  0.34762575929E+03  0.10100000352E+00 0. -1.
</event>
<event>
 5   0  0.1459111E-02  0.8992396E+03  0.7818609E-02  0.9426532E-01
        1   -1    0    0  501    0  0.00000000000E+00  0.00000000000E+00  0.38068613899E+03  0.38068613902E+03  0.50400001928E-02 0. -1.
       -1   -1    0    0    0  501  0.00000000000E+00  0.00000000000E+00 -0.53103582114E+03  0.53103582116E+03  0.50400001928E-02 0.  1.
    10030    2    1    2    0    0  0.00000000000E+00  0.00000000000E+00 -0.15034968215E+03  0.91172196018E+03  0.89923962644E+03 0.  0.
        2    1    3    3  502    0  0.24577053624E+03 -0.18864558793E+03  0.25518184889E+03  0.40138272301E+03  0.25500000920E-02 0. -1.
       -2    1    3    3    0  502 -0.24577053624E+03  0.18864558793E+03 -0.40553153103E+03  0.51033923717E+03  0.25500000920E-02 0.  1.
</event>
<event>
 5   0  0.2705111E-02  0.8727393E+03  0.7818609E-02  0.9460315E-01
        2   -1    0    0  501    0  0.00000000000E+00  0.00000000000E+00  0.18019012243E+03  0.18019012245E+03  0.25500000920E-02 0. -1.
       -2   -1    0    0    0  501  0.00000000000E+00  0.00000000000E+00 -0.10567642991E+04  0.10567642991E+04  0.25500000920E-02 0.  1.
    10030    2    1    2    0    0  0.00000000000E+00  0.00000000000E+00 -0.87657417668E+03  0.12369544216E+04  0.87273933897E+03 0.  0.
        4    1    3    3  502    0 -0.99822916786E+02  0.15888731929E+03 -0.99666073131E+03  0.10141715936E+04  0.12699999809E+01 0.  1.
       -4    1    3    3    0  502  0.99822916786E+02 -0.15888731929E+03  0.12008655463E+03  0.22278282800E+03  0.12699999809E+01 0. -1.
</event>
<event>
 5   0  0.1560728E-02  0.9082002E+03  0.7818609E-02  0.9415388E-01
        1   -1    0    0  501    0  0.00000000000E+00  0.00000000000E+00  0.55104377254E+03  0.55104377257E+03  0.50400001928E-02 0. -1.
       -1   -1    0    0    0  501  0.00000000000E+00  0.00000000000E+00 -0.37421148259E+03  0.37421148263E+03  0.50400001928E-02 0.  1.
    10030    2    1    2    0    0  0.00000000000E+00  0.00000000000E+00  0.17683228995E+03  0.92525525519E+03  0.90820021388E+03 0.  0.
        4    1    3    3  502    0 -0.19775997112E+03 -0.39283677037E+03  0.20356773304E+03  0.48463508867E+03  0.12699999809E+01 0. -1.
       -4    1    3    3    0  502  0.19775997112E+03  0.39283677037E+03 -0.26735443087E+02  0.44062016653E+03  0.12699999809E+01 0.  1.
</event>
<event>
 5   0  0.1559275E-02  0.8725955E+03  0.7818609E-02  0.9460502E-01
        1   -1    0    0  501    0  0.00000000000E+00  0.00000000000E+00  0.43345876757E+03  0.43345876760E+03  0.50400001928E-02 0. -1.
       -1   -1    0    0    0  501  0.00000000000E+00  0.00000000000E+00 -0.43915535740E+03  0.43915535743E+03  0.50400001928E-02 0.  1.
    10030    2    1    2    0    0  0.00000000000E+00  0.00000000000E+00 -0.56965898314E+01  0.87261412504E+03  0.87259553063E+03 0.  0.
        1    1    3    3  502    0  0.28047224206E+03 -0.29504767475E+02 -0.33575256523E+03  0.43848032447E+03  0.50400001928E-02 0.  1.
       -1    1    3    3    0  502 -0.28047224206E+03  0.29504767475E+02  0.33005597539E+03  0.43413380056E+03  0.50400001928E-02 0. -1.
</event>
<event>
 5   0  0.1497410E-02  0.8945830E+03  0.7818609E-02  0.9432378E-01
        1   -1    0    0  501    0  0.00000000000E+00  0.00000000000E+00  0.77280530039E+03  0.77280530041E+03  0.50400001928E-02 0.  1.
       -1   -1    0    0    0  501  0.00000000000E+00  0.00000000000E+00 -0.25888755052E+03  0.25888755057E+03  0.50400001928E-02 0. -1.
    10030    2    1    2    0    0  0.00000000000E+00  0.00000000000E+00  0.51391774987E+03  0.10316928510E+04  0.89458296716E+03 0.  0.
        3    1    3    3  502    0 -0.19958653418E+03 -0.19103436904E+02  0.71807806423E+03  0.74554399096E+03  0.10100000352E+00 0.  1.
       -3    1    3    3    0  502  0.19958653418E+03  0.19103436904E+02 -0.20416031436E+03  0.28614886002E+03  0.10100000352E+00 0. -1.
</event>
<event>
 5   0  0.1559275E-02  0.8824257E+03  0.7818609E-02  0.9447821E-01
        1   -1    0    0  501    0  0.00000000000E+00  0.00000000000E+00  0.66637408769E+03  0.66637408771E+03  0.50400001928E-02 0.  1.
       -1   -1    0    0    0  501  0.00000000000E+00  0.00000000000E+00 -0.29213135489E+03  0.29213135493E+03  0.50400001928E-02 0. -1.
    10030    2    1    2    0    0  0.00000000000E+00  0.00000000000E+00  0.37424273280E+03  0.95850544265E+03  0.88242566856E+03 0.  0.
        1    1    3    3  502    0 -0.31570685446E+03 -0.18183567766E+03 -0.83199817652E+02  0.37370742742E+03  0.50400001928E-02 0. -1.
       -1    1    3    3    0  502  0.31570685446E+03  0.18183567766E+03  0.45744255045E+03  0.58479801523E+03  0.50400001928E-02 0.  1.
</event>
<event>
 5   0  0.2628383E-02  0.9469461E+03  0.7818609E-02  0.9368727E-01
       -2   -1    0    0    0  501  0.00000000000E+00  0.00000000000E+00  0.11047150999E+03  0.11047151002E+03  0.25500000920E-02 0. -1.
        2   -1    0    0  501    0  0.00000000000E+00  0.00000000000E+00 -0.20292719771E+04  0.20292719771E+04  0.25500000920E-02 0.  1.
    10030    2    1    2    0    0  0.00000000000E+00  0.00000000000E+00 -0.19188004671E+04  0.21397434871E+04  0.94694612209E+03 0.  0.
        2    1    3    3  502    0  0.41123180655E+03 -0.23388040952E+03 -0.91622454232E+03  0.10311542351E+04  0.25500000920E-02 0.  1.
       -2    1    3    3    0  502 -0.41123180655E+03  0.23388040952E+03 -0.10025759248E+04  0.11085892520E+04  0.25500000920E-02 0. -1.
</event>
<event>
 5   0  0.1560728E-02  0.8521938E+03  0.7818609E-02  0.9487397E-01
       -1   -1    0    0    0  501  0.00000000000E+00  0.00000000000E+00  0.27844621876E+03  0.27844621881E+03  0.50400001928E-02 0. -1.
        1   -1    0    0  501    0  0.00000000000E+00  0.00000000000E+00 -0.65204183868E+03  0.65204183870E+03  0.50400001928E-02 0.  1.
    10030    2    1    2    0    0  0.00000000000E+00  0.00000000000E+00 -0.37359561991E+03  0.93048805751E+03  0.85219383825E+03 0.  0.
        4    1    3    3  502    0 -0.67706288892E+02 -0.13504861574E+03  0.24822131800E+03  0.29058166800E+03  0.12699999809E+01 0. -1.
       -4    1    3    3    0  502  0.67706288892E+02  0.13504861574E+03 -0.62181693791E+03  0.63990638951E+03  0.12699999809E+01 0.  1.
</event>
<event>
 5   0  0.2414128E-02  0.8799499E+03  0.7818609E-02  0.9450998E-01
       -2   -1    0    0    0  501  0.00000000000E+00  0.00000000000E+00  0.75221440262E+02  0.75221440305E+02  0.25500000920E-02 0.  1.
        2   -1    0    0  501    0  0.00000000000E+00  0.00000000000E+00 -0.25734409798E+04  0.25734409798E+04  0.25500000920E-02 0. -1.
    10030    2    1    2    0    0  0.00000000000E+00  0.00000000000E+00 -0.24982195396E+04  0.26486624201E+04  0.87994985537E+03 0.  0.
        3    1    3    3  502    0 -0.25585888840E+03 -0.49353230929E+01 -0.17183631901E+03  0.30824642564E+03  0.10100000352E+00 0.  1.
       -3    1    3    3    0  502  0.25585888840E+03  0.49353230929E+01 -0.23263832205E+04  0.23404159945E+04  0.10100000352E+00 0. -1.
</event>
<event>
 5   0  0.1040163E-02  0.8882495E+03  0.7818609E-02  0.9440390E-01
       -3   -1    0    0    0  501  0.00000000000E+00  0.00000000000E+00  0.38500050059E+03  0.38500051384E+03  0.10100000352E+00 0.  1.
        3   -1    0    0  501    0  0.00000000000E+00  0.00000000000E+00 -0.51232869047E+03  0.51232870043E+03  0.10100000352E+00 0. -1.
    10030    2    1    2    0    0  0.00000000000E+00  0.00000000000E+00 -0.12732818988E+03  0.89732921427E+03  0.88824954311E+03 0.  0.
        2    1    3    3  502    0  0.35544758910E+03 -0.15453420075E+03  0.15540040457E+03  0.41758004447E+03  0.25500000920E-02 0.  1.
       -2    1    3    3    0  502 -0.35544758910E+03  0.15453420075E+03 -0.28272859444E+03  0.47974916980E+03  0.25500000920E-02 0. -1.
</event>
<event>
 5   0  0.2705111E-02  0.8580865E+03  0.7818609E-02  0.9479547E-01
       -2   -1    0    0    0  501  0.00000000000E+00  0.00000000000E+00  0.36499018352E+03  0.36499018353E+03  0.25500000920E-02 0. -1.
        2   -1    0    0  501    0  0.00000000000E+00  0.00000000000E+00 -0.50433711457E+03  0.50433711457E+03  0.25500000920E-02 0.  1.
    10030    2    1    2    0    0  0.00000000000E+00  0.00000000000E+00 -0.13934693105E+03  0.86932729810E+03  0.85808646652E+03 0.  0.
        4    1    3    3  502    0  0.37665807727E+03  0.19310069285E+03  0.13685942408E+01  0.42327611639E+03  0.12699999809E+01 0. -1.
       -4    1    3    3    0  502 -0.37665807727E+03 -0.19310069285E+03 -0.14071552529E+03  0.44605118172E+03  0.12699999809E+01 0.  1.
</event>
<event>
 5   0  0.1559275E-02  0.9362286E+03  0.7818609E-02  0.9381394E-01
       -1   -1    0    0    0  501  0.00000000000E+00  0.00000000000E+00  0.15418884329E+03  0.15418884337E+03  0.50400001928E-02 0.  1.
        1   -1    0    0  501    0  0.00000000000E+00  0.00000000000E+00 -0.14211857644E+04  0.14211857644E+04  0.50400001928E-02 0. -1.
    10030    2    1    2    0    0  0.00000000000E+00  0.00000000000E+00 -0.12669969211E+04  0.15753746077E+04  0.93622858145E+03 0.  0.
        1    1    3    3  502    0  0.16017393430E+03 -0.34292540590E+03 -0.10970076566E+04  0.11604651317E+04  0.50400001928E-02 0. -1.
       -1    1    3    3    0  502 -0.16017393430E+03  0.34292540590E+03 -0.16998926447E+03  0.41490947604E+03  0.50400001928E-02 0.  1.
</event>
<event>
 5   0  0.2803717E-02  0.8927300E+03  0.7818609E-02  0.9434715E-01
        2   -1    0    0  501    0  0.00000000000E+00  0.00000000000E+00  0.20886549919E+03  0.20886549921E+03  0.25500000920E-02 0. -1.
       -2   -1    0    0    0  501  0.00000000000E+00  0.00000000000E+00 -0.95392359096E+03  0.95392359097E+03  0.25500000920E-02 0.  1.
    10030    2    1    2    0    0  0.00000000000E+00  0.00000000000E+00 -0.74505809177E+03  0.11627890902E+04  0.89273003092E+03 0.  0.
        5    1    3    3  502    0  0.29741914979E+03 -0.80707287017E+02 -0.79307580963E+03  0.85086023920E+03  0.46999998093E+01 0.  1.
       -5    1    3    3    0  502 -0.29741914979E+03  0.80707287017E+02  0.48017717855E+02  0.31192885097E+03  0.46999998093E+01 0. -1.
</event>
<event>
 5   0  0.1537870E-02  0.9032545E+03  0.7818609E-02  0.9421522E-01
       -1   -1    0    0    0  501  0.00000000000E+00  0.00000000000E+00  0.81874333403E+03  0.81874333404E+03  0.50400001928E-02 0. -1.
        1   -1    0    0  501    0  0.00000000000E+00  0.00000000000E+00 -0.24912222081E+03  0.24912222086E+03  0.50400001928E-02 0.  1.
    10030    2    1    2    0    0  0.00000000000E+00  0.00000000000E+00  0.56962111322E+03  0.10678655549E+04  0.90325446621E+03 0.  0.
        5    1    3    3  502    0 -0.19683209241E+03  0.18397868637E+03  0.71328820777E+03  0.76249143404E+03  0.46999998093E+01 0. -1.
       -5    1    3    3    0  502  0.19683209241E+03 -0.18397868637E+03 -0.14366709455E+03  0.30537412087E+03  0.46999998093E+01 0.  1.
</event>
<event>
 5   0  0.2679861E-02  0.8850211E+03  0.7818609E-02  0.9444502E-01
        2   -1    0    0  501    0  0.00000000000E+00  0.00000000000E+00  0.38363356084E+03  0.38363356085E+03  0.25500000920E-02 0.  1.
       -2   -1    0    0    0  501  0.00000000000E+00  0.00000000000E+00 -0.51042354810E+03  0.51042354810E+03  0.25500000920E-02 0. -1.
    10030    2    1    2    0    0  0.00000000000E+00  0.00000000000E+00 -0.12678998725E+03  0.89405710896E+03  0.88502113715E+03 0.  0.
        1    1    3    3  502    0 -0.30468063223E+03 -0.29037782775E+03 -0.20141359737E+03  0.46660155136E+03  0.50400001928E-02 0. -1.
       -1    1    3    3    0  502  0.30468063223E+03  0.29037782775E+03  0.74623610120E+02  0.42745555759E+03  0.50400001928E-02 0.  1.
</event>
<event>
 5   0  0.2414128E-02  0.8829933E+03  0.7818609E-02  0.9447094E-01
       -2   -1    0    0    0  501  0.00000000000E+00  0.00000000000E+00  0.15177452902E+03  0.15177452904E+03  0.25500000920E-02 0. -1.
        2   -1    0    0  501    0  0.00000000000E+00  0.00000000000E+00 -0.12842689145E+04  0.12842689145E+04  0.25500000920E-02 0.  1.
    10030    2    1    2    0    0  0.00000000000E+00  0.00000000000E+00 -0.11324943855E+04  0.14360434436E+04  0.88299334007E+03 0.  0.
        3    1    3    3  502    0 -0.29223444097E+03  0.31044862338E+03 -0.75267365391E+03  0.86504159191E+03  0.10100000352E+00 0.  1.
       -3    1    3    3    0  502  0.29223444097E+03 -0.31044862338E+03 -0.37982073160E+03  0.57100185166E+03  0.10100000352E+00 0. -1.
</event>
<event>
 5   0  0.1560728E-02  0.7655015E+03  0.7818609E-02  0.9611340E-01
        1   -1    0    0  501    0  0.00000000000E+00  0.00000000000E+00  0.17712138178E+03  0.17712138185E+03  0.50400001928E-02 0. -1.
       -1   -1    0    0    0  501  0.00000000000E+00  0.00000000000E+00 -0.82710593549E+03  0.82710593550E+03  0.50400001928E-02 0.  1.
    10030    2    1    2    0    0  0.00000000000E+00  0.00000000000E+00 -0.64998455371E+03  0.10042273174E+04  0.76550152506E+03 0.  0.
        4    1    3    3  502    0  0.18582583914E+03 -0.25766767926E+02 -0.76265163095E+03  0.78538798813E+03  0.12699999809E+01 0.  1.
       -4    1    3    3    0  502 -0.18582583914E+03  0.25766767926E+02  0.11266707724E+03  0.21883932922E+03  0.12699999809E+01 0. -1.
</event>
<event>
 5   0  0.1040163E-02  0.9011194E+03  0.7818609E-02  0.9424183E-01
       -4   -1    0    0    0  501  0.00000000000E+00  0.00000000000E+00  0.12669710740E+04  0.12669717105E+04  0.12699999809E+01 0.  1.
        4   -1    0    0  501    0  0.00000000000E+00  0.00000000000E+00 -0.16022465126E+03  0.16022968442E+03  0.12699999809E+01 0. -1.
    10030    2    1    2    0    0  0.00000000000E+00  0.00000000000E+00  0.11067464228E+04  0.14272013950E+04  0.90111940246E+03 0.  0.
        3    1    3    3  502    0  0.26419493879E+03  0.35570812624E+03  0.68278892768E+03  0.81395820944E+03  0.10100000352E+00 0.  1.
       -3    1    3    3    0  502 -0.26419493879E+03 -0.35570812624E+03  0.42395749510E+03  0.61324318553E+03  0.10100000352E+00 0. -1.
</event>
<event>
 5   0  0.2679861E-02  0.8568441E+03  0.7818609E-02  0.9481197E-01
        2   -1    0    0  501    0  0.00000000000E+00  0.00000000000E+00  0.21162251611E+03  0.21162251612E+03  0.25500000920E-02 0.  1.
       -2   -1    0    0    0  501  0.00000000000E+00  0.00000000000E+00 -0.86732487151E+03  0.86732487151E+03  0.25500000920E-02 0. -1.
    10030    2    1    2    0    0  0.00000000000E+00  0.00000000000E+00 -0.65570235540E+03  0.10789473876E+04  0.85684414359E+03 0.  0.
        1    1    3    3  502    0 -0.31027311089E+03 -0.34538428373E+02  0.41600419752E+02  0.31494904560E+03  0.50400001928E-02 0.  1.
       -1    1    3    3    0  502  0.31027311089E+03  0.34538428373E+02 -0.69730277515E+03  0.76399834204E+03  0.50400001928E-02 0. -1.
</event>
<event>
 5   0  0.2414128E-02  0.8842425E+03  0.7818609E-02  0.9445496E-01
        2   -1    0    0  501    0  0.00000000000E+00  0.00000000000E+00  0.36379578463E+03  0.36379578464E+03  0.25500000920E-02 0. -1.
       -2   -1    0    0    0  501  0.00000000000E+00  0.00000000000E+00 -0.53731022013E+03  0.53731022014E+03  0.25500000920E-02 0.  1.
    10030    2    1    2    0    0  0.00000000000E+00  0.00000000000E+00 -0.17351443550E+03  0.90110600478E+03  0.88424248514E+03 0.  0.
        3    1    3    3  502    0 -0.28041962311E+03  0.24128135692E+03 -0.33348889538E+03  0.49806295964E+03  0.10100000352E+00 0.  1.
       -3    1    3    3    0  502  0.28041962311E+03 -0.24128135692E+03  0.15997445988E+03  0.40304304514E+03  0.10100000352E+00 0. -1.
</event>
<event>
 5   0  0.1537870E-02  0.8390349E+03  0.7818609E-02  0.9505173E-01
        1   -1    0    0  501    0  0.00000000000E+00  0.00000000000E+00  0.17429771919E+04  0.17429771919E+04  0.50400001928E-02 0. -1.
       -1   -1    0    0    0  501  0.00000000000E+00  0.00000000000E+00 -0.10097371481E+03  0.10097371494E+03  0.50400001928E-02 0.  1.
    10030    2    1    2    0    0  0.00000000000E+00  0.00000000000E+00  0.16420034771E+04  0.18439509068E+04  0.83903487894E+03 0.  0.
        5    1    3    3  502    0  0.13824872308E+03  0.36643901261E+03  0.49074197736E+03  0.62788536990E+03  0.46999998093E+01 0.  1.
       -5    1    3    3    0  502 -0.13824872308E+03 -0.36643901261E+03  0.11512614997E+04  0.12160655369E+04  0.46999998093E+01 0. -1.
</event>
<event>
 5   0  0.2414128E-02  0.8864666E+03  0.7818609E-02  0.9442659E-01
        2   -1    0    0  501    0  0.00000000000E+00  0.00000000000E+00  0.45519841176E+03  0.45519841177E+03  0.25500000920E-02 0.  1.
       -2   -1    0    0    0  501  0.00000000000E+00  0.00000000000E+00 -0.43158274286E+03  0.43158274287E+03  0.25500000920E-02 0. -1.
    10030    2    1    2    0    0  0.00000000000E+00  0.00000000000E+00  0.23615668902E+02  0.88678115464E+03  0.88646664709E+03 0.  0.
        3    1    3    3  502    0  0.40180250265E+03 -0.65926672345E+02 -0.16336623342E+03  0.43872555623E+03  0.10100000352E+00 0. -1.
       -3    1    3    3    0  502 -0.40180250265E+03  0.65926672345E+02  0.18698190233E+03  0.44805559841E+03  0.10100000352E+00 0.  1.
</event>
<event>
 5   0  0.1459111E-02  0.9175929E+03  0.7818609E-02  0.9403853E-01
        1   -1    0    0  501    0  0.00000000000E+00  0.00000000000E+00  0.52311474609E+03  0.52311474612E+03  0.50400001928E-02 0.  1.
       -1   -1    0    0    0  501  0.00000000000E+00  0.00000000000E+00 -0.40238625688E+03  0.40238625691E+03  0.50400001928E-02 0. -1.
    10030    2    1    2    0    0  0.00000000000E+00  0.00000000000E+00  0.12072848921E+03  0.92550100303E+03  0.91759290456E+03 0.  0.
        2    1    3    3  502    0 -0.33810416768E+03  0.24851379408E+03 -0.12676272491E+03  0.43834041849E+03  0.25500000920E-02 0. -1.
       -2    1    3    3    0  502  0.33810416768E+03 -0.24851379408E+03  0.24749121412E+03  0.48716058453E+03  0.25500000920E-02 0.  1.
</event>
<event>
 5   0  0.1560728E-02  0.8879732E+03  0.7818609E-02  0.9440742E-01
       -1   -1    0    0    0  501  0.00000000000E+00  0.00000000000E+00  0.22238373928E+03  0.22238373934E+03  0.50400001928E-02 0. -1.
        1   -1    0    0  501    0  0.00000000000E+00  0.00000000000E+00 -0.88641424152E+03  0.88641424154E+03  0.50400001928E-02 0.  1.
    10030    2    1    2    0    0  0.00000000000E+00  0.00000000000E+00 -0.66403050224E+03  0.11087979809E+04  0.88797322848E+03 0.  0.
        4    1    3    3  502    0  0.30182122810E+03  0.22362726356E+02  0.73617509902E+02  0.31147599574E+03  0.12699999809E+01 0. -1.
       -4    1    3    3    0  502 -0.30182122810E+03 -0.22362726356E+02 -0.73764801214E+03  0.79732198513E+03  0.12699999809E+01 0.  1.
</event>
<event>
 5   0  0.2414128E-02  0.7167647E+03  0.7818609E-02  0.9688984E-01
       -2   -1    0    0    0  501  0.00000000000E+00  0.00000000000E+00  0.36941772955E+03  0.36941772955E+03  0.25500000920E-02 0.  1.
        2   -1    0    0  501    0  0.00000000000E+00  0.00000000000E+00 -0.34767665607E+03  0.34767665608E+03  0.25500000920E-02 0. -1.
    10030    2    1    2    0    0  0.00000000000E+00  0.00000000000E+00  0.21741073477E+02  0.71709438563E+03  0.71676473381E+03 0.  0.
        3    1    3    3  502    0 -0.25966407934E+03 -0.11607332872E+03  0.22900626827E+03  0.36516069456E+03  0.10100000352E+00 0.  1.
       -3    1    3    3    0  502  0.25966407934E+03  0.11607332872E+03 -0.20726519480E+03  0.35193369108E+03  0.10100000352E+00 0. -1.
</event>
<event>
 5   0  0.1497410E-02  0.9278838E+03  0.7818609E-02  0.9391381E-01
       -1   -1    0    0    0  501  0.00000000000E+00  0.00000000000E+00  0.10201801774E+04  0.10201801774E+04  0.50400001928E-02 0. -1.
        1   -1    0    0  501    0  0.00000000000E+00  0.00000000000E+00 -0.21098438231E+03  0.21098438237E+03  0.50400001928E-02 0.  1.
    10030    2    1    2    0    0  0.00000000000E+00  0.00000000000E+00  0.80919579508E+03  0.12311645598E+04  0.92788379577E+03 0.  0.
        3    1    3    3  502    0  0.33513854808E+03  0.30600039268E+03  0.27672357956E+03  0.53153554577E+03  0.10100000352E+00 0.  1.
       -3    1    3    3    0  502 -0.33513854808E+03 -0.30600039268E+03  0.53247221553E+03  0.69962901401E+03  0.10100000352E+00 0. -1.
</event>
<event>
 5   0  0.1559275E-02  0.9033679E+03  0.7818609E-02  0.9421381E-01
       -1   -1    0    0    0  501  0.00000000000E+00  0.00000000000E+00  0.48168023270E+03  0.48168023273E+03  0.50400001928E-02 0.  1.
        1   -1    0    0  501    0  0.00000000000E+00  0.00000000000E+00 -0.42355567147E+03  0.42355567150E+03  0.50400001928E-02 0. -1.
    10030    2    1    2    0    0  0.00000000000E+00  0.00000000000E+00  0.58124561237E+02  0.90523590423E+03  0.90336790827E+03 0.  0.
        1    1    3    3  502    0  0.23935124650E+03  0.26695982403E+03  0.30433347802E+03  0.47029292225E+03  0.50400001928E-02 0.  1.
       -1    1    3    3    0  502 -0.23935124650E+03 -0.26695982403E+03 -0.24620891678E+03  0.43494298198E+03  0.50400001928E-02 0. -1.
</event>
<event>
 5   0  0.1560728E-02  0.9000308E+03  0.7818609E-02  0.9425543E-01
        1   -1    0    0  501    0  0.00000000000E+00  0.00000000000E+00  0.10324527060E+04  0.10324527060E+04  0.50400001928E-02 0.  1.
       -1   -1    0    0    0  501  0.00000000000E+00  0.00000000000E+00 -0.19614830274E+03  0.19614830281E+03  0.50400001928E-02 0. -1.
    10030    2    1    2    0    0  0.00000000000E+00  0.00000000000E+00  0.83630440323E+03  0.12286010088E+04  0.90003076833E+03 0.  0.
        4    1    3    3  502    0  0.21793148766E+03 -0.35120243710E+03  0.66109915993E+03  0.77967364794E+03  0.12699999809E+01 0.  1.
       -4    1    3    3    0  502 -0.21793148766E+03  0.35120243710E+03  0.17520524331E+03  0.44892736085E+03  0.12699999809E+01 0. -1.
</event>
<event>
 5   0  0.2628383E-02  0.9198554E+03  0.7818609E-02  0.9401096E-01
       -2   -1    0    0    0  501  0.00000000000E+00  0.00000000000E+00  0.34064513617E+03  0.34064513618E+03  0.25500000920E-02 0. -1.
        2   -1    0    0  501    0  0.00000000000E+00  0.00000000000E+00 -0.62097899887E+03  0.62097899888E+03  0.25500000920E-02 0.  1.
    10030    2    1    2    0    0  0.00000000000E+00  0.00000000000E+00 -0.28033386270E+03  0.96162413506E+03  0.91985537045E+03 0.  0.
        2    1    3    3  502    0 -0.20498280713E+03 -0.41086148152E+03 -0.11234321774E+03  0.47270086396E+03  0.25500000920E-02 0. -1.
       -2    1    3    3    0  502  0.20498280713E+03  0.41086148152E+03 -0.16799064497E+03  0.48892327109E+03  0.25500000920E-02 0.  1.
</event>
<event>
 5   0  0.2628383E-02  0.9863106E+03  0.7818609E-02  0.9323688E-01
       -2   -1    0    0    0  501  0.00000000000E+00  0.00000000000E+00  0.15244722823E+03  0.15244722825E+03  0.25500000920E-02 0.  1.
        2   -1    0    0  501    0  0.00000000000E+00  0.00000000000E+00 -0.15953203362E+04  0.15953203362E+04  0.25500000920E-02 0. -1.
    10030    2    1    2    0    0  0.00000000000E+00  0.00000000000E+00 -0.14428731080E+04  0.17477675645E+04  0.98631062735E+03 0.  0.
        2    1    3    3  502    0  0.34875032626E+03  0.10286466090E+03 -0.13107213671E+03  0.38650722317E+03  0.25500000920E-02 0.  1.
       -2    1    3    3    0  502 -0.34875032626E+03 -0.10286466090E+03 -0.13118009713E+04  0.13612603413E+04  0.25500000920E-02 0. -1.
</event>
<event>
 5   0  0.2628383E-02  0.9038514E+03  0.7818609E-02  0.9420780E-01
        2   -1    0    0  501    0  0.00000000000E+00  0.00000000000E+00  0.10206795080E+04  0.10206795080E+04  0.25500000920E-02 0.  1.
       -2   -1    0    0    0  501  0.00000000000E+00  0.00000000000E+00 -0.20009887156E+03  0.20009887157E+03  0.25500000920E-02 0. -1.
    10030    2    1    2    0    0  0.00000000000E+00  0.00000000000E+00  0.82058063646E+03  0.12207783796E+04  0.90385135456E+03 0.  0.
        2    1    3    3  502    0 -0.90497315343E+02 -0.24186330745E+03 -0.90630223078E+02  0.27368131269E+03  0.25500000920E-02 0. -1.
       -2    1    3    3    0  502  0.90497315343E+02  0.24186330745E+03  0.91121085954E+03  0.94709706690E+03  0.25500000920E-02 0.  1.
</event>
<event>
 5   0  0.1040163E-02  0.8498272E+03  0.7818609E-02  0.9490569E-01
        4   -1    0    0  501    0  0.00000000000E+00  0.00000000000E+00  0.54428177204E+03  0.54428325371E+03  0.12699999809E+01 0. -1.
       -4   -1    0    0    0  501  0.00000000000E+00  0.00000000000E+00 -0.33172130275E+03  0.33172373385E+03  0.12699999809E+01 0.  1.
    10030    2    1    2    0    0  0.00000000000E+00  0.00000000000E+00  0.21256046928E+03  0.87600698757E+03  0.84982721136E+03 0.  0.
        5    1    3    3  502    0 -0.30721204016E+02  0.38462761497E+03 -0.77096901128E+02  0.39350758155E+03  0.46999998093E+01 0.  1.
       -5    1    3    3    0  502  0.30721204016E+02 -0.38462761497E+03  0.28965737041E+03  0.48249940602E+03  0.46999998093E+01 0. -1.
</event>
<event>
 5   0  0.1560728E-02  0.9028417E+03  0.7818609E-02  0.9422036E-01
        1   -1    0    0  501    0  0.00000000000E+00  0.00000000000E+00  0.52625763972E+03  0.52625763974E+03  0.50400001928E-02 0.  1.
       -1   -1    0    0    0  501  0.00000000000E+00  0.00000000000E+00 -0.38722625578E+03  0.38722625581E+03  0.50400001928E-02 0. -1.
    10030    2    1    2    0    0  0.00000000000E+00  0.00000000000E+00  0.13903138394E+03  0.91348389555E+03  0.90284168142E+03 0.  0.
        4    1    3    3  502    0  0.58726000942E+02  0.29537305655E+03 -0.27072960826E+03  0.40495693525E+03  0.12699999809E+01 0. -1.
       -4    1    3    3    0  502 -0.58726000942E+02 -0.29537305655E+03  0.40976099220E+03  0.50852696030E+03  0.12699999809E+01 0.  1.
</event>
<event>
 5   0  0.1497410E-02  0.8220740E+03  0.7818609E-02  0.9528604E-01
        1   -1    0    0  501    0  0.00000000000E+00  0.00000000000E+00  0.87383172991E+03  0.87383172993E+03  0.50400001928E-02 0. -1.
       -1   -1    0    0    0  501  0.00000000000E+00  0.00000000000E+00 -0.19334548242E+03  0.19334548248E+03  0.50400001928E-02 0.  1.
    10030    2    1    2    0    0  0.00000000000E+00  0.00000000000E+00  0.68048624750E+03  0.10671772124E+04  0.82207400498E+03 0.  0.
        3    1    3    3  502    0 -0.20634981321E+03  0.35548523576E+03  0.34178402551E+03  0.53457116322E+03  0.10100000352E+00 0.  1.
       -3    1    3    3    0  502  0.20634981321E+03 -0.35548523576E+03  0.33870222199E+03  0.53260604919E+03  0.10100000352E+00 0. -1.
</event>
<event>
 5   0  0.2803717E-02  0.9117491E+03  0.7818609E-02  0.9411013E-01
       -2   -1    0    0    0  501  0.00000000000E+00  0.00000000000E+00  0.10985796135E+03  0.10985796138E+03  0.25500000920E-02 0.  1.
        2   -1    0    0  501    0  0.00000000000E+00  0.00000000000E+00 -0.18917299750E+04  0.18917299750E+04  0.25500000920E-02 0. -1.
    10030    2    1    2    0    0  0.00000000000E+00  0.00000000000E+00 -0.17818720136E+04  0.20015879364E+04  0.91174908502E+03 0.  0.
        5    1    3    3  502    0 -0.42226976998E+03 -0.16681808901E+03 -0.98036630980E+03  0.10804074347E+04  0.46999998093E+01 0.  1.
       -5    1    3    3    0  502  0.42226976998E+03  0.16681808901E+03 -0.80150570385E+03  0.92118050173E+03  0.46999998093E+01 0. -1.
</event>
<event>
 5   0  0.1459111E-02  0.9184710E+03  0.7818609E-02  0.9402782E-01
        1   -1    0    0  501    0  0.00000000000E+00  0.00000000000E+00  0.34372717139E+03  0.34372717143E+03  0.50400001928E-02 0.  1.
       -1   -1    0    0    0  501  0.00000000000E+00  0.00000000000E+00 -0.61356001543E+03  0.61356001545E+03  0.50400001928E-02 0. -1.
    10030    2    1    2    0    0  0.00000000000E+00  0.00000000000E+00 -0.26983284404E+03  0.95728718689E+03  0.91847100904E+03 0.  0.
        2    1    3    3  502    0  0.18724385320E+03  0.22126054939E+03  0.23634059808E+03  0.37399648339E+03  0.25500000920E-02 0.  1.
       -2    1    3    3    0  502 -0.18724385320E+03 -0.22126054939E+03 -0.50617344211E+03  0.58329070350E+03  0.25500000920E-02 0. -1.
</event>
<event>
 5   0  0.2414128E-02  0.8458639E+03  0.7818609E-02  0.9495905E-01
       -2   -1    0    0    0  501  0.00000000000E+00  0.00000000000E+00  0.16670509672E+03  0.16670509674E+03  0.25500000920E-02 0. -1.
        2   -1    0    0  501    0  0.00000000000E+00  0.00000000000E+00 -0.10729811871E+04  0.10729811871E+04  0.25500000920E-02 0.  1.
    10030    2    1    2    0    0  0.00000000000E+00  0.00000000000E+00 -0.90627609036E+03  0.12396862838E+04  0.84586389587E+03 0.  0.
        3    1    3    3  502    0  0.19046118007E+03  0.36267370584E+03 -0.60729473424E+03  0.73253981629E+03  0.10100000352E+00 0. -1.
       -3    1    3    3    0  502 -0.19046118007E+03 -0.36267370584E+03 -0.29898135613E+03  0.50714646753E+03  0.10100000352E+00 0.  1.
</event>
<event>
 5   0  0.1560728E-02  0.8452347E+03  0.7818609E-02  0.9496755E-01
       -1   -1    0    0    0  501  0.00000000000E+00  0.00000000000E+00  0.55391639278E+03  0.55391639280E+03  0.50400001928E-02 0.  1.
        1   -1    0    0  501    0  0.00000000000E+00  0.00000000000E+00 -0.32244115051E+03  0.32244115054E+03  0.50400001928E-02 0. -1.
    10030    2    1    2    0    0  0.00000000000E+00  0.00000000000E+00  0.23147524227E+03  0.87635754334E+03  0.84523473426E+03 0.  0.
        4    1    3    3  502    0  0.12523145014E+02 -0.93874668796E+02 -0.31129508707E+03  0.32538519747E+03  0.12699999809E+01 0. -1.
       -4    1    3    3    0  502 -0.12523145014E+02  0.93874668796E+02  0.54277032934E+03  0.55097234587E+03  0.12699999809E+01 0.  1.
</event>
<event>
 5   0  0.1537870E-02  0.9121597E+03  0.7818609E-02  0.9410508E-01
        1   -1    0    0  501    0  0.00000000000E+00  0.00000000000E+00  0.28383888731E+03  0.28383888735E+03  0.50400001928E-02 0. -1.
       -1   -1    0    0    0  501  0.00000000000E+00  0.00000000000E+00 -0.73284117201E+03  0.73284117203E+03  0.50400001928E-02 0.  1.
    10030    2    1    2    0    0  0.00000000000E+00  0.00000000000E+00 -0.44900228470E+03  0.10166800594E+04  0.91215968530E+03 0.  0.
        5    1    3    3  502    0  0.33246066082E+03  0.82004982825E+02 -0.56023354173E+03  0.65661146767E+03  0.46999998093E+01 0.  1.
       -5    1    3    3    0  502 -0.33246066082E+03 -0.82004982825E+02  0.11123125702E+03  0.36006859172E+03  0.46999998093E+01 0. -1.
</event>
<event>
 5   0  0.1497410E-02  0.8940555E+03  0.7818609E-02  0.9433043E-01
       -1   -1    0    0    0  501  0.00000000000E+00  0.00000000000E+00  0.61788439756E+03  0.61788439758E+03  0.50400001928E-02 0. -1.
        1   -1    0    0  501    0  0.00000000000E+00  0.00000000000E+00 -0.32341614036E+03  0.32341614040E+03  0.50400001928E-02 0.  1.
    10030    2    1    2    0    0  0.00000000000E+00  0.00000000000E+00  0.29446825719E+03  0.94130053798E+03  0.89405545035E+03 0.  0.
        3    1    3    3  502    0 -0.29964416253E+03 -0.36046914016E+02 -0.19996133112E+03  0.36203666706E+03  0.10100000352E+00 0.  1.
       -3    1    3    3    0  502  0.29964416253E+03  0.36046914016E+02  0.49442958831E+03  0.57926387092E+03  0.10100000352E+00 0. -1.
</event>
<event>
 5   0  0.1559275E-02  0.9223469E+03  0.7818609E-02  0.9398070E-01
       -1   -1    0    0    0  501  0.00000000000E+00  0.00000000000E+00  0.13470666668E+03  0.13470666678E+03  0.50400001928E-02 0.  1.
        1   -1    0    0  501    0  0.00000000000E+00  0.00000000000E+00 -0.15788450394E+04  0.15788450394E+04  0.50400001928E-02 0. -1.
    10030    2    1    2    0    0  0.00000000000E+00  0.00000000000E+00 -0.14441383727E+04  0.17135517062E+04  0.92234690340E+03 0.  0.
        1    1    3    3  502    0  0.41711603836E+03  0.67296005243E+01 -0.35683033390E+03  0.54896171469E+03  0.50400001928E-02 0.  1.
       -1    1    3    3    0  502 -0.41711603836E+03 -0.67296005243E+01 -0.10873080388E+04  0.11645899915E+04  0.50400001928E-02 0. -1.
</event>
<event>
 5   0  0.2705111E-02  0.8343418E+03  0.7818609E-02  0.9511597E-01
       -2   -1    0    0    0  501  0.00000000000E+00  0.00000000000E+00  0.16235367975E+03  0.16235367977E+03  0.25500000920E-02 0.  1.
        2   -1    0    0  501    0  0.00000000000E+00  0.00000000000E+00 -0.10719285470E+04  0.10719285470E+04  0.25500000920E-02 0. -1.
    10030    2    1    2    0    0  0.00000000000E+00  0.00000000000E+00 -0.90957486727E+03  0.12342822268E+04  0.83434176223E+03 0.  0.
        4    1    3    3  502    0 -0.36525172333E+03  0.20153905381E+03 -0.45217457486E+03  0.61521562940E+03  0.12699999809E+01 0. -1.
       -4    1    3    3    0  502  0.36525172333E+03 -0.20153905381E+03 -0.45740029241E+03  0.61906659739E+03  0.12699999809E+01 0.  1.
</event>
<event>
 5   0  0.2628383E-02  0.9018481E+03  0.7818609E-02  0.9423274E-01
        2   -1    0    0  501    0  0.00000000000E+00  0.00000000000E+00  0.33996880461E+03  0.33996880462E+03  0.25500000920E-02 0. -1.
       -2   -1    0    0    0  501  0.00000000000E+00  0.00000000000E+00 -0.59809169616E+03  0.59809169617E+03  0.25500000920E-02 0.  1.
    10030    2    1    2    0    0  0.00000000000E+00  0.00000000000E+00 -0.25812289155E+03  0.93806050079E+03  0.90184814465E+03 0.  0.
        2    1    3    3  502    0  0.23642938396E+03 -0.58894013024E+02 -0.52372419448E+03  0.57762824572E+03  0.25500000920E-02 0.  1.
       -2    1    3    3    0  502 -0.23642938396E+03  0.58894013024E+02  0.26560130293E+03  0.36043225507E+03  0.25500000920E-02 0. -1.
</event>
<event>
 5   0  0.1497410E-02  0.8973041E+03  0.7818609E-02  0.9428958E-01
        1   -1    0    0  501    0  0.00000000000E+00  0.00000000000E+00  0.18744603410E+03  0.18744603417E+03  0.50400001928E-02 0.  1.
       -1   -1    0    0    0  501  0.00000000000E+00  0.00000000000E+00 -0.10738484884E+04  0.10738484884E+04  0.50400001928E-02 0. -1.
    10030    2    1    2    0    0  0.00000000000E+00  0.00000000000E+00 -0.88640245430E+03  0.12612945226E+04  0.89730405198E+03 0.  0.
        3    1    3    3  502    0  0.72390644472E+02  0.12230734010E+03  0.15496664502E+03  0.21027163888E+03  0.10100000352E+00 0.  1.
       -3    1    3    3    0  502 -0.72390644472E+02 -0.12230734010E+03 -0.10413690993E+04  0.10510228837E+04  0.10100000352E+00 0. -1.
</event>
<event>
 5   0  0.2414128E-02  0.5655967E+03  0.7818609E-02  0.9979470E-01
       -2   -1    0    0    0  501  0.00000000000E+00  0.00000000000E+00  0.21045589144E+03  0.21045589145E+03  0.25500000920E-02 0. -1.
        2   -1    0    0  501    0  0.00000000000E+00  0.00000000000E+00 -0.38000795276E+03  0.38000795277E+03  0.25500000920E-02 0.  1.
    10030    2    1    2    0    0  0.00000000000E+00  0.00000000000E+00 -0.16955206132E+03  0.59046384422E+03  0.56559672014E+03 0.  0.
        3    1    3    3  502    0 -0.23617051381E+03  0.15219920543E+03 -0.11834230363E+03  0.30487049834E+03  0.10100000352E+00 0. -1.
       -3    1    3    3    0  502  0.23617051381E+03 -0.15219920543E+03 -0.51209757688E+02  0.28559334588E+03  0.10100000352E+00 0.  1.
</event>
<event>
 5   0  0.1559275E-02  0.8842232E+03  0.7818609E-02  0.9445521E-01
        1   -1    0    0  501    0  0.00000000000E+00  0.00000000000E+00  0.12570773447E+04  0.12570773447E+04  0.50400001928E-02 0. -1.
       -1   -1    0    0    0  501  0.00000000000E+00  0.00000000000E+00 -0.15548977696E+03  0.15548977704E+03  0.50400001928E-02 0.  1.
    10030    2    1    2    0    0  0.00000000000E+00  0.00000000000E+00  0.11015875677E+04  0.14125671217E+04  0.88422322072E+03 0.  0.
        1    1    3    3  502    0  0.22668283975E+03 -0.26787580448E+03  0.98040612193E+03  0.10413158601E+04  0.50400001928E-02 0. -1.
       -1    1    3    3    0  502 -0.22668283975E+03  0.26787580448E+03  0.12118144579E+03  0.37125126167E+03  0.50400001928E-02 0.  1.
</event>
<event>
 5   0  0.1560728E-02  0.8983794E+03  0.7818609E-02  0.9427610E-01
       -1   -1    0    0    0  501  0.00000000000E+00  0.00000000000E+00  0.11603850146E+03  0.11603850157E+03  0.50400001928E-02 0. -1.
        1   -1    0    0  501    0  0.00000000000E+00  0.00000000000E+00 -0.17388312812E+04  0.17388312812E+04  0.50400001928E-02 0.  1.
    10030    2    1    2    0    0  0.00000000000E+00  0.00000000000E+00 -0.16227927797E+04  0.18548697828E+04  0.89837937705E+03 0.  0.
        4    1    3    3  502    0  0.25540934129E+03  0.11501687095E+03 -0.15364121251E+04  0.15617383402E+04  0.12699999809E+01 0.  1.
       -4    1    3    3    0  502 -0.25540934129E+03 -0.11501687095E+03 -0.86380654609E+02  0.29313144255E+03  0.12699999809E+01 0. -1.
</event>
<event>
 5   0  0.1537870E-02  0.5639319E+03  0.7818609E-02  0.9983197E-01
       -1   -1    0    0    0  501  0.00000000000E+00  0.00000000000E+00  0.39390075307E+03  0.39390075310E+03  0.50400001928E-02 0. -1.
        1   -1    0    0  501    0  0.00000000000E+00  0.00000000000E+00 -0.20183969353E+03  0.20183969360E+03  0.50400001928E-02 0.  1.
    10030    2    1    2    0    0  0.00000000000E+00  0.00000000000E+00  0.19206105954E+03  0.59574044670E+03  0.56393193671E+03 0.  0.
        5    1    3    3  502    0 -0.26567636697E+03 -0.90486762323E+02  0.67863297094E+02  0.28878937517E+03  0.46999998093E+01 0. -1.
       -5    1    3    3    0  502  0.26567636697E+03  0.90486762323E+02  0.12419776245E+03  0.30695107153E+03  0.46999998093E+01 0.  1.
</event>
<event>
 5   0  0.2414128E-02  0.8842837E+03  0.7818609E-02  0.9445444E-01
        2   -1    0    0  501    0  0.00000000000E+00  0.00000000000E+00  0.20500019268E+03  0.20500019270E+03  0.25500000920E-02 0. -1.
       -2   -1    0    0    0  501  0.00000000000E+00  0.00000000000E+00 -0.95360594002E+03  0.95360594003E+03  0.25500000920E-02 0.  1.
    10030    2    1    2    0    0  0.00000000000E+00  0.00000000000E+00 -0.74860574734E+03  0.11586061327E+04  0.88428366819E+03 0.  0.
        3    1    3    3  502    0  0.14877706931E+03  0.11818229578E+03  0.14878138127E+03  0.24132463820E+03  0.10100000352E+00 0. -1.
       -3    1    3    3    0  502 -0.14877706931E+03 -0.11818229578E+03 -0.89738712861E+03  0.91728149452E+03  0.10100000352E+00 0.  1.
</event>
<event>
 5   0  0.1560728E-02  0.9130315E+03  0.7818609E-02  0.9409436E-01
        1   -1    0    0  501    0  0.00000000000E+00  0.00000000000E+00  0.21198757152E+03  0.21198757158E+03  0.50400001928E-02 0. -1.
       -1   -1    0    0    0  501  0.00000000000E+00  0.00000000000E+00 -0.98310769381E+03  0.98310769382E+03  0.50400001928E-02 0.  1.
    10030    2    1    2    0    0  0.00000000000E+00  0.00000000000E+00 -0.77112012229E+03  0.11950952654E+04  0.91303146189E+03 0.  0.
        4    1    3    3  502    0 -0.29455175271E+03  0.21836797683E+03 -0.29589299380E+02  0.36786199568E+03  0.12699999809E+01 0. -1.
       -4    1    3    3    0  502  0.29455175271E+03 -0.21836797683E+03 -0.74153082291E+03  0.82723326973E+03  0.12699999809E+01 0.  1.
</event>
<event>
 5   0  0.2679861E-02  0.8901926E+03  0.7818609E-02  0.9437925E-01
        2   -1    0    0  501    0  0.00000000000E+00  0.00000000000E+00  0.45307686633E+03  0.45307686634E+03  0.25500000920E-02 0.  1.
       -2   -1    0    0    0  501  0.00000000000E+00  0.00000000000E+00 -0.43725631649E+03  0.43725631650E+03  0.25500000920E-02 0. -1.
    10030    2    1    2    0    0  0.00000000000E+00  0.00000000000E+00  0.15820549837E+02  0.89033318284E+03  0.89019261211E+03 0.  0.
        1    1    3    3  502    0 -0.57699368858E+02 -0.14939938108E+03 -0.40743993948E+03  0.43778613105E+03  0.50400001928E-02 0. -1.
       -1    1    3    3    0  502  0.57699368858E+02  0.14939938108E+03  0.42326048932E+03  0.45254705178E+03  0.50400001928E-02 0.  1.
</event>
<event>
 5   0  0.1560728E-02  0.9149970E+03  0.7818609E-02  0.9407026E-01
       -1   -1    0    0    0  501  0.00000000000E+00  0.00000000000E+00  0.17812991132E+03  0.17812991139E+03  0.50400001928E-02 0. -1.
        1   -1    0    0  501    0  0.00000000000E+00  0.00000000000E+00 -0.11750126035E+04  0.11750126035E+04  0.50400001928E-02 0.  1.
    10030    2    1    2    0    0  0.00000000000E+00  0.00000000000E+00 -0.99688269221E+03  0.13531425149E+04  0.91499702933E+03 0.  0.
        4    1    3    3  502    0 -0.43086604997E+03  0.12177584863E+03 -0.35948958298E+03  0.57420317267E+03  0.12699999809E+01 0.  1.
       -4    1    3    3    0  502  0.43086604997E+03 -0.12177584863E+03 -0.63739310923E+03  0.77893934226E+03  0.12699999809E+01 0. -1.
</event>
<event>
 5   0  0.1537870E-02  0.9212101E+03  0.7818609E-02  0.9399449E-01
        1   -1    0    0  501    0  0.00000000000E+00  0.00000000000E+00  0.36997494368E+03  0.36997494371E+03  0.50400001928E-02 0. -1.
       -1   -1    0    0    0  501  0.00000000000E+00  0.00000000000E+00 -0.57343611811E+03  0.57343611813E+03  0.50400001928E-02 0.  1.
    10030    2    1    2    0    0  0.00000000000E+00  0.00000000000E+00 -0.20346117443E+03  0.94341106185E+03  0.92121006405E+03 0.  0.
        5    1    3    3  502    0  0.26498080008E+02 -0.22499842045E+03  0.30894297719E+03  0.38313743044E+03  0.46999998093E+01 0. -1.
       -5    1    3    3    0  502 -0.26498080008E+02  0.22499842045E+03 -0.51240415162E+03  0.56027363141E+03  0.46999998093E+01 0.  1.
</event>
<event>
 5   0  0.1040163E-02  0.8997624E+03  0.7818609E-02  0.9425878E-01
        3   -1    0    0  501    0  0.00000000000E+00  0.00000000000E+00  0.29052750698E+03  0.29052752454E+03  0.10100000352E+00 0.  1.
       -3   -1    0    0    0  501  0.00000000000E+00  0.00000000000E+00 -0.69664003176E+03  0.69664003908E+03  0.10100000352E+00 0. -1.
    10030    2    1    2    0    0  0.00000000000E+00  0.00000000000E+00 -0.40611252478E+03  0.98716756362E+03  0.89976242191E+03 0.  0.
        1    1    3    3  502    0  0.18432508392E+03 -0.11952899906E+03  0.22767547877E+03  0.31638432616E+03  0.50400001928E-02 0.  1.
       -1    1    3    3    0  502 -0.18432508392E+03  0.11952899906E+03 -0.63378800355E+03  0.67078323746E+03  0.50400001928E-02 0. -1.
</event>
<event>
 5   0  0.1459111E-02  0.8755420E+03  0.7818609E-02  0.9456682E-01
       -1   -1    0    0    0  501  0.00000000000E+00  0.00000000000E+00  0.29776481231E+03  0.29776481235E+03  0.50400001928E-02 0.  1.
        1   -1    0    0  501    0  0.00000000000E+00  0.00000000000E+00 -0.64360682595E+03  0.64360682597E+03  0.50400001928E-02 0. -1.
    10030    2    1    2    0    0  0.00000000000E+00  0.00000000000E+00 -0.34584201364E+03  0.94137163832E+03  0.87554203956E+03 0.  0.
        2    1    3    3  502    0 -0.22003387417E+03  0.65901417333E+02  0.22777282590E+03  0.32347853532E+03  0.25500000920E-02 0.  1.
       -2    1    3    3    0  502  0.22003387417E+03 -0.65901417333E+02 -0.57361483954E+03  0.61789310300E+03  0.25500000920E-02 0. -1.
</event>
<event>
 5   0  0.1040163E-02  0.8948474E+03  0.7818609E-02  0.9432045E-01
       -3   -1    0    0    0  501  0.00000000000E+00  0.00000000000E+00  0.23815349477E+03  0.23815351618E+03  0.10100000352E+00 0. -1.
        3   -1    0    0  501    0  0.00000000000E+00  0.00000000000E+00 -0.84058364436E+03  0.84058365042E+03  0.10100000352E+00 0.  1.
    10030    2    1    2    0    0  0.00000000000E+00  0.00000000000E+00 -0.60243014959E+03  0.10787371666E+04  0.89484735541E+03 0.  0.
        3    1    3    3  502    0  0.24162150237E+02  0.36620416982E+03  0.73045563161E+01  0.36707311294E+03  0.10100000352E+00 0.  1.
       -3    1    3    3    0  502 -0.24162150237E+02 -0.36620416982E+03 -0.60973470590E+03  0.71166405367E+03  0.10100000352E+00 0. -1.
</event>
<event>
 5   0  0.1459111E-02  0.8908582E+03  0.7818609E-02  0.9437082E-01
        1   -1    0    0  501    0  0.00000000000E+00  0.00000000000E+00  0.26210667320E+04  0.26210667320E+04  0.50400001928E-02 0.  1.
       -1   -1    0    0    0  501  0.00000000000E+00  0.00000000000E+00 -0.75697067317E+02  0.75697067485E+02  0.50400001928E-02 0. -1.
    10030    2    1    2    0    0  0.00000000000E+00  0.00000000000E+00  0.25453696647E+04  0.26967637995E+04  0.89085815950E+03 0.  0.
        2    1    3    3  502    0 -0.32495688587E+01  0.44499202977E+03  0.12137836549E+04  0.12927873867E+04  0.25500000920E-02 0.  1.
       -2    1    3    3    0  502  0.32495688587E+01 -0.44499202977E+03  0.13315860098E+04  0.14039764128E+04  0.25500000920E-02 0. -1.
</event>
<event>
 5   0  0.1040163E-02  0.9128569E+03  0.7818609E-02  0.9409651E-01
        3   -1    0    0  501    0  0.00000000000E+00  0.00000000000E+00  0.66466376536E+03  0.66466377304E+03  0.10100000352E+00 0. -1.
       -3   -1    0    0    0  501  0.00000000000E+00  0.00000000000E+00 -0.31343201258E+03  0.31343202885E+03  0.10100000352E+00 0.  1.
    10030    2    1    2    0    0  0.00000000000E+00  0.00000000000E+00  0.35123175278E+03  0.97809580189E+03  0.91285686365E+03 0.  0.
        1    1    3    3  502    0  0.28572253355E+03 -0.31619737848E+03  0.35072372536E+03  0.55192869095E+03  0.50400001928E-02 0. -1.
       -1    1    3    3    0  502 -0.28572253355E+03  0.31619737848E+03  0.50802742222E+00  0.42616711094E+03  0.50400001928E-02 0.  1.
</event>
<event>
 5   0  0.1537870E-02  0.7684974E+03  0.7818609E-02  0.9606770E-01
        1   -1    0    0  501    0  0.00000000000E+00  0.00000000000E+00  0.23208929478E+04  0.23208929478E+04  0.50400001928E-02 0.  1.
       -1   -1    0    0    0  501  0.00000000000E+00  0.00000000000E+00 -0.63616483018E+02  0.63616483218E+02  0.50400001928E-02 0. -1.
    10030    2    1    2    0    0  0.00000000000E+00  0.00000000000E+00  0.22572764648E+04  0.23845094310E+04  0.76849735730E+03 0.  0.
        5    1    3    3  502    0  0.10542036502E+03 -0.36870085476E+03  0.12027939171E+04  0.12624535915E+04  0.46999998093E+01 0. -1.
       -5    1    3    3    0  502 -0.10542036502E+03  0.36870085476E+03  0.10544825477E+04  0.11220558395E+04  0.46999998093E+01 0.  1.
</event>
<event>
 5   0  0.2628383E-02  0.8369488E+03  0.7818609E-02  0.9508023E-01
        2   -1    0    0  501    0  0.00000000000E+00  0.00000000000E+00  0.70092450961E+03  0.70092450961E+03  0.25500000920E-02 0.  1.
       -2   -1    0    0    0  501  0.00000000000E+00  0.00000000000E+00 -0.24984264857E+03  0.24984264859E+03  0.25500000920E-02 0. -1.
    10030    2    1    2    0    0  0.00000000000E+00  0.00000000000E+00  0.45108186104E+03  0.95076715820E+03  0.83694882983E+03 0.  0.
        2    1    3    3  502    0 -0.89381996859E+02 -0.47569717958E+02 -0.23571772145E+03  0.25654407739E+03  0.25500000920E-02 0. -1.
       -2    1    3    3    0  502  0.89381996859E+02  0.47569717958E+02  0.68679958249E+03  0.69422308082E+03  0.25500000920E-02 0.  1.
</event>
<event>
 5   0  0.1560728E-02  0.8982669E+03  0.7818609E-02  0.9427750E-01
       -1   -1    0    0    0  501  0.00000000000E+00  0.00000000000E+00  0.26472143709E+03  0.26472143713E+03  0.50400001928E-02 0.  1.
        1   -1    0    0  501    0  0.00000000000E+00  0.00000000000E+00 -0.76201177064E+03  0.76201177066E+03  0.50400001928E-02 0. -1.
    10030    2    1    2    0    0  0.00000000000E+00  0.00000000000E+00 -0.49729033355E+03  0.10267332078E+04  0.89826688914E+03 0.  0.
        4    1    3    3  502    0 -0.37733472579E+03  0.25894362338E+01  0.29770191825E+02  0.37851826599E+03  0.12699999809E+01 0.  1.
       -4    1    3    3    0  502  0.37733472579E+03 -0.25894362338E+01 -0.52706052538E+03  0.64821494180E+03  0.12699999809E+01 0. -1.
</event>
<event>
 5   0  0.1559275E-02  0.9093103E+03  0.7818609E-02  0.9414017E-01
        1   -1    0    0  501    0  0.00000000000E+00  0.00000000000E+00  0.26606057279E+03  0.26606057284E+03  0.50400001928E-02 0.  1.
       -1   -1    0    0    0  501  0.00000000000E+00  0.00000000000E+00 -0.77693322915E+03  0.77693322917E+03  0.50400001928E-02 0. -1.
    10030    2    1    2    0    0  0.00000000000E+00  0.00000000000E+00 -0.51087265636E+03  0.10429938020E+04  0.90931028808E+03 0.  0.
        1    1    3    3  502    0 -0.27433498972E+03  0.34321179945E+03 -0.38948164201E+03  0.58715413254E+03  0.50400001928E-02 0. -1.
       -1    1    3    3    0  502  0.27433498972E+03 -0.34321179945E+03 -0.12139101435E+03  0.45583966947E+03  0.50400001928E-02 0.  1.
</event>
<event>
 5   0  0.1559275E-02  0.9074355E+03  0.7818609E-02  0.9416334E-01
        1   -1    0    0  501    0  0.00000000000E+00  0.00000000000E+00  0.56226266647E+03  0.56226266650E+03  0.50400001928E-02 0. -1.
       -1   -1    0    0    0  501  0.00000000000E+00  0.00000000000E+00 -0.36612741415E+03  0.36612741419E+03  0.50400001928E-02 0.  1.
    10030    2    1    2    0    0  0.00000000000E+00  0.00000000000E+00  0.19613525232E+03  0.92839008068E+03  0.90743545484E+03 0.  0.
        1    1    3    3  502    0 -0.11103242458E+03  0.43980388129E+03  0.10850731977E+03  0.46640057009E+03  0.50400001928E-02 0. -1.
       -1    1    3    3    0  502  0.11103242458E+03 -0.43980388129E+03  0.87627932548E+02  0.46198951059E+03  0.50400001928E-02 0.  1.
</event>
<event>
 5   0  0.1040163E-02  0.8974788E+03  0.7818609E-02  0.9428738E-01
        3   -1    0    0  501    0  0.00000000000E+00  0.00000000000E+00  0.80777885000E+03  0.80777885631E+03  0.10100000352E+00 0.  1.
       -3   -1    0    0    0  501  0.00000000000E+00  0.00000000000E+00 -0.24928488048E+03  0.24928490094E+03  0.10100000352E+00 0. -1.
    10030    2    1    2    0    0  0.00000000000E+00  0.00000000000E+00  0.55849396951E+03  0.10570637573E+04  0.89747884260E+03 0.  0.
        2    1    3    3  502    0 -0.13061129705E+03 -0.33627414945E+03 -0.35093756648E+02  0.36245163300E+03  0.25500000920E-02 0. -1.
       -2    1    3    3    0  502  0.13061129705E+03  0.33627414945E+03  0.59358772616E+03  0.69461212425E+03  0.25500000920E-02 0.  1.
</event>
<event>
 5   0  0.2705111E-02  0.7948375E+03  0.7818609E-02  0.9567520E-01
        2   -1    0    0  501    0  0.00000000000E+00  0.00000000000E+00  0.37760358538E+03  0.37760358539E+03  0.25500000920E-02 0.  1.
       -2   -1    0    0    0  501  0.00000000000E+00  0.00000000000E+00 -0.41827371152E+03  0.41827371153E+03  0.25500000920E-02 0. -1.
    10030    2    1    2    0    0  0.00000000000E+00  0.00000000000E+00 -0.40670126142E+02  0.79587729692E+03  0.79483747558E+03 0.  0.
        4    1    3    3  502    0  0.33363815563E+02  0.31818458886E+03  0.21573906618E+03  0.38587502427E+03  0.12699999809E+01 0.  1.
       -4    1    3    3    0  502 -0.33363815563E+02 -0.31818458886E+03 -0.25640919232E+03  0.41000227266E+03  0.12699999809E+01 0. -1.
</event>
<event>
 5   0  0.1559275E-02  0.8915638E+03  0.7818609E-02  0.9436189E-01
        1   -1    0    0  501    0  0.00000000000E+00  0.00000000000E+00  0.14272157714E+04  0.14272157714E+04  0.50400001928E-02 0.  1.
       -1   -1    0    0    0  501  0.00000000000E+00  0.00000000000E+00 -0.13923717449E+03  0.13923717458E+03  0.50400001928E-02 0. -1.
    10030    2    1    2    0    0  0.00000000000E+00  0.00000000000E+00  0.12879785969E+04  0.15664529460E+04  0.89156377555E+03 0.  0.
        1    1    3    3  502    0 -0.15922433464E+02 -0.42012903640E+03  0.38362780177E+03  0.56915043831E+03  0.50400001928E-02 0. -1.
       -1    1    3    3    0  502  0.15922433464E+02  0.42012903640E+03  0.90435079511E+03  0.99730250764E+03  0.50400001928E-02 0.  1.
</event>
<event>
 5   0  0.2705111E-02  0.8918822E+03  0.7818609E-02  0.9435786E-01
       -2   -1    0    0    0  501  0.00000000000E+00  0.00000000000E+00  0.26682697882E+03  0.26682697883E+03  0.25500000920E-02 0. -1.
        2   -1    0    0  501    0  0.00000000000E+00  0.00000000000E+00 -0.74528990709E+03  0.74528990709E+03  0.25500000920E-02 0.  1.
    10030    2    1    2    0    0  0.00000000000E+00  0.00000000000E+00 -0.47846292827E+03  0.10121168859E+04  0.89188217666E+03 0.  0.
        4    1    3    3  502    0 -0.19800059683E+03 -0.69072583848E+02 -0.68584315275E+03  0.71718735436E+03  0.12699999809E+01 0.  1.
       -4    1    3    3    0  502  0.19800059683E+03  0.69072583848E+02  0.20738022448E+03  0.29492953156E+03  0.12699999809E+01 0. -1.
</event>
<event>
 5   0  0.2414128E-02  0.8868080E+03  0.7818609E-02  0.9442224E-01
       -2   -1    0    0    0  501  0.00000000000E+00  0.00000000000E+00  0.14012395269E+03  0.14012395272E+03  0.25500000920E-02 0. -1.
        2   -1    0    0  501    0  0.00000000000E+00  0.00000000000E+00 -0.14030942983E+04  0.14030942983E+04  0.25500000920E-02 0.  1.
    10030    2    1    2    0    0  0.00000000000E+00  0.00000000000E+00 -0.12629703456E+04  0.15432182511E+04  0.88680802681E+03 0.  0.
        3    1    3    3  502    0  0.40781903351E+03 -0.10150788249E+03 -0.87750516292E+03  0.97295196975E+03  0.10100000352E+00 0.  1.
       -3    1    3    3    0  502 -0.40781903351E+03  0.10150788249E+03 -0.38546518273E+03  0.57026628131E+03  0.10100000352E+00 0. -1.
</event>
<event>
 5   0  0.2679861E-02  0.9069066E+03  0.7818609E-02  0.9416989E-01
        2   -1    0    0  501    0  0.00000000000E+00  0.00000000000E+00  0.58320150925E+03  0.58320150925E+03  0.25500000920E-02 0. -1.
       -2   -1    0    0    0  501  0.00000000000E+00  0.00000000000E+00 -0.35257093139E+03  0.35257093140E+03  0.25500000920E-02 0.  1.
    10030    2    1    2    0    0  0.00000000000E+00  0.00000000000E+00  0.23063057785E+03  0.93577244065E+03  0.90690660889E+03 0.  0.
        1    1    3    3  502    0 -0.87079991853E+02 -0.26296273224E+03 -0.25512073283E+03  0.37658851798E+03  0.50400001928E-02 0.  1.
       -1    1    3    3    0  502  0.87079991853E+02  0.26296273224E+03  0.48575131068E+03  0.55918392268E+03  0.50400001928E-02 0. -1.
</event>
<event>
 5   0  0.2705111E-02  0.8996689E+03  0.7818609E-02  0.9425995E-01
        2   -1    0    0  501    0  0.00000000000E+00  0.00000000000E+00  0.60901300157E+03  0.60901300157E+03  0.25500000920E-02 0. -1.
       -2   -1    0    0    0  501  0.00000000000E+00  0.00000000000E+00 -0.33226063658E+03  0.33226063659E+03  0.25500000920E-02 0.  1.
    10030    2    1    2    0    0  0.00000000000E+00  0.00000000000E+00  0.27675236499E+03  0.94127363816E+03  0.89966893376E+03 0.  0.
        4    1    3    3  502    0 -0.23841202138E+03  0.36512454360E+03  0.25390549945E+03  0.50460463715E+03  0.12699999809E+01 0. -1.
       -4    1    3    3    0  502  0.23841202138E+03 -0.36512454360E+03  0.22846865535E+02  0.43666900101E+03  0.12699999809E+01 0.  1.
</event>
<event>
 5   0  0.1559275E-02  0.8743413E+03  0.7818609E-02  0.9458237E-01
       -1   -1    0    0    0  501  0.00000000000E+00  0.00000000000E+00  0.12678329244E+04  0.12678329244E+04  0.50400001928E-02 0. -1.
        1   -1    0    0  501    0  0.00000000000E+00  0.00000000000E+00 -0.15074397505E+03  0.15074397514E+03  0.50400001928E-02 0.  1.
    10030    2    1    2    0    0  0.00000000000E+00  0.00000000000E+00  0.11170889493E+04  0.14185768995E+04  0.87434129444E+03 0.  0.
        1    1    3    3  502    0  0.70393316082E+02  0.41320189880E+03  0.76006287034E+03  0.86797845309E+03  0.50400001928E-02 0. -1.
       -1    1    3    3    0  502 -0.70393316082E+02 -0.41320189880E+03  0.35702607897E+03  0.55059844643E+03  0.50400001928E-02 0.  1.
</event>
<event>
 5   0  0.2414128E-02  0.9033168E+03  0.7818609E-02  0.9421445E-01
       -2   -1    0    0    0  501  0.00000000000E+00  0.00000000000E+00  0.25905995916E+03  0.25905995918E+03  0.25500000920E-02 0.  1.
        2   -1    0    0  501    0  0.00000000000E+00  0.00000000000E+00 -0.78744438150E+03  0.78744438150E+03  0.25500000920E-02 0. -1.
    10030    2    1    2    0    0  0.00000000000E+00  0.00000000000E+00 -0.52838442233E+03  0.10465043407E+04  0.90331679786E+03 0.  0.
        3    1    3    3  502    0  0.34559588161E+03 -0.76546089821E+01  0.72574997611E+02  0.35321699690E+03  0.10100000352E+00 0.  1.
       -3    1    3    3    0  502 -0.34559588161E+03  0.76546089821E+01 -0.60095941995E+03  0.69328734378E+03  0.10100000352E+00 0. -1.
</event>
<event>
 5   0  0.1559275E-02  0.8918920E+03  0.7818609E-02  0.9435774E-01
       -1   -1    0    0    0  501  0.00000000000E+00  0.00000000000E+00  0.24700251698E+03  0.24700251703E+03  0.50400001928E-02 0.  1.
        1   -1    0    0  501    0  0.00000000000E+00  0.00000000000E+00 -0.80512480431E+03  0.80512480432E+03  0.50400001928E-02 0. -1.
    10030    2    1    2    0    0  0.00000000000E+00  0.00000000000E+00 -0.55812228732E+03  0.10521273214E+04  0.89189204096E+03 0.  0.
        1    1    3    3  502    0  0.94744942741E+02  0.22808840109E+03  0.15895091084E+03  0.29371127825E+03  0.50400001928E-02 0.  1.
       -1    1    3    3    0  502 -0.94744942741E+02 -0.22808840109E+03 -0.71707319817E+03  0.75841604311E+03  0.50400001928E-02 0. -1.
</event>
<event>
 5   0  0.2705111E-02  0.8971554E+03  0.7818609E-02  0.9429144E-01
       -2   -1    0    0    0  501  0.00000000000E+00  0.00000000000E+00  0.18467915362E+03  0.18467915364E+03  0.25500000920E-02 0.  1.
        2   -1    0    0  501    0  0.00000000000E+00  0.00000000000E+00 -0.10895758241E+04  0.10895758241E+04  0.25500000920E-02 0. -1.
    10030    2    1    2    0    0  0.00000000000E+00  0.00000000000E+00 -0.90489667044E+03  0.12742549777E+04  0.89715537340E+03 0.  0.
        4    1    3    3  502    0  0.34688132979E+03  0.25814964368E+03 -0.28288452211E+03  0.51671380980E+03  0.12699999809E+01 0. -1.
       -4    1    3    3    0  502 -0.34688132979E+03 -0.25814964368E+03 -0.62201214832E+03  0.75754116789E+03  0.12699999809E+01 0.  1.
</event>
<event>
 5   0  0.2628383E-02  0.8943611E+03  0.7818609E-02  0.9432658E-01
       -2   -1    0    0    0  501  0.00000000000E+00  0.00000000000E+00  0.41857043121E+03  0.41857043122E+03  0.25500000920E-02 0.  1.
        2   -1    0    0  501    0  0.00000000000E+00  0.00000000000E+00 -0.47774620460E+03  0.47774620461E+03  0.25500000920E-02 0. -1.
    10030    2    1    2    0    0  0.00000000000E+00  0.00000000000E+00 -0.59175773389E+02  0.89631663582E+03  0.89436107892E+03 0.  0.
        2    1    3    3  502    0  0.21671753078E+03  0.25090004005E+03  0.27115678370E+03  0.42830283632E+03  0.25500000920E-02 0.  1.
       -2    1    3    3    0  502 -0.21671753078E+03 -0.25090004005E+03 -0.33033255709E+03  0.46801379950E+03  0.25500000920E-02 0. -1.
</event>
<event>
 5   0  0.2679861E-02  0.8990459E+03  0.7818609E-02  0.9426775E-01
        2   -1    0    0  501    0  0.00000000000E+00  0.00000000000E+00  0.10770098557E+04  0.10770098557E+04  0.25500000920E-02 0. -1.
       -2   -1    0    0    0  501  0.00000000000E+00  0.00000000000E+00 -0.18762214444E+03  0.18762214446E+03  0.25500000920E-02 0.  1.
    10030    2    1    2    0    0  0.00000000000E+00  0.00000000000E+00  0.88938771126E+03  0.12646320002E+04  0.89904593593E+03 0.  0.
        1    1    3    3  502    0 -0.31755712424E+03  0.31289891417E+02 -0.67822647085E+00  0.31909566665E+03  0.50400001928E-02 0.  1.
       -1    1    3    3    0  502  0.31755712424E+03 -0.31289891417E+02  0.89006593773E+03  0.94553633352E+03  0.50400001928E-02 0. -1.
</event>
<event>
 5   0  0.2414128E-02  0.7197764E+03  0.7818609E-02  0.9683997E-01
       -2   -1    0    0    0  501  0.00000000000E+00  0.00000000000E+00  0.96040599669E+02  0.96040599703E+02  0.25500000920E-02 0. -1.
        2   -1    0    0  501    0  0.00000000000E+00  0.00000000000E+00 -0.13485913065E+04  0.13485913065E+04  0.25500000920E-02 0.  1.
    10030    2    1    2    0    0  0.00000000000E+00  0.00000000000E+00 -0.12525507068E+04  0.14446319062E+04  0.71977640364E+03 0.  0.
        3    1    3    3  502    0 -0.64030240286E+02 -0.86435856212E+01 -0.13368553436E+04  0.13384157811E+04  0.10100000352E+00 0.  1.
       -3    1    3    3    0  502  0.64030240286E+02  0.86435856212E+01  0.84304636775E+02  0.10621612508E+03  0.10100000352E+00 0. -1.
</event>
<event>
 5   0  0.1040163E-02  0.9017253E+03  0.7818609E-02  0.9423427E-01
       -3   -1    0    0    0  501  0.00000000000E+00  0.00000000000E+00  0.23418304368E+03  0.23418306546E+03  0.10100000352E+00 0. -1.
        3   -1    0    0  501    0  0.00000000000E+00  0.00000000000E+00 -0.86802667482E+03  0.86802668070E+03  0.10100000352E+00 0.  1.
    10030    2    1    2    0    0  0.00000000000E+00  0.00000000000E+00 -0.63384363115E+03  0.11022097462E+04  0.90172533278E+03 0.  0.
        4    1    3    3  502    0 -0.29210148572E+03 -0.19932778794E+03 -0.65878378204E+03  0.74769815392E+03  0.12699999809E+01 0.  1.
       -4    1    3    3    0  502  0.29210148572E+03  0.19932778794E+03  0.24940150893E+02  0.35451159223E+03  0.12699999809E+01 0. -1.
</event>
<event>
 5   0  0.2628383E-02  0.8944110E+03  0.7818609E-02  0.9432595E-01
        2   -1    0    0  501    0  0.00000000000E+00  0.00000000000E+00  0.11416655358E+04  0.11416655358E+04  0.25500000920E-02 0.  1.
       -2   -1    0    0    0  501  0.00000000000E+00  0.00000000000E+00 -0.17517631622E+03  0.17517631623E+03  0.25500000920E-02 0. -1.
    10030    2    1    2    0    0  0.00000000000E+00  0.00000000000E+00  0.96648921963E+03  0.13168418521E+04  0.89441100828E+03 0.  0.
        2    1    3    3  502    0 -0.26596358767E+02  0.43783996627E+03  0.61144099800E+03  0.75250999754E+03  0.25500000920E-02 0.  1.
       -2    1    3    3    0  502  0.26596358767E+02 -0.43783996627E+03  0.35504822163E+03  0.56433185454E+03  0.25500000920E-02 0. -1.
</event>
<event>
 5   0  0.1459111E-02  0.8089516E+03  0.7818609E-02  0.9547150E-01
        1   -1    0    0  501    0  0.00000000000E+00  0.00000000000E+00  0.19254216554E+04  0.19254216554E+04  0.50400001928E-02 0. -1.
       -1   -1    0    0    0  501  0.00000000000E+00  0.00000000000E+00 -0.84968743315E+02  0.84968743465E+02  0.50400001928E-02 0.  1.
    10030    2    1    2    0    0  0.00000000000E+00  0.00000000000E+00  0.18404529121E+04  0.20103903988E+04  0.80895156485E+03 0.  0.
        2    1    3    3  502    0 -0.71407327650E+02  0.10736255062E+03  0.18729776906E+04  0.18774107578E+04  0.25500000920E-02 0. -1.
       -2    1    3    3    0  502  0.71407327650E+02 -0.10736255062E+03 -0.32524778575E+02  0.13297964109E+03  0.25500000920E-02 0.  1.
</event>
<event>
 5   0  0.1459111E-02  0.9101352E+03  0.7818609E-02  0.9413000E-01
        1   -1    0    0  501    0  0.00000000000E+00  0.00000000000E+00  0.19243322598E+03  0.19243322604E+03  0.50400001928E-02 0. -1.
       -1   -1    0    0    0  501  0.00000000000E+00  0.00000000000E+00 -0.10761473295E+04  0.10761473295E+04  0.50400001928E-02 0.  1.
    10030    2    1    2    0    0  0.00000000000E+00  0.00000000000E+00 -0.88371410354E+03  0.12685805556E+04  0.91013515984E+03 0.  0.
        2    1    3    3  502    0 -0.90763039990E+02 -0.43686792190E+03 -0.31722746182E+03  0.54747125326E+03  0.25500000920E-02 0.  1.
       -2    1    3    3    0  502  0.90763039990E+02  0.43686792190E+03 -0.56648664172E+03  0.72110930230E+03  0.25500000920E-02 0. -1.
</event>
<event>
 5   0  0.1560728E-02  0.8786998E+03  0.7818609E-02  0.9452606E-01
       -1   -1    0    0    0  501  0.00000000000E+00  0.00000000000E+00  0.29901943775E+03  0.29901943779E+03  0.50400001928E-02 0. -1.
        1   -1    0    0  501    0  0.00000000000E+00  0.00000000000E+00 -0.64553776800E+03  0.64553776802E+03  0.50400001928E-02 0.  1.
    10030    2    1    2    0    0  0.00000000000E+00  0.00000000000E+00 -0.34651833026E+03  0.94455720581E+03  0.87869981327E+03 0.  0.
        4    1    3    3  502    0  0.60691465649E+02  0.41875584464E+03 -0.46129423493E+02  0.42564004515E+03  0.12699999809E+01 0.  1.
       -4    1    3    3    0  502 -0.60691465649E+02 -0.41875584464E+03 -0.30038890676E+03  0.51891716066E+03  0.12699999809E+01 0. -1.
</event>
<event>
 5   0  0.1537870E-02  0.8906273E+03  0.7818609E-02  0.9437374E-01
       -1   -1    0    0    0  501  0.00000000000E+00  0.00000000000E+00  0.26338120519E+03  0.26338120524E+03  0.50400001928E-02 0. -1.
        1   -1    0    0  501    0  0.00000000000E+00  0.00000000000E+00 -0.75291727930E+03  0.75291727932E+03  0.50400001928E-02 0.  1.
    10030    2    1    2    0    0  0.00000000000E+00  0.00000000000E+00 -0.48953607411E+03  0.10162984846E+04  0.89062733051E+03 0.  0.
        5    1    3    3  502    0  0.31429519463E+02  0.13843331825E+03 -0.72637692303E+03  0.74013317897E+03  0.46999998093E+01 0.  1.
       -5    1    3    3    0  502 -0.31429519463E+02 -0.13843331825E+03  0.23684084892E+03  0.27616530559E+03  0.46999998093E+01 0. -1.
</event>
<event>
 5   0  0.1537870E-02  0.9169129E+03  0.7818609E-02  0.9404683E-01
       -1   -1    0    0    0  501  0.00000000000E+00  0.00000000000E+00  0.39762844181E+03  0.39762844184E+03  0.50400001928E-02 0.  1.
        1   -1    0    0  501    0  0.00000000000E+00  0.00000000000E+00 -0.52858978784E+03  0.52858978787E+03  0.50400001928E-02 0. -1.
    10030    2    1    2    0    0  0.00000000000E+00  0.00000000000E+00 -0.13096134603E+03  0.92621822971E+03  0.91691293746E+03 0.  0.
        5    1    3    3  502    0 -0.36534892562E+03 -0.14995966943E+02  0.21383137401E+03  0.42361617413E+03  0.46999998093E+01 0.  1.
       -5    1    3    3    0  502  0.36534892562E+03  0.14995966943E+02 -0.34479272005E+03  0.50260205558E+03  0.46999998093E+01 0. -1.
</event>
<event>
 5   0  0.2414128E-02  0.8959514E+03  0.7818609E-02  0.9430657E-01
       -2   -1    0    0    0  501  0.00000000000E+00  0.00000000000E+00  0.37858552787E+03  0.37858552788E+03  0.25500000920E-02 0. -1.
        2   -1    0    0  501    0  0.00000000000E+00  0.00000000000E+00 -0.53008425638E+03  0.53008425638E+03  0.25500000920E-02 0.  1.
    10030    2    1    2    0    0  0.00000000000E+00  0.00000000000E+00 -0.15149872851E+03  0.90866978426E+03  0.89595140052E+03 0.  0.
        3    1    3    3  502    0 -0.35544958335E+03 -0.43792601330E+02 -0.34867916184E+03  0.49983934053E+03  0.10100000352E+00 0.  1.
       -3    1    3    3    0  502  0.35544958335E+03  0.43792601330E+02  0.19718043333E+03  0.40883044373E+03  0.10100000352E+00 0. -1.
</event>
<event>
 5   0  0.2414128E-02  0.9176343E+03  0.7818609E-02  0.9403802E-01
       -2   -1    0    0    0  501  0.00000000000E+00  0.00000000000E+00  0.10503829540E+04  0.10503829540E+04  0.25500000920E-02 0. -1.
        2   -1    0    0  501    0  0.00000000000E+00  0.00000000000E+00 -0.20041565726E+03  0.20041565728E+03  0.25500000920E-02 0.  1.
    10030    2    1    2    0    0  0.00000000000E+00  0.00000000000E+00  0.84996729675E+03  0.12507986113E+04  0.91763432830E+03 0.  0.
        3    1    3    3  502    0  0.22324125977E+02  0.14528937104E+03 -0.16745092931E+03  0.22281649819E+03  0.10100000352E+00 0.  1.
       -3    1    3    3    0  502 -0.22324125977E+02 -0.14528937104E+03  0.10174182261E+04  0.10279821131E+04  0.10100000352E+00 0. -1.
</event>
<event>
 5   0  0.1537870E-02  0.8524421E+03  0.7818609E-02  0.9487065E-01
        1   -1    0    0  501    0  0.00000000000E+00  0.00000000000E+00  0.70846101881E+03  0.70846101883E+03  0.50400001928E-02 0.  1.
       -1   -1    0    0    0  501  0.00000000000E+00  0.00000000000E+00 -0.25642111337E+03  0.25642111342E+03  0.50400001928E-02 0. -1.
    10030    2    1    2    0    0  0.00000000000E+00  0.00000000000E+00  0.45203990544E+03  0.96488213225E+03  0.85244205259E+03 0.  0.
        5    1    3    3  502    0  0.10881949315E+03  0.28007516532E+03 -0.11610429970E+03  0.32215846834E+03  0.46999998093E+01 0. -1.
       -5    1    3    3    0  502 -0.10881949315E+03 -0.28007516532E+03  0.56814420514E+03  0.64272366391E+03  0.46999998093E+01 0.  1.
</event>
<event>
 5   0  0.2679861E-02  0.8026241E+03  0.7818609E-02  0.9556227E-01
       -2   -1    0    0    0  501  0.00000000000E+00  0.00000000000E+00  0.38597178551E+03  0.38597178551E+03  0.25500000920E-02 0.  1.
        2   -1    0    0  501    0  0.00000000000E+00  0.00000000000E+00 -0.41726203636E+03  0.41726203636E+03  0.25500000920E-02 0. -1.
    10030    2    1    2    0    0  0.00000000000E+00  0.00000000000E+00 -0.31290250850E+02  0.80323382188E+03  0.80262412922E+03 0.  0.
        1    1    3    3  502    0  0.11593000866E+03 -0.23110555733E+03  0.29151118325E+03  0.38965153089E+03  0.50400001928E-02 0.  1.
       -1    1    3    3    0  502 -0.11593000866E+03  0.23110555733E+03 -0.32280143410E+03  0.41358229099E+03  0.50400001928E-02 0. -1.
</event>
<event>
 5   0  0.1459111E-02  0.8204357E+03  0.7818609E-02  0.9530899E-01
        1   -1    0    0  501    0  0.00000000000E+00  0.00000000000E+00  0.42611144286E+03  0.42611144289E+03  0.50400001928E-02 0. -1.
       -1   -1    0    0    0  501  0.00000000000E+00  0.00000000000E+00 -0.39491705210E+03  0.39491705213E+03  0.50400001928E-02 0.  1.
    10030    2    1    2    0    0  0.00000000000E+00  0.00000000000E+00  0.31194390757E+02  0.82102849502E+03  0.82043567671E+03 0.  0.
        2    1    3    3  502    0 -0.29320601106E+03  0.26408345649E+03  0.12778903180E+03  0.41477689613E+03  0.25500000920E-02 0. -1.
       -2    1    3    3    0  502  0.29320601106E+03 -0.26408345649E+03 -0.96594641043E+02  0.40625159888E+03  0.25500000920E-02 0.  1.
</event>
<event>
 5   0  0.2414128E-02  0.9394967E+03  0.7818609E-02  0.9377512E-01
       -2   -1    0    0    0  501  0.00000000000E+00  0.00000000000E+00  0.27358562958E+03  0.27358562959E+03  0.25500000920E-02 0. -1.
        2   -1    0    0  501    0  0.00000000000E+00  0.00000000000E+00 -0.80656113435E+03  0.80656113436E+03  0.25500000920E-02 0.  1.
    10030    2    1    2    0    0  0.00000000000E+00  0.00000000000E+00 -0.53297550477E+03  0.10801467640E+04  0.93949674985E+03 0.  0.
        3    1    3    3  502    0  0.37981401193E+03 -0.48965066457E+02 -0.57925744391E+03  0.69440295068E+03  0.10100000352E+00 0.  1.
       -3    1    3    3    0  502 -0.37981401193E+03  0.48965066457E+02  0.46281939132E+02  0.38574381327E+03  0.10100000352E+00 0. -1.
</event>
<event>
 5   0  0.2705111E-02  0.9150765E+03  0.7818609E-02  0.9406929E-01
       -2   -1    0    0    0  501  0.00000000000E+00  0.00000000000E+00  0.29060257340E+03  0.29060257342E+03  0.25500000920E-02 0. -1.
        2   -1    0    0  501    0  0.00000000000E+00  0.00000000000E+00 -0.72036963986E+03  0.72036963987E+03  0.25500000920E-02 0.  1.
    10030    2    1    2    0    0  0.00000000000E+00  0.00000000000E+00 -0.42976706646E+03  0.10109722133E+04  0.91507654577E+03 0.  0.
        4    1    3    3  502    0  0.31697234805E+03 -0.84213283408E+02 -0.56733972885E+03  0.65531620410E+03  0.12699999809E+01 0.  1.
       -4    1    3    3    0  502 -0.31697234805E+03  0.84213283408E+02  0.13757266239E+03  0.35565600918E+03  0.12699999809E+01 0. -1.
</event>
<event>
 5   0  0.2803717E-02  0.8388552E+03  0.7818609E-02  0.9505418E-01
        2   -1    0    0  501    0  0.00000000000E+00  0.00000000000E+00  0.11386858294E+04  0.11386858294E+04  0.25500000920E-02 0. -1.
       -2   -1    0    0    0  501  0.00000000000E+00  0.00000000000E+00 -0.15449345441E+03  0.15449345443E+03  0.25500000920E-02 0.  1.
    10030    2    1    2    0    0  0.00000000000E+00  0.00000000000E+00  0.98419237503E+03  0.12931792839E+04  0.83885518964E+03 0.  0.
        5    1    3    3  502    0 -0.10050375881E+03  0.13428415570E+03 -0.10049654793E+03  0.19558856344E+03  0.46999998093E+01 0.  1.
       -5    1    3    3    0  502  0.10050375881E+03 -0.13428415570E+03  0.10846889230E+04  0.10975907204E+04  0.46999998093E+01 0. -1.
</event>
<event>
 5   0  0.1559275E-02  0.7088879E+03  0.7818609E-02  0.9702152E-01
        1   -1    0    0  501    0  0.00000000000E+00  0.00000000000E+00  0.62187093535E+03  0.62187093537E+03  0.50400001928E-02 0. -1.
       -1   -1    0    0    0  501  0.00000000000E+00  0.00000000000E+00 -0.20202024774E+03  0.20202024780E+03  0.50400001928E-02 0.  1.
    10030    2    1    2    0    0  0.00000000000E+00  0.00000000000E+00  0.41985068761E+03  0.82389118317E+03  0.70888791908E+03 0.  0.
        1    1    3    3  502    0  0.25394613931E+02 -0.24132379318E+03 -0.90345322778E+02  0.25892921222E+03  0.50400001928E-02 0.  1.
       -1    1    3    3    0  502 -0.25394613931E+02  0.24132379318E+03  0.51019601039E+03  0.56496197095E+03  0.50400001928E-02 0. -1.
</event>
<event>
 5   0  0.1040163E-02  0.9016976E+03  0.7818609E-02  0.9423462E-01
       -3   -1    0    0    0  501  0.00000000000E+00  0.00000000000E+00  0.30049674347E+03  0.30049676044E+03  0.10100000352E+00 0.  1.
        3   -1    0    0  501    0  0.00000000000E+00  0.00000000000E+00 -0.67642873456E+03  0.67642874210E+03  0.10100000352E+00 0. -1.
    10030    2    1    2    0    0  0.00000000000E+00  0.00000000000E+00 -0.37593199110E+03  0.97692550254E+03  0.90169760762E+03 0.  0.
        3    1    3    3  502    0 -0.42821408799E+03  0.89793542297E+02 -0.70103797014E+02  0.44310804320E+03  0.10100000352E+00 0. -1.
       -3    1    3    3    0  502  0.42821408799E+03 -0.89793542297E+02 -0.30582819408E+03  0.53381745934E+03  0.10100000352E+00 0.  1.
</event>
<event>
 5   0  0.1559275E-02  0.9040551E+03  0.7818609E-02  0.9420527E-01
        1   -1    0    0  501    0  0.00000000000E+00  0.00000000000E+00  0.18593703824E+04  0.18593703824E+04  0.50400001928E-02 0. -1.
       -1   -1    0    0    0  501  0.00000000000E+00  0.00000000000E+00 -0.10989143999E+03  0.10989144011E+03  0.50400001928E-02 0.  1.
    10030    2    1    2    0    0  0.00000000000E+00  0.00000000000E+00  0.17494789424E+04  0.19692618226E+04  0.90405506233E+03 0.  0.
        1    1    3    3  502    0 -0.49011142067E+02  0.26769981443E+03  0.16609160972E+04  0.16830649318E+04  0.50400001928E-02 0. -1.
       -1    1    3    3    0  502  0.49011142067E+02 -0.26769981443E+03  0.88562845247E+02  0.28619689076E+03  0.50400001928E-02 0.  1.
</event>
<event>
 5   0  0.1560728E-02  0.9279784E+03  0.7818609E-02  0.9391267E-01
       -1   -1    0    0    0  501  0.00000000000E+00  0.00000000000E+00  0.41306670890E+03  0.41306670893E+03  0.50400001928E-02 0. -1.
        1   -1    0    0  501    0  0.00000000000E+00  0.00000000000E+00 -0.52118932237E+03  0.52118932240E+03  0.50400001928E-02 0.  1.
    10030    2    1    2    0    0  0.00000000000E+00  0.00000000000E+00 -0.10812261347E+03  0.93425603133E+03  0.92797835779E+03 0.  0.
        4    1    3    3  502    0  0.28950082196E+03  0.28418781723E+03  0.17265290139E+03  0.44089009814E+03  0.12699999809E+01 0. -1.
       -4    1    3    3    0  502 -0.28950082196E+03 -0.28418781723E+03 -0.28077551486E+03  0.49336593319E+03  0.12699999809E+01 0.  1.
</event>
<event>
 5   0  0.1497410E-02  0.9126743E+03  0.7818609E-02  0.9409875E-01
       -1   -1    0    0    0  501  0.00000000000E+00  0.00000000000E+00  0.50239277837E+03  0.50239277840E+03  0.50400001928E-02 0. -1.
        1   -1    0    0  501    0  0.00000000000E+00  0.00000000000E+00 -0.41450360128E+03  0.41450360131E+03  0.50400001928E-02 0.  1.
    10030    2    1    2    0    0  0.00000000000E+00  0.00000000000E+00  0.87889177100E+02  0.91689637971E+03  0.91267434700E+03 0.  0.
        3    1    3    3  502    0  0.12819711583E+03  0.24713526102E+03  0.40718777180E+03  0.49326689475E+03  0.10100000352E+00 0. -1.
       -3    1    3    3    0  502 -0.12819711583E+03 -0.24713526102E+03 -0.31929859470E+03  0.42362948496E+03  0.10100000352E+00 0.  1.
</event>
<event>
 5   0  0.2414128E-02  0.9214238E+03  0.7818609E-02  0.9399190E-01
        2   -1    0    0  501    0  0.00000000000E+00  0.00000000000E+00  0.34561876436E+03  0.34561876437E+03  0.25500000920E-02 0. -1.
       -2   -1    0    0    0  501  0.00000000000E+00  0.00000000000E+00 -0.61413179337E+03  0.61413179338E+03  0.25500000920E-02 0.  1.
    10030    2    1    2    0    0  0.00000000000E+00  0.00000000000E+00 -0.26851302901E+03  0.95975055774E+03  0.92142383643E+03 0.  0.
        3    1    3    3  502    0 -0.27304212897E+03  0.16003336132E+03  0.21447223404E+03  0.38231012320E+03  0.10100000352E+00 0. -1.
       -3    1    3    3    0  502  0.27304212897E+03 -0.16003336132E+03 -0.48298526305E+03  0.57744043454E+03  0.10100000352E+00 0.  1.
</event>
<event>
 5   0  0.1459111E-02  0.9290021E+03  0.7818609E-02  0.9390036E-01
       -1   -1    0    0    0  501  0.00000000000E+00  0.00000000000E+00  0.52862878353E+03  0.52862878356E+03  0.50400001928E-02 0.  1.
        1   -1    0    0  501    0  0.00000000000E+00  0.00000000000E+00 -0.40815265576E+03  0.40815265579E+03  0.50400001928E-02 0. -1.
    10030    2    1    2    0    0  0.00000000000E+00  0.00000000000E+00  0.12047612778E+03  0.93678143934E+03  0.92900213548E+03 0.  0.
        2    1    3    3  502    0  0.38277165437E+03  0.25713805360E+03  0.38491003780E+01  0.46113873571E+03  0.25500000920E-02 0.  1.
       -2    1    3    3    0  502 -0.38277165437E+03 -0.25713805360E+03  0.11662702740E+03  0.47564270363E+03  0.25500000920E-02 0. -1.
</event>
<event>
 5   0  0.1560728E-02  0.8838855E+03  0.7818609E-02  0.9445953E-01
       -1   -1    0    0    0  501  0.00000000000E+00  0.00000000000E+00  0.53182121965E+03  0.53182121968E+03  0.50400001928E-02 0. -1.
        1   -1    0    0  501    0  0.00000000000E+00  0.00000000000E+00 -0.36725386723E+03  0.36725386727E+03  0.50400001928E-02 0.  1.
    10030    2    1    2    0    0  0.00000000000E+00  0.00000000000E+00  0.16456735242E+03  0.89907508694E+03  0.88388551209E+03 0.  0.
        4    1    3    3  502    0  0.19804794781E+03 -0.10852534693E+03  0.46869490294E+03  0.52026653313E+03  0.12699999809E+01 0. -1.
       -4    1    3    3    0  502 -0.19804794781E+03  0.10852534693E+03 -0.30412755052E+03  0.37880855381E+03  0.12699999809E+01 0.  1.
</event>
<event>
 5   0  0.1497410E-02  0.9117782E+03  0.7818609E-02  0.9410977E-01
       -1   -1    0    0    0  501  0.00000000000E+00  0.00000000000E+00  0.25440876657E+03  0.25440876662E+03  0.50400001928E-02 0. -1.
        1   -1    0    0  501    0  0.00000000000E+00  0.00000000000E+00 -0.81693277958E+03  0.81693277960E+03  0.50400001928E-02 0.  1.
    10030    2    1    2    0    0  0.00000000000E+00  0.00000000000E+00 -0.56252401301E+03  0.10713415462E+04  0.91177817667E+03 0.  0.
        3    1    3    3  502    0  0.26689002504E+03 -0.34629624316E+03 -0.12949336751E+03  0.45598236361E+03  0.10100000352E+00 0.  1.
       -3    1    3    3    0  502 -0.26689002504E+03  0.34629624316E+03 -0.43303064549E+03  0.61535918261E+03  0.10100000352E+00 0. -1.
</event>
<event>
 5   0  0.1560728E-02  0.9058844E+03  0.7818609E-02  0.9418255E-01
       -1   -1    0    0    0  501  0.00000000000E+00  0.00000000000E+00  0.73216252873E+03  0.73216252875E+03  0.50400001928E-02 0. -1.
        1   -1    0    0  501    0  0.00000000000E+00  0.00000000000E+00 -0.28020643748E+03  0.28020643753E+03  0.50400001928E-02 0.  1.
    10030    2    1    2    0    0  0.00000000000E+00  0.00000000000E+00  0.45195609125E+03  0.10123689663E+04  0.90588443825E+03 0.  0.
        4    1    3    3  502    0  0.22270906245E+03  0.17271526216E+03  0.62223519436E+03  0.68308721133E+03  0.12699999809E+01 0. -1.
       -4    1    3    3    0  502 -0.22270906245E+03 -0.17271526216E+03 -0.17027910312E+03  0.32928175494E+03  0.12699999809E+01 0.  1.
</event>
<event>
 5   0  0.2628383E-02  0.9265589E+03  0.7818609E-02  0.9392977E-01
       -2   -1    0    0    0  501  0.00000000000E+00  0.00000000000E+00  0.53373708267E+03  0.53373708268E+03  0.25500000920E-02 0.  1.
        2   -1    0    0  501    0  0.00000000000E+00  0.00000000000E+00 -0.40212277915E+03  0.40212277916E+03  0.25500000920E-02 0. -1.
    10030    2    1    2    0    0  0.00000000000E+00  0.00000000000E+00  0.13161430352E+03  0.93585986183E+03  0.92655887892E+03 0.  0.
        2    1    3    3  502    0 -0.40838956376E+03 -0.28384772966E+02  0.28487162604E+03  0.49873798176E+03  0.25500000920E-02 0.  1.
       -2    1    3    3    0  502  0.40838956376E+03  0.28384772966E+02 -0.15325732252E+03  0.43712188007E+03  0.25500000920E-02 0. -1.
</event>
<event>
 5   0  0.2803717E-02  0.9186274E+03  0.7818609E-02  0.9402591E-01
        2   -1    0    0  501    0  0.00000000000E+00  0.00000000000E+00  0.14806159605E+04  0.14806159605E+04  0.25500000920E-02 0.  1.
       -2   -1    0    0    0  501  0.00000000000E+00  0.00000000000E+00 -0.14248737592E+03  0.14248737594E+03  0.25500000920E-02 0. -1.
    10030    2    1    2    0    0  0.00000000000E+00  0.00000000000E+00  0.13381285846E+04  0.16231033365E+04  0.91862741736E+03 0.  0.
        5    1    3    3  502    0  0.32938472501E+02 -0.12349637474E+03  0.14485176273E+04  0.14541532602E+04  0.46999998093E+01 0.  1.
       -5    1    3    3    0  502 -0.32938472501E+02  0.12349637474E+03 -0.11038904267E+03  0.16895007630E+03  0.46999998093E+01 0. -1.
</event>
<event>
 5   0  0.2414128E-02  0.8965985E+03  0.7818609E-02  0.9429844E-01
        2   -1    0    0  501    0  0.00000000000E+00  0.00000000000E+00  0.16746878296E+04  0.16746878296E+04  0.25500000920E-02 0.  1.
       -2   -1    0    0    0  501  0.00000000000E+00  0.00000000000E+00 -0.12000577290E+03  0.12000577292E+03  0.25500000920E-02 0. -1.
    10030    2    1    2    0    0  0.00000000000E+00  0.00000000000E+00  0.15546820567E+04  0.17946936026E+04  0.89659847731E+03 0.  0.
        3    1    3    3  502    0 -0.44444867435E+03 -0.58521001088E+02  0.77016134511E+03  0.89112728574E+03  0.10100000352E+00 0.  1.
       -3    1    3    3    0  502  0.44444867435E+03  0.58521001088E+02  0.78452071162E+03  0.90356631681E+03  0.10100000352E+00 0. -1.
</event>
<event>
 5   0  0.2803717E-02  0.8951810E+03  0.7818609E-02  0.9431626E-01
        2   -1    0    0  501    0  0.00000000000E+00  0.00000000000E+00  0.13261248462E+04  0.13261248462E+04  0.25500000920E-02 0.  1.
       -2   -1    0    0    0  501  0.00000000000E+00  0.00000000000E+00 -0.15106966323E+03  0.15106966325E+03  0.25500000920E-02 0. -1.
    10030    2    1    2    0    0  0.00000000000E+00  0.00000000000E+00  0.11750551829E+04  0.14771945094E+04  0.89518095138E+03 0.  0.
        5    1    3    3  502    0  0.39885683980E+03 -0.19924457045E+03  0.52298181896E+03  0.68725341066E+03  0.46999998093E+01 0. -1.
       -5    1    3    3    0  502 -0.39885683980E+03  0.19924457045E+03  0.65207336398E+03  0.78994109876E+03  0.46999998093E+01 0.  1.
</event>
<event>
 5   0  0.1560728E-02  0.8994387E+03  0.7818609E-02  0.9426283E-01
       -1   -1    0    0    0  501  0.00000000000E+00  0.00000000000E+00  0.15763350978E+03  0.15763350986E+03  0.50400001928E-02 0.  1.
        1   -1    0    0  501    0  0.00000000000E+00  0.00000000000E+00 -0.12830233942E+04  0.12830233942E+04  0.50400001928E-02 0. -1.
    10030    2    1    2    0    0  0.00000000000E+00  0.00000000000E+00 -0.11253898844E+04  0.14406569041E+04  0.89943867123E+03 0.  0.
        4    1    3    3  502    0 -0.29358854732E+03 -0.19744178215E+03 -0.10073539669E+04  0.10676802517E+04  0.12699999809E+01 0.  1.
       -4    1    3    3    0  502  0.29358854732E+03  0.19744178215E+03 -0.11803591752E+03  0.37297665232E+03  0.12699999809E+01 0. -1.
</event>
<event>
 5   0  0.1497410E-02  0.1070866E+04  0.7818609E-02  0.9234063E-01
       -1   -1    0    0    0  501  0.00000000000E+00  0.00000000000E+00  0.40367774909E+03  0.40367774912E+03  0.50400001928E-02 0.  1.
        1   -1    0    0  501    0  0.00000000000E+00  0.00000000000E+00 -0.71019108594E+03  0.71019108596E+03  0.50400001928E-02 0. -1.
    10030    2    1    2    0    0  0.00000000000E+00  0.00000000000E+00 -0.30651333685E+03  0.11138688351E+04  0.10708657040E+04 0.  0.
        3    1    3    3  502    0  0.33063765290E+03  0.41047934147E+03 -0.25124027240E+03  0.58389744987E+03  0.10100000352E+00 0. -1.
       -3    1    3    3    0  502 -0.33063765290E+03 -0.41047934147E+03 -0.55273064456E+02  0.52997138521E+03  0.10100000352E+00 0.  1.
</event>
<event>
 5   0  0.1497410E-02  0.8993275E+03  0.7818609E-02  0.9426422E-01
       -1   -1    0    0    0  501  0.00000000000E+00  0.00000000000E+00  0.15175095622E+03  0.15175095631E+03  0.50400001928E-02 0. -1.
        1   -1    0    0  501    0  0.00000000000E+00  0.00000000000E+00 -0.13324298440E+04  0.13324298440E+04  0.50400001928E-02 0.  1.
    10030    2    1    2    0    0  0.00000000000E+00  0.00000000000E+00 -0.11806788878E+04  0.14841808003E+04  0.89932753322E+03 0.  0.
        3    1    3    3  502    0 -0.28855737731E+03  0.19838808970E+03 -0.12480123723E+03  0.37175065992E+03  0.10100000352E+00 0. -1.
       -3    1    3    3    0  502  0.28855737731E+03 -0.19838808970E+03 -0.10558776506E+04  0.11124301404E+04  0.10100000352E+00 0.  1.
</event>
<event>
 5   0  0.1537870E-02  0.9095607E+03  0.7818609E-02  0.9413708E-01
        1   -1    0    0  501    0  0.00000000000E+00  0.00000000000E+00  0.47251081960E+03  0.47251081963E+03  0.50400001928E-02 0. -1.
       -1   -1    0    0    0  501  0.00000000000E+00  0.00000000000E+00 -0.43771517065E+03  0.43771517068E+03  0.50400001928E-02 0.  1.
    10030    2    1    2    0    0  0.00000000000E+00  0.00000000000E+00  0.34795648951E+02  0.91022599031E+03  0.90956067211E+03 0.  0.
        5    1    3    3  502    0 -0.19090850346E+03  0.24298369990E+03 -0.31648664281E+03  0.44234943222E+03  0.46999998093E+01 0.  1.
       -5    1    3    3    0  502  0.19090850346E+03 -0.24298369990E+03  0.35128229176E+03  0.46787655809E+03  0.46999998093E+01 0. -1.
</event>
<event>
 5   0  0.2628383E-02  0.8749940E+03  0.7818609E-02  0.9457392E-01
        2   -1    0    0  501    0  0.00000000000E+00  0.00000000000E+00  0.11403741017E+04  0.11403741017E+04  0.25500000920E-02 0. -1.
       -2   -1    0    0    0  501  0.00000000000E+00  0.00000000000E+00 -0.16784283534E+03  0.16784283536E+03  0.25500000920E-02 0.  1.
    10030    2    1    2    0    0  0.00000000000E+00  0.00000000000E+00  0.97253126635E+03  0.13082169371E+04  0.87499399448E+03 0.  0.
        2    1    3    3  502    0 -0.36651607987E+03  0.14387851647E+03  0.77139223479E+03  0.86607219341E+03  0.25500000920E-02 0.  1.
       -2    1    3    3    0  502  0.36651607987E+03 -0.14387851647E+03  0.20113903156E+03  0.44214474364E+03  0.25500000920E-02 0. -1.
</event>
<event>
 5   0  0.2414128E-02  0.8355531E+03  0.7818609E-02  0.9509935E-01
       -2   -1    0    0    0  501  0.00000000000E+00  0.00000000000E+00  0.14431049825E+03  0.14431049828E+03  0.25500000920E-02 0. -1.
        2   -1    0    0  501    0  0.00000000000E+00  0.00000000000E+00 -0.12094562055E+04  0.12094562055E+04  0.25500000920E-02 0.  1.
    10030    2    1    2    0    0  0.00000000000E+00  0.00000000000E+00 -0.10651457073E+04  0.13537667038E+04  0.83555305673E+03 0.  0.
        3    1    3    3  502    0 -0.83538273356E+02 -0.17804901955E+03  0.64615046139E+02  0.20701500155E+03  0.10100000352E+00 0. -1.
       -3    1    3    3    0  502  0.83538273356E+02  0.17804901955E+03 -0.11297607534E+04  0.11467517023E+04  0.10100000352E+00 0.  1.
</event>
<event>
 5   0  0.2414128E-02  0.8167956E+03  0.7818609E-02  0.9536019E-01
       -2   -1    0    0    0  501  0.00000000000E+00  0.00000000000E+00  0.14925919107E+03  0.14925919109E+03  0.25500000920E-02 0.  1.
        2   -1    0    0  501    0  0.00000000000E+00  0.00000000000E+00 -0.11174437312E+04  0.11174437312E+04  0.25500000920E-02 0. -1.
    10030    2    1    2    0    0  0.00000000000E+00  0.00000000000E+00 -0.96818454009E+03  0.12667029222E+04  0.81679556167E+03 0.  0.
        3    1    3    3  502    0 -0.17339895677E+03 -0.36163982697E+03 -0.36458677307E+03  0.54200930615E+03  0.10100000352E+00 0.  1.
       -3    1    3    3    0  502  0.17339895677E+03  0.36163982697E+03 -0.60359776702E+03  0.72469361609E+03  0.10100000352E+00 0. -1.
</event>
<event>
 5   0  0.1459111E-02  0.8997808E+03  0.7818609E-02  0.9425855E-01
        1   -1    0    0  501    0  0.00000000000E+00  0.00000000000E+00  0.43560513418E+03  0.43560513421E+03  0.50400001928E-02 0. -1.
       -1   -1    0    0    0  501  0.00000000000E+00  0.00000000000E+00 -0.46464415890E+03  0.46464415893E+03  0.50400001928E-02 0.  1.
    10030    2    1    2    0    0  0.00000000000E+00  0.00000000000E+00 -0.29039024724E+02  0.90024929314E+03  0.89978082044E+03 0.  0.
        2    1    3    3  502    0  0.24526580466E+03  0.16372926732E+03  0.32542023445E+03  0.43915932975E+03  0.25500000920E-02 0. -1.
       -2    1    3    3    0  502 -0.24526580466E+03 -0.16372926732E+03 -0.35445925918E+03  0.46108996338E+03  0.25500000920E-02 0.  1.
</event>
<event>
 5   0  0.2705111E-02  0.9080908E+03  0.7818609E-02  0.9415524E-01
       -2   -1    0    0    0  501  0.00000000000E+00  0.00000000000E+00  0.27677272224E+03  0.27677272226E+03  0.25500000920E-02 0.  1.
        2   -1    0    0  501    0  0.00000000000E+00  0.00000000000E+00 -0.74486113318E+03  0.74486113318E+03  0.25500000920E-02 0. -1.
    10030    2    1    2    0    0  0.00000000000E+00  0.00000000000E+00 -0.46808841093E+03  0.10216338554E+04  0.90809084024E+03 0.  0.
        4    1    3    3  502    0  0.12497074559E+03 -0.43643772895E+03 -0.22532593833E+03  0.50682242441E+03  0.12699999809E+01 0. -1.
       -4    1    3    3    0  502 -0.12497074559E+03  0.43643772895E+03 -0.24276247261E+03  0.51481143102E+03  0.12699999809E+01 0.  1.
</event>
<event>
 5   0  0.2414128E-02  0.8421769E+03  0.7818609E-02  0.9500897E-01
        2   -1    0    0  501    0  0.00000000000E+00  0.00000000000E+00  0.34705000442E+03  0.34705000443E+03  0.25500000920E-02 0.  1.
       -2   -1    0    0    0  501  0.00000000000E+00  0.00000000000E+00 -0.51092206149E+03  0.51092206150E+03  0.25500000920E-02 0. -1.
    10030    2    1    2    0    0  0.00000000000E+00  0.00000000000E+00 -0.16387205707E+03  0.85797206593E+03  0.84217694983E+03 0.  0.
        3    1    3    3  502    0  0.37212927575E+03  0.14164762908E+03  0.57641766815E+02  0.40232677289E+03  0.10100000352E+00 0.  1.
       -3    1    3    3    0  502 -0.37212927575E+03 -0.14164762908E+03 -0.22151382389E+03  0.45564529304E+03  0.10100000352E+00 0. -1.
</event>
<event>
 5   0  0.2414128E-02  0.9245941E+03  0.7818609E-02  0.9395349E-01
        2   -1    0    0  501    0  0.00000000000E+00  0.00000000000E+00  0.60766258459E+03  0.60766258459E+03  0.25500000920E-02 0.  1.
       -2   -1    0    0    0  501  0.00000000000E+00  0.00000000000E+00 -0.35170600334E+03  0.35170600335E+03  0.25500000920E-02 0. -1.
    10030    2    1    2    0    0  0.00000000000E+00  0.00000000000E+00  0.25595658124E+03  0.95936858794E+03  0.92459413585E+03 0.  0.
        3    1    3    3  502    0  0.14168810544E+03 -0.22164290062E+03 -0.26647405337E+03  0.37444562481E+03  0.10100000352E+00 0. -1.
       -3    1    3    3    0  502 -0.14168810544E+03  0.22164290062E+03  0.52243063461E+03  0.58492296313E+03  0.10100000352E+00 0.  1.
</event>
<event>
 5   0  0.1040163E-02  0.8804583E+03  0.7818609E-02  0.9450345E-01
       -3   -1    0    0    0  501  0.00000000000E+00  0.00000000000E+00  0.21113080313E+03  0.21113082729E+03  0.10100000352E+00 0.  1.
        3   -1    0    0  501    0  0.00000000000E+00  0.00000000000E+00 -0.91792243663E+03  0.91792244219E+03  0.10100000352E+00 0. -1.
    10030    2    1    2    0    0  0.00000000000E+00  0.00000000000E+00 -0.70679163350E+03  0.11290532695E+04  0.88045833072E+03 0.  0.
        4    1    3    3  502    0  0.42727859884E+03 -0.89199346118E+02 -0.27999243575E+03  0.51857583953E+03  0.12699999809E+01 0. -1.
       -4    1    3    3    0  502 -0.42727859884E+03  0.89199346118E+02 -0.42679919775E+03  0.61047742995E+03  0.12699999809E+01 0.  1.
</event>
<event>
 5   0  0.2414128E-02  0.8917312E+03  0.7818609E-02  0.9435977E-01
       -2   -1    0    0    0  501  0.00000000000E+00  0.00000000000E+00  0.23886547421E+03  0.23886547422E+03  0.25500000920E-02 0.  1.
        2   -1    0    0  501    0  0.00000000000E+00  0.00000000000E+00 -0.83225143793E+03  0.83225143793E+03  0.25500000920E-02 0. -1.
    10030    2    1    2    0    0  0.00000000000E+00  0.00000000000E+00 -0.59338596372E+03  0.10711169122E+04  0.89173120253E+03 0.  0.
        3    1    3    3  502    0 -0.19812646325E+03  0.33322777148E+03 -0.56122577534E+03  0.68210646108E+03  0.10100000352E+00 0. -1.
       -3    1    3    3    0  502  0.19812646325E+03 -0.33322777148E+03 -0.32160188373E+02  0.38901045108E+03  0.10100000352E+00 0.  1.
</event>
<event>
 5   0  0.2803717E-02  0.9140764E+03  0.7818609E-02  0.9408154E-01
       -2   -1    0    0    0  501  0.00000000000E+00  0.00000000000E+00  0.19889183103E+03  0.19889183104E+03  0.25500000920E-02 0. -1.
        2   -1    0    0  501    0  0.00000000000E+00  0.00000000000E+00 -0.10502387013E+04  0.10502387013E+04  0.25500000920E-02 0.  1.
    10030    2    1    2    0    0  0.00000000000E+00  0.00000000000E+00 -0.85134687024E+03  0.12491305323E+04  0.91407636075E+03 0.  0.
        5    1    3    3  502    0 -0.13948577643E+03 -0.38504960725E+03 -0.14848840662E+03  0.43564937595E+03  0.46999998093E+01 0. -1.
       -5    1    3    3    0  502  0.13948577643E+03  0.38504960725E+03 -0.70285846362E+03  0.81348115636E+03  0.46999998093E+01 0.  1.
</event>
<event>
 5   0  0.1497410E-02  0.9040865E+03  0.7818609E-02  0.9420488E-01
        1   -1    0    0  501    0  0.00000000000E+00  0.00000000000E+00  0.84597643616E+03  0.84597643617E+03  0.50400001928E-02 0. -1.
       -1   -1    0    0    0  501  0.00000000000E+00  0.00000000000E+00 -0.24154701866E+03  0.24154701871E+03  0.50400001928E-02 0.  1.
    10030    2    1    2    0    0  0.00000000000E+00  0.00000000000E+00  0.60442941750E+03  0.10875234549E+04  0.90408646942E+03 0.  0.
        3    1    3    3  502    0 -0.26424122035E+03 -0.35661898478E+03  0.19913997826E+03  0.48647431996E+03  0.10100000352E+00 0. -1.
       -3    1    3    3    0  502  0.26424122035E+03  0.35661898478E+03  0.40528943924E+03  0.60104913493E+03  0.10100000352E+00 0.  1.
</event>
<event>
 5   0  0.1040163E-02  0.8917135E+03  0.7818609E-02  0.9436000E-01
        3   -1    0    0  501    0  0.00000000000E+00  0.00000000000E+00  0.57184795605E+03  0.57184796497E+03  0.10100000352E+00 0.  1.
       -3   -1    0    0    0  501  0.00000000000E+00  0.00000000000E+00 -0.34762423952E+03  0.34762425419E+03  0.10100000352E+00 0. -1.
    10030    2    1    2    0    0  0.00000000000E+00  0.00000000000E+00  0.22422371653E+03  0.91947221916E+03  0.89171345551E+03 0.  0.
        2    1    3    3  502    0 -0.60189161211E+02  0.12016114492E+03 -0.32624171841E+03  0.35283862418E+03  0.25500000920E-02 0. -1.
       -2    1    3    3    0  502  0.60189161211E+02 -0.12016114492E+03  0.55046543494E+03  0.56663359497E+03  0.25500000920E-02 0.  1.
</event>
<event>
 5   0  0.1459111E-02  0.8850203E+03  0.7818609E-02  0.9444503E-01
        1   -1    0    0  501    0  0.00000000000E+00  0.00000000000E+00  0.42938905918E+03  0.42938905921E+03  0.50400001928E-02 0.  1.
       -1   -1    0    0    0  501  0.00000000000E+00  0.00000000000E+00 -0.45603221179E+03  0.45603221181E+03  0.50400001928E-02 0. -1.
    10030    2    1    2    0    0  0.00000000000E+00  0.00000000000E+00 -0.26643152602E+02  0.88542127103E+03  0.88502032158E+03 0.  0.
        2    1    3    3  502    0  0.38657782097E+03  0.74633590835E+02 -0.21540976665E+03  0.44879165781E+03  0.25500000920E-02 0.  1.
       -2    1    3    3    0  502 -0.38657782097E+03 -0.74633590835E+02  0.18876661405E+03  0.43662961321E+03  0.25500000920E-02 0. -1.
</event>
<event>
 5   0  0.1560728E-02  0.8951860E+03  0.7818609E-02  0.9431619E-01
        1   -1    0    0  501    0  0.00000000000E+00  0.00000000000E+00  0.52420643740E+03  0.52420643743E+03  0.50400001928E-02 0. -1.
       -1   -1    0    0    0  501  0.00000000000E+00  0.00000000000E+00 -0.38217668642E+03  0.38217668645E+03  0.50400001928E-02 0.  1.
    10030    2    1    2    0    0  0.00000000000E+00  0.00000000000E+00  0.14202975099E+03  0.90638312388E+03  0.89518596788E+03 0.  0.
        4    1    3    3  502    0 -0.22743539363E+03 -0.74824689297E+02  0.45391472958E+03  0.51319176439E+03  0.12699999809E+01 0. -1.
       -4    1    3    3    0  502  0.22743539363E+03  0.74824689297E+02 -0.31188497859E+03  0.39319135949E+03  0.12699999809E+01 0.  1.
</event>
<event>
 5   0  0.2414128E-02  0.9109037E+03  0.7818609E-02  0.9412053E-01
       -2   -1    0    0    0  501  0.00000000000E+00  0.00000000000E+00  0.55770161440E+03  0.55770161441E+03  0.25500000920E-02 0. -1.
        2   -1    0    0  501    0  0.00000000000E+00  0.00000000000E+00 -0.37194866948E+03  0.37194866949E+03  0.25500000920E-02 0.  1.
    10030    2    1    2    0    0  0.00000000000E+00  0.00000000000E+00  0.18575294492E+03  0.92965028390E+03  0.91090366879E+03 0.  0.
        3    1    3    3  502    0 -0.21548088566E+03  0.25321813569E+03 -0.22479283996E+03  0.40135180008E+03  0.10100000352E+00 0.  1.
       -3    1    3    3    0  502  0.21548088566E+03 -0.25321813569E+03  0.41054578488E+03  0.52829848382E+03  0.10100000352E+00 0. -1.
</event>
<event>
 5   0  0.2414128E-02  0.9139653E+03  0.7818609E-02  0.9408291E-01
       -2   -1    0    0    0  501  0.00000000000E+00  0.00000000000E+00  0.30775042268E+03  0.30775042269E+03  0.25500000920E-02 0. -1.
        2   -1    0    0  501    0  0.00000000000E+00  0.00000000000E+00 -0.67857955179E+03  0.67857955179E+03  0.25500000920E-02 0.  1.
    10030    2    1    2    0    0  0.00000000000E+00  0.00000000000E+00 -0.37082912911E+03  0.98632997448E+03  0.91396530326E+03 0.  0.
        3    1    3    3  502    0 -0.77414927433E+02 -0.43248264964E+03 -0.49769232072E+02  0.44216659744E+03  0.10100000352E+00 0.  1.
       -3    1    3    3    0  502  0.77414927433E+02  0.43248264964E+03 -0.32105989704E+03  0.54416337704E+03  0.10100000352E+00 0. -1.
</event>
<event>
 5   0  0.2679861E-02  0.9194266E+03  0.7818609E-02  0.9401618E-01
        2   -1    0    0  501    0  0.00000000000E+00  0.00000000000E+00  0.12245009981E+04  0.12245009981E+04  0.25500000920E-02 0. -1.
       -2   -1    0    0    0  501  0.00000000000E+00  0.00000000000E+00 -0.17258973810E+03  0.17258973812E+03  0.25500000920E-02 0.  1.
    10030    2    1    2    0    0  0.00000000000E+00  0.00000000000E+00  0.10519112600E+04  0.13970907362E+04  0.91942657472E+03 0.  0.
        1    1    3    3  502    0 -0.92458475228E+02  0.20156080457E+03  0.11378560333E+04  0.11592634214E+04  0.50400001928E-02 0. -1.
       -1    1    3    3    0  502  0.92458475228E+02 -0.20156080457E+03 -0.85944773347E+02  0.23782731481E+03  0.50400001928E-02 0.  1.
</event>
<event>
 5   0  0.1559275E-02  0.8959817E+03  0.7818609E-02  0.9430619E-01
        1   -1    0    0  501    0  0.00000000000E+00  0.00000000000E+00  0.34339541693E+03  0.34339541697E+03  0.50400001928E-02 0. -1.
       -1   -1    0    0    0  501  0.00000000000E+00  0.00000000000E+00 -0.58444516452E+03  0.58444516454E+03  0.50400001928E-02 0.  1.
    10030    2    1    2    0    0  0.00000000000E+00  0.00000000000E+00 -0.24104974759E+03  0.92784058151E+03  0.89598167609E+03 0.  0.
        1    1    3    3  502    0 -0.24185367808E+03  0.37133247572E+03 -0.52502206727E+02  0.44624823906E+03  0.50400001928E-02 0. -1.
       -1    1    3    3    0  502  0.24185367808E+03 -0.37133247572E+03 -0.18854754086E+03  0.48159234246E+03  0.50400001928E-02 0.  1.
</event>
<event>
 5   0  0.2628383E-02  0.9378982E+03  0.7818609E-02  0.9379409E-01
        2   -1    0    0  501    0  0.00000000000E+00  0.00000000000E+00  0.93892831670E+03  0.93892831670E+03  0.25500000920E-02 0. -1.
       -2   -1    0    0    0  501  0.00000000000E+00  0.00000000000E+00 -0.23421732438E+03  0.23421732439E+03  0.25500000920E-02 0.  1.
    10030    2    1    2    0    0  0.00000000000E+00  0.00000000000E+00  0.70471099232E+03  0.11731456411E+04  0.93789824210E+03 0.  0.
        2    1    3    3  502    0 -0.24471091001E+01 -0.10434298625E+03 -0.21950481412E+03  0.24305515948E+03  0.25500000920E-02 0.  1.
       -2    1    3    3    0  502  0.24471091001E+01  0.10434298625E+03  0.92421580644E+03  0.93009048162E+03  0.25500000920E-02 0. -1.
</event>
<event>
 5   0  0.2414128E-02  0.9059454E+03  0.7818609E-02  0.9418180E-01
        2   -1    0    0  501    0  0.00000000000E+00  0.00000000000E+00  0.59080691625E+03  0.59080691625E+03  0.25500000920E-02 0. -1.
       -2   -1    0    0    0  501  0.00000000000E+00  0.00000000000E+00 -0.34729498418E+03  0.34729498419E+03  0.25500000920E-02 0.  1.
    10030    2    1    2    0    0  0.00000000000E+00  0.00000000000E+00  0.24351193206E+03  0.93810190045E+03  0.90594542582E+03 0.  0.
        3    1    3    3  502    0 -0.36160298153E+03  0.26653168237E+03  0.61479713452E+02  0.45340447651E+03  0.10100000352E+00 0.  1.
       -3    1    3    3    0  502  0.36160298153E+03 -0.26653168237E+03  0.18203221861E+03  0.48469742393E+03  0.10100000352E+00 0. -1.
</event>
<event>
 5   0  0.1559275E-02  0.9164364E+03  0.7818609E-02  0.9405265E-01
       -1   -1    0    0    0  501  0.00000000000E+00  0.00000000000E+00  0.14716630596E+03  0.14716630604E+03  0.50400001928E-02 0.  1.
        1   -1    0    0  501    0  0.00000000000E+00  0.00000000000E+00 -0.14267118587E+04  0.14267118587E+04  0.50400001928E-02 0. -1.
    10030    2    1    2    0    0  0.00000000000E+00  0.00000000000E+00 -0.12795455528E+04  0.15738781648E+04  0.91643638947E+03 0.  0.
        1    1    3    3  502    0  0.12935515868E+03  0.41081637335E+03 -0.90837305511E+03  0.10053081403E+04  0.50400001928E-02 0.  1.
       -1    1    3    3    0  502 -0.12935515868E+03 -0.41081637335E+03 -0.37117249766E+03  0.56857002448E+03  0.50400001928E-02 0. -1.
</event>
<event>
 5   0  0.2705111E-02  0.8939844E+03  0.7818609E-02  0.9433133E-01
       -2   -1    0    0    0  501  0.00000000000E+00  0.00000000000E+00  0.15266984161E+03  0.15266984163E+03  0.25500000920E-02 0. -1.
        2   -1    0    0  501    0  0.00000000000E+00  0.00000000000E+00 -0.13087196832E+04  0.13087196832E+04  0.25500000920E-02 0.  1.
    10030    2    1    2    0    0  0.00000000000E+00  0.00000000000E+00 -0.11560498416E+04  0.14613895248E+04  0.89398439976E+03 0.  0.
        4    1    3    3  502    0 -0.33224814329E+03 -0.17730849435E+03 -0.97162030532E+03  0.10420531472E+04  0.12699999809E+01 0.  1.
       -4    1    3    3    0  502  0.33224814329E+03  0.17730849435E+03 -0.18442953626E+03  0.41933637766E+03  0.12699999809E+01 0. -1.
</event>
<event>
 5   0  0.1537870E-02  0.9093195E+03  0.7818609E-02  0.9414006E-01
        1   -1    0    0  501    0  0.00000000000E+00  0.00000000000E+00  0.42281100262E+03  0.42281100265E+03  0.50400001928E-02 0.  1.
       -1   -1    0    0    0  501  0.00000000000E+00  0.00000000000E+00 -0.48890756595E+03  0.48890756598E+03  0.50400001928E-02 0. -1.
    10030    2    1    2    0    0  0.00000000000E+00  0.00000000000E+00 -0.66096563329E+02  0.91171856863E+03  0.90931952178E+03 0.  0.
        5    1    3    3  502    0  0.28523691682E+03 -0.34282777387E+03 -0.12161267253E+03  0.46227990804E+03  0.46999998093E+01 0. -1.
       -5    1    3    3    0  502 -0.28523691682E+03  0.34282777387E+03  0.55516109202E+02  0.44943866059E+03  0.46999998093E+01 0.  1.
</event>
<event>
 5   0  0.2803717E-02  0.6253094E+03  0.7818609E-02  0.9854245E-01
        2   -1    0    0  501    0  0.00000000000E+00  0.00000000000E+00  0.75841562254E+03  0.75841562254E+03  0.25500000920E-02 0. -1.
       -2   -1    0    0    0  501  0.00000000000E+00  0.00000000000E+00 -0.12889100188E+03  0.12889100191E+03  0.25500000920E-02 0.  1.
    10030    2    1    2    0    0  0.00000000000E+00  0.00000000000E+00  0.62952462066E+03  0.88730662445E+03  0.62530936166E+03 0.  0.
        5    1    3    3  502    0  0.85067311556E+02  0.19256314892E+03 -0.13186240925E+02  0.21098099621E+03  0.46999998093E+01 0.  1.
       -5    1    3    3    0  502 -0.85067311556E+02 -0.19256314892E+03  0.64271086158E+03  0.67632562824E+03  0.46999998093E+01 0. -1.
</event>
<event>
 5   0  0.2705111E-02  0.8923736E+03  0.7818609E-02  0.9435165E-01
        2   -1    0    0  501    0  0.00000000000E+00  0.00000000000E+00  0.83554789580E+03  0.83554789580E+03  0.25500000920E-02 0.  1.
       -2   -1    0    0    0  501  0.00000000000E+00  0.00000000000E+00 -0.23826602745E+03  0.23826602746E+03  0.25500000920E-02 0. -1.
    10030    2    1    2    0    0  0.00000000000E+00  0.00000000000E+00  0.59728186835E+03  0.10738139233E+04  0.89237363897E+03 0.  0.
        4    1    3    3  502    0 -0.30520491001E+03 -0.32455671752E+03  0.26931426594E+03  0.52059474327E+03  0.12699999809E+01 0. -1.
       -4    1    3    3    0  502  0.30520491001E+03  0.32455671752E+03  0.32796760240E+03  0.55321917999E+03  0.12699999809E+01 0.  1.
</event>
<event>
 5   0  0.2414128E-02  0.1000092E+04  0.7818609E-02  0.9308444E-01
        2   -1    0    0  501    0  0.00000000000E+00  0.00000000000E+00  0.17450319370E+04  0.17450319370E+04  0.25500000920E-02 0.  1.
       -2   -1    0    0    0  501  0.00000000000E+00  0.00000000000E+00 -0.14329024081E+03  0.14329024083E+03  0.25500000920E-02 0. -1.
    10030    2    1    2    0    0  0.00000000000E+00  0.00000000000E+00  0.16017416962E+04  0.18883221778E+04  0.10000920887E+04 0.  0.
        3    1    3    3  502    0  0.28147441576E+03 -0.41162717807E+03  0.73069734370E+03  0.88463743915E+03  0.10100000352E+00 0. -1.
       -3    1    3    3    0  502 -0.28147441576E+03  0.41162717807E+03  0.87104435246E+03  0.10036847387E+04  0.10100000352E+00 0.  1.
</event>
<event>
 5   0  0.2414128E-02  0.9107825E+03  0.7818609E-02  0.9412202E-01
       -2   -1    0    0    0  501  0.00000000000E+00  0.00000000000E+00  0.61772784543E+03  0.61772784544E+03  0.25500000920E-02 0.  1.
        2   -1    0    0  501    0  0.00000000000E+00  0.00000000000E+00 -0.33571609053E+03  0.33571609054E+03  0.25500000920E-02 0. -1.
    10030    2    1    2    0    0  0.00000000000E+00  0.00000000000E+00  0.28201175491E+03  0.95344393598E+03  0.91078247082E+03 0.  0.
        3    1    3    3  502    0  0.26077343989E+03 -0.20171531357E+03 -0.18785753507E+03  0.37945002090E+03  0.10100000352E+00 0. -1.
       -3    1    3    3    0  502 -0.26077343989E+03  0.20171531357E+03  0.46986928998E+03  0.57399391508E+03  0.10100000352E+00 0.  1.
</event>
<event>
 5   0  0.2705111E-02  0.8788220E+03  0.7818609E-02  0.9452449E-01
        2   -1    0    0  501    0  0.00000000000E+00  0.00000000000E+00  0.57992937294E+03  0.57992937295E+03  0.25500000920E-02 0.  1.
       -2   -1    0    0    0  501  0.00000000000E+00  0.00000000000E+00 -0.33294057203E+03  0.33294057204E+03  0.25500000920E-02 0. -1.
    10030    2    1    2    0    0  0.00000000000E+00  0.00000000000E+00  0.24698880091E+03  0.91286994499E+03  0.87882197781E+03 0.  0.
        4    1    3    3  502    0  0.59234100401E+02  0.12867015045E+01 -0.32877050052E+03  0.33406883896E+03  0.12699999809E+01 0. -1.
       -4    1    3    3    0  502 -0.59234100401E+02 -0.12867015045E+01  0.57575930143E+03  0.57880110603E+03  0.12699999809E+01 0.  1.
</event>
<event>
 5   0  0.2414128E-02  0.8016216E+03  0.7818609E-02  0.9557673E-01
        2   -1    0    0  501    0  0.00000000000E+00  0.00000000000E+00  0.10314247164E+04  0.10314247164E+04  0.25500000920E-02 0. -1.
       -2   -1    0    0    0  501  0.00000000000E+00  0.00000000000E+00 -0.15575475372E+03  0.15575475374E+03  0.25500000920E-02 0.  1.
    10030    2    1    2    0    0  0.00000000000E+00  0.00000000000E+00  0.87566996264E+03  0.11871794701E+04  0.80162161322E+03 0.  0.
        3    1    3    3  502    0 -0.23340552773E+02 -0.21303086362E+03 -0.63780579135E+02  0.22359539962E+03  0.10100000352E+00 0.  1.
       -3    1    3    3    0  502  0.23340552773E+02  0.21303086362E+03  0.93945054177E+03  0.96358407048E+03  0.10100000352E+00 0. -1.
</event>
<event>
 5   0  0.1040163E-02  0.8916568E+03  0.7818609E-02  0.9436071E-01
       -3   -1    0    0    0  501  0.00000000000E+00  0.00000000000E+00  0.25220908814E+03  0.25220910836E+03  0.10100000352E+00 0.  1.
        3   -1    0    0  501    0  0.00000000000E+00  0.00000000000E+00 -0.78808793878E+03  0.78808794525E+03  0.10100000352E+00 0. -1.
    10030    2    1    2    0    0  0.00000000000E+00  0.00000000000E+00 -0.53587885064E+03  0.10402970536E+04  0.89165678217E+03 0.  0.
        2    1    3    3  502    0 -0.20343356483E+03  0.12625574540E+03  0.17083521185E+03  0.29412650027E+03  0.25500000920E-02 0.  1.
       -2    1    3    3    0  502  0.20343356483E+03 -0.12625574540E+03 -0.70671406249E+03  0.74617055334E+03  0.25500000920E-02 0. -1.
</event>
<event>
 5   0  0.1497410E-02  0.9232747E+03  0.7818609E-02  0.9396946E-01
        1   -1    0    0  501    0  0.00000000000E+00  0.00000000000E+00  0.33657518857E+03  0.33657518861E+03  0.50400001928E-02 0. -1.
       -1   -1    0    0    0  501  0.00000000000E+00  0.00000000000E+00 -0.63316921991E+03  0.63316921993E+03  0.50400001928E-02 0.  1.
    10030    2    1    2    0    0  0.00000000000E+00  0.00000000000E+00 -0.29659403134E+03  0.96974440853E+03  0.92327471451E+03 0.  0.
        3    1    3    3  502    0  0.20310934626E+03 -0.35814850872E+03  0.70981587180E+02  0.41780636276E+03  0.10100000352E+00 0. -1.
       -3    1    3    3    0  502 -0.20310934626E+03  0.35814850872E+03 -0.36757561852E+03  0.55193804577E+03  0.10100000352E+00 0.  1.
</event>
<event>
 5   0  0.2679861E-02  0.9058235E+03  0.7818609E-02  0.9418331E-01
        2   -1    0    0  501    0  0.00000000000E+00  0.00000000000E+00  0.89479393843E+03  0.89479393843E+03  0.25500000920E-02 0.  1.
       -2   -1    0    0    0  501  0.00000000000E+00  0.00000000000E+00 -0.22924724985E+03  0.22924724986E+03  0.25500000920E-02 0. -1.
    10030    2    1    2    0    0  0.00000000000E+00  0.00000000000E+00  0.66554668858E+03  0.11240411883E+04  0.90582349180E+03 0.  0.
        1    1    3    3  502    0  0.23950829484E+02  0.39119335914E+02  0.89190424721E+03  0.89308294737E+03  0.50400001928E-02 0.  1.
       -1    1    3    3    0  502 -0.23950829484E+02 -0.39119335914E+02 -0.22635755863E+03  0.23095824092E+03  0.50400001928E-02 0. -1.
</event>
<event>
 5   0  0.1559275E-02  0.7646974E+03  0.7818609E-02  0.9612571E-01
        1   -1    0    0  501    0  0.00000000000E+00  0.00000000000E+00  0.11023604149E+04  0.11023604149E+04  0.50400001928E-02 0. -1.
       -1   -1    0    0    0  501  0.00000000000E+00  0.00000000000E+00 -0.13261589932E+03  0.13261589941E+03  0.50400001928E-02 0.  1.
    10030    2    1    2    0    0  0.00000000000E+00  0.00000000000E+00  0.96974451554E+03  0.12349763143E+04  0.76469737243E+03 0.  0.
        1    1    3    3  502    0  0.77363511998E+02  0.28472199408E+03  0.92132153574E+02  0.30909555262E+03  0.50400001928E-02 0.  1.
       -1    1    3    3    0  502 -0.77363511998E+02 -0.28472199408E+03  0.87761236196E+03  0.92588076165E+03  0.50400001928E-02 0. -1.
</event>
<event>
 5   0  0.2705111E-02  0.8227701E+03  0.7818609E-02  0.9527631E-01
        2   -1    0    0  501    0  0.00000000000E+00  0.00000000000E+00  0.42430804887E+03  0.42430804888E+03  0.25500000920E-02 0.  1.
       -2   -1    0    0    0  501  0.00000000000E+00  0.00000000000E+00 -0.39885563299E+03  0.39885563300E+03  0.25500000920E-02 0. -1.
    10030    2    1    2    0    0  0.00000000000E+00  0.00000000000E+00  0.25452415880E+02  0.82316368188E+03  0.82277009042E+03 0.  0.
        4    1    3    3  502    0  0.80198763677E+01 -0.26108013769E+03  0.33069719543E+03  0.42141357913E+03  0.12699999809E+01 0.  1.
       -4    1    3    3    0  502 -0.80198763677E+01  0.26108013769E+03 -0.30524477955E+03  0.40175010274E+03  0.12699999809E+01 0. -1.
</event>
<event>
 5   0  0.2705111E-02  0.8880449E+03  0.7818609E-02  0.9440651E-01
        2   -1    0    0  501    0  0.00000000000E+00  0.00000000000E+00  0.10812197285E+04  0.10812197285E+04  0.25500000920E-02 0. -1.
       -2   -1    0    0    0  501  0.00000000000E+00  0.00000000000E+00 -0.18234583607E+03  0.18234583608E+03  0.25500000920E-02 0.  1.
    10030    2    1    2    0    0  0.00000000000E+00  0.00000000000E+00  0.89887389243E+03  0.12635655646E+04  0.88804485332E+03 0.  0.
        4    1    3    3  502    0 -0.84799502161E+02 -0.15820666014E+03 -0.12841685622E+03  0.22070977491E+03  0.12699999809E+01 0.  1.
       -4    1    3    3    0  502  0.84799502161E+02  0.15820666014E+03  0.10272907486E+04  0.10428557897E+04  0.12699999809E+01 0. -1.
</event>
<event>
 5   0  0.1537870E-02  0.9223387E+03  0.7818609E-02  0.9398080E-01
       -1   -1    0    0    0  501  0.00000000000E+00  0.00000000000E+00  0.58113625180E+03  0.58113625182E+03  0.50400001928E-02 0. -1.
        1   -1    0    0  501    0  0.00000000000E+00  0.00000000000E+00 -0.36596781104E+03  0.36596781107E+03  0.50400001928E-02 0.  1.
    10030    2    1    2    0    0  0.00000000000E+00  0.00000000000E+00  0.21516844076E+03  0.94710406290E+03  0.92233868403E+03 0.  0.
        5    1    3    3  502    0  0.29495927345E+03 -0.28388859179E+03 -0.11039216898E+03  0.42403092637E+03  0.46999998093E+01 0.  1.
       -5    1    3    3    0  502 -0.29495927345E+03  0.28388859179E+03  0.32556060974E+03  0.52307313653E+03  0.46999998093E+01 0. -1.
</event>
<event>
 5   0  0.2705111E-02  0.9140847E+03  0.7818609E-02  0.9408144E-01
        2   -1    0    0  501    0  0.00000000000E+00  0.00000000000E+00  0.13929856462E+04  0.13929856462E+04  0.25500000920E-02 0. -1.
       -2   -1    0    0    0  501  0.00000000000E+00  0.00000000000E+00 -0.14995682354E+03  0.14995682357E+03  0.25500000920E-02 0.  1.
    10030    2    1    2    0    0  0.00000000000E+00  0.00000000000E+00  0.12430288227E+04  0.15429424698E+04  0.91408468485E+03 0.  0.
        4    1    3    3  502    0 -0.23029156228E+03 -0.60239349271E+02 -0.37058088322E+02  0.24091055948E+03  0.12699999809E+01 0. -1.
       -4    1    3    3    0  502  0.23029156228E+03  0.60239349271E+02  0.12800869110E+04  0.13020319103E+04  0.12699999809E+01 0.  1.
</event>
<event>
 5   0  0.2679861E-02  0.8877030E+03  0.7818609E-02  0.9441085E-01
       -2   -1    0    0    0  501  0.00000000000E+00  0.00000000000E+00  0.39053496109E+03  0.39053496110E+03  0.25500000920E-02 0.  1.
        2   -1    0    0  501    0  0.00000000000E+00  0.00000000000E+00 -0.50444693082E+03  0.50444693082E+03  0.25500000920E-02 0. -1.
    10030    2    1    2    0    0  0.00000000000E+00  0.00000000000E+00 -0.11391196973E+03  0.89498189192E+03  0.88770301904E+03 0.  0.
        1    1    3    3  502    0  0.22676364112E+03  0.33837580989E+03  0.12079686492E+03  0.42486682649E+03  0.50400001928E-02 0.  1.
       -1    1    3    3    0  502 -0.22676364112E+03 -0.33837580989E+03 -0.23470883465E+03  0.47011506543E+03  0.50400001928E-02 0. -1.
</event>
<event>
 5   0  0.1560728E-02  0.9211912E+03  0.7818609E-02  0.9399472E-01
        1   -1    0    0  501    0  0.00000000000E+00  0.00000000000E+00  0.15884860179E+04  0.15884860179E+04  0.50400001928E-02 0.  1.
       -1   -1    0    0    0  501  0.00000000000E+00  0.00000000000E+00 -0.13355378279E+03  0.13355378289E+03  0.50400001928E-02 0. -1.
    10030    2    1    2    0    0  0.00000000000E+00  0.00000000000E+00  0.14549322351E+04  0.17220398008E+04  0.92119122161E+03 0.  0.
        4    1    3    3  502    0 -0.14933211479E+03 -0.33455340026E+03  0.12492848499E+04  0.13018987315E+04  0.12699999809E+01 0.  1.
       -4    1    3    3    0  502  0.14933211479E+03  0.33455340026E+03  0.20564738524E+03  0.42014106927E+03  0.12699999809E+01 0. -1.
</event>
<event>
 5   0  0.1537870E-02  0.8955010E+03  0.7818609E-02  0.9431223E-01
       -1   -1    0    0    0  501  0.00000000000E+00  0.00000000000E+00  0.71082590826E+03  0.71082590827E+03  0.50400001928E-02 0.  1.
        1   -1    0    0  501    0  0.00000000000E+00  0.00000000000E+00 -0.28203884869E+03  0.28203884874E+03  0.50400001928E-02 0. -1.
    10030    2    1    2    0    0  0.00000000000E+00  0.00000000000E+00  0.42878705956E+03  0.99286475701E+03  0.89550102360E+03 0.  0.
        5    1    3    3  502    0  0.82846317992E+01  0.79549620404E+02  0.70281401683E+03  0.70736582437E+03  0.46999998093E+01 0.  1.
       -5    1    3    3    0  502 -0.82846317992E+01 -0.79549620404E+02 -0.27402695727E+03  0.28549893264E+03  0.46999998093E+01 0. -1.
</event>
<event>
 5   0  0.1497410E-02  0.6653454E+03  0.7818609E-02  0.9778403E-01
        1   -1    0    0  501    0  0.00000000000E+00  0.00000000000E+00  0.48395034887E+03  0.48395034890E+03  0.50400001928E-02 0. -1.
       -1   -1    0    0    0  501  0.00000000000E+00  0.00000000000E+00 -0.22868283588E+03  0.22868283594E+03  0.50400001928E-02 0.  1.
    10030    2    1    2    0    0  0.00000000000E+00  0.00000000000E+00  0.25526751299E+03  0.71263318484E+03  0.66534543881E+03 0.  0.
        3    1    3    3  502    0 -0.10905767652E+03 -0.69791269079E+02 -0.20058788793E+03  0.23874653721E+03  0.10100000352E+00 0.  1.
       -3    1    3    3    0  502  0.10905767652E+03  0.69791269079E+02  0.45585540092E+03  0.47388664762E+03  0.10100000352E+00 0. -1.
</event>
<event>
 5   0  0.2705111E-02  0.9089982E+03  0.7818609E-02  0.9414403E-01
       -2   -1    0    0    0  501  0.00000000000E+00  0.00000000000E+00  0.14406912016E+03  0.14406912019E+03  0.25500000920E-02 0. -1.
        2   -1    0    0  501    0  0.00000000000E+00  0.00000000000E+00 -0.14338218592E+04  0.14338218592E+04  0.25500000920E-02 0.  1.
    10030    2    1    2    0    0  0.00000000000E+00  0.00000000000E+00 -0.12897527391E+04  0.15778909794E+04  0.90899824807E+03 0.  0.
        4    1    3    3  502    0  0.24431286298E+03 -0.23546603051E+03 -0.11998462678E+03  0.35990408459E+03  0.12699999809E+01 0. -1.
       -4    1    3    3    0  502 -0.24431286298E+03  0.23546603051E+03 -0.11697681123E+04  0.12179868948E+04  0.12699999809E+01 0.  1.
</event>
<event>
 5   0  0.2679861E-02  0.6690493E+03  0.7818609E-02  0.9771677E-01
       -2   -1    0    0    0  501  0.00000000000E+00  0.00000000000E+00  0.11302692882E+03  0.11302692885E+03  0.25500000920E-02 0.  1.
        2   -1    0    0  501    0  0.00000000000E+00  0.00000000000E+00 -0.99008916286E+03  0.99008916286E+03  0.25500000920E-02 0. -1.
    10030    2    1    2    0    0  0.00000000000E+00  0.00000000000E+00 -0.87706223404E+03  0.11031160917E+04  0.66904928773E+03 0.  0.
        1    1    3    3  502    0  0.25475871135E+03 -0.66454811974E+02 -0.98272407809E+02  0.28102617174E+03  0.50400001928E-02 0.  1.
       -1    1    3    3    0  502 -0.25475871135E+03  0.66454811974E+02 -0.77878982623E+03  0.82208991996E+03  0.50400001928E-02 0. -1.
</event>
<event>
 5   0  0.2628383E-02  0.9046531E+03  0.7818609E-02  0.9419783E-01
        2   -1    0    0  501    0  0.00000000000E+00  0.00000000000E+00  0.79512195297E+03  0.79512195297E+03  0.25500000920E-02 0.  1.
       -2   -1    0    0    0  501  0.00000000000E+00  0.00000000000E+00 -0.25731816079E+03  0.25731816080E+03  0.25500000920E-02 0. -1.
    10030    2    1    2    0    0  0.00000000000E+00  0.00000000000E+00  0.53780379218E+03  0.10524401138E+04  0.90465312369E+03 0.  0.
        2    1    3    3  502    0  0.35960046197E+03 -0.12901636413E+03  0.55062225077E+03  0.67018100354E+03  0.25500000920E-02 0. -1.
       -2    1    3    3    0  502 -0.35960046197E+03  0.12901636413E+03 -0.12818458588E+02  0.38225911023E+03  0.25500000920E-02 0.  1.
</event>
<event>
 5   0  0.2803717E-02  0.8632058E+03  0.7818609E-02  0.9472782E-01
        2   -1    0    0  501    0  0.00000000000E+00  0.00000000000E+00  0.95786027722E+03  0.95786027722E+03  0.25500000920E-02 0.  1.
       -2   -1    0    0    0  501  0.00000000000E+00  0.00000000000E+00 -0.19447625382E+03  0.19447625384E+03  0.25500000920E-02 0. -1.
    10030    2    1    2    0    0  0.00000000000E+00  0.00000000000E+00  0.76338402340E+03  0.11523365311E+04  0.86320583504E+03 0.  0.
        5    1    3    3  502    0  0.11382726667E+03  0.24083304215E+03  0.83498915572E+03  0.87646231008E+03  0.46999998093E+01 0.  1.
       -5    1    3    3    0  502 -0.11382726667E+03 -0.24083304215E+03 -0.71605132320E+02  0.27587422098E+03  0.46999998093E+01 0. -1.
</event>
<event>
 5   0  0.2628383E-02  0.8587805E+03  0.7818609E-02  0.9478627E-01
       -2   -1    0    0    0  501  0.00000000000E+00  0.00000000000E+00  0.10348209382E+03  0.10348209385E+03  0.25500000920E-02 0. -1.
        2   -1    0    0  501    0  0.00000000000E+00  0.00000000000E+00 -0.17817185465E+04  0.17817185465E+04  0.25500000920E-02 0.  1.
    10030    2    1    2    0    0  0.00000000000E+00  0.00000000000E+00 -0.16782364527E+04  0.18852006403E+04  0.85878045115E+03 0.  0.
        2    1    3    3  502    0 -0.28596723523E+03  0.17398997918E+03 -0.24874965051E+03  0.41704455531E+03  0.25500000920E-02 0.  1.
       -2    1    3    3    0  502  0.28596723523E+03 -0.17398997918E+03 -0.14294868021E+04  0.14681560850E+04  0.25500000920E-02 0. -1.
</event>
<event>
 5   0  0.1497410E-02  0.9283638E+03  0.7818609E-02  0.9390804E-01
        1   -1    0    0  501    0  0.00000000000E+00  0.00000000000E+00  0.54764009595E+03  0.54764009598E+03  0.50400001928E-02 0.  1.
       -1   -1    0    0    0  501  0.00000000000E+00  0.00000000000E+00 -0.39344241053E+03  0.39344241056E+03  0.50400001928E-02 0. -1.
    10030    2    1    2    0    0  0.00000000000E+00  0.00000000000E+00  0.15419768542E+03  0.94108250653E+03  0.92836380687E+03 0.  0.
        3    1    3    3  502    0 -0.41226056935E+03 -0.21024176414E+03  0.40486822604E+02  0.46454232255E+03  0.10100000352E+00 0.  1.
       -3    1    3    3    0  502  0.41226056935E+03  0.21024176414E+03  0.11371086282E+03  0.47654018399E+03  0.10100000352E+00 0. -1.
</event>
<event>
 5   0  0.2679861E-02  0.8507010E+03  0.7818609E-02  0.9489397E-01
       -2   -1    0    0    0  501  0.00000000000E+00  0.00000000000E+00  0.99571825443E+02  0.99571825475E+02  0.25500000920E-02 0. -1.
        2   -1    0    0  501    0  0.00000000000E+00  0.00000000000E+00 -0.18170106152E+04  0.18170106152E+04  0.25500000920E-02 0.  1.
    10030    2    1    2    0    0  0.00000000000E+00  0.00000000000E+00 -0.17174387898E+04  0.19165824407E+04  0.85070103760E+03 0.  0.
        1    1    3    3  502    0  0.30812985576E+03 -0.19978341655E+03 -0.37517193332E+03  0.52498704852E+03  0.50400001928E-02 0. -1.
       -1    1    3    3    0  502 -0.30812985576E+03  0.19978341655E+03 -0.13422668565E+04  0.13915953922E+04  0.50400001928E-02 0.  1.
</event>
<event>
 5   0  0.1459111E-02  0.9125329E+03  0.7818609E-02  0.9410049E-01
        1   -1    0    0  501    0  0.00000000000E+00  0.00000000000E+00  0.14092147702E+04  0.14092147702E+04  0.50400001928E-02 0. -1.
       -1   -1    0    0    0  501  0.00000000000E+00  0.00000000000E+00 -0.14772698928E+03  0.14772698937E+03  0.50400001928E-02 0.  1.
    10030    2    1    2    0    0  0.00000000000E+00  0.00000000000E+00  0.12614877809E+04  0.15569417595E+04  0.91253286039E+03 0.  0.
        2    1    3    3  502    0  0.10320820551E+03 -0.25937112575E+03  0.12465145011E+04  0.12773894144E+04  0.25500000920E-02 0. -1.
       -2    1    3    3    0  502 -0.10320820551E+03  0.25937112575E+03  0.14973279776E+02  0.27955234514E+03  0.25500000920E-02 0.  1.
</event>
<event>
 5   0  0.1560728E-02  0.7128994E+03  0.7818609E-02  0.9695423E-01
        1   -1    0    0  501    0  0.00000000000E+00  0.00000000000E+00  0.68312470859E+03  0.68312470861E+03  0.50400001928E-02 0. -1.
       -1   -1    0    0    0  501  0.00000000000E+00  0.00000000000E+00 -0.18599296164E+03  0.18599296171E+03  0.50400001928E-02 0.  1.
    10030    2    1    2    0    0  0.00000000000E+00  0.00000000000E+00  0.49713174695E+03  0.86911767033E+03  0.71289939756E+03 0.  0.
        4    1    3    3  502    0  0.26635049011E+03  0.15033845838E+03  0.25393187637E+02  0.30690497313E+03  0.12699999809E+01 0.  1.
       -4    1    3    3    0  502 -0.26635049011E+03 -0.15033845838E+03  0.47173855931E+03  0.56221269720E+03  0.12699999809E+01 0. -1.
</event>
<event>
 5   0  0.2414128E-02  0.8757171E+03  0.7818609E-02  0.9456456E-01
       -2   -1    0    0    0  501  0.00000000000E+00  0.00000000000E+00  0.24031688855E+03  0.24031688857E+03  0.25500000920E-02 0.  1.
        2   -1    0    0  501    0  0.00000000000E+00  0.00000000000E+00 -0.79778041644E+03  0.79778041644E+03  0.25500000920E-02 0. -1.
    10030    2    1    2    0    0  0.00000000000E+00  0.00000000000E+00 -0.55746352789E+03  0.10380973050E+04  0.87571709458E+03 0.  0.
        3    1    3    3  502    0  0.53085774880E+00 -0.33793104065E+03 -0.60878798046E+03  0.69629051796E+03  0.10100000352E+00 0. -1.
       -3    1    3    3    0  502 -0.53085774880E+00  0.33793104065E+03  0.51324452572E+02  0.34180678705E+03  0.10100000352E+00 0.  1.
</event>
<event>
 5   0  0.2803717E-02  0.9066166E+03  0.7818609E-02  0.9417348E-01
        2   -1    0    0  501    0  0.00000000000E+00  0.00000000000E+00  0.15392936636E+04  0.15392936636E+04  0.25500000920E-02 0.  1.
       -2   -1    0    0    0  501  0.00000000000E+00  0.00000000000E+00 -0.13349525751E+03  0.13349525753E+03  0.25500000920E-02 0. -1.
    10030    2    1    2    0    0  0.00000000000E+00  0.00000000000E+00  0.14057984061E+04  0.16727889212E+04  0.90661657613E+03 0.  0.
        5    1    3    3  502    0  0.86217174245E+02 -0.42252179717E+03  0.44519198919E+03  0.61981938293E+03  0.46999998093E+01 0. -1.
       -5    1    3    3    0  502 -0.86217174245E+02  0.42252179717E+03  0.96060641691E+03  0.10529695382E+04  0.46999998093E+01 0.  1.
</event>
<event>
 5   0  0.1040163E-02  0.8954016E+03  0.7818609E-02  0.9431348E-01
       -3   -1    0    0    0  501  0.00000000000E+00  0.00000000000E+00  0.97562802829E+03  0.97562803352E+03  0.10100000352E+00 0.  1.
        3   -1    0    0  501    0  0.00000000000E+00  0.00000000000E+00 -0.20544302834E+03  0.20544305317E+03  0.10100000352E+00 0. -1.
    10030    2    1    2    0    0  0.00000000000E+00  0.00000000000E+00  0.77018499994E+03  0.11810710867E+04  0.89540157341E+03 0.  0.
        4    1    3    3  502    0  0.38207956957E+03  0.20707858710E+03  0.24322329728E+03  0.49802160993E+03  0.12699999809E+01 0. -1.
       -4    1    3    3    0  502 -0.38207956957E+03 -0.20707858710E+03  0.52696170266E+03  0.68304947675E+03  0.12699999809E+01 0.  1.
</event>
<event>
 5   0  0.1537870E-02  0.8659827E+03  0.7818609E-02  0.9469133E-01
       -1   -1    0    0    0  501  0.00000000000E+00  0.00000000000E+00  0.13045381103E+03  0.13045381113E+03  0.50400001928E-02 0. -1.
        1   -1    0    0  501    0  0.00000000000E+00  0.00000000000E+00 -0.14371487102E+04  0.14371487103E+04  0.50400001928E-02 0.  1.
    10030    2    1    2    0    0  0.00000000000E+00  0.00000000000E+00 -0.13066948992E+04  0.15676025214E+04  0.86598273968E+03 0.  0.
        5    1    3    3  502    0 -0.61439260833E+02  0.42312444193E+03 -0.52990344132E+03  0.68090294702E+03  0.46999998093E+01 0. -1.
       -5    1    3    3    0  502  0.61439260833E+02 -0.42312444193E+03 -0.77679145789E+03  0.88669957437E+03  0.46999998093E+01 0.  1.
</event>
<event>
 5   0  0.2803717E-02  0.8727918E+03  0.7818609E-02  0.9460247E-01
        2   -1    0    0  501    0  0.00000000000E+00  0.00000000000E+00  0.39710246326E+03  0.39710246327E+03  0.25500000920E-02 0.  1.
       -2   -1    0    0    0  501  0.00000000000E+00  0.00000000000E+00 -0.47957741692E+03  0.47957741693E+03  0.25500000920E-02 0. -1.
    10030    2    1    2    0    0  0.00000000000E+00  0.00000000000E+00 -0.82474953658E+02  0.87667988020E+03  0.87279178179E+03 0.  0.
        5    1    3    3  502    0 -0.28875365825E+03  0.22228003958E+02 -0.36910623425E+03  0.46918467737E+03  0.46999998093E+01 0. -1.
       -5    1    3    3    0  502  0.28875365825E+03 -0.22228003958E+02  0.28663128060E+03  0.40749520283E+03  0.46999998093E+01 0.  1.
</event>
<event>
 5   0  0.2679861E-02  0.9361411E+03  0.7818609E-02  0.9381498E-01
       -2   -1    0    0    0  501  0.00000000000E+00  0.00000000000E+00  0.21443391429E+03  0.21443391430E+03  0.25500000920E-02 0. -1.
        2   -1    0    0  501    0  0.00000000000E+00  0.00000000000E+00 -0.10217136022E+04  0.10217136022E+04  0.25500000920E-02 0.  1.
    10030    2    1    2    0    0  0.00000000000E+00  0.00000000000E+00 -0.80727968788E+03  0.12361475165E+04  0.93614111544E+03 0.  0.
        1    1    3    3  502    0  0.33468854994E+02 -0.11638778467E+03  0.19338812017E+03  0.22817810088E+03  0.50400001928E-02 0. -1.
       -1    1    3    3    0  502 -0.33468854994E+02  0.11638778467E+03 -0.10006678080E+04  0.10079694156E+04  0.50400001928E-02 0.  1.
</event>
<event>
 5   0  0.1560728E-02  0.1112056E+04  0.7818609E-02  0.9193520E-01
       -1   -1    0    0    0  501  0.00000000000E+00  0.00000000000E+00  0.51268586744E+03  0.51268586746E+03  0.50400001928E-02 0. -1.
        1   -1    0    0  501    0  0.00000000000E+00  0.00000000000E+00 -0.60303427560E+03  0.60303427563E+03  0.50400001928E-02 0.  1.
    10030    2    1    2    0    0  0.00000000000E+00  0.00000000000E+00 -0.90348408164E+02  0.11157201431E+04  0.11120560250E+04 0.  0.
        4    1    3    3  502    0 -0.22410161935E+03 -0.42075411828E+03 -0.33231638880E+03  0.58111217420E+03  0.12699999809E+01 0.  1.
       -4    1    3    3    0  502  0.22410161935E+03  0.42075411828E+03  0.24196798064E+03  0.53460796889E+03  0.12699999809E+01 0. -1.
</event>
<event>
 5   0  0.1040163E-02  0.8887517E+03  0.7818609E-02  0.9439753E-01
        3   -1    0    0  501    0  0.00000000000E+00  0.00000000000E+00  0.10475825845E+04  0.10475825894E+04  0.10100000352E+00 0. -1.
       -3   -1    0    0    0  501  0.00000000000E+00  0.00000000000E+00 -0.18850051586E+03  0.18850054292E+03  0.10100000352E+00 0.  1.
    10030    2    1    2    0    0  0.00000000000E+00  0.00000000000E+00  0.85908206865E+03  0.12360831323E+04  0.88875165782E+03 0.  0.
        3    1    3    3  502    0  0.43643497100E+02 -0.36981955281E+03  0.92291942930E+02  0.38365227670E+03  0.10100000352E+00 0.  1.
       -3    1    3    3    0  502 -0.43643497100E+02  0.36981955281E+03  0.76679012572E+03  0.85243085561E+03  0.10100000352E+00 0. -1.
</event>
<event>
 5   0  0.1537870E-02  0.9031638E+03  0.7818609E-02  0.9421635E-01
        1   -1    0    0  501    0  0.00000000000E+00  0.00000000000E+00  0.95242624702E+03  0.95242624704E+03  0.50400001928E-02 0. -1.
       -1   -1    0    0    0  501  0.00000000000E+00  0.00000000000E+00 -0.21411235133E+03  0.21411235139E+03  0.50400001928E-02 0.  1.
    10030    2    1    2    0    0  0.00000000000E+00  0.00000000000E+00  0.73831389569E+03  0.11665385984E+04  0.90316382404E+03 0.  0.
        5    1    3    3  502    0 -0.13364172199E+03 -0.25610440877E+03 -0.79117716185E+02  0.29955180030E+03  0.46999998093E+01 0.  1.
       -5    1    3    3    0  502  0.13364172199E+03  0.25610440877E+03  0.81743161187E+03  0.86698679813E+03  0.46999998093E+01 0. -1.
</event>
<event>
 5   0  0.2803717E-02  0.6354391E+03  0.7818609E-02  0.9834492E-01
        2   -1    0    0  501    0  0.00000000000E+00  0.00000000000E+00  0.54291586349E+03  0.54291586350E+03  0.25500000920E-02 0. -1.
       -2   -1    0    0    0  501  0.00000000000E+00  0.00000000000E+00 -0.18593253849E+03  0.18593253851E+03  0.25500000920E-02 0.  1.
    10030    2    1    2    0    0  0.00000000000E+00  0.00000000000E+00  0.35698332500E+03  0.72884840200E+03  0.63543913853E+03 0.  0.
        5    1    3    3  502    0 -0.22062557776E+03 -0.34663820943E-01 -0.83687414615E+02  0.23601127118E+03  0.46999998093E+01 0.  1.
       -5    1    3    3    0  502  0.22062557776E+03  0.34663820943E-01  0.44067073961E+03  0.49283713082E+03  0.46999998093E+01 0. -1.
</event>
<event>
 5   0  0.2628383E-02  0.8412961E+03  0.7818609E-02  0.9502094E-01
        2   -1    0    0  501    0  0.00000000000E+00  0.00000000000E+00  0.13918945283E+04  0.13918945283E+04  0.25500000920E-02 0. -1.
       -2   -1    0    0    0  501  0.00000000000E+00  0.00000000000E+00 -0.12712513807E+03  0.12712513810E+03  0.25500000920E-02 0.  1.
    10030    2    1    2    0    0  0.00000000000E+00  0.00000000000E+00  0.12647693902E+04  0.15190196664E+04  0.84129610509E+03 0.  0.
        2    1    3    3  502    0  0.35890933801E+03 -0.21621413322E+03  0.56530294643E+03  0.70365608472E+03  0.25500000920E-02 0.  1.
       -2    1    3    3    0  502 -0.35890933801E+03  0.21621413322E+03  0.69946644375E+03  0.81536358163E+03  0.25500000920E-02 0. -1.
</event>
<event>
 5   0  0.2414128E-02  0.8873769E+03  0.7818609E-02  0.9441500E-01
       -2   -1    0    0    0  501  0.00000000000E+00  0.00000000000E+00  0.29023304894E+03  0.29023304895E+03  0.25500000920E-02 0.  1.
        2   -1    0    0  501    0  0.00000000000E+00  0.00000000000E+00 -0.67828065026E+03  0.67828065026E+03  0.25500000920E-02 0. -1.
    10030    2    1    2    0    0  0.00000000000E+00  0.00000000000E+00 -0.38804760132E+03  0.96851369921E+03  0.88737694621E+03 0.  0.
        3    1    3    3  502    0 -0.37580433851E+03 -0.16672127746E+03 -0.37611537532E+03  0.55721420563E+03  0.10100000352E+00 0.  1.
       -3    1    3    3    0  502  0.37580433851E+03  0.16672127746E+03 -0.11932226006E+02  0.41129949358E+03  0.10100000352E+00 0. -1.
</event>
<event>
 5   0  0.1559275E-02  0.8005259E+03  0.7818609E-02  0.9559256E-01
        1   -1    0    0  501    0  0.00000000000E+00  0.00000000000E+00  0.13382377187E+04  0.13382377187E+04  0.50400001928E-02 0. -1.
       -1   -1    0    0    0  501  0.00000000000E+00  0.00000000000E+00 -0.11971745560E+03  0.11971745571E+03  0.50400001928E-02 0.  1.
    10030    2    1    2    0    0  0.00000000000E+00  0.00000000000E+00  0.12185202631E+04  0.14579551744E+04  0.80052586405E+03 0.  0.
        1    1    3    3  502    0 -0.35742116354E+03 -0.11940121721E+03  0.85498591972E+03  0.93434868318E+03  0.50400001928E-02 0. -1.
       -1    1    3    3    0  502  0.35742116354E+03  0.11940121721E+03  0.36353434337E+03  0.52360649122E+03  0.50400001928E-02 0.  1.
</event>
<event>
 5   0  0.2414128E-02  0.9041414E+03  0.7818609E-02  0.9420419E-01
       -2   -1    0    0    0  501  0.00000000000E+00  0.00000000000E+00  0.19443056609E+03  0.19443056610E+03  0.25500000920E-02 0. -1.
        2   -1    0    0  501    0  0.00000000000E+00  0.00000000000E+00 -0.10511099488E+04  0.10511099488E+04  0.25500000920E-02 0.  1.
    10030    2    1    2    0    0  0.00000000000E+00  0.00000000000E+00 -0.85667938268E+03  0.12455405149E+04  0.90414136587E+03 0.  0.
        3    1    3    3  502    0  0.37911364218E+03 -0.22714903606E+03 -0.55934928225E+03  0.71287829818E+03  0.10100000352E+00 0. -1.
       -3    1    3    3    0  502 -0.37911364218E+03  0.22714903606E+03 -0.29733010044E+03  0.53266221669E+03  0.10100000352E+00 0.  1.
</event>
<event>
 5   0  0.2803717E-02  0.9295105E+03  0.7818609E-02  0.9389426E-01
       -2   -1    0    0    0  501  0.00000000000E+00  0.00000000000E+00  0.11593671666E+03  0.11593671669E+03  0.25500000920E-02 0. -1.
        2   -1    0    0  501    0  0.00000000000E+00  0.00000000000E+00 -0.18630633290E+04  0.18630633290E+04  0.25500000920E-02 0.  1.
    10030    2    1    2    0    0  0.00000000000E+00  0.00000000000E+00 -0.17471266124E+04  0.19790000457E+04  0.92951050629E+03 0.  0.
        5    1    3    3  502    0  0.29671237570E+03 -0.19161586290E+03 -0.23052375780E+03  0.42180346812E+03  0.46999998093E+01 0. -1.
       -5    1    3    3    0  502 -0.29671237570E+03  0.19161586290E+03 -0.15166028546E+04  0.15571965776E+04  0.46999998093E+01 0.  1.
</event>
<event>
 5   0  0.1560728E-02  0.9000393E+03  0.7818609E-02  0.9425532E-01
       -1   -1    0    0    0  501  0.00000000000E+00  0.00000000000E+00  0.83059395633E+03  0.83059395634E+03  0.50400001928E-02 0. -1.
        1   -1    0    0  501    0  0.00000000000E+00  0.00000000000E+00 -0.24382272038E+03  0.24382272043E+03  0.50400001928E-02 0.  1.
    10030    2    1    2    0    0  0.00000000000E+00  0.00000000000E+00  0.58677123595E+03  0.10744166768E+04  0.90003928359E+03 0.  0.
        4    1    3    3  502    0  0.11449148488E+03 -0.61479365843E+02  0.80770522349E+03  0.81809373148E+03  0.12699999809E+01 0. -1.
       -4    1    3    3    0  502 -0.11449148488E+03  0.61479365843E+02 -0.22093398754E+03  0.25632294530E+03  0.12699999809E+01 0.  1.
</event>
<event>
 5   0  0.1459111E-02  0.8977573E+03  0.7818609E-02  0.9428389E-01
       -1   -1    0    0    0  501  0.00000000000E+00  0.00000000000E+00  0.16035803952E+03  0.16035803960E+03  0.50400001928E-02 0. -1.
        1   -1    0    0  501    0  0.00000000000E+00  0.00000000000E+00 -0.12565134242E+04  0.12565134242E+04  0.50400001928E-02 0.  1.
    10030    2    1    2    0    0  0.00000000000E+00  0.00000000000E+00 -0.10961553847E+04  0.14168714638E+04  0.89775727099E+03 0.  0.
        2    1    3    3  502    0 -0.84800099660E+02 -0.61005183217E+02  0.14090677604E+03  0.17540641044E+03  0.25500000920E-02 0. -1.
       -2    1    3    3    0  502  0.84800099660E+02  0.61005183217E+02 -0.12370621607E+04  0.12414650534E+04  0.25500000920E-02 0.  1.
</event>
<event>
 5   0  0.2705111E-02  0.9007674E+03  0.7818609E-02  0.9424623E-01
       -2   -1    0    0    0  501  0.00000000000E+00  0.00000000000E+00  0.25934691686E+03  0.25934691688E+03  0.25500000920E-02 0.  1.
        2   -1    0    0  501    0  0.00000000000E+00  0.00000000000E+00 -0.78213953444E+03  0.78213953445E+03  0.25500000920E-02 0. -1.
    10030    2    1    2    0    0  0.00000000000E+00  0.00000000000E+00 -0.52279261758E+03  0.10414864513E+04  0.90076739911E+03 0.  0.
        4    1    3    3  502    0  0.16621866758E+03  0.41853798217E+03 -0.25397701114E+03  0.51701897746E+03  0.12699999809E+01 0. -1.
       -4    1    3    3    0  502 -0.16621866758E+03 -0.41853798217E+03 -0.26881560644E+03  0.52446747386E+03  0.12699999809E+01 0.  1.
</event>
<event>
 5   0  0.2705111E-02  0.8936098E+03  0.7818609E-02  0.9433605E-01
        2   -1    0    0  501    0  0.00000000000E+00  0.00000000000E+00  0.87014860282E+03  0.87014860282E+03  0.25500000920E-02 0.  1.
       -2   -1    0    0    0  501  0.00000000000E+00  0.00000000000E+00 -0.22942590529E+03  0.22942590530E+03  0.25500000920E-02 0. -1.
    10030    2    1    2    0    0  0.00000000000E+00  0.00000000000E+00  0.64072269753E+03  0.10995745081E+04  0.89360982749E+03 0.  0.
        4    1    3    3  502    0 -0.36033502860E+03 -0.19994665827E+03  0.10790011190E+03  0.42598596929E+03  0.12699999809E+01 0.  1.
       -4    1    3    3    0  502  0.36033502860E+03  0.19994665827E+03  0.53282258563E+03  0.67358853883E+03  0.12699999809E+01 0. -1.
</event>
<event>
 5   0  0.2628383E-02  0.9136150E+03  0.7818609E-02  0.9408720E-01
        2   -1    0    0  501    0  0.00000000000E+00  0.00000000000E+00  0.64857494765E+03  0.64857494765E+03  0.25500000920E-02 0.  1.
       -2   -1    0    0    0  501  0.00000000000E+00  0.00000000000E+00 -0.32174090489E+03  0.32174090490E+03  0.25500000920E-02 0. -1.
    10030    2    1    2    0    0  0.00000000000E+00  0.00000000000E+00  0.32683404276E+03  0.97031585255E+03  0.91361499670E+03 0.  0.
        2    1    3    3  502    0 -0.31912253011E+03  0.32523914350E+03  0.12894658822E+03  0.47354715954E+03  0.25500000920E-02 0.  1.
       -2    1    3    3    0  502  0.31912253011E+03 -0.32523914350E+03  0.19788745454E+03  0.49676869301E+03  0.25500000920E-02 0. -1.
</event>
<event>
 5   0  0.2679861E-02  0.8916566E+03  0.7818609E-02  0.9436072E-01
        2   -1    0    0  501    0  0.00000000000E+00  0.00000000000E+00  0.16662111942E+04  0.16662111942E+04  0.25500000920E-02 0. -1.
       -2   -1    0    0    0  501  0.00000000000E+00  0.00000000000E+00 -0.11929032717E+03  0.11929032720E+03  0.25500000920E-02 0.  1.
    10030    2    1    2    0    0  0.00000000000E+00  0.00000000000E+00  0.15469208670E+04  0.17855015214E+04  0.89165661219E+03 0.  0.
        1    1    3    3  502    0  0.39866023414E+03 -0.19339490532E+03  0.87219801219E+03  0.97829491677E+03  0.50400001928E-02 0. -1.
       -1    1    3    3    0  502 -0.39866023414E+03  0.19339490532E+03  0.67472285480E+03  0.80720660459E+03  0.50400001928E-02 0.  1.
</event>
<event>
 5   0  0.2705111E-02  0.8877407E+03  0.7818609E-02  0.9441037E-01
        2   -1    0    0  501    0  0.00000000000E+00  0.00000000000E+00  0.13379846649E+04  0.13379846650E+04  0.25500000920E-02 0.  1.
       -2   -1    0    0    0  501  0.00000000000E+00  0.00000000000E+00 -0.14725196436E+03  0.14725196438E+03  0.25500000920E-02 0. -1.
    10030    2    1    2    0    0  0.00000000000E+00  0.00000000000E+00  0.11907327006E+04  0.14852366293E+04  0.88774066082E+03 0.  0.
        4    1    3    3  502    0  0.14218221881E+03 -0.13313956419E+03 -0.71922220409E+02  0.20764475815E+03  0.12699999809E+01 0. -1.
       -4    1    3    3    0  502 -0.14218221881E+03  0.13313956419E+03  0.12626549210E+04  0.12775918712E+04  0.12699999809E+01 0.  1.
</event>
<event>
 5   0  0.2414128E-02  0.9001529E+03  0.7818609E-02  0.9425390E-01
       -2   -1    0    0    0  501  0.00000000000E+00  0.00000000000E+00  0.12985754664E+03  0.12985754666E+03  0.25500000920E-02 0. -1.
        2   -1    0    0  501    0  0.00000000000E+00  0.00000000000E+00 -0.15599309763E+04  0.15599309763E+04  0.25500000920E-02 0.  1.
    10030    2    1    2    0    0  0.00000000000E+00  0.00000000000E+00 -0.14300734296E+04  0.16897885230E+04  0.90015289708E+03 0.  0.
        3    1    3    3  502    0 -0.91337196063E+01 -0.21850896179E+03 -0.14534784897E+04  0.14698398966E+04  0.10100000352E+00 0.  1.
       -3    1    3    3    0  502  0.91337196063E+01  0.21850896179E+03  0.23405060071E+02  0.21994862640E+03  0.10100000352E+00 0. -1.
</event>
<event>
 5   0  0.1040163E-02  0.8853764E+03  0.7818609E-02  0.9444049E-01
        3   -1    0    0  501    0  0.00000000000E+00  0.00000000000E+00  0.68032507120E+03  0.68032507870E+03  0.10100000352E+00 0.  1.
       -3   -1    0    0    0  501  0.00000000000E+00  0.00000000000E+00 -0.28805761382E+03  0.28805763152E+03  0.10100000352E+00 0. -1.
    10030    2    1    2    0    0  0.00000000000E+00  0.00000000000E+00  0.39226745739E+03  0.96838271022E+03  0.88537636931E+03 0.  0.
        3    1    3    3  502    0  0.34037910989E+03  0.96667440305E+01  0.50553512256E+03  0.60952207075E+03  0.10100000352E+00 0. -1.
       -3    1    3    3    0  502 -0.34037910989E+03 -0.96667440305E+01 -0.11326766517E+03  0.35886063947E+03  0.10100000352E+00 0.  1.
</event>
<event>
 5   0  0.1559275E-02  0.8908907E+03  0.7818609E-02  0.9437041E-01
        1   -1    0    0  501    0  0.00000000000E+00  0.00000000000E+00  0.51644713923E+03  0.51644713925E+03  0.50400001928E-02 0. -1.
       -1   -1    0    0    0  501  0.00000000000E+00  0.00000000000E+00 -0.38420495830E+03  0.38420495834E+03  0.50400001928E-02 0.  1.
    10030    2    1    2    0    0  0.00000000000E+00  0.00000000000E+00  0.13224218092E+03  0.90065209759E+03  0.89089068155E+03 0.  0.
        1    1    3    3  502    0  0.28542529286E+03  0.33301945075E+03  0.14476807576E+03  0.46187373617E+03  0.50400001928E-02 0.  1.
       -1    1    3    3    0  502 -0.28542529286E+03 -0.33301945075E+03 -0.12525894833E+02  0.43877836142E+03  0.50400001928E-02 0. -1.
</event>
<event>
 5   0  0.1559275E-02  0.8510226E+03  0.7818609E-02  0.9488965E-01
        1   -1    0    0  501    0  0.00000000000E+00  0.00000000000E+00  0.96066967117E+03  0.96066967118E+03  0.50400001928E-02 0.  1.
       -1   -1    0    0    0  501  0.00000000000E+00  0.00000000000E+00 -0.18847256789E+03  0.18847256796E+03  0.50400001928E-02 0. -1.
    10030    2    1    2    0    0  0.00000000000E+00  0.00000000000E+00  0.77219710327E+03  0.11491422391E+04  0.85102263159E+03 0.  0.
        1    1    3    3  502    0 -0.26052086822E+03 -0.33030589620E+03  0.29977627548E+03  0.51656453925E+03  0.50400001928E-02 0.  1.
       -1    1    3    3    0  502  0.26052086822E+03  0.33030589620E+03  0.47242082780E+03  0.63257769990E+03  0.50400001928E-02 0. -1.
</event>
<event>
 5   0  0.1560728E-02  0.8974801E+03  0.7818609E-02  0.9428737E-01
        1   -1    0    0  501    0  0.00000000000E+00  0.00000000000E+00  0.51646798955E+03  0.51646798958E+03  0.50400001928E-02 0.  1.
       -1   -1    0    0    0  501  0.00000000000E+00  0.00000000000E+00 -0.38989375441E+03  0.38989375444E+03  0.50400001928E-02 0. -1.
    10030    2    1    2    0    0  0.00000000000E+00  0.00000000000E+00  0.12657423514E+03  0.90636174402E+03  0.89748012459E+03 0.  0.
        4    1    3    3  502    0 -0.31878659129E+03 -0.31169570475E+03  0.11921933059E+02  0.44600767766E+03  0.12699999809E+01 0. -1.
       -4    1    3    3    0  502  0.31878659129E+03  0.31169570475E+03  0.11465230208E+03  0.46035406636E+03  0.12699999809E+01 0.  1.
</event>
<event>
 5   0  0.1559275E-02  0.9000919E+03  0.7818609E-02  0.9425467E-01
        1   -1    0    0  501    0  0.00000000000E+00  0.00000000000E+00  0.62667024915E+03  0.62667024917E+03  0.50400001928E-02 0.  1.
       -1   -1    0    0    0  501  0.00000000000E+00  0.00000000000E+00 -0.32320243320E+03  0.32320243324E+03  0.50400001928E-02 0. -1.
    10030    2    1    2    0    0  0.00000000000E+00  0.00000000000E+00  0.30346781595E+03  0.94987268241E+03  0.90009188279E+03 0.  0.
        1    1    3    3  502    0  0.36082962885E+03 -0.11636834061E+03 -0.10416806399E+03  0.39318010801E+03  0.50400001928E-02 0. -1.
       -1    1    3    3    0  502 -0.36082962885E+03  0.11636834061E+03  0.40763587994E+03  0.55669257440E+03  0.50400001928E-02 0.  1.
</event>
<event>
 5   0  0.2679861E-02  0.9019771E+03  0.7818609E-02  0.9423113E-01
        2   -1    0    0  501    0  0.00000000000E+00  0.00000000000E+00  0.64184211990E+03  0.64184211991E+03  0.25500000920E-02 0. -1.
       -2   -1    0    0    0  501  0.00000000000E+00  0.00000000000E+00 -0.31688580193E+03  0.31688580194E+03  0.25500000920E-02 0.  1.
    10030    2    1    2    0    0  0.00000000000E+00  0.00000000000E+00  0.32495631798E+03  0.95872792185E+03  0.90197706153E+03 0.  0.
        1    1    3    3  502    0  0.10670210690E+03  0.33270278279E+03  0.46557611601E+03  0.58209758728E+03  0.50400001928E-02 0. -1.
       -1    1    3    3    0  502 -0.10670210690E+03 -0.33270278279E+03 -0.14061979803E+03  0.37663033457E+03  0.50400001928E-02 0.  1.
</event>
<event>
 5   0  0.2705111E-02  0.9623236E+03  0.7818609E-02  0.9350861E-01
        2   -1    0    0  501    0  0.00000000000E+00  0.00000000000E+00  0.12076864758E+04  0.12076864758E+04  0.25500000920E-02 0. -1.
       -2   -1    0    0    0  501  0.00000000000E+00  0.00000000000E+00 -0.19170263472E+03  0.19170263474E+03  0.25500000920E-02 0.  1.
    10030    2    1    2    0    0  0.00000000000E+00  0.00000000000E+00  0.10159838411E+04  0.13993891105E+04  0.96232360324E+03 0.  0.
        4    1    3    3  502    0  0.18296161194E+03  0.31625736569E+03  0.52712742501E+02  0.36915297496E+03  0.12699999809E+01 0.  1.
       -4    1    3    3    0  502 -0.18296161194E+03 -0.31625736569E+03  0.96327109856E+03  0.10302361356E+04  0.12699999809E+01 0. -1.
</event>
<event>
 5   0  0.2628383E-02  0.9010957E+03  0.7818609E-02  0.9424213E-01
        2   -1    0    0  501    0  0.00000000000E+00  0.00000000000E+00  0.93385258077E+03  0.93385258078E+03  0.25500000920E-02 0. -1.
       -2   -1    0    0    0  501  0.00000000000E+00  0.00000000000E+00 -0.21737198255E+03  0.21737198256E+03  0.25500000920E-02 0.  1.
    10030    2    1    2    0    0  0.00000000000E+00  0.00000000000E+00  0.71648059823E+03  0.11512245633E+04  0.90109574830E+03 0.  0.
        2    1    3    3  502    0 -0.12966719663E+03  0.22075272998E+03 -0.11541061316E+03  0.28082905711E+03  0.25500000920E-02 0.  1.
       -2    1    3    3    0  502  0.12966719663E+03 -0.22075272998E+03  0.83189121139E+03  0.87039550623E+03  0.25500000920E-02 0. -1.
</event>
<event>
 5   0  0.1537870E-02  0.7897389E+03  0.7818609E-02  0.9574989E-01
        1   -1    0    0  501    0  0.00000000000E+00  0.00000000000E+00  0.69816924826E+03  0.69816924828E+03  0.50400001928E-02 0. -1.
       -1   -1    0    0    0  501  0.00000000000E+00  0.00000000000E+00 -0.22332964903E+03  0.22332964909E+03  0.50400001928E-02 0.  1.
    10030    2    1    2    0    0  0.00000000000E+00  0.00000000000E+00  0.47483959923E+03  0.92149889737E+03  0.78973892702E+03 0.  0.
        5    1    3    3  502    0 -0.14374406876E+03  0.52508986346E+02  0.66212428507E+03  0.67959562228E+03  0.46999998093E+01 0. -1.
       -5    1    3    3    0  502  0.14374406876E+03 -0.52508986346E+02 -0.18728468584E+03  0.24190327508E+03  0.46999998093E+01 0.  1.
</event>
<event>
 5   0  0.1497410E-02  0.9268888E+03  0.7818609E-02  0.9392580E-01
       -1   -1    0    0    0  501  0.00000000000E+00  0.00000000000E+00  0.24894778666E+03  0.24894778671E+03  0.50400001928E-02 0.  1.
        1   -1    0    0  501    0  0.00000000000E+00  0.00000000000E+00 -0.86275409509E+03  0.86275409511E+03  0.50400001928E-02 0. -1.
    10030    2    1    2    0    0  0.00000000000E+00  0.00000000000E+00 -0.61380630843E+03  0.11117018818E+04  0.92688882276E+03 0.  0.
        3    1    3    3  502    0  0.30103753064E+03  0.28161013726E+03 -0.52890292189E+02  0.41560228280E+03  0.10100000352E+00 0.  1.
       -3    1    3    3    0  502 -0.30103753064E+03 -0.28161013726E+03 -0.56091601625E+03  0.69609959901E+03  0.10100000352E+00 0. -1.
</event>
<event>
 5   0  0.2679861E-02  0.9436463E+03  0.7818609E-02  0.9372608E-01
       -2   -1    0    0    0  501  0.00000000000E+00  0.00000000000E+00  0.13475576148E+03  0.13475576150E+03  0.25500000920E-02 0. -1.
        2   -1    0    0  501    0  0.00000000000E+00  0.00000000000E+00 -0.16520042079E+04  0.16520042079E+04  0.25500000920E-02 0.  1.
    10030    2    1    2    0    0  0.00000000000E+00  0.00000000000E+00 -0.15172484464E+04  0.17867599694E+04  0.94364630031E+03 0.  0.
        1    1    3    3  502    0 -0.26130615933E+03  0.16804038848E+03 -0.86248364952E+02  0.32242403996E+03  0.50400001928E-02 0. -1.
       -1    1    3    3    0  502  0.26130615933E+03 -0.16804038848E+03 -0.14310000815E+04  0.14643359294E+04  0.50400001928E-02 0.  1.
</event>
<event>
 5   0  0.1560728E-02  0.8856797E+03  0.7818609E-02  0.9443662E-01
        1   -1    0    0  501    0  0.00000000000E+00  0.00000000000E+00  0.15769904778E+04  0.15769904778E+04  0.50400001928E-02 0.  1.
       -1   -1    0    0    0  501  0.00000000000E+00  0.00000000000E+00 -0.12435530646E+03  0.12435530656E+03  0.50400001928E-02 0. -1.
    10030    2    1    2    0    0  0.00000000000E+00  0.00000000000E+00  0.14526351714E+04  0.17013457844E+04  0.88567970338E+03 0.  0.
        4    1    3    3  502    0  0.14348846830E+03  0.14647799893E+03  0.14803012532E+04  0.14944357322E+04  0.12699999809E+01 0.  1.
       -4    1    3    3    0  502 -0.14348846830E+03 -0.14647799893E+03 -0.27666081803E+02  0.20691005217E+03  0.12699999809E+01 0. -1.
</event>
<event>
 5   0  0.1559275E-02  0.9033839E+03  0.7818609E-02  0.9421361E-01
        1   -1    0    0  501    0  0.00000000000E+00  0.00000000000E+00  0.30923985670E+03  0.30923985674E+03  0.50400001928E-02 0.  1.
       -1   -1    0    0    0  501  0.00000000000E+00  0.00000000000E+00 -0.65976490348E+03  0.65976490350E+03  0.50400001928E-02 0. -1.
    10030    2    1    2    0    0  0.00000000000E+00  0.00000000000E+00 -0.35052504678E+03  0.96900476024E+03  0.90338387021E+03 0.  0.
        1    1    3    3  502    0 -0.44004290541E+02 -0.38080198260E+03 -0.43152914768E+03  0.57720354543E+03  0.50400001928E-02 0. -1.
       -1    1    3    3    0  502  0.44004290541E+02  0.38080198260E+03  0.81004100907E+02  0.39180121481E+03  0.50400001928E-02 0.  1.
</event>
<event>
 5   0  0.1559275E-02  0.8691863E+03  0.7818609E-02  0.9464941E-01
        1   -1    0    0  501    0  0.00000000000E+00  0.00000000000E+00  0.32082232443E+03  0.32082232447E+03  0.50400001928E-02 0. -1.
       -1   -1    0    0    0  501  0.00000000000E+00  0.00000000000E+00 -0.58870974124E+03  0.58870974127E+03  0.50400001928E-02 0.  1.
    10030    2    1    2    0    0  0.00000000000E+00  0.00000000000E+00 -0.26788741681E+03  0.90953206574E+03  0.86918634971E+03 0.  0.
        1    1    3    3  502    0 -0.85579816970E+02  0.29627544230E+03  0.18648607191E+03  0.36038881479E+03  0.50400001928E-02 0. -1.
       -1    1    3    3    0  502  0.85579816970E+02 -0.29627544230E+03 -0.45437348873E+03  0.54914325095E+03  0.50400001928E-02 0.  1.
</event>
<event>
 5   0  0.1040163E-02  0.9252752E+03  0.7818609E-02  0.9394526E-01
       -3   -1    0    0    0  501  0.00000000000E+00  0.00000000000E+00  0.44752798091E+03  0.44752799231E+03  0.10100000352E+00 0. -1.
        3   -1    0    0  501    0  0.00000000000E+00  0.00000000000E+00 -0.47825735272E+03  0.47825736338E+03  0.10100000352E+00 0.  1.
    10030    2    1    2    0    0  0.00000000000E+00  0.00000000000E+00 -0.30729371803E+02  0.92578535569E+03  0.92527521880E+03 0.  0.
        4    1    3    3  502    0  0.93577675549E+02  0.35002847783E+03 -0.30319537397E+03  0.47244657301E+03  0.12699999809E+01 0.  1.
       -4    1    3    3    0  502 -0.93577675549E+02 -0.35002847783E+03  0.27246600217E+03  0.45333878268E+03  0.12699999809E+01 0. -1.
</event>
<event>
 5   0  0.1537870E-02  0.9058494E+03  0.7818609E-02  0.9418299E-01
       -1   -1    0    0    0  501  0.00000000000E+00  0.00000000000E+00  0.27691168047E+03  0.27691168051E+03  0.50400001928E-02 0. -1.
        1   -1    0    0  501    0  0.00000000000E+00  0.00000000000E+00 -0.74081662817E+03  0.74081662819E+03  0.50400001928E-02 0.  1.
    10030    2    1    2    0    0  0.00000000000E+00  0.00000000000E+00 -0.46390494771E+03  0.10177283087E+04  0.90584938585E+03 0.  0.
        5    1    3    3  502    0 -0.10043728848E+03 -0.38558850951E+03  0.99345821251E+01  0.39860623867E+03  0.46999998093E+01 0.  1.
       -5    1    3    3    0  502  0.10043728848E+03  0.38558850951E+03 -0.47383952983E+03  0.61912207004E+03  0.46999998093E+01 0. -1.
</event>
<event>
 5   0  0.1497410E-02  0.8906298E+03  0.7818609E-02  0.9437371E-01
       -1   -1    0    0    0  501  0.00000000000E+00  0.00000000000E+00  0.17481151590E+03  0.17481151597E+03  0.50400001928E-02 0.  1.
        1   -1    0    0  501    0  0.00000000000E+00  0.00000000000E+00 -0.11343952144E+04  0.11343952144E+04  0.50400001928E-02 0. -1.
    10030    2    1    2    0    0  0.00000000000E+00  0.00000000000E+00 -0.95958369847E+03  0.13092067304E+04  0.89062977069E+03 0.  0.
        3    1    3    3  502    0 -0.28698949400E+03 -0.33172124713E+03 -0.59273540183E+03  0.73738539601E+03  0.10100000352E+00 0. -1.
       -3    1    3    3    0  502  0.28698949400E+03  0.33172124713E+03 -0.36684829664E+03  0.57182133435E+03  0.10100000352E+00 0.  1.
</event>
<event>
 5   0  0.2705111E-02  0.8695597E+03  0.7818609E-02  0.9464454E-01
       -2   -1    0    0    0  501  0.00000000000E+00  0.00000000000E+00  0.11066797685E+04  0.11066797685E+04  0.25500000920E-02 0. -1.
        2   -1    0    0  501    0  0.00000000000E+00  0.00000000000E+00 -0.17081138402E+03  0.17081138404E+03  0.25500000920E-02 0.  1.
    10030    2    1    2    0    0  0.00000000000E+00  0.00000000000E+00  0.93586838451E+03  0.12774911526E+04  0.86955966544E+03 0.  0.
        4    1    3    3  502    0 -0.14771704454E+03 -0.21110020421E+03 -0.46570364054E+02  0.26182825128E+03  0.12699999809E+01 0.  1.
       -4    1    3    3    0  502  0.14771704454E+03  0.21110020421E+03  0.98243874857E+03  0.10156629013E+04  0.12699999809E+01 0. -1.
</event>
<event>
 5   0  0.2679861E-02  0.9090493E+03  0.7818609E-02  0.9414339E-01
       -2   -1    0    0    0  501  0.00000000000E+00  0.00000000000E+00  0.20666283217E+03  0.20666283219E+03  0.25500000920E-02 0.  1.
        2   -1    0    0  501    0  0.00000000000E+00  0.00000000000E+00 -0.99966053833E+03  0.99966053834E+03  0.25500000920E-02 0. -1.
    10030    2    1    2    0    0  0.00000000000E+00  0.00000000000E+00 -0.79299770616E+03  0.12063233705E+04  0.90904934536E+03 0.  0.
        1    1    3    3  502    0 -0.19204361173E+03  0.34917408812E+03 -0.68659503040E+03  0.79386146676E+03  0.50400001928E-02 0. -1.
       -1    1    3    3    0  502  0.19204361173E+03 -0.34917408812E+03 -0.10640267577E+03  0.41246190376E+03  0.50400001928E-02 0.  1.
</event>
<event>
 5   0  0.1560728E-02  0.8978363E+03  0.7818609E-02  0.9428290E-01
       -1   -1    0    0    0  501  0.00000000000E+00  0.00000000000E+00  0.48196600618E+03  0.48196600621E+03  0.50400001928E-02 0. -1.
        1   -1    0    0  501    0  0.00000000000E+00  0.00000000000E+00 -0.41813635928E+03  0.41813635931E+03  0.50400001928E-02 0.  1.
    10030    2    1    2    0    0  0.00000000000E+00  0.00000000000E+00  0.63829646902E+02  0.90010236552E+03  0.89783631281E+03 0.  0.
        4    1    3    3  502    0 -0.97391762520E+02  0.27863137546E+03 -0.30717738263E+03  0.42600487802E+03  0.12699999809E+01 0.  1.
       -4    1    3    3    0  502  0.97391762520E+02 -0.27863137546E+03  0.37100702953E+03  0.47409748750E+03  0.12699999809E+01 0. -1.
</event>
<event>
 5   0  0.2803717E-02  0.8881212E+03  0.7818609E-02  0.9440553E-01
        2   -1    0    0  501    0  0.00000000000E+00  0.00000000000E+00  0.73859080843E+03  0.73859080843E+03  0.25500000920E-02 0.  1.
       -2   -1    0    0    0  501  0.00000000000E+00  0.00000000000E+00 -0.26698115975E+03  0.26698115976E+03  0.25500000920E-02 0. -1.
    10030    2    1    2    0    0  0.00000000000E+00  0.00000000000E+00  0.47160964868E+03  0.10055719682E+04  0.88812123186E+03 0.  0.
        5    1    3    3  502    0  0.26933815418E+03 -0.10666322503E+03  0.61683161785E+03  0.68148618449E+03  0.46999998093E+01 0.  1.
       -5    1    3    3    0  502 -0.26933815418E+03  0.10666322503E+03 -0.14522196917E+03  0.32408578370E+03  0.46999998093E+01 0. -1.
</event>
<event>
 5   0  0.1560728E-02  0.8888743E+03  0.7818609E-02  0.9439597E-01
       -1   -1    0    0    0  501  0.00000000000E+00  0.00000000000E+00  0.57709605902E+03  0.57709605904E+03  0.50400001928E-02 0. -1.
        1   -1    0    0  501    0  0.00000000000E+00  0.00000000000E+00 -0.34227294311E+03  0.34227294315E+03  0.50400001928E-02 0.  1.
    10030    2    1    2    0    0  0.00000000000E+00  0.00000000000E+00  0.23482311591E+03  0.91936900219E+03  0.88887426919E+03 0.  0.
        4    1    3    3  502    0 -0.41688353044E+03  0.67264125261E+02 -0.25930176849E+02  0.42307248489E+03  0.12699999809E+01 0.  1.
       -4    1    3    3    0  502  0.41688353044E+03 -0.67264125261E+02  0.26075329276E+03  0.49629651730E+03  0.12699999809E+01 0. -1.
</event>
<event>
 5   0  0.1559275E-02  0.8529732E+03  0.7818609E-02  0.9486355E-01
        1   -1    0    0  501    0  0.00000000000E+00  0.00000000000E+00  0.68388647230E+03  0.68388647231E+03  0.50400001928E-02 0. -1.
       -1   -1    0    0    0  501  0.00000000000E+00  0.00000000000E+00 -0.26596642172E+03  0.26596642176E+03  0.50400001928E-02 0.  1.
    10030    2    1    2    0    0  0.00000000000E+00  0.00000000000E+00  0.41792005058E+03  0.94985289408E+03  0.85297324209E+03 0.  0.
        1    1    3    3  502    0  0.31589266762E+03  0.50927361855E+02 -0.10503969700E+03  0.33677160155E+03  0.50400001928E-02 0.  1.
       -1    1    3    3    0  502 -0.31589266762E+03 -0.50927361855E+02  0.52295974758E+03  0.61308129253E+03  0.50400001928E-02 0. -1.
</event>
<event>
 5   0  0.1559275E-02  0.9223566E+03  0.7818609E-02  0.9398058E-01
       -1   -1    0    0    0  501  0.00000000000E+00  0.00000000000E+00  0.20412884913E+03  0.20412884919E+03  0.50400001928E-02 0.  1.
        1   -1    0    0  501    0  0.00000000000E+00  0.00000000000E+00 -0.10419175532E+04  0.10419175532E+04  0.50400001928E-02 0. -1.
    10030    2    1    2    0    0  0.00000000000E+00  0.00000000000E+00 -0.83778870405E+03  0.12460464024E+04  0.92235661446E+03 0.  0.
        1    1    3    3  502    0  0.16337750032E+03  0.35366702066E+03 -0.75231297340E+03  0.84719972798E+03  0.50400001928E-02 0. -1.
       -1    1    3    3    0  502 -0.16337750032E+03 -0.35366702066E+03 -0.85475730641E+02  0.39884667439E+03  0.50400001928E-02 0.  1.
</event>
<event>
 5   0  0.1497410E-02  0.8885395E+03  0.7818609E-02  0.9440022E-01
       -1   -1    0    0    0  501  0.00000000000E+00  0.00000000000E+00  0.63051939481E+03  0.63051939483E+03  0.50400001928E-02 0. -1.
        1   -1    0    0  501    0  0.00000000000E+00  0.00000000000E+00 -0.31303655085E+03  0.31303655089E+03  0.50400001928E-02 0.  1.
    10030    2    1    2    0    0  0.00000000000E+00  0.00000000000E+00  0.31748284396E+03  0.94355594572E+03  0.88853951319E+03 0.  0.
        3    1    3    3  502    0  0.27453315070E+03  0.73291778854E+02 -0.20392406949E+03  0.34975015654E+03  0.10100000352E+00 0.  1.
       -3    1    3    3    0  502 -0.27453315070E+03 -0.73291778854E+02  0.52140691345E+03  0.59380578919E+03  0.10100000352E+00 0. -1.
</event>
<event>
 5   0  0.2803717E-02  0.7220696E+03  0.7818609E-02  0.9680217E-01
        2   -1    0    0  501    0  0.00000000000E+00  0.00000000000E+00  0.33694649947E+03  0.33694649948E+03  0.25500000920E-02 0. -1.
       -2   -1    0    0    0  501  0.00000000000E+00  0.00000000000E+00 -0.38684517504E+03  0.38684517504E+03  0.25500000920E-02 0.  1.
    10030    2    1    2    0    0  0.00000000000E+00  0.00000000000E+00 -0.49898675568E+02  0.72379167452E+03  0.72206960211E+03 0.  0.
        5    1    3    3  502    0  0.96096896960E+02  0.18975134207E+03 -0.31733636054E+03  0.38205319151E+03  0.46999998093E+01 0.  1.
       -5    1    3    3    0  502 -0.96096896960E+02 -0.18975134207E+03  0.26743768498E+03  0.34173848301E+03  0.46999998093E+01 0. -1.
</event>
<event>
 5   0  0.2679861E-02  0.9339440E+03  0.7818609E-02  0.9384117E-01
       -2   -1    0    0    0  501  0.00000000000E+00  0.00000000000E+00  0.36198961728E+03  0.36198961729E+03  0.25500000920E-02 0.  1.
        2   -1    0    0  501    0  0.00000000000E+00  0.00000000000E+00 -0.60240078920E+03  0.60240078921E+03  0.25500000920E-02 0. -1.
    10030    2    1    2    0    0  0.00000000000E+00  0.00000000000E+00 -0.24041117192E+03  0.96439040650E+03  0.93394396222E+03 0.  0.
        1    1    3    3  502    0  0.13798919389E+03 -0.20447994231E+03 -0.52962819758E+03  0.58425943907E+03  0.50400001928E-02 0. -1.
       -1    1    3    3    0  502 -0.13798919389E+03  0.20447994231E+03  0.28921702567E+03  0.38013096743E+03  0.50400001928E-02 0.  1.
</event>
<event>
 5   0  0.1560728E-02  0.9050059E+03  0.7818609E-02  0.9419345E-01
        1   -1    0    0  501    0  0.00000000000E+00  0.00000000000E+00  0.10925433397E+04  0.10925433397E+04  0.50400001928E-02 0. -1.
       -1   -1    0    0    0  501  0.00000000000E+00  0.00000000000E+00 -0.18741493200E+03  0.18741493207E+03  0.50400001928E-02 0.  1.
    10030    2    1    2    0    0  0.00000000000E+00  0.00000000000E+00  0.90512840773E+03  0.12799582718E+04  0.90500593540E+03 0.  0.
        4    1    3    3  502    0 -0.38676588499E+03 -0.14402031297E+03  0.71498478944E+03  0.82555106588E+03  0.12699999809E+01 0. -1.
       -4    1    3    3    0  502  0.38676588499E+03  0.14402031297E+03  0.19014361829E+03  0.45440720594E+03  0.12699999809E+01 0.  1.
</event>
<event>
 5   0  0.1497410E-02  0.9069806E+03  0.7818609E-02  0.9416897E-01
       -1   -1    0    0    0  501  0.00000000000E+00  0.00000000000E+00  0.23559480673E+03  0.23559480679E+03  0.50400001928E-02 0. -1.
        1   -1    0    0  501    0  0.00000000000E+00  0.00000000000E+00 -0.87291168494E+03  0.87291168495E+03  0.50400001928E-02 0.  1.
    10030    2    1    2    0    0  0.00000000000E+00  0.00000000000E+00 -0.63731687820E+03  0.11085064917E+04  0.90698061665E+03 0.  0.
        3    1    3    3  502    0 -0.12573347977E+03  0.25670665351E+03  0.11162725367E+03  0.30686783451E+03  0.10100000352E+00 0. -1.
       -3    1    3    3    0  502  0.12573347977E+03 -0.25670665351E+03 -0.74894413188E+03  0.80163865723E+03  0.10100000352E+00 0.  1.
</event>
<event>
 5   0  0.2803717E-02  0.8964857E+03  0.7818609E-02  0.9429985E-01
       -2   -1    0    0    0  501  0.00000000000E+00  0.00000000000E+00  0.12412613931E+03  0.12412613934E+03  0.25500000920E-02 0.  1.
        2   -1    0    0  501    0  0.00000000000E+00  0.00000000000E+00 -0.16186893330E+04  0.16186893330E+04  0.25500000920E-02 0. -1.
    10030    2    1    2    0    0  0.00000000000E+00  0.00000000000E+00 -0.14945631937E+04  0.17428154723E+04  0.89648571136E+03 0.  0.
        5    1    3    3  502    0  0.20741490233E+01 -0.30217039312E+03 -0.10371993020E+03  0.31951707699E+03  0.46999998093E+01 0.  1.
       -5    1    3    3    0  502 -0.20741490233E+01  0.30217039312E+03 -0.13908432635E+04  0.14232983953E+04  0.46999998093E+01 0. -1.
</event>
<event>
 5   0  0.1497410E-02  0.9019414E+03  0.7818609E-02  0.9423158E-01
        1   -1    0    0  501    0  0.00000000000E+00  0.00000000000E+00  0.78817764088E+03  0.78817764090E+03  0.50400001928E-02 0.  1.
       -1   -1    0    0    0  501  0.00000000000E+00  0.00000000000E+00 -0.25803136369E+03  0.25803136374E+03  0.50400001928E-02 0. -1.
    10030    2    1    2    0    0  0.00000000000E+00  0.00000000000E+00  0.53014627719E+03  0.10462090046E+04  0.90194135406E+03 0.  0.
        3    1    3    3  502    0  0.69091507422E+02 -0.15697822075E+03  0.74887026499E+03  0.76825938469E+03  0.10100000352E+00 0.  1.
       -3    1    3    3    0  502 -0.69091507422E+02  0.15697822075E+03 -0.21872398780E+03  0.27794961994E+03  0.10100000352E+00 0. -1.
</event>
<event>
 5   0  0.1559275E-02  0.8777742E+03  0.7818609E-02  0.9453799E-01
        1   -1    0    0  501    0  0.00000000000E+00  0.00000000000E+00  0.26281786166E+03  0.26281786171E+03  0.50400001928E-02 0.  1.
       -1   -1    0    0    0  501  0.00000000000E+00  0.00000000000E+00 -0.73291013215E+03  0.73291013216E+03  0.50400001928E-02 0. -1.
    10030    2    1    2    0    0  0.00000000000E+00  0.00000000000E+00 -0.47009227049E+03  0.99572799387E+03  0.87777417085E+03 0.  0.
        1    1    3    3  502    0 -0.13725523650E+03 -0.34335599054E+02 -0.70633076143E+03  0.72036176875E+03  0.50400001928E-02 0. -1.
       -1    1    3    3    0  502  0.13725523650E+03  0.34335599054E+02  0.23623849095E+03  0.27536622512E+03  0.50400001928E-02 0.  1.
</event>
<event>
 5   0  0.2705111E-02  0.8802525E+03  0.7818609E-02  0.9450609E-01
        2   -1    0    0  501    0  0.00000000000E+00  0.00000000000E+00  0.26452084365E+03  0.26452084366E+03  0.25500000920E-02 0. -1.
       -2   -1    0    0    0  501  0.00000000000E+00  0.00000000000E+00 -0.73230938515E+03  0.73230938516E+03  0.25500000920E-02 0.  1.
    10030    2    1    2    0    0  0.00000000000E+00  0.00000000000E+00 -0.46778854150E+03  0.99683022882E+03  0.88025245556E+03 0.  0.
        4    1    3    3  502    0  0.12765673985E+03  0.42082126843E+03 -0.21355133475E+03  0.48886866198E+03  0.12699999809E+01 0. -1.
       -4    1    3    3    0  502 -0.12765673985E+03 -0.42082126843E+03 -0.25423720675E+03  0.50796156684E+03  0.12699999809E+01 0.  1.
</event>
<event>
 5   0  0.2628383E-02  0.8545268E+03  0.7818609E-02  0.9484281E-01
        2   -1    0    0  501    0  0.00000000000E+00  0.00000000000E+00  0.11963569939E+04  0.11963569939E+04  0.25500000920E-02 0.  1.
       -2   -1    0    0    0  501  0.00000000000E+00  0.00000000000E+00 -0.15259157774E+03  0.15259157776E+03  0.25500000920E-02 0. -1.
    10030    2    1    2    0    0  0.00000000000E+00  0.00000000000E+00  0.10437654162E+04  0.13489485717E+04  0.85452677256E+03 0.  0.
        2    1    3    3  502    0  0.73911797326E+01  0.15189683484E+03 -0.10842160480E+03  0.18676863325E+03  0.25500000920E-02 0. -1.
       -2    1    3    3    0  502 -0.73911797326E+01 -0.15189683484E+03  0.11521870210E+04  0.11621799384E+04  0.25500000920E-02 0.  1.
</event>
<event>
 5   0  0.1459111E-02  0.8851353E+03  0.7818609E-02  0.9444356E-01
        1   -1    0    0  501    0  0.00000000000E+00  0.00000000000E+00  0.57948856718E+03  0.57948856721E+03  0.50400001928E-02 0. -1.
       -1   -1    0    0    0  501  0.00000000000E+00  0.00000000000E+00 -0.33799827733E+03  0.33799827736E+03  0.50400001928E-02 0.  1.
    10030    2    1    2    0    0  0.00000000000E+00  0.00000000000E+00  0.24149028986E+03  0.91748684457E+03  0.88513532856E+03 0.  0.
        2    1    3    3  502    0 -0.13335879754E+03 -0.30655889434E+03  0.42135032773E+03  0.53786524638E+03  0.25500000920E-02 0.  1.
       -2    1    3    3    0  502  0.13335879754E+03  0.30655889434E+03 -0.17986003787E+03  0.37962159819E+03  0.25500000920E-02 0. -1.
</event>
<event>
 5   0  0.2628383E-02  0.9547937E+03  0.7818609E-02  0.9359565E-01
        2   -1    0    0  501    0  0.00000000000E+00  0.00000000000E+00  0.93480641329E+03  0.93480641329E+03  0.25500000920E-02 0.  1.
       -2   -1    0    0    0  501  0.00000000000E+00  0.00000000000E+00 -0.24380207914E+03  0.24380207915E+03  0.25500000920E-02 0. -1.
    10030    2    1    2    0    0  0.00000000000E+00  0.00000000000E+00  0.69100433415E+03  0.11786084924E+04  0.95479368905E+03 0.  0.
        2    1    3    3  502    0  0.26722444272E+02 -0.47488937496E+03  0.39600363266E+03  0.61891266311E+03  0.25500000920E-02 0.  1.
       -2    1    3    3    0  502 -0.26722444272E+02  0.47488937496E+03  0.29500070149E+03  0.55969582933E+03  0.25500000920E-02 0. -1.
</event>
<event>
 5   0  0.1459111E-02  0.9009981E+03  0.7818609E-02  0.9424335E-01
       -1   -1    0    0    0  501  0.00000000000E+00  0.00000000000E+00  0.25082771855E+03  0.25082771860E+03  0.50400001928E-02 0. -1.
        1   -1    0    0  501    0  0.00000000000E+00  0.00000000000E+00 -0.80911868920E+03  0.80911868922E+03  0.50400001928E-02 0.  1.
    10030    2    1    2    0    0  0.00000000000E+00  0.00000000000E+00 -0.55829097066E+03  0.10599464078E+04  0.90099810184E+03 0.  0.
        2    1    3    3  502    0 -0.34851591761E+03 -0.12701707854E+03 -0.57988593031E+03  0.68837807580E+03  0.25500000920E-02 0.  1.
       -2    1    3    3    0  502  0.34851591761E+03  0.12701707854E+03  0.21594959655E+02  0.37156833201E+03  0.25500000920E-02 0. -1.
</event>
<event>
 5   0  0.1537870E-02  0.9122061E+03  0.7818609E-02  0.9410451E-01
        1   -1    0    0  501    0  0.00000000000E+00  0.00000000000E+00  0.59516779090E+03  0.59516779093E+03  0.50400001928E-02 0.  1.
       -1   -1    0    0    0  501  0.00000000000E+00  0.00000000000E+00 -0.34953164369E+03  0.34953164372E+03  0.50400001928E-02 0. -1.
    10030    2    1    2    0    0  0.00000000000E+00  0.00000000000E+00  0.24563614722E+03  0.94469943465E+03  0.91220606499E+03 0.  0.
        5    1    3    3  502    0 -0.40790383926E+03 -0.20017397367E+03  0.16362631638E+03  0.48296047791E+03  0.46999998093E+01 0.  1.
       -5    1    3    3    0  502  0.40790383926E+03  0.20017397367E+03  0.82009830841E+02  0.46173895674E+03  0.46999998093E+01 0. -1.
</event>
<event>
 5   0  0.1559275E-02  0.9403408E+03  0.7818609E-02  0.9376512E-01
       -1   -1    0    0    0  501  0.00000000000E+00  0.00000000000E+00  0.64175154171E+03  0.64175154173E+03  0.50400001928E-02 0.  1.
        1   -1    0    0  501    0  0.00000000000E+00  0.00000000000E+00 -0.34446384403E+03  0.34446384407E+03  0.50400001928E-02 0. -1.
    10030    2    1    2    0    0  0.00000000000E+00  0.00000000000E+00  0.29728769767E+03  0.98621538580E+03  0.94034079567E+03 0.  0.
        1    1    3    3  502    0 -0.24251312669E+03  0.30685028040E+03  0.42231544873E+03  0.57560407353E+03  0.50400001928E-02 0.  1.
       -1    1    3    3    0  502  0.24251312669E+03 -0.30685028040E+03 -0.12502775106E+03  0.41061131227E+03  0.50400001928E-02 0. -1.
</event>
<event>
 5   0  0.2628383E-02  0.6709117E+03  0.7818609E-02  0.9768312E-01
        2   -1    0    0  501    0  0.00000000000E+00  0.00000000000E+00  0.39480958555E+03  0.39480958556E+03  0.25500000920E-02 0.  1.
       -2   -1    0    0    0  501  0.00000000000E+00  0.00000000000E+00 -0.28502505239E+03  0.28502505240E+03  0.25500000920E-02 0. -1.
    10030    2    1    2    0    0  0.00000000000E+00  0.00000000000E+00  0.10978453316E+03  0.67983463796E+03  0.67091168663E+03 0.  0.
        2    1    3    3  502    0 -0.17812595474E+03  0.12044399391E+02  0.34267064078E+03  0.38638981788E+03  0.25500000920E-02 0.  1.
       -2    1    3    3    0  502  0.17812595474E+03 -0.12044399391E+02 -0.23288610761E+03  0.29344482008E+03  0.25500000920E-02 0. -1.
</event>
<event>
 5   0  0.2705111E-02  0.8830254E+03  0.7818609E-02  0.9447053E-01
        2   -1    0    0  501    0  0.00000000000E+00  0.00000000000E+00  0.39855734402E+03  0.39855734403E+03  0.25500000920E-02 0.  1.
       -2   -1    0    0    0  501  0.00000000000E+00  0.00000000000E+00 -0.48909764578E+03  0.48909764578E+03  0.25500000920E-02 0. -1.
    10030    2    1    2    0    0  0.00000000000E+00  0.00000000000E+00 -0.90540301757E+02  0.88765498981E+03  0.88302538734E+03 0.  0.
        4    1    3    3  502    0  0.34623909949E+03 -0.14297821385E+03 -0.28017793222E+03  0.46778795438E+03  0.12699999809E+01 0. -1.
       -4    1    3    3    0  502 -0.34623909949E+03  0.14297821385E+03  0.18963763047E+03  0.41986703543E+03  0.12699999809E+01 0.  1.
</event>
<event>
 5   0  0.2679861E-02  0.9166800E+03  0.7818609E-02  0.9404967E-01
        2   -1    0    0  501    0  0.00000000000E+00  0.00000000000E+00  0.51894634924E+03  0.51894634925E+03  0.25500000920E-02 0.  1.
       -2   -1    0    0    0  501  0.00000000000E+00  0.00000000000E+00 -0.40481171460E+03  0.40481171461E+03  0.25500000920E-02 0. -1.
    10030    2    1    2    0    0  0.00000000000E+00  0.00000000000E+00  0.11413463464E+03  0.92375806386E+03  0.91668001272E+03 0.  0.
        1    1    3    3  502    0  0.44292919116E+03 -0.66340505739E+02  0.15522698731E+03  0.47400711883E+03  0.50400001928E-02 0.  1.
       -1    1    3    3    0  502 -0.44292919116E+03  0.66340505739E+02 -0.41092352670E+02  0.44975094503E+03  0.50400001928E-02 0. -1.
</event>
<event>
 5   0  0.2679861E-02  0.9286717E+03  0.7818609E-02  0.9390433E-01
        2   -1    0    0  501    0  0.00000000000E+00  0.00000000000E+00  0.13847371463E+03  0.13847371465E+03  0.25500000920E-02 0. -1.
       -2   -1    0    0    0  501  0.00000000000E+00  0.00000000000E+00 -0.15570303201E+04  0.15570303201E+04  0.25500000920E-02 0.  1.
    10030    2    1    2    0    0  0.00000000000E+00  0.00000000000E+00 -0.14185566054E+04  0.16955040347E+04  0.92867167983E+03 0.  0.
        1    1    3    3  502    0  0.20916663024E+03 -0.11949871823E+03 -0.14340199948E+04  0.14541127770E+04  0.50400001928E-02 0.  1.
       -1    1    3    3    0  502 -0.20916663024E+03  0.11949871823E+03  0.15463389323E+02  0.24139125771E+03  0.50400001928E-02 0. -1.
</event>
<event>
 5   0  0.1459111E-02  0.8950294E+03  0.7818609E-02  0.9431816E-01
       -1   -1    0    0    0  501  0.00000000000E+00  0.00000000000E+00  0.35410992708E+03  0.35410992711E+03  0.50400001928E-02 0.  1.
        1   -1    0    0  501    0  0.00000000000E+00  0.00000000000E+00 -0.56555713168E+03  0.56555713170E+03  0.50400001928E-02 0. -1.
    10030    2    1    2    0    0  0.00000000000E+00  0.00000000000E+00 -0.21144720460E+03  0.91966705882E+03  0.89502937312E+03 0.  0.
        2    1    3    3  502    0  0.18496261341E+03 -0.30017511503E+03  0.17745874084E+03  0.39472505969E+03  0.25500000920E-02 0.  1.
       -2    1    3    3    0  502 -0.18496261341E+03  0.30017511503E+03 -0.38890594544E+03  0.52494199913E+03  0.25500000920E-02 0. -1.
</event>
<event>
 5   0  0.1040163E-02  0.8930428E+03  0.7818609E-02  0.9434320E-01
        4   -1    0    0  501    0  0.00000000000E+00  0.00000000000E+00  0.42360099180E+03  0.42360289559E+03  0.12699999809E+01 0.  1.
       -4   -1    0    0    0  501  0.00000000000E+00  0.00000000000E+00 -0.47067815218E+03  0.47067986556E+03  0.12699999809E+01 0. -1.
    10030    2    1    2    0    0  0.00000000000E+00  0.00000000000E+00 -0.47077160382E+02  0.89428276115E+03  0.89304277493E+03 0.  0.
        2    1    3    3  502    0  0.19611915651E+03  0.12223224342E+03 -0.40613963279E+03  0.46728240520E+03  0.25500000920E-02 0. -1.
       -2    1    3    3    0  502 -0.19611915651E+03 -0.12223224342E+03  0.35906247240E+03  0.42700035595E+03  0.25500000920E-02 0.  1.
</event>
<event>
 5   0  0.2679861E-02  0.8851494E+03  0.7818609E-02  0.9444338E-01
        2   -1    0    0  501    0  0.00000000000E+00  0.00000000000E+00  0.13851277999E+04  0.13851278000E+04  0.25500000920E-02 0. -1.
       -2   -1    0    0    0  501  0.00000000000E+00  0.00000000000E+00 -0.14141103062E+03  0.14141103064E+03  0.25500000920E-02 0.  1.
    10030    2    1    2    0    0  0.00000000000E+00  0.00000000000E+00  0.12437167693E+04  0.15265388306E+04  0.88514936535E+03 0.  0.
        1    1    3    3  502    0 -0.20575095619E+03  0.14307897561E+03  0.12509689327E+04  0.12758245647E+04  0.50400001928E-02 0.  1.
       -1    1    3    3    0  502  0.20575095619E+03 -0.14307897561E+03 -0.72521633687E+01  0.25071426591E+03  0.50400001928E-02 0. -1.
</event>
<event>
 5   0  0.2803717E-02  0.8921741E+03  0.7818609E-02  0.9435417E-01
       -2   -1    0    0    0  501  0.00000000000E+00  0.00000000000E+00  0.11800069767E+03  0.11800069770E+03  0.25500000920E-02 0. -1.
        2   -1    0    0  501    0  0.00000000000E+00  0.00000000000E+00 -0.16863767788E+04  0.16863767788E+04  0.25500000920E-02 0.  1.
    10030    2    1    2    0    0  0.00000000000E+00  0.00000000000E+00 -0.15683760811E+04  0.18043774765E+04  0.89217405580E+03 0.  0.
        5    1    3    3  502    0  0.37022260593E+03  0.17548306810E+03 -0.42745363907E+03  0.59211298642E+03  0.46999998093E+01 0.  1.
       -5    1    3    3    0  502 -0.37022260593E+03 -0.17548306810E+03 -0.11409224420E+04  0.12122644900E+04  0.46999998093E+01 0. -1.
</event>
<event>
 5   0  0.2705111E-02  0.9156193E+03  0.7818609E-02  0.9406264E-01
       -2   -1    0    0    0  501  0.00000000000E+00  0.00000000000E+00  0.61352154436E+03  0.61352154437E+03  0.25500000920E-02 0. -1.
        2   -1    0    0  501    0  0.00000000000E+00  0.00000000000E+00 -0.34161749857E+03  0.34161749858E+03  0.25500000920E-02 0.  1.
    10030    2    1    2    0    0  0.00000000000E+00  0.00000000000E+00  0.27190404579E+03  0.95513904294E+03  0.91561934298E+03 0.  0.
        4    1    3    3  502    0 -0.32729953185E+03 -0.31745139196E+03  0.93097083457E+02  0.46536979882E+03  0.12699999809E+01 0. -1.
       -4    1    3    3    0  502  0.32729953185E+03  0.31745139196E+03  0.17880696233E+03  0.48976924412E+03  0.12699999809E+01 0.  1.
</event>
<event>
 5   0  0.1559275E-02  0.9076002E+03  0.7818609E-02  0.9416130E-01
       -1   -1    0    0    0  501  0.00000000000E+00  0.00000000000E+00  0.56583025635E+03  0.56583025638E+03  0.50400001928E-02 0.  1.
        1   -1    0    0  501    0  0.00000000000E+00  0.00000000000E+00 -0.36395104386E+03  0.36395104390E+03  0.50400001928E-02 0. -1.
    10030    2    1    2    0    0  0.00000000000E+00  0.00000000000E+00  0.20187921249E+03  0.92978130027E+03  0.90760015971E+03 0.  0.
        1    1    3    3  502    0 -0.39022651905E+03  0.22259593598E+03  0.16660629172E+03  0.47914856084E+03  0.50400001928E-02 0.  1.
       -1    1    3    3    0  502  0.39022651905E+03 -0.22259593598E+03  0.35272920774E+02  0.45063273944E+03  0.50400001928E-02 0. -1.
</event>
<event>
 5   0  0.2414128E-02  0.9153543E+03  0.7818609E-02  0.9406589E-01
       -2   -1    0    0    0  501  0.00000000000E+00  0.00000000000E+00  0.23502884115E+03  0.23502884117E+03  0.25500000920E-02 0.  1.
        2   -1    0    0  501    0  0.00000000000E+00  0.00000000000E+00 -0.89124536395E+03  0.89124536396E+03  0.25500000920E-02 0. -1.
    10030    2    1    2    0    0  0.00000000000E+00  0.00000000000E+00 -0.65621652280E+03  0.11262742051E+04  0.91535428132E+03 0.  0.
        3    1    3    3  502    0 -0.43769461994E+03 -0.24198094242E+02 -0.48997444072E+03  0.65744740539E+03  0.10100000352E+00 0.  1.
       -3    1    3    3    0  502  0.43769461994E+03  0.24198094242E+02 -0.16624208208E+03  0.46882679973E+03  0.10100000352E+00 0. -1.
</event>
<event>
 5   0  0.2679861E-02  0.8660249E+03  0.7818609E-02  0.9469078E-01
        2   -1    0    0  501    0  0.00000000000E+00  0.00000000000E+00  0.17809349200E+04  0.17809349200E+04  0.25500000920E-02 0.  1.
       -2   -1    0    0    0  501  0.00000000000E+00  0.00000000000E+00 -0.10528164895E+03  0.10528164898E+03  0.25500000920E-02 0. -1.
    10030    2    1    2    0    0  0.00000000000E+00  0.00000000000E+00  0.16756532710E+04  0.18862165690E+04  0.86602486126E+03 0.  0.
        1    1    3    3  502    0  0.41850753036E+03  0.98593166958E+02  0.94953573831E+03  0.10423470074E+04  0.50400001928E-02 0.  1.
       -1    1    3    3    0  502 -0.41850753036E+03 -0.98593166958E+02  0.72611753274E+03  0.84386956155E+03  0.50400001928E-02 0. -1.
</event>
<event>
 5   0  0.1560728E-02  0.9443782E+03  0.7818609E-02  0.9371746E-01
       -1   -1    0    0    0  501  0.00000000000E+00  0.00000000000E+00  0.20065345729E+03  0.20065345735E+03  0.50400001928E-02 0.  1.
        1   -1    0    0  501    0  0.00000000000E+00  0.00000000000E+00 -0.11111822191E+04  0.11111822191E+04  0.50400001928E-02 0. -1.
    10030    2    1    2    0    0  0.00000000000E+00  0.00000000000E+00 -0.91052876180E+03  0.13118356764E+04  0.94437821657E+03 0.  0.
        4    1    3    3  502    0 -0.37734125729E+02  0.45433887613E+03 -0.28449398340E+03  0.53738823777E+03  0.12699999809E+01 0.  1.
       -4    1    3    3    0  502  0.37734125729E+02 -0.45433887613E+03 -0.62603477840E+03  0.77444743867E+03  0.12699999809E+01 0. -1.
</event>
<event>
 5   0  0.2414128E-02  0.8943121E+03  0.7818609E-02  0.9432720E-01
       -2   -1    0    0    0  501  0.00000000000E+00  0.00000000000E+00  0.17571264009E+03  0.17571264011E+03  0.25500000920E-02 0. -1.
        2   -1    0    0  501    0  0.00000000000E+00  0.00000000000E+00 -0.11379292397E+04  0.11379292397E+04  0.25500000920E-02 0.  1.
    10030    2    1    2    0    0  0.00000000000E+00  0.00000000000E+00 -0.96221659959E+03  0.13136418798E+04  0.89431214003E+03 0.  0.
        3    1    3    3  502    0 -0.41884969722E+03  0.10611609445E+03 -0.31200875387E+03  0.53295887933E+03  0.10100000352E+00 0. -1.
       -3    1    3    3    0  502  0.41884969722E+03 -0.10611609445E+03 -0.65020784572E+03  0.78068300046E+03  0.10100000352E+00 0.  1.
</event>
<event>
 5   0  0.2679861E-02  0.9033495E+03  0.7818609E-02  0.9421404E-01
       -2   -1    0    0    0  501  0.00000000000E+00  0.00000000000E+00  0.65156164135E+03  0.65156164135E+03  0.25500000920E-02 0.  1.
        2   -1    0    0  501    0  0.00000000000E+00  0.00000000000E+00 -0.31310937589E+03  0.31310937591E+03  0.25500000920E-02 0. -1.
    10030    2    1    2    0    0  0.00000000000E+00  0.00000000000E+00  0.33845226545E+03  0.96467101726E+03  0.90334945373E+03 0.  0.
        1    1    3    3  502    0 -0.35509814014E+03  0.40064273898E+02  0.46422123648E+03  0.58583375765E+03  0.50400001928E-02 0. -1.
       -1    1    3    3    0  502  0.35509814014E+03 -0.40064273898E+02 -0.12576897103E+03  0.37883725961E+03  0.50400001928E-02 0.  1.
</event>
<event>
 5   0  0.1459111E-02  0.9066633E+03  0.7818609E-02  0.9417290E-01
       -1   -1    0    0    0  501  0.00000000000E+00  0.00000000000E+00  0.11089401386E+03  0.11089401398E+03  0.50400001928E-02 0.  1.
        1   -1    0    0  501    0  0.00000000000E+00  0.00000000000E+00 -0.18532070228E+04  0.18532070228E+04  0.50400001928E-02 0. -1.
    10030    2    1    2    0    0  0.00000000000E+00  0.00000000000E+00 -0.17423130090E+04  0.19641010368E+04  0.90666325700E+03 0.  0.
        2    1    3    3  502    0 -0.32157415365E+03 -0.12676371393E+02 -0.15628088638E+04  0.15956008810E+04  0.25500000920E-02 0. -1.
       -2    1    3    3    0  502  0.32157415365E+03  0.12676371393E+02 -0.17950414515E+03  0.36850015579E+03  0.25500000920E-02 0.  1.
</event>
<event>
 5   0  0.2803717E-02  0.8319228E+03  0.7818609E-02  0.9514926E-01
        2   -1    0    0  501    0  0.00000000000E+00  0.00000000000E+00  0.10860943949E+04  0.10860943950E+04  0.25500000920E-02 0.  1.
       -2   -1    0    0    0  501  0.00000000000E+00  0.00000000000E+00 -0.15930831759E+03  0.15930831761E+03  0.25500000920E-02 0. -1.
    10030    2    1    2    0    0  0.00000000000E+00  0.00000000000E+00  0.92678607736E+03  0.12454027126E+04  0.83192276281E+03 0.  0.
        5    1    3    3  502    0 -0.18052707914E+03 -0.27776952370E+03  0.83990357565E+03  0.90288761260E+03  0.46999998093E+01 0.  1.
       -5    1    3    3    0  502  0.18052707914E+03  0.27776952370E+03  0.86882501703E+02  0.34251509996E+03  0.46999998093E+01 0. -1.
</event>
<event>
 5   0  0.1559275E-02  0.8869287E+03  0.7818609E-02  0.9442070E-01
       -1   -1    0    0    0  501  0.00000000000E+00  0.00000000000E+00  0.16556540883E+03  0.16556540891E+03  0.50400001928E-02 0. -1.
        1   -1    0    0  501    0  0.00000000000E+00  0.00000000000E+00 -0.11878122032E+04  0.11878122033E+04  0.50400001928E-02 0.  1.
    10030    2    1    2    0    0  0.00000000000E+00  0.00000000000E+00 -0.10222467944E+04  0.13533776122E+04  0.88692866253E+03 0.  0.
        1    1    3    3  502    0  0.29974517666E+03 -0.99119610578E+02 -0.98633930232E+03  0.10356336647E+04  0.50400001928E-02 0.  1.
       -1    1    3    3    0  502 -0.29974517666E+03  0.99119610578E+02 -0.35907492092E+02  0.31774394746E+03  0.50400001928E-02 0. -1.
</event>
<event>
 5   0  0.2679861E-02  0.8971114E+03  0.7818609E-02  0.9429199E-01
        2   -1    0    0  501    0  0.00000000000E+00  0.00000000000E+00  0.39751066091E+03  0.39751066092E+03  0.25500000920E-02 0.  1.
       -2   -1    0    0    0  501  0.00000000000E+00  0.00000000000E+00 -0.50615556864E+03  0.50615556865E+03  0.25500000920E-02 0. -1.
    10030    2    1    2    0    0  0.00000000000E+00  0.00000000000E+00 -0.10864490773E+03  0.90366622957E+03  0.89711144151E+03 0.  0.
        1    1    3    3  502    0  0.23308094419E+02 -0.33575024403E+03  0.24437534595E+03  0.41592163128E+03  0.50400001928E-02 0.  1.
       -1    1    3    3    0  502 -0.23308094419E+02  0.33575024403E+03 -0.35302025368E+03  0.48774459829E+03  0.50400001928E-02 0. -1.
</event>
<event>
 5   0  0.2628383E-02  0.8999565E+03  0.7818609E-02  0.9425636E-01
       -2   -1    0    0    0  501  0.00000000000E+00  0.00000000000E+00  0.13819062875E+03  0.13819062877E+03  0.25500000920E-02 0.  1.
        2   -1    0    0  501    0  0.00000000000E+00  0.00000000000E+00 -0.14652255950E+04  0.14652255950E+04  0.25500000920E-02 0. -1.
    10030    2    1    2    0    0  0.00000000000E+00  0.00000000000E+00 -0.13270349662E+04  0.16034162238E+04  0.89995654618E+03 0.  0.
        2    1    3    3  502    0 -0.32708850208E+03  0.30788216954E+03 -0.61630761404E+03  0.76263581980E+03  0.25500000920E-02 0. -1.
       -2    1    3    3    0  502  0.32708850208E+03 -0.30788216954E+03 -0.71072735219E+03  0.84078040395E+03  0.25500000920E-02 0.  1.
</event>
<event>
 5   0  0.1537870E-02  0.8854787E+03  0.7818609E-02  0.9443918E-01
        1   -1    0    0  501    0  0.00000000000E+00  0.00000000000E+00  0.17907657341E+04  0.17907657341E+04  0.50400001928E-02 0. -1.
       -1   -1    0    0    0  501  0.00000000000E+00  0.00000000000E+00 -0.10946050594E+03  0.10946050605E+03  0.50400001928E-02 0.  1.
    10030    2    1    2    0    0  0.00000000000E+00  0.00000000000E+00  0.16813052282E+04  0.19002262402E+04  0.88547868046E+03 0.  0.
        5    1    3    3  502    0  0.25168964737E+03  0.17979780156E+03  0.15203621394E+04  0.15515147608E+04  0.46999998093E+01 0. -1.
       -5    1    3    3    0  502 -0.25168964737E+03 -0.17979780156E+03  0.16094308880E+03  0.34871147940E+03  0.46999998093E+01 0.  1.
</event>
<event>
 5   0  0.1497410E-02  0.6479111E+03  0.7818609E-02  0.9810707E-01
       -1   -1    0    0    0  501  0.00000000000E+00  0.00000000000E+00  0.39622181083E+03  0.39622181087E+03  0.50400001928E-02 0. -1.
        1   -1    0    0  501    0  0.00000000000E+00  0.00000000000E+00 -0.26486985302E+03  0.26486985306E+03  0.50400001928E-02 0.  1.
    10030    2    1    2    0    0  0.00000000000E+00  0.00000000000E+00  0.13135195782E+03  0.66109166393E+03  0.64791114460E+03 0.  0.
        3    1    3    3  502    0 -0.26745227462E+03 -0.61515799364E+02  0.24131816640E+03  0.36544408657E+03  0.10100000352E+00 0. -1.
       -3    1    3    3    0  502  0.26745227462E+03  0.61515799364E+02 -0.10996620858E+03  0.29564757736E+03  0.10100000352E+00 0.  1.
</event>
<event>
 5   0  0.2414128E-02  0.8571192E+03  0.7818609E-02  0.9480831E-01
        2   -1    0    0  501    0  0.00000000000E+00  0.00000000000E+00  0.26580110501E+03  0.26580110502E+03  0.25500000920E-02 0. -1.
       -2   -1    0    0    0  501  0.00000000000E+00  0.00000000000E+00 -0.69098029565E+03  0.69098029565E+03  0.25500000920E-02 0.  1.
    10030    2    1    2    0    0  0.00000000000E+00  0.00000000000E+00 -0.42517919063E+03  0.95678140067E+03  0.85711918922E+03 0.  0.
        3    1    3    3  502    0 -0.56157248229E+02  0.34299585841E+02  0.26012811854E+03  0.26832209445E+03  0.10100000352E+00 0. -1.
       -3    1    3    3    0  502  0.56157248229E+02 -0.34299585841E+02 -0.68530730917E+03  0.68845930622E+03  0.10100000352E+00 0.  1.
</event>
<event>
 5   0  0.2803717E-02  0.8990860E+03  0.7818609E-02  0.9426725E-01
       -2   -1    0    0    0  501  0.00000000000E+00  0.00000000000E+00  0.13259678476E+03  0.13259678479E+03  0.25500000920E-02 0.  1.
        2   -1    0    0  501    0  0.00000000000E+00  0.00000000000E+00 -0.15240859349E+04  0.15240859349E+04  0.25500000920E-02 0. -1.
    10030    2    1    2    0    0  0.00000000000E+00  0.00000000000E+00 -0.13914891501E+04  0.16566827197E+04  0.89908596852E+03 0.  0.
        5    1    3    3  502    0  0.17229990386E+03 -0.87439954211E+02 -0.14436203806E+04  0.14565009082E+04  0.46999998093E+01 0. -1.
       -5    1    3    3    0  502 -0.17229990386E+03  0.87439954211E+02  0.52131230427E+02  0.20018181147E+03  0.46999998093E+01 0.  1.
</event>
<event>
 5   0  0.1537870E-02  0.1008437E+04  0.7818609E-02  0.9299340E-01
       -1   -1    0    0    0  501  0.00000000000E+00  0.00000000000E+00  0.11115134205E+04  0.11115134205E+04  0.50400001928E-02 0.  1.
        1   -1    0    0  501    0  0.00000000000E+00  0.00000000000E+00 -0.22872975276E+03  0.22872975281E+03  0.50400001928E-02 0. -1.
    10030    2    1    2    0    0  0.00000000000E+00  0.00000000000E+00  0.88278366771E+03  0.13402431733E+04  0.10084367901E+04 0.  0.
        5    1    3    3  502    0 -0.37926983400E+03 -0.18733055249E+03  0.80603030614E+03  0.91029955910E+03  0.46999998093E+01 0.  1.
       -5    1    3    3    0  502  0.37926983400E+03  0.18733055249E+03  0.76753361571E+02  0.42994361420E+03  0.46999998093E+01 0. -1.
</event>
<event>
 5   0  0.2679861E-02  0.8819126E+03  0.7818609E-02  0.9448478E-01
        2   -1    0    0  501    0  0.00000000000E+00  0.00000000000E+00  0.67273050724E+03  0.67273050724E+03  0.25500000920E-02 0. -1.
       -2   -1    0    0    0  501  0.00000000000E+00  0.00000000000E+00 -0.28903469693E+03  0.28903469694E+03  0.25500000920E-02 0.  1.
    10030    2    1    2    0    0  0.00000000000E+00  0.00000000000E+00  0.38369581030E+03  0.96176520418E+03  0.88191259949E+03 0.  0.
        1    1    3    3  502    0 -0.58993382366E+02  0.31094787906E+03 -0.14299313884E+03  0.34729791309E+03  0.50400001928E-02 0.  1.
       -1    1    3    3    0  502  0.58993382366E+02 -0.31094787906E+03  0.52668894914E+03  0.61446729110E+03  0.50400001928E-02 0. -1.
</event>
<event>
 5   0  0.1560728E-02  0.6910470E+03  0.7818609E-02  0.9732667E-01
       -1   -1    0    0    0  501  0.00000000000E+00  0.00000000000E+00  0.22495550805E+03  0.22495550811E+03  0.50400001928E-02 0.  1.
        1   -1    0    0  501    0  0.00000000000E+00  0.00000000000E+00 -0.53071152378E+03  0.53071152381E+03  0.50400001928E-02 0. -1.
    10030    2    1    2    0    0  0.00000000000E+00  0.00000000000E+00 -0.30575601573E+03  0.75566703192E+03  0.69104697523E+03 0.  0.
        4    1    3    3  502    0  0.65881221331E+02  0.77346404616E+02 -0.51400484573E+03  0.52395171148E+03  0.12699999809E+01 0. -1.
       -4    1    3    3    0  502 -0.65881221331E+02 -0.77346404616E+02  0.20824883000E+03  0.23171532044E+03  0.12699999809E+01 0.  1.
</event>
<event>
 5   0  0.2414128E-02  0.7815052E+03  0.7818609E-02  0.9587180E-01
       -2   -1    0    0    0  501  0.00000000000E+00  0.00000000000E+00  0.66401646143E+03  0.66401646143E+03  0.25500000920E-02 0. -1.
        2   -1    0    0  501    0  0.00000000000E+00  0.00000000000E+00 -0.22994549423E+03  0.22994549425E+03  0.25500000920E-02 0.  1.
    10030    2    1    2    0    0  0.00000000000E+00  0.00000000000E+00  0.43407096719E+03  0.89396195568E+03  0.78150519745E+03 0.  0.
        3    1    3    3  502    0 -0.12849573990E+03 -0.68165835045E+02 -0.19782237728E+03  0.24554315180E+03  0.10100000352E+00 0.  1.
       -3    1    3    3    0  502  0.12849573990E+03  0.68165835045E+02  0.63189334447E+03  0.64841880388E+03  0.10100000352E+00 0. -1.
</event>
<event>
 5   0  0.1040163E-02  0.9132972E+03  0.7818609E-02  0.9409110E-01
       -3   -1    0    0    0  501  0.00000000000E+00  0.00000000000E+00  0.46577502125E+03  0.46577503220E+03  0.10100000352E+00 0. -1.
        3   -1    0    0  501    0  0.00000000000E+00  0.00000000000E+00 -0.44770101246E+03  0.44770102385E+03  0.10100000352E+00 0.  1.
    10030    2    1    2    0    0  0.00000000000E+00  0.00000000000E+00  0.18074008794E+02  0.91347605606E+03  0.91329723267E+03 0.  0.
        3    1    3    3  502    0  0.31935138237E+02 -0.32994929654E+03  0.32317103475E+03  0.46295347417E+03  0.10100000352E+00 0. -1.
       -3    1    3    3    0  502 -0.31935138237E+02  0.32994929654E+03 -0.30509702595E+03  0.45052258189E+03  0.10100000352E+00 0.  1.
</event>
<event>
 5   0  0.2705111E-02  0.8984070E+03  0.7818609E-02  0.9427575E-01
        2   -1    0    0  501    0  0.00000000000E+00  0.00000000000E+00  0.16691055787E+04  0.16691055787E+04  0.25500000920E-02 0.  1.
       -2   -1    0    0    0  501  0.00000000000E+00  0.00000000000E+00 -0.12089335810E+03  0.12089335813E+03  0.25500000920E-02 0. -1.
    10030    2    1    2    0    0  0.00000000000E+00  0.00000000000E+00  0.15482122206E+04  0.17899989368E+04  0.89840698676E+03 0.  0.
        4    1    3    3  502    0  0.15499944363E+03 -0.12396466811E+03 -0.28790132757E+02  0.20055560603E+03  0.12699999809E+01 0. -1.
       -4    1    3    3    0  502 -0.15499944363E+03  0.12396466811E+03  0.15770023534E+04  0.15894433308E+04  0.12699999809E+01 0.  1.
</event>
<event>
 5   0  0.2628383E-02  0.9086587E+03  0.7818609E-02  0.9414822E-01
        2   -1    0    0  501    0  0.00000000000E+00  0.00000000000E+00  0.20998681323E+03  0.20998681324E+03  0.25500000920E-02 0. -1.
       -2   -1    0    0    0  501  0.00000000000E+00  0.00000000000E+00 -0.98299106395E+03  0.98299106395E+03  0.25500000920E-02 0.  1.
    10030    2    1    2    0    0  0.00000000000E+00  0.00000000000E+00 -0.77300425072E+03  0.11929778772E+04  0.90865870592E+03 0.  0.
        2    1    3    3  502    0 -0.12470808983E+03 -0.43191801389E+03 -0.30031064967E+03  0.54064014344E+03  0.25500000920E-02 0.  1.
       -2    1    3    3    0  502  0.12470808983E+03  0.43191801389E+03 -0.47269360105E+03  0.65233773375E+03  0.25500000920E-02 0. -1.
</event>
<event>
 5   0  0.2628383E-02  0.8768013E+03  0.7818609E-02  0.9455055E-01
        2   -1    0    0  501    0  0.00000000000E+00  0.00000000000E+00  0.10625541552E+03  0.10625541555E+03  0.25500000920E-02 0. -1.
       -2   -1    0    0    0  501  0.00000000000E+00  0.00000000000E+00 -0.18088030902E+04  0.18088030902E+04  0.25500000920E-02 0.  1.
    10030    2    1    2    0    0  0.00000000000E+00  0.00000000000E+00 -0.17025476747E+04  0.19150585058E+04  0.87680128644E+03 0.  0.
        2    1    3    3  502    0 -0.14594115206E+01 -0.43503741080E+03 -0.96961010389E+03  0.10627339424E+04  0.25500000920E-02 0.  1.
       -2    1    3    3    0  502  0.14594115206E+01  0.43503741080E+03 -0.73293757082E+03  0.85232456342E+03  0.25500000920E-02 0. -1.
</event>
<event>
 5   0  0.2679861E-02  0.6380601E+03  0.7818609E-02  0.9829445E-01
        2   -1    0    0  501    0  0.00000000000E+00  0.00000000000E+00  0.16145129407E+04  0.16145129407E+04  0.25500000920E-02 0. -1.
       -2   -1    0    0    0  501  0.00000000000E+00  0.00000000000E+00 -0.63040787681E+02  0.63040787733E+02  0.25500000920E-02 0.  1.
    10030    2    1    2    0    0  0.00000000000E+00  0.00000000000E+00  0.15514721530E+04  0.16775537284E+04  0.63806008353E+03 0.  0.
        1    1    3    3  502    0 -0.26465070097E+03  0.15415840051E+03  0.54094042342E+03  0.62162798175E+03  0.50400001928E-02 0.  1.
       -1    1    3    3    0  502  0.26465070097E+03 -0.15415840051E+03  0.10105317296E+04  0.10559257467E+04  0.50400001928E-02 0. -1.
</event>
<event>
 5   0  0.1537870E-02  0.8920634E+03  0.7818609E-02  0.9435557E-01
       -1   -1    0    0    0  501  0.00000000000E+00  0.00000000000E+00  0.38960335451E+03  0.38960335454E+03  0.50400001928E-02 0.  1.
        1   -1    0    0  501    0  0.00000000000E+00  0.00000000000E+00 -0.51063287497E+03  0.51063287500E+03  0.50400001928E-02 0. -1.
    10030    2    1    2    0    0  0.00000000000E+00  0.00000000000E+00 -0.12102952046E+03  0.90023622954E+03  0.89206340814E+03 0.  0.
        5    1    3    3  502    0  0.23498962794E+03 -0.34683355708E+03  0.93885494803E+02  0.42936024232E+03  0.46999998093E+01 0. -1.
       -5    1    3    3    0  502 -0.23498962794E+03  0.34683355708E+03 -0.21491501526E+03  0.47087598722E+03  0.46999998093E+01 0.  1.
</event>
<event>
 5   0  0.1559275E-02  0.8963486E+03  0.7818609E-02  0.9430157E-01
        1   -1    0    0  501    0  0.00000000000E+00  0.00000000000E+00  0.24758115006E+04  0.24758115006E+04  0.50400001928E-02 0. -1.
       -1   -1    0    0    0  501  0.00000000000E+00  0.00000000000E+00 -0.81129036626E+02  0.81129036782E+02  0.50400001928E-02 0.  1.
    10030    2    1    2    0    0  0.00000000000E+00  0.00000000000E+00  0.23946824640E+04  0.25569405374E+04  0.89634859762E+03 0.  0.
        1    1    3    3  502    0 -0.88112262838E+02 -0.43876518417E+03  0.11285496780E+04  0.12140440822E+04  0.50400001928E-02 0.  1.
       -1    1    3    3    0  502  0.88112262838E+02  0.43876518417E+03  0.12661327860E+04  0.13428964552E+04  0.50400001928E-02 0. -1.
</event>
<event>
 5   0  0.2679861E-02  0.8996086E+03  0.7818609E-02  0.9426071E-01
       -2   -1    0    0    0  501  0.00000000000E+00  0.00000000000E+00  0.22133839960E+03  0.22133839962E+03  0.25500000920E-02 0. -1.
        2   -1    0    0  501    0  0.00000000000E+00  0.00000000000E+00 -0.91409302233E+03  0.91409302234E+03  0.25500000920E-02 0.  1.
    10030    2    1    2    0    0  0.00000000000E+00  0.00000000000E+00 -0.69275462273E+03  0.11354314220E+04  0.89960855189E+03 0.  0.
        1    1    3    3  502    0  0.27992568421E+03 -0.17579834647E+03 -0.73140315638E+03  0.80262944407E+03  0.50400001928E-02 0.  1.
       -1    1    3    3    0  502 -0.27992568421E+03  0.17579834647E+03  0.38648533649E+02  0.33280197788E+03  0.50400001928E-02 0. -1.
</event>
<event>
 5   0  0.1459111E-02  0.8437445E+03  0.7818609E-02  0.9498772E-01
       -1   -1    0    0    0  501  0.00000000000E+00  0.00000000000E+00  0.29569281313E+03  0.29569281317E+03  0.50400001928E-02 0. -1.
        1   -1    0    0  501    0  0.00000000000E+00  0.00000000000E+00 -0.60189559769E+03  0.60189559771E+03  0.50400001928E-02 0.  1.
    10030    2    1    2    0    0  0.00000000000E+00  0.00000000000E+00 -0.30620278457E+03  0.89758841088E+03  0.84374451706E+03 0.  0.
        2    1    3    3  502    0 -0.18496708425E+02  0.39792772275E+03 -0.53589111694E+01  0.39839342200E+03  0.25500000920E-02 0. -1.
       -2    1    3    3    0  502  0.18496708425E+02 -0.39792772275E+03 -0.30084387340E+03  0.49919498888E+03  0.25500000920E-02 0.  1.
</event>
<event>
 5   0  0.1497410E-02  0.8262238E+03  0.7818609E-02  0.9522816E-01
        1   -1    0    0  501    0  0.00000000000E+00  0.00000000000E+00  0.11063562700E+04  0.11063562700E+04  0.50400001928E-02 0.  1.
       -1   -1    0    0    0  501  0.00000000000E+00  0.00000000000E+00 -0.15425542600E+03  0.15425542608E+03  0.50400001928E-02 0. -1.
    10030    2    1    2    0    0  0.00000000000E+00  0.00000000000E+00  0.95210084401E+03  0.12606116961E+04  0.82622383842E+03 0.  0.
        3    1    3    3  502    0 -0.22325617702E+03 -0.16559220008E+02 -0.53681646663E+02  0.23021567656E+03  0.10100000352E+00 0. -1.
       -3    1    3    3    0  502  0.22325617702E+03  0.16559220008E+02  0.10057824907E+04  0.10303960195E+04  0.10100000352E+00 0.  1.
</event>
<event>
 5   0  0.1560728E-02  0.7514906E+03  0.7818609E-02  0.9633015E-01
       -1   -1    0    0    0  501  0.00000000000E+00  0.00000000000E+00  0.47339099284E+03  0.47339099287E+03  0.50400001928E-02 0. -1.
        1   -1    0    0  501    0  0.00000000000E+00  0.00000000000E+00 -0.29824082636E+03  0.29824082641E+03  0.50400001928E-02 0.  1.
    10030    2    1    2    0    0  0.00000000000E+00  0.00000000000E+00  0.17515016648E+03  0.77163181927E+03  0.75149057459E+03 0.  0.
        4    1    3    3  502    0  0.13944993704E+03 -0.28814791234E+03  0.28959008012E+03  0.43167062875E+03  0.12699999809E+01 0. -1.
       -4    1    3    3    0  502 -0.13944993704E+03  0.28814791234E+03 -0.11443991365E+03  0.33996119052E+03  0.12699999809E+01 0.  1.
</event>
<event>
 5   0  0.2679861E-02  0.8809180E+03  0.7818609E-02  0.9449754E-01
       -2   -1    0    0    0  501  0.00000000000E+00  0.00000000000E+00  0.29899835122E+03  0.29899835123E+03  0.25500000920E-02 0. -1.
        2   -1    0    0  501    0  0.00000000000E+00  0.00000000000E+00 -0.64884676431E+03  0.64884676431E+03  0.25500000920E-02 0.  1.
    10030    2    1    2    0    0  0.00000000000E+00  0.00000000000E+00 -0.34984841308E+03  0.94784511555E+03  0.88091795925E+03 0.  0.
        1    1    3    3  502    0  0.93191483089E+02  0.32474460930E+03 -0.47899005882E+03  0.58615287278E+03  0.50400001928E-02 0.  1.
       -1    1    3    3    0  502 -0.93191483089E+02 -0.32474460930E+03  0.12914164573E+03  0.36169224277E+03  0.50400001928E-02 0. -1.
</event>
<event>
 5   0  0.1459111E-02  0.9270007E+03  0.7818609E-02  0.9392445E-01
       -1   -1    0    0    0  501  0.00000000000E+00  0.00000000000E+00  0.11833303886E+03  0.11833303896E+03  0.50400001928E-02 0.  1.
        1   -1    0    0  501    0  0.00000000000E+00  0.00000000000E+00 -0.18154909917E+04  0.18154909918E+04  0.50400001928E-02 0. -1.
    10030    2    1    2    0    0  0.00000000000E+00  0.00000000000E+00 -0.16971579529E+04  0.19338240307E+04  0.92700068216E+03 0.  0.
        2    1    3    3  502    0 -0.60115459000E+02  0.33783076532E+02  0.10757220812E+03  0.12777693312E+03  0.25500000920E-02 0.  1.
       -2    1    3    3    0  502  0.60115459000E+02 -0.33783076532E+02 -0.18047301610E+04  0.18060470976E+04  0.25500000920E-02 0. -1.
</event>
<event>
 5   0  0.1497410E-02  0.8525977E+03  0.7818609E-02  0.9486857E-01
        1   -1    0    0  501    0  0.00000000000E+00  0.00000000000E+00  0.58771066954E+03  0.58771066956E+03  0.50400001928E-02 0.  1.
       -1   -1    0    0    0  501  0.00000000000E+00  0.00000000000E+00 -0.30921802207E+03  0.30921802212E+03  0.50400001928E-02 0. -1.
    10030    2    1    2    0    0  0.00000000000E+00  0.00000000000E+00  0.27849264747E+03  0.89692869168E+03  0.85259774998E+03 0.  0.
        3    1    3    3  502    0 -0.59344231551E+02 -0.20655683547E+03  0.52655095700E+03  0.56872083189E+03  0.10100000352E+00 0.  1.
       -3    1    3    3    0  502  0.59344231551E+02  0.20655683547E+03 -0.24805830954E+03  0.32820785979E+03  0.10100000352E+00 0. -1.
</event>
<event>
 5   0  0.1537870E-02  0.8954391E+03  0.7818609E-02  0.9431301E-01
        1   -1    0    0  501    0  0.00000000000E+00  0.00000000000E+00  0.13230079101E+04  0.13230079101E+04  0.50400001928E-02 0.  1.
       -1   -1    0    0    0  501  0.00000000000E+00  0.00000000000E+00 -0.15151291314E+03  0.15151291323E+03  0.50400001928E-02 0. -1.
    10030    2    1    2    0    0  0.00000000000E+00  0.00000000000E+00  0.11714949970E+04  0.14745208233E+04  0.89543907138E+03 0.  0.
        5    1    3    3  502    0  0.78491915382E+02 -0.39151249304E+03  0.91912902920E+03  0.10021293705E+04  0.46999998093E+01 0.  1.
       -5    1    3    3    0  502 -0.78491915382E+02  0.39151249304E+03  0.25236596775E+03  0.47239145279E+03  0.46999998093E+01 0. -1.
</event>
<event>
 5   0  0.2679861E-02  0.9007321E+03  0.7818609E-02  0.9424667E-01
        2   -1    0    0  501    0  0.00000000000E+00  0.00000000000E+00  0.12539180695E+04  0.12539180695E+04  0.25500000920E-02 0. -1.
       -2   -1    0    0    0  501  0.00000000000E+00  0.00000000000E+00 -0.16175663883E+03  0.16175663885E+03  0.25500000920E-02 0.  1.
    10030    2    1    2    0    0  0.00000000000E+00  0.00000000000E+00  0.10921614306E+04  0.14156747083E+04  0.90073208513E+03 0.  0.
        1    1    3    3  502    0  0.38341513833E+03 -0.20319070800E+03  0.35658935946E+03  0.56164900376E+03  0.50400001928E-02 0.  1.
       -1    1    3    3    0  502 -0.38341513833E+03  0.20319070800E+03  0.73557207118E+03  0.85402570456E+03  0.50400001928E-02 0. -1.
</event>
<event>
 5   0  0.1537870E-02  0.7977921E+03  0.7818609E-02  0.9563218E-01
       -1   -1    0    0    0  501  0.00000000000E+00  0.00000000000E+00  0.76255951445E+03  0.76255951447E+03  0.50400001928E-02 0.  1.
        1   -1    0    0  501    0  0.00000000000E+00  0.00000000000E+00 -0.20866313254E+03  0.20866313260E+03  0.50400001928E-02 0. -1.
    10030    2    1    2    0    0  0.00000000000E+00  0.00000000000E+00  0.55389638192E+03  0.97122264707E+03  0.79779209589E+03 0.  0.
        5    1    3    3  502    0  0.41600139730E+02 -0.34049537342E+03  0.52473467167E+03  0.62692602163E+03  0.46999998093E+01 0.  1.
       -5    1    3    3    0  502 -0.41600139730E+02  0.34049537342E+03  0.29161710247E+02  0.34429662544E+03  0.46999998093E+01 0. -1.
</event>
<event>
 5   0  0.1497410E-02  0.9108436E+03  0.7818609E-02  0.9412127E-01
        1   -1    0    0  501    0  0.00000000000E+00  0.00000000000E+00  0.32545056504E+03  0.32545056508E+03  0.50400001928E-02 0. -1.
       -1   -1    0    0    0  501  0.00000000000E+00  0.00000000000E+00 -0.63729807649E+03  0.63729807651E+03  0.50400001928E-02 0.  1.
    10030    2    1    2    0    0  0.00000000000E+00  0.00000000000E+00 -0.31184751146E+03  0.96274864159E+03  0.91084360704E+03 0.  0.
        3    1    3    3  502    0  0.81119478991E+02 -0.13799718456E+03  0.29473583645E+03  0.33539948763E+03  0.10100000352E+00 0. -1.
       -3    1    3    3    0  502 -0.81119478991E+02  0.13799718456E+03 -0.60658334790E+03  0.62734915396E+03  0.10100000352E+00 0.  1.
</event>
<event>
 5   0  0.1040163E-02  0.8885300E+03  0.7818609E-02  0.9440034E-01
        3   -1    0    0  501    0  0.00000000000E+00  0.00000000000E+00  0.71526545956E+03  0.71526546669E+03  0.10100000352E+00 0.  1.
       -3   -1    0    0    0  501  0.00000000000E+00  0.00000000000E+00 -0.27594143733E+03  0.27594145582E+03  0.10100000352E+00 0. -1.
    10030    2    1    2    0    0  0.00000000000E+00  0.00000000000E+00  0.43932402223E+03  0.99120692251E+03  0.88853000328E+03 0.  0.
        1    1    3    3  502    0  0.10447779375E+03  0.13195998282E+03  0.67832107860E+03  0.69889093008E+03  0.50400001928E-02 0.  1.
       -1    1    3    3    0  502 -0.10447779375E+03 -0.13195998282E+03 -0.23899705637E+03  0.29231599243E+03  0.50400001928E-02 0. -1.
</event>
<event>
 5   0  0.2628383E-02  0.9010259E+03  0.7818609E-02  0.9424300E-01
       -2   -1    0    0    0  501  0.00000000000E+00  0.00000000000E+00  0.44629794415E+03  0.44629794416E+03  0.25500000920E-02 0.  1.
        2   -1    0    0  501    0  0.00000000000E+00  0.00000000000E+00 -0.45476776701E+03  0.45476776702E+03  0.25500000920E-02 0. -1.
    10030    2    1    2    0    0  0.00000000000E+00  0.00000000000E+00 -0.84698228647E+01  0.90106571118E+03  0.90102590304E+03 0.  0.
        2    1    3    3  502    0  0.18731407109E+03 -0.30725924503E+03 -0.27529506422E+03  0.45308076242E+03  0.25500000920E-02 0. -1.
       -2    1    3    3    0  502 -0.18731407109E+03  0.30725924503E+03  0.26682524135E+03  0.44798494876E+03  0.25500000920E-02 0.  1.
</event>
<event>
 5   0  0.1459111E-02  0.8439318E+03  0.7818609E-02  0.9498518E-01
        1   -1    0    0  501    0  0.00000000000E+00  0.00000000000E+00  0.27410593528E+03  0.27410593532E+03  0.50400001928E-02 0. -1.
       -1   -1    0    0    0  501  0.00000000000E+00  0.00000000000E+00 -0.64958548150E+03  0.64958548152E+03  0.50400001928E-02 0.  1.
    10030    2    1    2    0    0  0.00000000000E+00  0.00000000000E+00 -0.37547954622E+03  0.92369141684E+03  0.84393183606E+03 0.  0.
        2    1    3    3  502    0 -0.42224043801E+02 -0.10040994843E+03 -0.63393226070E+03  0.64322246446E+03  0.25500000920E-02 0.  1.
       -2    1    3    3    0  502  0.42224043801E+02  0.10040994843E+03  0.25845271448E+03  0.28046895238E+03  0.25500000920E-02 0. -1.
</event>
<event>
 5   0  0.2803717E-02  0.9276714E+03  0.7818609E-02  0.9391637E-01
        2   -1    0    0  501    0  0.00000000000E+00  0.00000000000E+00  0.10830767170E+04  0.10830767170E+04  0.25500000920E-02 0.  1.
       -2   -1    0    0    0  501  0.00000000000E+00  0.00000000000E+00 -0.19864109075E+03  0.19864109076E+03  0.25500000920E-02 0. -1.
    10030    2    1    2    0    0  0.00000000000E+00  0.00000000000E+00  0.88443562628E+03  0.12817178078E+04  0.92767136518E+03 0.  0.
        5    1    3    3  502    0  0.15559766832E+03  0.38487420923E+03  0.15643760102E+03  0.44365933364E+03  0.46999998093E+01 0. -1.
       -5    1    3    3    0  502 -0.15559766832E+03 -0.38487420923E+03  0.72799802525E+03  0.83805847415E+03  0.46999998093E+01 0.  1.
</event>
<event>
 5   0  0.2705111E-02  0.9494138E+03  0.7818609E-02  0.9365836E-01
        2   -1    0    0  501    0  0.00000000000E+00  0.00000000000E+00  0.22247510331E+03  0.22247510333E+03  0.25500000920E-02 0.  1.
       -2   -1    0    0    0  501  0.00000000000E+00  0.00000000000E+00 -0.10129072001E+04  0.10129072001E+04  0.25500000920E-02 0. -1.
    10030    2    1    2    0    0  0.00000000000E+00  0.00000000000E+00 -0.79043209677E+03  0.12353823034E+04  0.94941378544E+03 0.  0.
        4    1    3    3  502    0  0.14513747137E+02 -0.47443046310E+03 -0.38600521286E+03  0.61179780191E+03  0.12699999809E+01 0.  1.
       -4    1    3    3    0  502 -0.14513747137E+02  0.47443046310E+03 -0.40442688392E+03  0.62358450150E+03  0.12699999809E+01 0. -1.
</event>
<event>
 5   0  0.2705111E-02  0.9474011E+03  0.7818609E-02  0.9368193E-01
       -2   -1    0    0    0  501  0.00000000000E+00  0.00000000000E+00  0.61779599586E+03  0.61779599586E+03  0.25500000920E-02 0. -1.
        2   -1    0    0  501    0  0.00000000000E+00  0.00000000000E+00 -0.36321411214E+03  0.36321411215E+03  0.25500000920E-02 0.  1.
    10030    2    1    2    0    0  0.00000000000E+00  0.00000000000E+00  0.25458188372E+03  0.98101010801E+03  0.94740112756E+03 0.  0.
        4    1    3    3  502    0  0.31484601698E+03  0.16426725286E+03 -0.19732485809E+03  0.40626402411E+03  0.12699999809E+01 0.  1.
       -4    1    3    3    0  502 -0.31484601698E+03 -0.16426725286E+03  0.45190674180E+03  0.57474608390E+03  0.12699999809E+01 0. -1.
</event>
<event>
 5   0  0.1537870E-02  0.9019252E+03  0.7818609E-02  0.9423178E-01
        1   -1    0    0  501    0  0.00000000000E+00  0.00000000000E+00  0.11490960895E+04  0.11490960896E+04  0.50400001928E-02 0. -1.
       -1   -1    0    0    0  501  0.00000000000E+00  0.00000000000E+00 -0.17698019781E+03  0.17698019788E+03  0.50400001928E-02 0.  1.
    10030    2    1    2    0    0  0.00000000000E+00  0.00000000000E+00  0.97211589174E+03  0.13260762874E+04  0.90192517047E+03 0.  0.
        5    1    3    3  502    0 -0.33248747124E+03  0.29839291466E+03  0.57620035333E+03  0.72911946019E+03  0.46999998093E+01 0. -1.
       -5    1    3    3    0  502  0.33248747124E+03 -0.29839291466E+03  0.39591553841E+03  0.59695682725E+03  0.46999998093E+01 0.  1.
</event>
<event>
 5   0  0.1537870E-02  0.8981030E+03  0.7818609E-02  0.9427956E-01
        1   -1    0    0  501    0  0.00000000000E+00  0.00000000000E+00  0.68583317299E+03  0.68583317301E+03  0.50400001928E-02 0. -1.
       -1   -1    0    0    0  501  0.00000000000E+00  0.00000000000E+00 -0.29401790582E+03  0.29401790586E+03  0.50400001928E-02 0.  1.
    10030    2    1    2    0    0  0.00000000000E+00  0.00000000000E+00  0.39181526717E+03  0.97985107887E+03  0.89810296357E+03 0.  0.
        5    1    3    3  502    0 -0.39213186730E+02  0.44361927247E+03  0.25848149768E+03  0.51494709200E+03  0.46999998093E+01 0. -1.
       -5    1    3    3    0  502  0.39213186730E+02 -0.44361927247E+03  0.13333376949E+03  0.46490398687E+03  0.46999998093E+01 0.  1.
</event>
<event>
 5   0  0.1537870E-02  0.8951148E+03  0.7818609E-02  0.9431709E-01
        1   -1    0    0  501    0  0.00000000000E+00  0.00000000000E+00  0.49398429613E+03  0.49398429615E+03  0.50400001928E-02 0.  1.
       -1   -1    0    0    0  501  0.00000000000E+00  0.00000000000E+00 -0.40549388637E+03  0.40549388640E+03  0.50400001928E-02 0. -1.
    10030    2    1    2    0    0  0.00000000000E+00  0.00000000000E+00  0.88490409756E+02  0.89947818255E+03  0.89511476821E+03 0.  0.
        5    1    3    3  502    0 -0.25318868201E+03 -0.36325953190E+03  0.10955066443E+03  0.45616382396E+03  0.46999998093E+01 0.  1.
       -5    1    3    3    0  502  0.25318868201E+03  0.36325953190E+03 -0.21060254676E+02  0.44331435860E+03  0.46999998093E+01 0. -1.
</event>
<event>
 5   0  0.2705111E-02  0.8988553E+03  0.7818609E-02  0.9427013E-01
        2   -1    0    0  501    0  0.00000000000E+00  0.00000000000E+00  0.99406781728E+03  0.99406781728E+03  0.25500000920E-02 0. -1.
       -2   -1    0    0    0  501  0.00000000000E+00  0.00000000000E+00 -0.20319058102E+03  0.20319058104E+03  0.25500000920E-02 0.  1.
    10030    2    1    2    0    0  0.00000000000E+00  0.00000000000E+00  0.79087723626E+03  0.11972583983E+04  0.89885531066E+03 0.  0.
        4    1    3    3  502    0  0.76284834024E+02 -0.52541574794E+02 -0.19033578911E+03  0.21168211663E+03  0.12699999809E+01 0.  1.
       -4    1    3    3    0  502 -0.76284834024E+02  0.52541574794E+02  0.98121302536E+03  0.98557628169E+03  0.12699999809E+01 0. -1.
</event>
<event>
 5   0  0.2803717E-02  0.1267144E+04  0.7818609E-02  0.9056034E-01
        2   -1    0    0  501    0  0.00000000000E+00  0.00000000000E+00  0.43517514966E+03  0.43517514967E+03  0.25500000920E-02 0. -1.
       -2   -1    0    0    0  501  0.00000000000E+00  0.00000000000E+00 -0.92241853905E+03  0.92241853905E+03  0.25500000920E-02 0.  1.
    10030    2    1    2    0    0  0.00000000000E+00  0.00000000000E+00 -0.48724338939E+03  0.13575936887E+04  0.12671442314E+04 0.  0.
        5    1    3    3  502    0 -0.46771479430E+02  0.36884974210E+02  0.43214980685E+03  0.43626095192E+03  0.46999998093E+01 0. -1.
       -5    1    3    3    0  502  0.46771479430E+02 -0.36884974210E+02 -0.91939319624E+03  0.92133273680E+03  0.46999998093E+01 0.  1.
</event>
<event>
 5   0  0.1497410E-02  0.9095197E+03  0.7818609E-02  0.9413759E-01
        1   -1    0    0  501    0  0.00000000000E+00  0.00000000000E+00  0.83686127802E+03  0.83686127803E+03  0.50400001928E-02 0. -1.
       -1   -1    0    0    0  501  0.00000000000E+00  0.00000000000E+00 -0.24712160236E+03  0.24712160241E+03  0.50400001928E-02 0.  1.
    10030    2    1    2    0    0  0.00000000000E+00  0.00000000000E+00  0.58973967565E+03  0.10839828804E+04  0.90951965347E+03 0.  0.
        3    1    3    3  502    0  0.35421069113E+01  0.33163515326E+03  0.66570002886E+03  0.74374119156E+03  0.10100000352E+00 0. -1.
       -3    1    3    3    0  502 -0.35421069113E+01 -0.33163515326E+03 -0.75960353203E+02  0.34024168889E+03  0.10100000352E+00 0.  1.
</event>
<event>
 5   0  0.2705111E-02  0.8875299E+03  0.7818609E-02  0.9441305E-01
       -2   -1    0    0    0  501  0.00000000000E+00  0.00000000000E+00  0.16295614569E+03  0.16295614571E+03  0.25500000920E-02 0.  1.
        2   -1    0    0  501    0  0.00000000000E+00  0.00000000000E+00 -0.12084681790E+04  0.12084681790E+04  0.25500000920E-02 0. -1.
    10030    2    1    2    0    0  0.00000000000E+00  0.00000000000E+00 -0.10455120333E+04  0.13714243247E+04  0.88752986801E+03 0.  0.
        4    1    3    3  502    0 -0.42756689239E+01 -0.29078251756E+03 -0.48140390011E+01  0.29085656557E+03  0.12699999809E+01 0.  1.
       -4    1    3    3    0  502  0.42756689239E+01  0.29078251756E+03 -0.10406979943E+04  0.10805677591E+04  0.12699999809E+01 0. -1.
</event>
<event>
 5   0  0.2679861E-02  0.9980484E+03  0.7818609E-02  0.9310688E-01
       -2   -1    0    0    0  501  0.00000000000E+00  0.00000000000E+00  0.21166712463E+03  0.21166712464E+03  0.25500000920E-02 0. -1.
        2   -1    0    0  501    0  0.00000000000E+00  0.00000000000E+00 -0.11764942808E+04  0.11764942808E+04  0.25500000920E-02 0.  1.
    10030    2    1    2    0    0  0.00000000000E+00  0.00000000000E+00 -0.96482715613E+03  0.13881614054E+04  0.99804841879E+03 0.  0.
        1    1    3    3  502    0  0.23883688373E+03  0.67758087896E+02  0.11967814444E+03  0.27560310918E+03  0.50400001928E-02 0. -1.
       -1    1    3    3    0  502 -0.23883688373E+03 -0.67758087896E+02 -0.10845053006E+04  0.11125582962E+04  0.50400001928E-02 0.  1.
</event>
<event>
 5   0  0.1040163E-02  0.7863931E+03  0.7818609E-02  0.9579924E-01
        3   -1    0    0  501    0  0.00000000000E+00  0.00000000000E+00  0.37901630781E+03  0.37901632127E+03  0.10100000352E+00 0. -1.
       -3   -1    0    0    0  501  0.00000000000E+00  0.00000000000E+00 -0.40790732327E+03  0.40790733578E+03  0.10100000352E+00 0.  1.
    10030    2    1    2    0    0  0.00000000000E+00  0.00000000000E+00 -0.28891015464E+02  0.78692365705E+03  0.78639312767E+03 0.  0.
        3    1    3    3  502    0 -0.26064153380E+03 -0.24324223047E+03 -0.18039687708E+03  0.39955454608E+03  0.10100000352E+00 0. -1.
       -3    1    3    3    0  502  0.26064153380E+03  0.24324223047E+03  0.15150586162E+03  0.38736911097E+03  0.10100000352E+00 0.  1.
</event>
<event>
 5   0  0.1559275E-02  0.8944365E+03  0.7818609E-02  0.9432563E-01
       -1   -1    0    0    0  501  0.00000000000E+00  0.00000000000E+00  0.36978691388E+03  0.36978691392E+03  0.50400001928E-02 0.  1.
        1   -1    0    0  501    0  0.00000000000E+00  0.00000000000E+00 -0.54086324672E+03  0.54086324674E+03  0.50400001928E-02 0. -1.
    10030    2    1    2    0    0  0.00000000000E+00  0.00000000000E+00 -0.17107633283E+03  0.91065016066E+03  0.89443647256E+03 0.  0.
        1    1    3    3  502    0  0.42430360625E+03  0.14082537356E+03 -0.97533707217E+02  0.45757858362E+03  0.50400001928E-02 0.  1.
       -1    1    3    3    0  502 -0.42430360625E+03 -0.14082537356E+03 -0.73542625616E+02  0.45307157704E+03  0.50400001928E-02 0. -1.
</event>
<event>
 5   0  0.2414128E-02  0.8961101E+03  0.7818609E-02  0.9430457E-01
        2   -1    0    0  501    0  0.00000000000E+00  0.00000000000E+00  0.10718157092E+04  0.10718157092E+04  0.25500000920E-02 0.  1.
       -2   -1    0    0    0  501  0.00000000000E+00  0.00000000000E+00 -0.18730208929E+03  0.18730208931E+03  0.25500000920E-02 0. -1.
    10030    2    1    2    0    0  0.00000000000E+00  0.00000000000E+00  0.88451361986E+03  0.12591177985E+04  0.89611008626E+03 0.  0.
        3    1    3    3  502    0 -0.14163917841E+03  0.36369414462E+03  0.75143540834E+03  0.84675278022E+03  0.10100000352E+00 0.  1.
       -3    1    3    3    0  502  0.14163917841E+03 -0.36369414462E+03  0.13307821152E+03  0.41236501825E+03  0.10100000352E+00 0. -1.
</event>
<event>
 5   0  0.1497410E-02  0.9003307E+03  0.7818609E-02  0.9425168E-01
        1   -1    0    0  501    0  0.00000000000E+00  0.00000000000E+00  0.52626562357E+03  0.52626562360E+03  0.50400001928E-02 0. -1.
       -1   -1    0    0    0  501  0.00000000000E+00  0.00000000000E+00 -0.38506948118E+03  0.38506948122E+03  0.50400001928E-02 0.  1.
    10030    2    1    2    0    0  0.00000000000E+00  0.00000000000E+00  0.14119614239E+03  0.91133510482E+03  0.90033067405E+03 0.  0.
        3    1    3    3  502    0  0.39533660125E+03 -0.15003727910E+03  0.22690900252E+03  0.47988531863E+03  0.10100000352E+00 0. -1.
       -3    1    3    3    0  502 -0.39533660125E+03  0.15003727910E+03 -0.85712860129E+02  0.43144978619E+03  0.10100000352E+00 0.  1.
</event>
<event>
 5   0  0.1537870E-02  0.9208423E+03  0.7818609E-02  0.9399896E-01
        1   -1    0    0  501    0  0.00000000000E+00  0.00000000000E+00  0.34176412670E+03  0.34176412674E+03  0.50400001928E-02 0. -1.
       -1   -1    0    0    0  501  0.00000000000E+00  0.00000000000E+00 -0.62027472511E+03  0.62027472513E+03  0.50400001928E-02 0.  1.
    10030    2    1    2    0    0  0.00000000000E+00  0.00000000000E+00 -0.27851059841E+03  0.96203885187E+03  0.92084233128E+03 0.  0.
        5    1    3    3  502    0  0.71620890722E+02  0.25987341496E+03  0.25067387025E+03  0.36813478919E+03  0.46999998093E+01 0. -1.
       -5    1    3    3    0  502 -0.71620890722E+02 -0.25987341496E+03 -0.52918446866E+03  0.59390406268E+03  0.46999998093E+01 0.  1.
</event>
<event>
 5   0  0.1040163E-02  0.8857227E+03  0.7818609E-02  0.9443607E-01
       -3   -1    0    0    0  501  0.00000000000E+00  0.00000000000E+00  0.66539774614E+03  0.66539775381E+03  0.10100000352E+00 0.  1.
        3   -1    0    0  501    0  0.00000000000E+00  0.00000000000E+00 -0.29475023676E+03  0.29475025407E+03  0.10100000352E+00 0. -1.
    10030    2    1    2    0    0  0.00000000000E+00  0.00000000000E+00  0.37064750938E+03  0.96014800787E+03  0.88572265457E+03 0.  0.
        1    1    3    3  502    0  0.90096745999E+02  0.48482372090E+02  0.65241044221E+03  0.66038424358E+03  0.50400001928E-02 0.  1.
       -1    1    3    3    0  502 -0.90096745999E+02 -0.48482372090E+02 -0.28176293283E+03  0.29976376429E+03  0.50400001928E-02 0. -1.
</event>
<event>
 5   0  0.1559275E-02  0.9221651E+03  0.7818609E-02  0.9398290E-01
        1   -1    0    0  501    0  0.00000000000E+00  0.00000000000E+00  0.21843484214E+03  0.21843484219E+03  0.50400001928E-02 0.  1.
       -1   -1    0    0    0  501  0.00000000000E+00  0.00000000000E+00 -0.97327465248E+03  0.97327465250E+03  0.50400001928E-02 0. -1.
    10030    2    1    2    0    0  0.00000000000E+00  0.00000000000E+00 -0.75483981035E+03  0.11917094947E+04  0.92216505055E+03 0.  0.
        1    1    3    3  502    0 -0.31886740859E+02 -0.43340972832E+03 -0.57651868653E+03  0.72196575596E+03  0.50400001928E-02 0. -1.
       -1    1    3    3    0  502  0.31886740859E+02  0.43340972832E+03 -0.17832112382E+03  0.46974373873E+03  0.50400001928E-02 0.  1.
</event>
<event>
 5   0  0.1559275E-02  0.8757133E+03  0.7818609E-02  0.9456461E-01
       -1   -1    0    0    0  501  0.00000000000E+00  0.00000000000E+00  0.18384019770E+03  0.18384019777E+03  0.50400001928E-02 0.  1.
        1   -1    0    0  501    0  0.00000000000E+00  0.00000000000E+00 -0.10428538428E+04  0.10428538428E+04  0.50400001928E-02 0. -1.
    10030    2    1    2    0    0  0.00000000000E+00  0.00000000000E+00 -0.85901364512E+03  0.12266940406E+04  0.87571332453E+03 0.  0.
        1    1    3    3  502    0  0.21934500766E+03  0.30366895714E+03 -0.11195144286E+03  0.39097339232E+03  0.50400001928E-02 0.  1.
       -1    1    3    3    0  502 -0.21934500766E+03 -0.30366895714E+03 -0.74706220226E+03  0.83572064829E+03  0.50400001928E-02 0. -1.
</event>
<event>
 5   0  0.1040163E-02  0.9062869E+03  0.7818609E-02  0.9417756E-01
        3   -1    0    0  501    0  0.00000000000E+00  0.00000000000E+00  0.16131021901E+03  0.16131025063E+03  0.10100000352E+00 0.  1.
       -3   -1    0    0    0  501  0.00000000000E+00  0.00000000000E+00 -0.12729444737E+04  0.12729444777E+04  0.10100000352E+00 0. -1.
    10030    2    1    2    0    0  0.00000000000E+00  0.00000000000E+00 -0.11116342547E+04  0.14342547283E+04  0.90628688037E+03 0.  0.
        1    1    3    3  502    0  0.22983616034E+03 -0.38537350933E+03 -0.65592680926E+03  0.79471842901E+03  0.50400001928E-02 0. -1.
       -1    1    3    3    0  502 -0.22983616034E+03  0.38537350933E+03 -0.45570744543E+03  0.63953629931E+03  0.50400001928E-02 0.  1.
</event>
<event>
 5   0  0.2414128E-02  0.9496525E+03  0.7818609E-02  0.9365557E-01
       -2   -1    0    0    0  501  0.00000000000E+00  0.00000000000E+00  0.75460509715E+02  0.75460509758E+02  0.25500000920E-02 0. -1.
        2   -1    0    0  501    0  0.00000000000E+00  0.00000000000E+00 -0.29877878111E+04  0.29877878111E+04  0.25500000920E-02 0.  1.
    10030    2    1    2    0    0  0.00000000000E+00  0.00000000000E+00 -0.29123273013E+04  0.30632483208E+04  0.94965254953E+03 0.  0.
        3    1    3    3  502    0 -0.12730837824E+02 -0.24691490444E+03 -0.27637703321E+04  0.27748072912E+04  0.10100000352E+00 0.  1.
       -3    1    3    3    0  502  0.12730837824E+02  0.24691490444E+03 -0.14855696921E+03  0.28844102962E+03  0.10100000352E+00 0. -1.
</event>
<event>
 5   0  0.1040163E-02  0.8705151E+03  0.7818609E-02  0.9463209E-01
        3   -1    0    0  501    0  0.00000000000E+00  0.00000000000E+00  0.45441548561E+03  0.45441549683E+03  0.10100000352E+00 0. -1.
       -3   -1    0    0    0  501  0.00000000000E+00  0.00000000000E+00 -0.41690728912E+03  0.41690730135E+03  0.10100000352E+00 0.  1.
    10030    2    1    2    0    0  0.00000000000E+00  0.00000000000E+00  0.37508196489E+02  0.87132279818E+03  0.87051510833E+03 0.  0.
        3    1    3    3  502    0  0.26117210472E+03 -0.23148321646E+03  0.27909883336E+03  0.44686856766E+03  0.10100000352E+00 0. -1.
       -3    1    3    3    0  502 -0.26117210472E+03  0.23148321646E+03 -0.24159063687E+03  0.42445423052E+03  0.10100000352E+00 0.  1.
</event>
<event>
 5   0  0.1559275E-02  0.9031200E+03  0.7818609E-02  0.9421690E-01
       -1   -1    0    0    0  501  0.00000000000E+00  0.00000000000E+00  0.50466646277E+03  0.50466646279E+03  0.50400001928E-02 0. -1.
        1   -1    0    0  501    0  0.00000000000E+00  0.00000000000E+00 -0.40404193878E+03  0.40404193881E+03  0.50400001928E-02 0.  1.
    10030    2    1    2    0    0  0.00000000000E+00  0.00000000000E+00  0.10062452399E+03  0.90870840160E+03  0.90311996120E+03 0.  0.
        1    1    3    3  502    0 -0.19603222459E+03  0.68960451526E+02  0.45369479533E+03  0.49902218817E+03  0.50400001928E-02 0. -1.
       -1    1    3    3    0  502  0.19603222459E+03 -0.68960451526E+02 -0.35307027134E+03  0.40968621344E+03  0.50400001928E-02 0.  1.
</event>
<event>
 5   0  0.1459111E-02  0.9390804E+03  0.7818609E-02  0.9378006E-01
       -1   -1    0    0    0  501  0.00000000000E+00  0.00000000000E+00  0.27180490226E+03  0.27180490230E+03  0.50400001928E-02 0.  1.
        1   -1    0    0  501    0  0.00000000000E+00  0.00000000000E+00 -0.81112582862E+03  0.81112582863E+03  0.50400001928E-02 0. -1.
    10030    2    1    2    0    0  0.00000000000E+00  0.00000000000E+00 -0.53932092636E+03  0.10829307309E+04  0.93908035140E+03 0.  0.
        2    1    3    3  502    0  0.56253443002E+01  0.41534722123E+03 -0.52210734114E+03  0.66718890455E+03  0.25500000920E-02 0. -1.
       -2    1    3    3    0  502 -0.56253443002E+01 -0.41534722123E+03 -0.17213585227E+02  0.41574182638E+03  0.25500000920E-02 0.  1.
</event>
<event>
 5   0  0.1497410E-02  0.9012595E+03  0.7818609E-02  0.9424008E-01
        1   -1    0    0  501    0  0.00000000000E+00  0.00000000000E+00  0.12176040169E+04  0.12176040169E+04  0.50400001928E-02 0.  1.
       -1   -1    0    0    0  501  0.00000000000E+00  0.00000000000E+00 -0.16677602827E+03  0.16677602835E+03  0.50400001928E-02 0. -1.
    10030    2    1    2    0    0  0.00000000000E+00  0.00000000000E+00  0.10508279886E+04  0.13843800453E+04  0.90125947874E+03 0.  0.
        3    1    3    3  502    0 -0.17136522537E+03 -0.34920742420E+03  0.87486222241E+03  0.95744231366E+03  0.10100000352E+00 0.  1.
       -3    1    3    3    0  502  0.17136522537E+03  0.34920742420E+03  0.17596576622E+03  0.42693773160E+03  0.10100000352E+00 0. -1.
</event>
<event>
 5   0  0.2705111E-02  0.8937459E+03  0.7818609E-02  0.9433433E-01
       -2   -1    0    0    0  501  0.00000000000E+00  0.00000000000E+00  0.39142309805E+03  0.39142309806E+03  0.25500000920E-02 0.  1.
        2   -1    0    0  501    0  0.00000000000E+00  0.00000000000E+00 -0.51017800483E+03  0.51017800484E+03  0.25500000920E-02 0. -1.
    10030    2    1    2    0    0  0.00000000000E+00  0.00000000000E+00 -0.11875490678E+03  0.90160110289E+03  0.89374594872E+03 0.  0.
        4    1    3    3  502    0  0.22639200526E+02  0.44287931600E+03 -0.37637976561E+01  0.44347536686E+03  0.12699999809E+01 0.  1.
       -4    1    3    3    0  502 -0.22639200526E+02 -0.44287931600E+03 -0.11499110912E+03  0.45812573603E+03  0.12699999809E+01 0. -1.
</event>
<event>
 5   0  0.2414128E-02  0.8945882E+03  0.7818609E-02  0.9432372E-01
       -2   -1    0    0    0  501  0.00000000000E+00  0.00000000000E+00  0.25903617490E+03  0.25903617492E+03  0.25500000920E-02 0.  1.
        2   -1    0    0  501    0  0.00000000000E+00  0.00000000000E+00 -0.77237089710E+03  0.77237089710E+03  0.25500000920E-02 0. -1.
    10030    2    1    2    0    0  0.00000000000E+00  0.00000000000E+00 -0.51333472219E+03  0.10314070720E+04  0.89458817967E+03 0.  0.
        3    1    3    3  502    0 -0.22799364143E+03  0.20840194081E+03 -0.62965661979E+03  0.70134152773E+03  0.10100000352E+00 0. -1.
       -3    1    3    3    0  502  0.22799364143E+03 -0.20840194081E+03  0.11632189760E+03  0.33006554429E+03  0.10100000352E+00 0.  1.
</event>
<event>
 5   0  0.1560728E-02  0.8831713E+03  0.7818609E-02  0.9446866E-01
        1   -1    0    0  501    0  0.00000000000E+00  0.00000000000E+00  0.71198981324E+03  0.71198981326E+03  0.50400001928E-02 0. -1.
       -1   -1    0    0    0  501  0.00000000000E+00  0.00000000000E+00 -0.27387734171E+03  0.27387734175E+03  0.50400001928E-02 0.  1.
    10030    2    1    2    0    0  0.00000000000E+00  0.00000000000E+00  0.43811247154E+03  0.98586715502E+03  0.88317127989E+03 0.  0.
        4    1    3    3  502    0  0.35286495070E+03  0.22533130681E+03  0.37576708710E+03  0.56257478428E+03  0.12699999809E+01 0. -1.
       -4    1    3    3    0  502 -0.35286495070E+03 -0.22533130681E+03  0.62345384438E+02  0.42329237073E+03  0.12699999809E+01 0.  1.
</event>
<event>
 5   0  0.1459111E-02  0.8917714E+03  0.7818609E-02  0.9435926E-01
        1   -1    0    0  501    0  0.00000000000E+00  0.00000000000E+00  0.14007242844E+03  0.14007242853E+03  0.50400001928E-02 0. -1.
       -1   -1    0    0    0  501  0.00000000000E+00  0.00000000000E+00 -0.14193660678E+04  0.14193660679E+04  0.50400001928E-02 0.  1.
    10030    2    1    2    0    0  0.00000000000E+00  0.00000000000E+00 -0.12792936394E+04  0.15594384964E+04  0.89177138784E+03 0.  0.
        2    1    3    3  502    0  0.15869514729E+03 -0.25924409038E+03 -0.12101147688E+04  0.12477056551E+04  0.25500000920E-02 0.  1.
       -2    1    3    3    0  502 -0.15869514729E+03  0.25924409038E+03 -0.69178870608E+02  0.31173284125E+03  0.25500000920E-02 0. -1.
</event>
<event>
 5   0  0.1459111E-02  0.5244534E+03  0.7818609E-02  0.1007586E+00
       -1   -1    0    0    0  501  0.00000000000E+00  0.00000000000E+00  0.58279978275E+02  0.58279978493E+02  0.50400001928E-02 0.  1.
        1   -1    0    0  501    0  0.00000000000E+00  0.00000000000E+00 -0.11798705438E+04  0.11798705438E+04  0.50400001928E-02 0. -1.
    10030    2    1    2    0    0  0.00000000000E+00  0.00000000000E+00 -0.11215905655E+04  0.12381505223E+04  0.52445335274E+03 0.  0.
        2    1    3    3  502    0 -0.15180976488E+03  0.20630772730E+03 -0.42821468090E+03  0.49897584711E+03  0.25500000920E-02 0.  1.
       -2    1    3    3    0  502  0.15180976488E+03 -0.20630772730E+03 -0.69337588462E+03  0.73917467519E+03  0.25500000920E-02 0. -1.
</event>
<event>
 5   0  0.1559275E-02  0.9053438E+03  0.7818609E-02  0.9418926E-01
       -1   -1    0    0    0  501  0.00000000000E+00  0.00000000000E+00  0.23531192009E+03  0.23531192014E+03  0.50400001928E-02 0. -1.
        1   -1    0    0  501    0  0.00000000000E+00  0.00000000000E+00 -0.87080946850E+03  0.87080946851E+03  0.50400001928E-02 0.  1.
    10030    2    1    2    0    0  0.00000000000E+00  0.00000000000E+00 -0.63549754841E+03  0.11061213887E+04  0.90534379791E+03 0.  0.
        1    1    3    3  502    0  0.39573012918E+03  0.18818206047E+03 -0.45649910625E+03  0.63277662493E+03  0.50400001928E-02 0.  1.
       -1    1    3    3    0  502 -0.39573012918E+03 -0.18818206047E+03 -0.17899844216E+03  0.47334476373E+03  0.50400001928E-02 0. -1.
</event>
<event>
 5   0  0.1537870E-02  0.9055421E+03  0.7818609E-02  0.9418680E-01
       -1   -1    0    0    0  501  0.00000000000E+00  0.00000000000E+00  0.74947371193E+02  0.74947371363E+02  0.50400001928E-02 0. -1.
        1   -1    0    0  501    0  0.00000000000E+00  0.00000000000E+00 -0.27352744948E+04  0.27352744948E+04  0.50400001928E-02 0.  1.
    10030    2    1    2    0    0  0.00000000000E+00  0.00000000000E+00 -0.26603271236E+04  0.28102218662E+04  0.90554212077E+03 0.  0.
        5    1    3    3  502    0 -0.78663221750E+02  0.36177697290E+02 -0.27092662565E+04  0.27106535129E+04  0.46999998093E+01 0.  1.
       -5    1    3    3    0  502  0.78663221750E+02 -0.36177697290E+02  0.48939132941E+02  0.99568353248E+02  0.46999998093E+01 0. -1.
</event>
<event>
 5   0  0.1560728E-02  0.9092510E+03  0.7818609E-02  0.9414090E-01
        1   -1    0    0  501    0  0.00000000000E+00  0.00000000000E+00  0.93997484274E+03  0.93997484275E+03  0.50400001928E-02 0.  1.
       -1   -1    0    0    0  501  0.00000000000E+00  0.00000000000E+00 -0.21988287059E+03  0.21988287064E+03  0.50400001928E-02 0. -1.
    10030    2    1    2    0    0  0.00000000000E+00  0.00000000000E+00  0.72009197215E+03  0.11598577134E+04  0.90925104727E+03 0.  0.
        4    1    3    3  502    0 -0.13979130749E+03 -0.32161373240E+03  0.72910732629E+03  0.80905877949E+03  0.12699999809E+01 0.  1.
       -4    1    3    3    0  502  0.13979130749E+03  0.32161373240E+03 -0.90153541399E+01  0.35079893391E+03  0.12699999809E+01 0. -1.
</event>
<event>
 5   0  0.2705111E-02  0.7722372E+03  0.7818609E-02  0.9601095E-01
       -2   -1    0    0    0  501  0.00000000000E+00  0.00000000000E+00  0.68736347713E+02  0.68736347761E+02  0.25500000920E-02 0. -1.
        2   -1    0    0  501    0  0.00000000000E+00  0.00000000000E+00 -0.21689771062E+04  0.21689771062E+04  0.25500000920E-02 0.  1.
    10030    2    1    2    0    0  0.00000000000E+00  0.00000000000E+00 -0.21002407585E+04  0.22377134539E+04  0.77223717757E+03 0.  0.
        4    1    3    3  502    0 -0.23917421176E+03 -0.20778687997E+03 -0.16896286438E+04  0.17190771530E+04  0.12699999809E+01 0.  1.
       -4    1    3    3    0  502  0.23917421176E+03  0.20778687997E+03 -0.41061211463E+03  0.51863630092E+03  0.12699999809E+01 0. -1.
</event>
<event>
 5   0  0.1040163E-02  0.8881522E+03  0.7818609E-02  0.9440514E-01
       -3   -1    0    0    0  501  0.00000000000E+00  0.00000000000E+00  0.13583637505E+04  0.13583637543E+04  0.10100000352E+00 0. -1.
        3   -1    0    0  501    0  0.00000000000E+00  0.00000000000E+00 -0.14517727381E+03  0.14517730895E+03  0.10100000352E+00 0.  1.
    10030    2    1    2    0    0  0.00000000000E+00  0.00000000000E+00  0.12131864767E+04  0.15035410632E+04  0.88815218377E+03 0.  0.
        2    1    3    3  502    0 -0.20299846710E+03 -0.23218374291E+03  0.65700934531E+02  0.31533201696E+03  0.25500000920E-02 0.  1.
       -2    1    3    3    0  502  0.20299846710E+03  0.23218374291E+03  0.11474855422E+04  0.11882090463E+04  0.25500000920E-02 0. -1.
</event>
<event>
 5   0  0.2705111E-02  0.9158189E+03  0.7818609E-02  0.9406020E-01
       -2   -1    0    0    0  501  0.00000000000E+00  0.00000000000E+00  0.56732985785E+03  0.56732985785E+03  0.25500000920E-02 0. -1.
        2   -1    0    0  501    0  0.00000000000E+00  0.00000000000E+00 -0.36959284840E+03  0.36959284841E+03  0.25500000920E-02 0.  1.
    10030    2    1    2    0    0  0.00000000000E+00  0.00000000000E+00  0.19773700945E+03  0.93692270626E+03  0.91581888636E+03 0.  0.
        4    1    3    3  502    0 -0.44781779888E+03  0.67918114256E+01  0.19642061593E+03  0.48904967126E+03  0.12699999809E+01 0. -1.
       -4    1    3    3    0  502  0.44781779888E+03 -0.67918114256E+01  0.13163935169E+01  0.44787303501E+03  0.12699999809E+01 0.  1.
</event>
<event>
 5   0  0.1559275E-02  0.8741133E+03  0.7818609E-02  0.9458532E-01
       -1   -1    0    0    0  501  0.00000000000E+00  0.00000000000E+00  0.18846543789E+03  0.18846543795E+03  0.50400001928E-02 0.  1.
        1   -1    0    0  501    0  0.00000000000E+00  0.00000000000E+00 -0.10135466765E+04  0.10135466766E+04  0.50400001928E-02 0. -1.
    10030    2    1    2    0    0  0.00000000000E+00  0.00000000000E+00 -0.82508123865E+03  0.12020121145E+04  0.87411330675E+03 0.  0.
        1    1    3    3  502    0 -0.67704638539E+02 -0.40263547632E+03 -0.19809537952E+03  0.45380725455E+03  0.50400001928E-02 0. -1.
       -1    1    3    3    0  502  0.67704638539E+02  0.40263547632E+03 -0.62698585913E+03  0.74820485995E+03  0.50400001928E-02 0.  1.
</event>
<event>
 5   0  0.1560728E-02  0.8917431E+03  0.7818609E-02  0.9435962E-01
       -1   -1    0    0    0  501  0.00000000000E+00  0.00000000000E+00  0.34832282502E+03  0.34832282505E+03  0.50400001928E-02 0. -1.
        1   -1    0    0  501    0  0.00000000000E+00  0.00000000000E+00 -0.57073905382E+03  0.57073905384E+03  0.50400001928E-02 0.  1.
    10030    2    1    2    0    0  0.00000000000E+00  0.00000000000E+00 -0.22241622880E+03  0.91906187889E+03  0.89174310112E+03 0.  0.
        4    1    3    3  502    0  0.19497747625E+02  0.30618561802E+03  0.22223071507E+03  0.37883756211E+03  0.12699999809E+01 0. -1.
       -4    1    3    3    0  502 -0.19497747625E+02 -0.30618561802E+03 -0.44464694387E+03  0.54022431678E+03  0.12699999809E+01 0.  1.
</event>
<event>
 5   0  0.2705111E-02  0.8896777E+03  0.7818609E-02  0.9438578E-01
       -2   -1    0    0    0  501  0.00000000000E+00  0.00000000000E+00  0.18725086015E+03  0.18725086016E+03  0.25500000920E-02 0.  1.
        2   -1    0    0  501    0  0.00000000000E+00  0.00000000000E+00 -0.10567728272E+04  0.10567728273E+04  0.25500000920E-02 0. -1.
    10030    2    1    2    0    0  0.00000000000E+00  0.00000000000E+00 -0.86952196710E+03  0.12440236874E+04  0.88967774142E+03 0.  0.
        4    1    3    3  502    0  0.25832845771E+03  0.34022929383E+02 -0.93889846309E+03  0.97438344027E+03  0.12699999809E+01 0. -1.
       -4    1    3    3    0  502 -0.25832845771E+03 -0.34022929383E+02  0.69376495987E+02  0.26964024714E+03  0.12699999809E+01 0.  1.
</event>
<event>
 5   0  0.2705111E-02  0.8930231E+03  0.7818609E-02  0.9434345E-01
       -2   -1    0    0    0  501  0.00000000000E+00  0.00000000000E+00  0.99779997526E+02  0.99779997558E+02  0.25500000920E-02 0. -1.
        2   -1    0    0  501    0  0.00000000000E+00  0.00000000000E+00 -0.19981217162E+04  0.19981217162E+04  0.25500000920E-02 0.  1.
    10030    2    1    2    0    0  0.00000000000E+00  0.00000000000E+00 -0.18983417187E+04  0.20979017138E+04  0.89302313505E+03 0.  0.
        4    1    3    3  502    0  0.21945111935E+03  0.37427285578E+03 -0.70130935641E+03  0.82466683615E+03  0.12699999809E+01 0. -1.
       -4    1    3    3    0  502 -0.21945111935E+03 -0.37427285578E+03 -0.11970323623E+04  0.12732348776E+04  0.12699999809E+01 0.  1.
</event>
<event>
 5   0  0.2803717E-02  0.8848878E+03  0.7818609E-02  0.9444672E-01
        2   -1    0    0  501    0  0.00000000000E+00  0.00000000000E+00  0.44853368719E+03  0.44853368720E+03  0.25500000920E-02 0. -1.
       -2   -1    0    0    0  501  0.00000000000E+00  0.00000000000E+00 -0.43643683943E+03  0.43643683944E+03  0.25500000920E-02 0.  1.
    10030    2    1    2    0    0  0.00000000000E+00  0.00000000000E+00  0.12096847757E+02  0.88497052664E+03  0.88488784560E+03 0.  0.
        5    1    3    3  502    0 -0.35715193546E+03 -0.26838009316E+02 -0.25370021913E+03  0.43893470463E+03  0.46999998093E+01 0.  1.
       -5    1    3    3    0  502  0.35715193546E+03  0.26838009316E+02  0.26579706689E+03  0.44603582200E+03  0.46999998093E+01 0. -1.
</event>
<event>
 5   0  0.2679861E-02  0.9071495E+03  0.7818609E-02  0.9416688E-01
       -2   -1    0    0    0  501  0.00000000000E+00  0.00000000000E+00  0.69198374490E+03  0.69198374491E+03  0.25500000920E-02 0. -1.
        2   -1    0    0  501    0  0.00000000000E+00  0.00000000000E+00 -0.29730472488E+03  0.29730472490E+03  0.25500000920E-02 0.  1.
    10030    2    1    2    0    0  0.00000000000E+00  0.00000000000E+00  0.39467902002E+03  0.98928846981E+03  0.90714946268E+03 0.  0.
        1    1    3    3  502    0  0.24715326199E+03  0.34647271331E+03  0.36839182717E+03  0.56288596921E+03  0.50400001928E-02 0. -1.
       -1    1    3    3    0  502 -0.24715326199E+03 -0.34647271331E+03  0.26287192845E+02  0.42640250059E+03  0.50400001928E-02 0.  1.
</event>
<event>
 5   0  0.1537870E-02  0.9086526E+03  0.7818609E-02  0.9414829E-01
        1   -1    0    0  501    0  0.00000000000E+00  0.00000000000E+00  0.80622424754E+03  0.80622424755E+03  0.50400001928E-02 0.  1.
       -1   -1    0    0    0  501  0.00000000000E+00  0.00000000000E+00 -0.25602354663E+03  0.25602354668E+03  0.50400001928E-02 0. -1.
    10030    2    1    2    0    0  0.00000000000E+00  0.00000000000E+00  0.55020070091E+03  0.10622477942E+04  0.90865260967E+03 0.  0.
        5    1    3    3  502    0 -0.97564108180E+02  0.36696083861E+02  0.79202714516E+03  0.79887073200E+03  0.46999998093E+01 0.  1.
       -5    1    3    3    0  502  0.97564108180E+02 -0.36696083861E+02 -0.24182644425E+03  0.26337706223E+03  0.46999998093E+01 0. -1.
</event>
<event>
 5   0  0.2803717E-02  0.9375890E+03  0.7818609E-02  0.9379776E-01
        2   -1    0    0  501    0  0.00000000000E+00  0.00000000000E+00  0.11867635331E+04  0.11867635331E+04  0.25500000920E-02 0. -1.
       -2   -1    0    0    0  501  0.00000000000E+00  0.00000000000E+00 -0.18518286782E+03  0.18518286784E+03  0.25500000920E-02 0.  1.
    10030    2    1    2    0    0  0.00000000000E+00  0.00000000000E+00  0.10015806653E+04  0.13719464009E+04  0.93758898136E+03 0.  0.
        5    1    3    3  502    0  0.23625860771E+02 -0.28565439288E+03 -0.41981633127E+02  0.28972601020E+03  0.46999998093E+01 0.  1.
       -5    1    3    3    0  502 -0.23625860771E+02  0.28565439288E+03  0.10435622984E+04  0.10822203907E+04  0.46999998093E+01 0. -1.
</event>
<event>
 5   0  0.1040163E-02  0.8912006E+03  0.7818609E-02  0.9436648E-01
        4   -1    0    0  501    0  0.00000000000E+00  0.00000000000E+00  0.12455838203E+04  0.12455844677E+04  0.12699999809E+01 0.  1.
       -4   -1    0    0    0  501  0.00000000000E+00  0.00000000000E+00 -0.15940768720E+03  0.15941274616E+03  0.12699999809E+01 0. -1.
    10030    2    1    2    0    0  0.00000000000E+00  0.00000000000E+00  0.10861761331E+04  0.14049972139E+04  0.89120063899E+03 0.  0.
        3    1    3    3  502    0 -0.36963069467E+03 -0.60050743202E+02  0.92383257494E+03  0.99684481185E+03  0.10100000352E+00 0.  1.
       -3    1    3    3    0  502  0.36963069467E+03  0.60050743202E+02  0.16234355814E+03  0.40815240202E+03  0.10100000352E+00 0. -1.
</event>
<event>
 5   0  0.2803717E-02  0.9023493E+03  0.7818609E-02  0.9422649E-01
       -2   -1    0    0    0  501  0.00000000000E+00  0.00000000000E+00  0.23806387853E+03  0.23806387854E+03  0.25500000920E-02 0. -1.
        2   -1    0    0  501    0  0.00000000000E+00  0.00000000000E+00 -0.85505855400E+03  0.85505855400E+03  0.25500000920E-02 0.  1.
    10030    2    1    2    0    0  0.00000000000E+00  0.00000000000E+00 -0.61699467547E+03  0.10931224325E+04  0.90234927992E+03 0.  0.
        5    1    3    3  502    0  0.36055206994E+03 -0.15628312796E+03 -0.40026011040E+02  0.39502706589E+03  0.46999998093E+01 0.  1.
       -5    1    3    3    0  502 -0.36055206994E+03  0.15628312796E+03 -0.57696866443E+03  0.69809536666E+03  0.46999998093E+01 0. -1.
</event>
<event>
 5   0  0.1497410E-02  0.9123670E+03  0.7818609E-02  0.9410253E-01
       -1   -1    0    0    0  501  0.00000000000E+00  0.00000000000E+00  0.27268389735E+03  0.27268389740E+03  0.50400001928E-02 0.  1.
        1   -1    0    0  501    0  0.00000000000E+00  0.00000000000E+00 -0.76316705942E+03  0.76316705944E+03  0.50400001928E-02 0. -1.
    10030    2    1    2    0    0  0.00000000000E+00  0.00000000000E+00 -0.49048316207E+03  0.10358509568E+04  0.91236696154E+03 0.  0.
        3    1    3    3  502    0 -0.22558484621E+03 -0.30408391489E+03 -0.53413673417E+03  0.65471949042E+03  0.10100000352E+00 0. -1.
       -3    1    3    3    0  502  0.22558484621E+03  0.30408391489E+03  0.43653572100E+02  0.38113146642E+03  0.10100000352E+00 0.  1.
</event>
<event>
 5   0  0.1459111E-02  0.9089312E+03  0.7818609E-02  0.9414485E-01
       -1   -1    0    0    0  501  0.00000000000E+00  0.00000000000E+00  0.60727026273E+03  0.60727026275E+03  0.50400001928E-02 0. -1.
        1   -1    0    0  501    0  0.00000000000E+00  0.00000000000E+00 -0.34011044618E+03  0.34011044622E+03  0.50400001928E-02 0.  1.
    10030    2    1    2    0    0  0.00000000000E+00  0.00000000000E+00  0.26715981655E+03  0.94738070898E+03  0.90893115260E+03 0.  0.
        2    1    3    3  502    0 -0.31881167464E+03  0.32100830297E+03  0.88727661218E+02  0.46104209389E+03  0.25500000920E-02 0. -1.
       -2    1    3    3    0  502  0.31881167464E+03 -0.32100830297E+03  0.17843215533E+03  0.48633861509E+03  0.25500000920E-02 0.  1.
</event>
<event>
 5   0  0.1497410E-02  0.9216078E+03  0.7818609E-02  0.9398967E-01
       -1   -1    0    0    0  501  0.00000000000E+00  0.00000000000E+00  0.21729994140E+03  0.21729994145E+03  0.50400001928E-02 0. -1.
        1   -1    0    0  501    0  0.00000000000E+00  0.00000000000E+00 -0.97717578527E+03  0.97717578528E+03  0.50400001928E-02 0.  1.
    10030    2    1    2    0    0  0.00000000000E+00  0.00000000000E+00 -0.75987584387E+03  0.11944757267E+04  0.92160781445E+03 0.  0.
        3    1    3    3  502    0 -0.22434580638E+03  0.32692064138E+03 -0.75615896852E+02  0.40364083126E+03  0.10100000352E+00 0. -1.
       -3    1    3    3    0  502  0.22434580638E+03 -0.32692064138E+03 -0.68425994702E+03  0.79083489547E+03  0.10100000352E+00 0.  1.
</event>
<event>
 5   0  0.1497410E-02  0.8933907E+03  0.7818609E-02  0.9433881E-01
        1   -1    0    0  501    0  0.00000000000E+00  0.00000000000E+00  0.55057981609E+03  0.55057981611E+03  0.50400001928E-02 0. -1.
       -1   -1    0    0    0  501  0.00000000000E+00  0.00000000000E+00 -0.36241199258E+03  0.36241199261E+03  0.50400001928E-02 0.  1.
    10030    2    1    2    0    0  0.00000000000E+00  0.00000000000E+00  0.18816782351E+03  0.91299180872E+03  0.89339068329E+03 0.  0.
        3    1    3    3  502    0  0.32379523259E+03  0.55062653197E+02  0.40348288634E+03  0.52026310478E+03  0.10100000352E+00 0. -1.
       -3    1    3    3    0  502 -0.32379523259E+03 -0.55062653197E+02 -0.21531506282E+03  0.39272870395E+03  0.10100000352E+00 0.  1.
</event>
<event>
 5   0  0.2628383E-02  0.9246516E+03  0.7818609E-02  0.9395280E-01
       -2   -1    0    0    0  501  0.00000000000E+00  0.00000000000E+00  0.10729556281E+03  0.10729556284E+03  0.25500000920E-02 0.  1.
        2   -1    0    0  501    0  0.00000000000E+00  0.00000000000E+00 -0.19921152267E+04  0.19921152267E+04  0.25500000920E-02 0. -1.
    10030    2    1    2    0    0  0.00000000000E+00  0.00000000000E+00 -0.18848196639E+04  0.20994107895E+04  0.92465155484E+03 0.  0.
        2    1    3    3  502    0  0.11889175631E+03 -0.37691924807E+03 -0.14870515111E+04  0.15386765631E+04  0.25500000920E-02 0. -1.
       -2    1    3    3    0  502 -0.11889175631E+03  0.37691924807E+03 -0.39776815279E+03  0.56073422641E+03  0.25500000920E-02 0.  1.
</event>
<event>
 5   0  0.1497410E-02  0.8864391E+03  0.7818609E-02  0.9442694E-01
       -1   -1    0    0    0  501  0.00000000000E+00  0.00000000000E+00  0.19838490291E+03  0.19838490298E+03  0.50400001928E-02 0.  1.
        1   -1    0    0  501    0  0.00000000000E+00  0.00000000000E+00 -0.99021425154E+03  0.99021425155E+03  0.50400001928E-02 0. -1.
    10030    2    1    2    0    0  0.00000000000E+00  0.00000000000E+00 -0.79182934862E+03  0.11885991545E+04  0.88643907450E+03 0.  0.
        3    1    3    3  502    0 -0.23009638481E+03 -0.69460501712E+02 -0.89524131349E+03  0.92694451138E+03  0.10100000352E+00 0. -1.
       -3    1    3    3    0  502  0.23009638481E+03  0.69460501712E+02  0.10341196486E+03  0.26165464314E+03  0.10100000352E+00 0.  1.
</event>
<event>
 5   0  0.1459111E-02  0.5275969E+03  0.7818609E-02  0.1006817E+00
        1   -1    0    0  501    0  0.00000000000E+00  0.00000000000E+00  0.88687796632E+03  0.88687796634E+03  0.50400001928E-02 0.  1.
       -1   -1    0    0    0  501  0.00000000000E+00  0.00000000000E+00 -0.78465848929E+02  0.78465849091E+02  0.50400001928E-02 0. -1.
    10030    2    1    2    0    0  0.00000000000E+00  0.00000000000E+00  0.80841211739E+03  0.96534381543E+03  0.52759693937E+03 0.  0.
        2    1    3    3  502    0 -0.98416746026E+02  0.13824329449E+03  0.34658552926E+02  0.17320011451E+03  0.25500000920E-02 0. -1.
       -2    1    3    3    0  502  0.98416746026E+02 -0.13824329449E+03  0.77375356447E+03  0.79214370092E+03  0.25500000920E-02 0.  1.
</event>
<event>
 5   0  0.1559275E-02  0.9010478E+03  0.7818609E-02  0.9424273E-01
        1   -1    0    0  501    0  0.00000000000E+00  0.00000000000E+00  0.61443179709E+03  0.61443179711E+03  0.50400001928E-02 0.  1.
       -1   -1    0    0    0  501  0.00000000000E+00  0.00000000000E+00 -0.33034065808E+03  0.33034065812E+03  0.50400001928E-02 0. -1.
    10030    2    1    2    0    0  0.00000000000E+00  0.00000000000E+00  0.28409113901E+03  0.94477245523E+03  0.90104784385E+03 0.  0.
        1    1    3    3  502    0 -0.36501885087E+03  0.13156535576E+03 -0.98027138492E+02  0.40019685685E+03  0.50400001928E-02 0. -1.
       -1    1    3    3    0  502  0.36501885087E+03 -0.13156535576E+03  0.38211827750E+03  0.54457559838E+03  0.50400001928E-02 0.  1.
</event>
<event>
 5   0  0.2679861E-02  0.1033158E+04  0.7818609E-02  0.9272907E-01
        2   -1    0    0  501    0  0.00000000000E+00  0.00000000000E+00  0.72636019277E+03  0.72636019277E+03  0.25500000920E-02 0. -1.
       -2   -1    0    0    0  501  0.00000000000E+00  0.00000000000E+00 -0.36738479779E+03  0.36738479780E+03  0.25500000920E-02 0.  1.
    10030    2    1    2    0    0  0.00000000000E+00  0.00000000000E+00  0.35897539498E+03  0.10937449906E+04  0.10331576696E+04 0.  0.
        1    1    3    3  502    0 -0.18810079276E+03  0.44628841639E+03 -0.10769109463E+02  0.48442876936E+03  0.50400001928E-02 0.  1.
       -1    1    3    3    0  502  0.18810079276E+03 -0.44628841639E+03  0.36974450444E+03  0.60931622121E+03  0.50400001928E-02 0. -1.
</event>
<event>
 5   0  0.2628383E-02  0.8496163E+03  0.7818609E-02  0.9490852E-01
       -2   -1    0    0    0  501  0.00000000000E+00  0.00000000000E+00  0.25165241066E+03  0.25165241067E+03  0.25500000920E-02 0. -1.
        2   -1    0    0  501    0  0.00000000000E+00  0.00000000000E+00 -0.71710807645E+03  0.71710807645E+03  0.25500000920E-02 0.  1.
    10030    2    1    2    0    0  0.00000000000E+00  0.00000000000E+00 -0.46545566578E+03  0.96876048712E+03  0.84961632788E+03 0.  0.
        2    1    3    3  502    0  0.16383349900E+03 -0.25554351211E+03  0.10613064994E+03  0.32157054722E+03  0.25500000920E-02 0. -1.
       -2    1    3    3    0  502 -0.16383349900E+03  0.25554351211E+03 -0.57158631573E+03  0.64718993990E+03  0.25500000920E-02 0.  1.
</event>
<event>
 5   0  0.1497410E-02  0.9043204E+03  0.7818609E-02  0.9420197E-01
       -1   -1    0    0    0  501  0.00000000000E+00  0.00000000000E+00  0.92729974942E+02  0.92729975079E+02  0.50400001928E-02 0.  1.
        1   -1    0    0  501    0  0.00000000000E+00  0.00000000000E+00 -0.22047764408E+04  0.22047764408E+04  0.50400001928E-02 0. -1.
    10030    2    1    2    0    0  0.00000000000E+00  0.00000000000E+00 -0.21120464658E+04  0.22975064158E+04  0.90432043938E+03 0.  0.
        3    1    3    3  502    0 -0.45178482825E+03 -0.14165873561E+02 -0.10261077524E+04  0.11212525731E+04  0.10100000352E+00 0.  1.
       -3    1    3    3    0  502  0.45178482825E+03  0.14165873561E+02 -0.10859387134E+04  0.11762538427E+04  0.10100000352E+00 0. -1.
</event>
<event>
 5   0  0.2679861E-02  0.9199059E+03  0.7818609E-02  0.9401035E-01
       -2   -1    0    0    0  501  0.00000000000E+00  0.00000000000E+00  0.26531983832E+03  0.26531983833E+03  0.25500000920E-02 0.  1.
        2   -1    0    0  501    0  0.00000000000E+00  0.00000000000E+00 -0.79736481360E+03  0.79736481361E+03  0.25500000920E-02 0. -1.
    10030    2    1    2    0    0  0.00000000000E+00  0.00000000000E+00 -0.53204497529E+03  0.10626846519E+04  0.91990587222E+03 0.  0.
        1    1    3    3  502    0  0.42515461645E+03 -0.15053267192E+03 -0.16179608225E+03  0.47916020856E+03  0.50400001928E-02 0.  1.
       -1    1    3    3    0  502 -0.42515461645E+03  0.15053267192E+03 -0.37024889304E+03  0.58352444338E+03  0.50400001928E-02 0. -1.
</event>
<event>
 5   0  0.1559275E-02  0.9157741E+03  0.7818609E-02  0.9406075E-01
        1   -1    0    0  501    0  0.00000000000E+00  0.00000000000E+00  0.13067970047E+04  0.13067970047E+04  0.50400001928E-02 0.  1.
       -1   -1    0    0    0  501  0.00000000000E+00  0.00000000000E+00 -0.16043850359E+03  0.16043850366E+03  0.50400001928E-02 0. -1.
    10030    2    1    2    0    0  0.00000000000E+00  0.00000000000E+00  0.11463585011E+04  0.14672355083E+04  0.91577411185E+03 0.  0.
        1    1    3    3  502    0  0.44150886386E+03  0.42095548545E+02  0.39079476488E+03  0.59111983587E+03  0.50400001928E-02 0. -1.
       -1    1    3    3    0  502 -0.44150886386E+03 -0.42095548545E+02  0.75556373620E+03  0.87611567248E+03  0.50400001928E-02 0.  1.
</event>
<event>
 5   0  0.1497410E-02  0.7908849E+03  0.7818609E-02  0.9573305E-01
       -1   -1    0    0    0  501  0.00000000000E+00  0.00000000000E+00  0.12254998306E+04  0.12254998306E+04  0.50400001928E-02 0.  1.
        1   -1    0    0  501    0  0.00000000000E+00  0.00000000000E+00 -0.12760078252E+03  0.12760078262E+03  0.50400001928E-02 0. -1.
    10030    2    1    2    0    0  0.00000000000E+00  0.00000000000E+00  0.10978990481E+04  0.13531006132E+04  0.79088491560E+03 0.  0.
        3    1    3    3  502    0  0.73425711733E+02 -0.38794646635E+03  0.51142991235E+03  0.64610708195E+03  0.10100000352E+00 0. -1.
       -3    1    3    3    0  502 -0.73425711733E+02  0.38794646635E+03  0.58646913571E+03  0.70699353125E+03  0.10100000352E+00 0.  1.
</event>
<event>
 5   0  0.2705111E-02  0.9061754E+03  0.7818609E-02  0.9417895E-01
       -2   -1    0    0    0  501  0.00000000000E+00  0.00000000000E+00  0.19835709812E+03  0.19835709814E+03  0.25500000920E-02 0.  1.
        2   -1    0    0  501    0  0.00000000000E+00  0.00000000000E+00 -0.10349439672E+04  0.10349439672E+04  0.25500000920E-02 0. -1.
    10030    2    1    2    0    0  0.00000000000E+00  0.00000000000E+00 -0.83658686904E+03  0.12333010653E+04  0.90617544009E+03 0.  0.
        4    1    3    3  502    0  0.11443033951E+03 -0.17388707311E+03  0.12942220537E+03  0.24511780217E+03  0.12699999809E+01 0.  1.
       -4    1    3    3    0  502 -0.11443033951E+03  0.17388707311E+03 -0.96600907441E+03  0.98818326313E+03  0.12699999809E+01 0. -1.
</event>
<event>
 5   0  0.2803717E-02  0.9137894E+03  0.7818609E-02  0.9408506E-01
       -2   -1    0    0    0  501  0.00000000000E+00  0.00000000000E+00  0.11185789881E+03  0.11185789884E+03  0.25500000920E-02 0.  1.
        2   -1    0    0  501    0  0.00000000000E+00  0.00000000000E+00 -0.18662319315E+04  0.18662319315E+04  0.25500000920E-02 0. -1.
    10030    2    1    2    0    0  0.00000000000E+00  0.00000000000E+00 -0.17543740327E+04  0.19780898304E+04  0.91378943437E+03 0.  0.
        5    1    3    3  502    0 -0.10141687951E+03  0.47111725156E+01  0.87077106704E+02  0.13383606056E+03  0.46999998093E+01 0.  1.
       -5    1    3    3    0  502  0.10141687951E+03 -0.47111725156E+01 -0.18414511394E+04  0.18442537698E+04  0.46999998093E+01 0. -1.
</event>
<event>
 5   0  0.1537870E-02  0.6459274E+03  0.7818609E-02  0.9814451E-01
       -1   -1    0    0    0  501  0.00000000000E+00  0.00000000000E+00  0.16136718212E+03  0.16136718220E+03  0.50400001928E-02 0. -1.
        1   -1    0    0  501    0  0.00000000000E+00  0.00000000000E+00 -0.64638647838E+03  0.64638647840E+03  0.50400001928E-02 0.  1.
    10030    2    1    2    0    0  0.00000000000E+00  0.00000000000E+00 -0.48501929626E+03  0.80775366060E+03  0.64592744056E+03 0.  0.
        5    1    3    3  502    0  0.67709814708E+02 -0.12233395161E+03  0.12150776376E+03  0.18530094813E+03  0.46999998093E+01 0. -1.
       -5    1    3    3    0  502 -0.67709814708E+02  0.12233395161E+03 -0.60652706002E+03  0.62245271247E+03  0.46999998093E+01 0.  1.
</event>
<event>
 5   0  0.2679861E-02  0.8955111E+03  0.7818609E-02  0.9431210E-01
        2   -1    0    0  501    0  0.00000000000E+00  0.00000000000E+00  0.17189265109E+04  0.17189265109E+04  0.25500000920E-02 0. -1.
       -2   -1    0    0    0  501  0.00000000000E+00  0.00000000000E+00 -0.11663386447E+03  0.11663386450E+03  0.25500000920E-02 0.  1.
    10030    2    1    2    0    0  0.00000000000E+00  0.00000000000E+00  0.16022926465E+04  0.18355603754E+04  0.89551112049E+03 0.  0.
        1    1    3    3  502    0  0.62561551785E+02  0.44939863074E+02 -0.10295058771E+03  0.12857823529E+03  0.50400001928E-02 0.  1.
       -1    1    3    3    0  502 -0.62561551785E+02 -0.44939863074E+02  0.17052432342E+04  0.17069821401E+04  0.50400001928E-02 0. -1.
</event>
<event>
 5   0  0.2803717E-02  0.8421278E+03  0.7818609E-02  0.9500964E-01
       -2   -1    0    0    0  501  0.00000000000E+00  0.00000000000E+00  0.23960010453E+03  0.23960010455E+03  0.25500000920E-02 0. -1.
        2   -1    0    0  501    0  0.00000000000E+00  0.00000000000E+00 -0.73996122550E+03  0.73996122551E+03  0.25500000920E-02 0.  1.
    10030    2    1    2    0    0  0.00000000000E+00  0.00000000000E+00 -0.50036112097E+03  0.97956133005E+03  0.84212775038E+03 0.  0.
        5    1    3    3  502    0  0.35879292833E+03 -0.17997730206E+03 -0.10236512797E+03  0.41427636199E+03  0.46999998093E+01 0.  1.
       -5    1    3    3    0  502 -0.35879292833E+03  0.17997730206E+03 -0.39799599300E+03  0.56528496806E+03  0.46999998093E+01 0. -1.
</event>
<event>
 5   0  0.2705111E-02  0.7896051E+03  0.7818609E-02  0.9575186E-01
       -2   -1    0    0    0  501  0.00000000000E+00  0.00000000000E+00  0.98143866807E+02  0.98143866840E+02  0.25500000920E-02 0.  1.
        2   -1    0    0  501    0  0.00000000000E+00  0.00000000000E+00 -0.15881691357E+04  0.15881691357E+04  0.25500000920E-02 0. -1.
    10030    2    1    2    0    0  0.00000000000E+00  0.00000000000E+00 -0.14900252689E+04  0.16863130026E+04  0.78960511689E+03 0.  0.
        4    1    3    3  502    0 -0.39340894131E+02 -0.38762821841E+03 -0.60886480361E+03  0.72285635062E+03  0.12699999809E+01 0. -1.
       -4    1    3    3    0  502  0.39340894131E+02  0.38762821841E+03 -0.88116046531E+03  0.96345665194E+03  0.12699999809E+01 0.  1.
</event>
<event>
 5   0  0.1497410E-02  0.8991871E+03  0.7818609E-02  0.9426598E-01
        1   -1    0    0  501    0  0.00000000000E+00  0.00000000000E+00  0.11821683447E+04  0.11821683447E+04  0.50400001928E-02 0.  1.
       -1   -1    0    0    0  501  0.00000000000E+00  0.00000000000E+00 -0.17098609117E+03  0.17098609125E+03  0.50400001928E-02 0. -1.
    10030    2    1    2    0    0  0.00000000000E+00  0.00000000000E+00  0.10111822535E+04  0.13531544360E+04  0.89918706492E+03 0.  0.
        3    1    3    3  502    0  0.42523903777E+03  0.11966289188E+03  0.37980313501E+03  0.58257864577E+03  0.10100000352E+00 0. -1.
       -3    1    3    3    0  502 -0.42523903777E+03 -0.11966289188E+03  0.63137911852E+03  0.77057579020E+03  0.10100000352E+00 0.  1.
</event>
<event>
 5   0  0.1497410E-02  0.6849500E+03  0.7818609E-02  0.9743322E-01
        1   -1    0    0  501    0  0.00000000000E+00  0.00000000000E+00  0.75047743088E+03  0.75047743089E+03  0.50400001928E-02 0. -1.
       -1   -1    0    0    0  501  0.00000000000E+00  0.00000000000E+00 -0.15628601824E+03  0.15628601832E+03  0.50400001928E-02 0.  1.
    10030    2    1    2    0    0  0.00000000000E+00  0.00000000000E+00  0.59419141264E+03  0.90676344921E+03  0.68495001129E+03 0.  0.
        3    1    3    3  502    0  0.85654321842E+02  0.33710547844E+02 -0.13960271099E+03  0.16721839314E+03  0.10100000352E+00 0.  1.
       -3    1    3    3    0  502 -0.85654321842E+02 -0.33710547844E+02  0.73379412363E+03  0.73954505607E+03  0.10100000352E+00 0. -1.
</event>
<event>
 5   0  0.2414128E-02  0.8566519E+03  0.7818609E-02  0.9481452E-01
        2   -1    0    0  501    0  0.00000000000E+00  0.00000000000E+00  0.91953549279E+03  0.91953549279E+03  0.25500000920E-02 0. -1.
       -2   -1    0    0    0  501  0.00000000000E+00  0.00000000000E+00 -0.19951717046E+03  0.19951717048E+03  0.25500000920E-02 0.  1.
    10030    2    1    2    0    0  0.00000000000E+00  0.00000000000E+00  0.72001832233E+03  0.11190526633E+04  0.85665190054E+03 0.  0.
        3    1    3    3  502    0  0.29326480076E+03 -0.20029191069E+02 -0.46959656877E+02  0.29767537929E+03  0.10100000352E+00 0.  1.
       -3    1    3    3    0  502 -0.29326480076E+03  0.20029191069E+02  0.76697797920E+03  0.82137728398E+03  0.10100000352E+00 0. -1.
</event>
<event>
 5   0  0.2705111E-02  0.9057665E+03  0.7818609E-02  0.9418402E-01
       -2   -1    0    0    0  501  0.00000000000E+00  0.00000000000E+00  0.20973728953E+03  0.20973728955E+03  0.25500000920E-02 0. -1.
        2   -1    0    0  501    0  0.00000000000E+00  0.00000000000E+00 -0.97790545573E+03  0.97790545574E+03  0.25500000920E-02 0.  1.
    10030    2    1    2    0    0  0.00000000000E+00  0.00000000000E+00 -0.76816816620E+03  0.11876427453E+04  0.90576650350E+03 0.  0.
        4    1    3    3  502    0  0.10090719063E+03  0.31329994924E+03 -0.79195535899E+03  0.85763280187E+03  0.12699999809E+01 0.  1.
       -4    1    3    3    0  502 -0.10090719063E+03 -0.31329994924E+03  0.23787192783E+02  0.33000994342E+03  0.12699999809E+01 0. -1.
</event>
<event>
 5   0  0.1459111E-02  0.8835473E+03  0.7818609E-02  0.9446385E-01
        1   -1    0    0  501    0  0.00000000000E+00  0.00000000000E+00  0.16498255371E+03  0.16498255379E+03  0.50400001928E-02 0. -1.
       -1   -1    0    0    0  501  0.00000000000E+00  0.00000000000E+00 -0.11829369688E+04  0.11829369688E+04  0.50400001928E-02 0.  1.
    10030    2    1    2    0    0  0.00000000000E+00  0.00000000000E+00 -0.10179544151E+04  0.13479195226E+04  0.88354730954E+03 0.  0.
        2    1    3    3  502    0 -0.43944091226E+03 -0.18595594578E+02 -0.44589407813E+03  0.62631912027E+03  0.25500000920E-02 0. -1.
       -2    1    3    3    0  502  0.43944091226E+03  0.18595594578E+02 -0.57206033696E+03  0.72160040232E+03  0.25500000920E-02 0.  1.
</event>
<event>
 5   0  0.1559275E-02  0.9201031E+03  0.7818609E-02  0.9400795E-01
        1   -1    0    0  501    0  0.00000000000E+00  0.00000000000E+00  0.99815695356E+03  0.99815695358E+03  0.50400001928E-02 0. -1.
       -1   -1    0    0    0  501  0.00000000000E+00  0.00000000000E+00 -0.21203821654E+03  0.21203821660E+03  0.50400001928E-02 0.  1.
    10030    2    1    2    0    0  0.00000000000E+00  0.00000000000E+00  0.78611873703E+03  0.12101951702E+04  0.92010308184E+03 0.  0.
        1    1    3    3  502    0  0.39634619589E+02  0.22114306338E+03 -0.13497729903E+03  0.26209545747E+03  0.50400001928E-02 0.  1.
       -1    1    3    3    0  502 -0.39634619589E+02 -0.22114306338E+03  0.92109603606E+03  0.94809971270E+03  0.50400001928E-02 0. -1.
</event>
<event>
 5   0  0.1459111E-02  0.8931121E+03  0.7818609E-02  0.9434233E-01
        1   -1    0    0  501    0  0.00000000000E+00  0.00000000000E+00  0.55202204225E+03  0.55202204227E+03  0.50400001928E-02 0. -1.
       -1   -1    0    0    0  501  0.00000000000E+00  0.00000000000E+00 -0.36123978099E+03  0.36123978102E+03  0.50400001928E-02 0.  1.
    10030    2    1    2    0    0  0.00000000000E+00  0.00000000000E+00  0.19078226126E+03  0.91326182329E+03  0.89311213555E+03 0.  0.
        2    1    3    3  502    0 -0.20217617378E+03 -0.52611621917E+02  0.49897148289E+03  0.54093967200E+03  0.25500000920E-02 0. -1.
       -2    1    3    3    0  502  0.20217617378E+03  0.52611621917E+02 -0.30818922163E+03  0.37232215129E+03  0.25500000920E-02 0.  1.
</event>
<event>
 5   0  0.1040163E-02  0.9049323E+03  0.7818609E-02  0.9419437E-01
       -3   -1    0    0    0  501  0.00000000000E+00  0.00000000000E+00  0.23596302017E+03  0.23596304178E+03  0.10100000352E+00 0. -1.
        3   -1    0    0  501    0  0.00000000000E+00  0.00000000000E+00 -0.86761722660E+03  0.86761723248E+03  0.10100000352E+00 0.  1.
    10030    2    1    2    0    0  0.00000000000E+00  0.00000000000E+00 -0.63165420643E+03  0.11035802743E+04  0.90493225450E+03 0.  0.
        2    1    3    3  502    0 -0.12037158862E+03  0.39350432855E+03 -0.86406747459E+02  0.42047723119E+03  0.25500000920E-02 0. -1.
       -2    1    3    3    0  502  0.12037158862E+03 -0.39350432855E+03 -0.54524745897E+03  0.68310304307E+03  0.25500000920E-02 0.  1.
</event>
<event>
 5   0  0.2705111E-02  0.9350728E+03  0.7818609E-02  0.9382770E-01
       -2   -1    0    0    0  501  0.00000000000E+00  0.00000000000E+00  0.17906574861E+03  0.17906574863E+03  0.25500000920E-02 0.  1.
        2   -1    0    0  501    0  0.00000000000E+00  0.00000000000E+00 -0.12207262961E+04  0.12207262961E+04  0.25500000920E-02 0. -1.
    10030    2    1    2    0    0  0.00000000000E+00  0.00000000000E+00 -0.10416605475E+04  0.13997920447E+04  0.93507276309E+03 0.  0.
        4    1    3    3  502    0  0.70988917388E+02 -0.15561332679E+03  0.13054624604E+03  0.21517172008E+03  0.12699999809E+01 0.  1.
       -4    1    3    3    0  502 -0.70988917388E+02  0.15561332679E+03 -0.11722067935E+04  0.11846203246E+04  0.12699999809E+01 0. -1.
</event>
<event>
 5   0  0.2705111E-02  0.8525260E+03  0.7818609E-02  0.9486953E-01
        2   -1    0    0  501    0  0.00000000000E+00  0.00000000000E+00  0.14984414902E+04  0.14984414902E+04  0.25500000920E-02 0.  1.
       -2   -1    0    0    0  501  0.00000000000E+00  0.00000000000E+00 -0.12125942739E+03  0.12125942742E+03  0.25500000920E-02 0. -1.
    10030    2    1    2    0    0  0.00000000000E+00  0.00000000000E+00  0.13771820628E+04  0.16197009176E+04  0.85252602800E+03 0.  0.
        4    1    3    3  502    0 -0.32431601724E+03  0.18682753617E+03  0.30102794237E+03  0.48031743909E+03  0.12699999809E+01 0. -1.
       -4    1    3    3    0  502  0.32431601724E+03 -0.18682753617E+03  0.10761541204E+04  0.11393834785E+04  0.12699999809E+01 0.  1.
</event>
<event>
 5   0  0.2803717E-02  0.9179842E+03  0.7818609E-02  0.9403375E-01
        2   -1    0    0  501    0  0.00000000000E+00  0.00000000000E+00  0.53222451739E+03  0.53222451740E+03  0.25500000920E-02 0.  1.
       -2   -1    0    0    0  501  0.00000000000E+00  0.00000000000E+00 -0.39583625168E+03  0.39583625169E+03  0.25500000920E-02 0. -1.
    10030    2    1    2    0    0  0.00000000000E+00  0.00000000000E+00  0.13638826571E+03  0.92806076909E+03  0.91798422214E+03 0.  0.
        5    1    3    3  502    0 -0.24495483379E+02  0.44045584231E+03  0.19627452355E+03  0.48285314157E+03  0.46999998093E+01 0.  1.
       -5    1    3    3    0  502  0.24495483379E+02 -0.44045584231E+03 -0.59886257836E+02  0.44520762752E+03  0.46999998093E+01 0. -1.
</event>
<event>
 5   0  0.1040163E-02  0.8891927E+03  0.7818609E-02  0.9439193E-01
       -3   -1    0    0    0  501  0.00000000000E+00  0.00000000000E+00  0.49942749976E+03  0.49942750997E+03  0.10100000352E+00 0. -1.
        3   -1    0    0  501    0  0.00000000000E+00  0.00000000000E+00 -0.39578499109E+03  0.39578500398E+03  0.10100000352E+00 0.  1.
    10030    2    1    2    0    0  0.00000000000E+00  0.00000000000E+00  0.10364250867E+03  0.89521251395E+03  0.88919271001E+03 0.  0.
        1    1    3    3  502    0 -0.22711889714E+03 -0.37114441998E+03 -0.40091632758E+02  0.43696511641E+03  0.50400001928E-02 0.  1.
       -1    1    3    3    0  502  0.22711889714E+03  0.37114441998E+03  0.14373414143E+03  0.45824739754E+03  0.50400001928E-02 0. -1.
</event>
<event>
 5   0  0.1497410E-02  0.4978521E+03  0.7818609E-02  0.1014341E+00
       -1   -1    0    0    0  501  0.00000000000E+00  0.00000000000E+00  0.10502645374E+04  0.10502645374E+04  0.50400001928E-02 0. -1.
        1   -1    0    0  501    0  0.00000000000E+00  0.00000000000E+00 -0.58998635593E+02  0.58998635808E+02  0.50400001928E-02 0.  1.
    10030    2    1    2    0    0  0.00000000000E+00  0.00000000000E+00  0.99126590176E+03  0.11092631732E+04  0.49785208583E+03 0.  0.
        3    1    3    3  502    0  0.94816682610E+02  0.21732285099E+03  0.32675636346E+03  0.40371915502E+03  0.10100000352E+00 0.  1.
       -3    1    3    3    0  502 -0.94816682610E+02 -0.21732285099E+03  0.66450953830E+03  0.70554401816E+03  0.10100000352E+00 0. -1.
</event>
<event>
 5   0  0.1459111E-02  0.9603977E+03  0.7818609E-02  0.9353079E-01
        1   -1    0    0  501    0  0.00000000000E+00  0.00000000000E+00  0.11400938382E+04  0.11400938382E+04  0.50400001928E-02 0.  1.
       -1   -1    0    0    0  501  0.00000000000E+00  0.00000000000E+00 -0.20225610377E+03  0.20225610384E+03  0.50400001928E-02 0. -1.
    10030    2    1    2    0    0  0.00000000000E+00  0.00000000000E+00  0.93783773438E+03  0.13423499420E+04  0.96039770448E+03 0.  0.
        2    1    3    3  502    0 -0.12491451592E+03  0.46355058411E+03  0.48345479289E+03  0.68133054907E+03  0.25500000920E-02 0. -1.
       -2    1    3    3    0  502  0.12491451592E+03 -0.46355058411E+03  0.45438294149E+03  0.66101939293E+03  0.25500000920E-02 0.  1.
</event>
<event>
 5   0  0.2679861E-02  0.8746473E+03  0.7818609E-02  0.9457840E-01
        2   -1    0    0  501    0  0.00000000000E+00  0.00000000000E+00  0.20171633992E+04  0.20171633992E+04  0.25500000920E-02 0. -1.
       -2   -1    0    0    0  501  0.00000000000E+00  0.00000000000E+00 -0.94812344424E+02  0.94812344459E+02  0.25500000920E-02 0.  1.
    10030    2    1    2    0    0  0.00000000000E+00  0.00000000000E+00  0.19223510548E+04  0.21119757437E+04  0.87464733694E+03 0.  0.
        1    1    3    3  502    0 -0.33079477112E+03  0.21342682459E+03  0.14210766320E+04  0.14745965496E+04  0.50400001928E-02 0. -1.
       -1    1    3    3    0  502  0.33079477112E+03 -0.21342682459E+03  0.50127442274E+03  0.63737919403E+03  0.50400001928E-02 0.  1.
</event>
<event>
 5   0  0.1459111E-02  0.8896713E+03  0.7818609E-02  0.9438586E-01
       -1   -1    0    0    0  501  0.00000000000E+00  0.00000000000E+00  0.19728240835E+03  0.19728240842E+03  0.50400001928E-02 0. -1.
        1   -1    0    0  501    0  0.00000000000E+00  0.00000000000E+00 -0.10030227826E+04  0.10030227826E+04  0.50400001928E-02 0.  1.
    10030    2    1    2    0    0  0.00000000000E+00  0.00000000000E+00 -0.80574037423E+03  0.12003051910E+04  0.88967128812E+03 0.  0.
        2    1    3    3  502    0 -0.36377738653E+03  0.61453109812E+02 -0.73817891523E+03  0.82523850040E+03  0.25500000920E-02 0.  1.
       -2    1    3    3    0  502  0.36377738653E+03 -0.61453109812E+02 -0.67561459000E+02  0.37506669061E+03  0.25500000920E-02 0. -1.
</event>
<event>
 5   0  0.2705111E-02  0.8704379E+03  0.7818609E-02  0.9463309E-01
        2   -1    0    0  501    0  0.00000000000E+00  0.00000000000E+00  0.10386619172E+04  0.10386619172E+04  0.25500000920E-02 0. -1.
       -2   -1    0    0    0  501  0.00000000000E+00  0.00000000000E+00 -0.18236497055E+03  0.18236497056E+03  0.25500000920E-02 0.  1.
    10030    2    1    2    0    0  0.00000000000E+00  0.00000000000E+00  0.85629694667E+03  0.12210268878E+04  0.87043793565E+03 0.  0.
        4    1    3    3  502    0 -0.40791840320E+03  0.14767565011E+03  0.47691205596E+03  0.64471097658E+03  0.12699999809E+01 0. -1.
       -4    1    3    3    0  502  0.40791840320E+03 -0.14767565011E+03  0.37938489072E+03  0.57631591120E+03  0.12699999809E+01 0.  1.
</event>
<event>
 5   0  0.1537870E-02  0.8977573E+03  0.7818609E-02  0.9428389E-01
       -1   -1    0    0    0  501  0.00000000000E+00  0.00000000000E+00  0.20502898084E+03  0.20502898090E+03  0.50400001928E-02 0. -1.
        1   -1    0    0  501    0  0.00000000000E+00  0.00000000000E+00 -0.98274913330E+03  0.98274913331E+03  0.50400001928E-02 0.  1.
    10030    2    1    2    0    0  0.00000000000E+00  0.00000000000E+00 -0.77772015247E+03  0.11877781142E+04  0.89775732414E+03 0.  0.
        5    1    3    3  502    0 -0.28702751072E+03 -0.50963559996E+02  0.62701255826E+02  0.29822074683E+03  0.46999998093E+01 0. -1.
       -5    1    3    3    0  502  0.28702751072E+03  0.50963559996E+02 -0.84042140829E+03  0.88955736739E+03  0.46999998093E+01 0.  1.
</event>
<event>
 5   0  0.2628383E-02  0.9055043E+03  0.7818609E-02  0.9418727E-01
       -2   -1    0    0    0  501  0.00000000000E+00  0.00000000000E+00  0.13169371742E+03  0.13169371745E+03  0.25500000920E-02 0. -1.
        2   -1    0    0  501    0  0.00000000000E+00  0.00000000000E+00 -0.15565247435E+04  0.15565247435E+04  0.25500000920E-02 0.  1.
    10030    2    1    2    0    0  0.00000000000E+00  0.00000000000E+00 -0.14248310261E+04  0.16882184610E+04  0.90550434512E+03 0.  0.
        2    1    3    3  502    0  0.31991584890E+03  0.12746623725E+03 -0.12604043326E+04  0.13066035640E+04  0.25500000920E-02 0.  1.
       -2    1    3    3    0  502 -0.31991584890E+03 -0.12746623725E+03 -0.16442669357E+03  0.38161489696E+03  0.25500000920E-02 0. -1.
</event>
<event>
 5   0  0.1560728E-02  0.9044880E+03  0.7818609E-02  0.9419989E-01
       -1   -1    0    0    0  501  0.00000000000E+00  0.00000000000E+00  0.39009369362E+03  0.39009369365E+03  0.50400001928E-02 0.  1.
        1   -1    0    0  501    0  0.00000000000E+00  0.00000000000E+00 -0.52429618593E+03  0.52429618596E+03  0.50400001928E-02 0. -1.
    10030    2    1    2    0    0  0.00000000000E+00  0.00000000000E+00 -0.13420249232E+03  0.91438987961E+03  0.90448800046E+03 0.  0.
        4    1    3    3  502    0 -0.42670055274E+03 -0.12956739432E+02 -0.21800622938E+03  0.47934284991E+03  0.12699999809E+01 0. -1.
       -4    1    3    3    0  502  0.42670055274E+03  0.12956739432E+02  0.83803737059E+02  0.43504702970E+03  0.12699999809E+01 0.  1.
</event>
<event>
 5   0  0.2705111E-02  0.8694356E+03  0.7818609E-02  0.9464616E-01
       -2   -1    0    0    0  501  0.00000000000E+00  0.00000000000E+00  0.11997138691E+03  0.11997138693E+03  0.25500000920E-02 0.  1.
        2   -1    0    0  501    0  0.00000000000E+00  0.00000000000E+00 -0.15752051606E+04  0.15752051606E+04  0.25500000920E-02 0. -1.
    10030    2    1    2    0    0  0.00000000000E+00  0.00000000000E+00 -0.14552337737E+04  0.16951765475E+04  0.86943555898E+03 0.  0.
        4    1    3    3  502    0  0.87851550614E+01  0.10310340618E+03 -0.15508393445E+04  0.15542881897E+04  0.12699999809E+01 0. -1.
       -4    1    3    3    0  502 -0.87851550614E+01 -0.10310340618E+03  0.95605570777E+02  0.14088835786E+03  0.12699999809E+01 0.  1.
</event>
<event>
 5   0  0.1497410E-02  0.8777542E+03  0.7818609E-02  0.9453825E-01
        1   -1    0    0  501    0  0.00000000000E+00  0.00000000000E+00  0.12236947727E+04  0.12236947728E+04  0.50400001928E-02 0. -1.
       -1   -1    0    0    0  501  0.00000000000E+00  0.00000000000E+00 -0.15740288935E+03  0.15740288943E+03  0.50400001928E-02 0.  1.
    10030    2    1    2    0    0  0.00000000000E+00  0.00000000000E+00  0.10662918834E+04  0.13810976622E+04  0.87775416371E+03 0.  0.
        3    1    3    3  502    0 -0.30434312951E+03  0.45959689561E+02  0.10254004556E+04  0.10705994293E+04  0.10100000352E+00 0.  1.
       -3    1    3    3    0  502  0.30434312951E+03 -0.45959689561E+02  0.40891427817E+02  0.31049823287E+03  0.10100000352E+00 0. -1.
</event>
<event>
 5   0  0.2803717E-02  0.8892862E+03  0.7818609E-02  0.9439074E-01
       -2   -1    0    0    0  501  0.00000000000E+00  0.00000000000E+00  0.26051469521E+03  0.26051469522E+03  0.25500000920E-02 0. -1.
        2   -1    0    0  501    0  0.00000000000E+00  0.00000000000E+00 -0.75891102110E+03  0.75891102110E+03  0.25500000920E-02 0.  1.
    10030    2    1    2    0    0  0.00000000000E+00  0.00000000000E+00 -0.49839632589E+03  0.10194257163E+04  0.88928617073E+03 0.  0.
        5    1    3    3  502    0  0.38003324982E+03  0.10531769637E+03 -0.48459849344E+03  0.62479987034E+03  0.46999998093E+01 0.  1.
       -5    1    3    3    0  502 -0.38003324982E+03 -0.10531769637E+03 -0.13797832447E+02  0.39462584598E+03  0.46999998093E+01 0. -1.
</event>
<event>
 5   0  0.2803717E-02  0.9295483E+03  0.7818609E-02  0.9389380E-01
        2   -1    0    0  501    0  0.00000000000E+00  0.00000000000E+00  0.94759819162E+03  0.94759819162E+03  0.25500000920E-02 0. -1.
       -2   -1    0    0    0  501  0.00000000000E+00  0.00000000000E+00 -0.22796057367E+03  0.22796057369E+03  0.25500000920E-02 0.  1.
    10030    2    1    2    0    0  0.00000000000E+00  0.00000000000E+00  0.71963761795E+03  0.11755587653E+04  0.92954833631E+03 0.  0.
        5    1    3    3  502    0 -0.18498730483E+03  0.40048611113E+03  0.17488689887E+03  0.47457027462E+03  0.46999998093E+01 0.  1.
       -5    1    3    3    0  502  0.18498730483E+03 -0.40048611113E+03  0.54475071908E+03  0.70098849070E+03  0.46999998093E+01 0. -1.
</event>
<event>
 5   0  0.2679861E-02  0.9019984E+03  0.7818609E-02  0.9423087E-01
       -2   -1    0    0    0  501  0.00000000000E+00  0.00000000000E+00  0.20567001076E+03  0.20567001077E+03  0.25500000920E-02 0.  1.
        2   -1    0    0  501    0  0.00000000000E+00  0.00000000000E+00 -0.98896420579E+03  0.98896420580E+03  0.25500000920E-02 0. -1.
    10030    2    1    2    0    0  0.00000000000E+00  0.00000000000E+00 -0.78329419504E+03  0.11946342166E+04  0.90199840101E+03 0.  0.
        1    1    3    3  502    0  0.30642523674E+03 -0.19516843082E+03 -0.74557779880E+03  0.82938133340E+03  0.50400001928E-02 0. -1.
       -1    1    3    3    0  502 -0.30642523674E+03  0.19516843082E+03 -0.37716396236E+02  0.36525288318E+03  0.50400001928E-02 0.  1.
</event>
<event>
 5   0  0.1459111E-02  0.8936785E+03  0.7818609E-02  0.9433518E-01
        1   -1    0    0  501    0  0.00000000000E+00  0.00000000000E+00  0.88873459551E+03  0.88873459552E+03  0.50400001928E-02 0.  1.
       -1   -1    0    0    0  501  0.00000000000E+00  0.00000000000E+00 -0.22466245861E+03  0.22466245867E+03  0.50400001928E-02 0. -1.
    10030    2    1    2    0    0  0.00000000000E+00  0.00000000000E+00  0.66407213690E+03  0.11133970542E+04  0.89367846414E+03 0.  0.
        2    1    3    3  502    0 -0.30309603291E+03 -0.60115164094E+02  0.73416917941E+03  0.79654593221E+03  0.25500000920E-02 0.  1.
       -2    1    3    3    0  502  0.30309603291E+03  0.60115164094E+02 -0.70097042514E+02  0.31685112197E+03  0.25500000920E-02 0. -1.
</event>
<event>
 5   0  0.1497410E-02  0.8994718E+03  0.7818609E-02  0.9426242E-01
        1   -1    0    0  501    0  0.00000000000E+00  0.00000000000E+00  0.82995562060E+03  0.82995562062E+03  0.50400001928E-02 0.  1.
       -1   -1    0    0    0  501  0.00000000000E+00  0.00000000000E+00 -0.24370264915E+03  0.24370264921E+03  0.50400001928E-02 0. -1.
    10030    2    1    2    0    0  0.00000000000E+00  0.00000000000E+00  0.58625297145E+03  0.10736582698E+04  0.89947180825E+03 0.  0.
        3    1    3    3  502    0 -0.17029617943E+03  0.17739789384E+03  0.74259960718E+03  0.78225634434E+03  0.10100000352E+00 0.  1.
       -3    1    3    3    0  502  0.17029617943E+03 -0.17739789384E+03 -0.15634663574E+03  0.29140192548E+03  0.10100000352E+00 0. -1.
</event>
<event>
 5   0  0.1559275E-02  0.8969507E+03  0.7818609E-02  0.9429401E-01
       -1   -1    0    0    0  501  0.00000000000E+00  0.00000000000E+00  0.37423085899E+03  0.37423085902E+03  0.50400001928E-02 0.  1.
        1   -1    0    0  501    0  0.00000000000E+00  0.00000000000E+00 -0.53744937423E+03  0.53744937425E+03  0.50400001928E-02 0. -1.
    10030    2    1    2    0    0  0.00000000000E+00  0.00000000000E+00 -0.16321851524E+03  0.91168023327E+03  0.89695070323E+03 0.  0.
        1    1    3    3  502    0 -0.42745983164E+03 -0.96245241291E+02  0.15591104077E+02  0.43843829291E+03  0.50400001928E-02 0. -1.
       -1    1    3    3    0  502  0.42745983164E+03  0.96245241291E+02 -0.17880961931E+03  0.47324194037E+03  0.50400001928E-02 0.  1.
</event>
<event>
 5   0  0.2705111E-02  0.9042069E+03  0.7818609E-02  0.9420338E-01
       -2   -1    0    0    0  501  0.00000000000E+00  0.00000000000E+00  0.24101117912E+03  0.24101117913E+03  0.25500000920E-02 0.  1.
        2   -1    0    0  501    0  0.00000000000E+00  0.00000000000E+00 -0.84808314375E+03  0.84808314375E+03  0.25500000920E-02 0. -1.
    10030    2    1    2    0    0  0.00000000000E+00  0.00000000000E+00 -0.60707196463E+03  0.10890943229E+04  0.90420687561E+03 0.  0.
        4    1    3    3  502    0  0.11059803408E+02  0.43955023745E+03 -0.17681301975E+03  0.47391052673E+03  0.12699999809E+01 0. -1.
       -4    1    3    3    0  502 -0.11059803408E+02 -0.43955023745E+03 -0.43025894488E+03  0.61518379615E+03  0.12699999809E+01 0.  1.
</event>
<event>
 5   0  0.1537870E-02  0.8980604E+03  0.7818609E-02  0.9428009E-01
        1   -1    0    0  501    0  0.00000000000E+00  0.00000000000E+00  0.13580310421E+04  0.13580310421E+04  0.50400001928E-02 0. -1.
       -1   -1    0    0    0  501  0.00000000000E+00  0.00000000000E+00 -0.14847091620E+03  0.14847091629E+03  0.50400001928E-02 0.  1.
    10030    2    1    2    0    0  0.00000000000E+00  0.00000000000E+00  0.12095601259E+04  0.15065019584E+04  0.89806038355E+03 0.  0.
        5    1    3    3  502    0 -0.20413270712E+03 -0.38829637860E+03  0.44421384741E+03  0.62433346217E+03  0.46999998093E+01 0.  1.
       -5    1    3    3    0  502  0.20413270712E+03  0.38829637860E+03  0.76534627849E+03  0.88216849624E+03  0.46999998093E+01 0. -1.
</event>
<event>
 5   0  0.1560728E-02  0.8932852E+03  0.7818609E-02  0.9434014E-01
       -1   -1    0    0    0  501  0.00000000000E+00  0.00000000000E+00  0.21716004163E+03  0.21716004169E+03  0.50400001928E-02 0. -1.
        1   -1    0    0  501    0  0.00000000000E+00  0.00000000000E+00 -0.91862943064E+03  0.91862943066E+03  0.50400001928E-02 0.  1.
    10030    2    1    2    0    0  0.00000000000E+00  0.00000000000E+00 -0.70146938901E+03  0.11357894723E+04  0.89328518502E+03 0.  0.
        4    1    3    3  502    0 -0.22829501733E+03 -0.15806994628E+03  0.94069356129E+02  0.29318147881E+03  0.12699999809E+01 0. -1.
       -4    1    3    3    0  502  0.22829501733E+03  0.15806994628E+03 -0.79553874514E+03  0.84260799354E+03  0.12699999809E+01 0.  1.
</event>
<event>
 5   0  0.1459111E-02  0.6656145E+03  0.7818609E-02  0.9777913E-01
        1   -1    0    0  501    0  0.00000000000E+00  0.00000000000E+00  0.10117253502E+04  0.10117253502E+04  0.50400001928E-02 0. -1.
       -1   -1    0    0    0  501  0.00000000000E+00  0.00000000000E+00 -0.10947700241E+03  0.10947700253E+03  0.50400001928E-02 0.  1.
    10030    2    1    2    0    0  0.00000000000E+00  0.00000000000E+00  0.90224834776E+03  0.11212023527E+04  0.66561447903E+03 0.  0.
        2    1    3    3  502    0  0.82100558280E+01  0.29660292296E+03  0.19722281886E+03  0.35628294825E+03  0.25500000920E-02 0. -1.
       -2    1    3    3    0  502 -0.82100558280E+01 -0.29660292296E+03  0.70502552889E+03  0.76491940446E+03  0.25500000920E-02 0.  1.
</event>
<event>
 5   0  0.2414128E-02  0.8753083E+03  0.7818609E-02  0.9456985E-01
       -2   -1    0    0    0  501  0.00000000000E+00  0.00000000000E+00  0.10408527663E+03  0.10408527666E+03  0.25500000920E-02 0.  1.
        2   -1    0    0  501    0  0.00000000000E+00  0.00000000000E+00 -0.18402330908E+04  0.18402330908E+04  0.25500000920E-02 0. -1.
    10030    2    1    2    0    0  0.00000000000E+00  0.00000000000E+00 -0.17361478142E+04  0.19443183675E+04  0.87530833505E+03 0.  0.
        3    1    3    3  502    0  0.39028957639E+03  0.15083231317E+03 -0.58304769012E+03  0.71764960760E+03  0.10100000352E+00 0.  1.
       -3    1    3    3    0  502 -0.39028957639E+03 -0.15083231317E+03 -0.11531001241E+04  0.12266687599E+04  0.10100000352E+00 0. -1.
</event>
<event>
 5   0  0.2705111E-02  0.8803640E+03  0.7818609E-02  0.9450466E-01
       -2   -1    0    0    0  501  0.00000000000E+00  0.00000000000E+00  0.52294654455E+03  0.52294654455E+03  0.25500000920E-02 0.  1.
        2   -1    0    0  501    0  0.00000000000E+00  0.00000000000E+00 -0.37051626223E+03  0.37051626224E+03  0.25500000920E-02 0. -1.
    10030    2    1    2    0    0  0.00000000000E+00  0.00000000000E+00  0.15243028232E+03  0.89346280679E+03  0.88036401344E+03 0.  0.
        4    1    3    3  502    0  0.29262351849E+03 -0.32585015353E+03  0.31379314718E+02  0.43908213403E+03  0.12699999809E+01 0. -1.
       -4    1    3    3    0  502 -0.29262351849E+03  0.32585015353E+03  0.12105096760E+03  0.45438067277E+03  0.12699999809E+01 0.  1.
</event>
<event>
 5   0  0.2679861E-02  0.7918694E+03  0.7818609E-02  0.9571861E-01
       -2   -1    0    0    0  501  0.00000000000E+00  0.00000000000E+00  0.78078366803E+03  0.78078366803E+03  0.25500000920E-02 0. -1.
        2   -1    0    0  501    0  0.00000000000E+00  0.00000000000E+00 -0.20077812612E+03  0.20077812614E+03  0.25500000920E-02 0.  1.
    10030    2    1    2    0    0  0.00000000000E+00  0.00000000000E+00  0.58000554190E+03  0.98156179417E+03  0.79186938767E+03 0.  0.
        1    1    3    3  502    0  0.27280008074E+03  0.20070335116E+03  0.54422408266E+03  0.64100044570E+03  0.50400001928E-02 0. -1.
       -1    1    3    3    0  502 -0.27280008074E+03 -0.20070335116E+03  0.35781459244E+02  0.34056134847E+03  0.50400001928E-02 0.  1.
</event>
<event>
 5   0  0.2414128E-02  0.9338113E+03  0.7818609E-02  0.9384275E-01
        2   -1    0    0  501    0  0.00000000000E+00  0.00000000000E+00  0.14479793095E+04  0.14479793095E+04  0.25500000920E-02 0.  1.
       -2   -1    0    0    0  501  0.00000000000E+00  0.00000000000E+00 -0.15055525091E+03  0.15055525093E+03  0.25500000920E-02 0. -1.
    10030    2    1    2    0    0  0.00000000000E+00  0.00000000000E+00  0.12974240585E+04  0.15985345604E+04  0.93381130484E+03 0.  0.
        3    1    3    3  502    0 -0.12155247708E+03  0.80081358714E+02 -0.11072125498E+03  0.18288585293E+03  0.10100000352E+00 0. -1.
       -3    1    3    3    0  502  0.12155247708E+03 -0.80081358714E+02  0.14081453135E+04  0.14156487074E+04  0.10100000352E+00 0.  1.
</event>
<event>
 5   0  0.1537870E-02  0.9261906E+03  0.7818609E-02  0.9393421E-01
       -1   -1    0    0    0  501  0.00000000000E+00  0.00000000000E+00  0.12495934982E+03  0.12495934993E+03  0.50400001928E-02 0. -1.
        1   -1    0    0  501    0  0.00000000000E+00  0.00000000000E+00 -0.17162160441E+04  0.17162160441E+04  0.50400001928E-02 0.  1.
    10030    2    1    2    0    0  0.00000000000E+00  0.00000000000E+00 -0.15912566943E+04  0.18411753940E+04  0.92619056598E+03 0.  0.
        5    1    3    3  502    0 -0.21863886141E+03 -0.73273952839E+02 -0.15939213965E+04  0.16105215093E+04  0.46999998093E+01 0.  1.
       -5    1    3    3    0  502  0.21863886141E+03  0.73273952839E+02  0.26647022114E+01  0.23065388469E+03  0.46999998093E+01 0. -1.
</event>
<event>
 5   0  0.1560728E-02  0.9119428E+03  0.7818609E-02  0.9410774E-01
       -1   -1    0    0    0  501  0.00000000000E+00  0.00000000000E+00  0.39798130391E+03  0.39798130394E+03  0.50400001928E-02 0. -1.
        1   -1    0    0  501    0  0.00000000000E+00  0.00000000000E+00 -0.52241128587E+03  0.52241128589E+03  0.50400001928E-02 0.  1.
    10030    2    1    2    0    0  0.00000000000E+00  0.00000000000E+00 -0.12442998196E+03  0.92039258983E+03  0.91194281565E+03 0.  0.
        4    1    3    3  502    0  0.13580820931E+03 -0.23424355273E+03  0.30805541546E+03  0.41013859073E+03  0.12699999809E+01 0. -1.
       -4    1    3    3    0  502 -0.13580820931E+03  0.23424355273E+03 -0.43248539743E+03  0.51025399910E+03  0.12699999809E+01 0.  1.
</event>
<event>
 5   0  0.1497410E-02  0.9102408E+03  0.7818609E-02  0.9412870E-01
       -1   -1    0    0    0  501  0.00000000000E+00  0.00000000000E+00  0.12627893194E+03  0.12627893204E+03  0.50400001928E-02 0. -1.
        1   -1    0    0  501    0  0.00000000000E+00  0.00000000000E+00 -0.16402940169E+04  0.16402940169E+04  0.50400001928E-02 0.  1.
    10030    2    1    2    0    0  0.00000000000E+00  0.00000000000E+00 -0.15140150850E+04  0.17665729490E+04  0.91024079586E+03 0.  0.
        3    1    3    3  502    0  0.29116407492E+03  0.29525290023E+03 -0.39296974046E+03  0.57129328785E+03  0.10100000352E+00 0. -1.
       -3    1    3    3    0  502 -0.29116407492E+03 -0.29525290023E+03 -0.11210453445E+04  0.11952796611E+04  0.10100000352E+00 0.  1.
</event>
<event>
 5   0  0.1559275E-02  0.9121636E+03  0.7818609E-02  0.9410503E-01
       -1   -1    0    0    0  501  0.00000000000E+00  0.00000000000E+00  0.10662135369E+03  0.10662135381E+03  0.50400001928E-02 0. -1.
        1   -1    0    0  501    0  0.00000000000E+00  0.00000000000E+00 -0.19509280116E+04  0.19509280116E+04  0.50400001928E-02 0.  1.
    10030    2    1    2    0    0  0.00000000000E+00  0.00000000000E+00 -0.18443066579E+04  0.20575493654E+04  0.91216355044E+03 0.  0.
        1    1    3    3  502    0 -0.30498651506E+03  0.24707537989E+03 -0.14460715286E+04  0.14983944352E+04  0.50400001928E-02 0.  1.
       -1    1    3    3    0  502  0.30498651506E+03 -0.24707537989E+03 -0.39823512935E+03  0.55915493022E+03  0.50400001928E-02 0. -1.
</event>
<event>
 5   0  0.2705111E-02  0.9205877E+03  0.7818609E-02  0.9400206E-01
        2   -1    0    0  501    0  0.00000000000E+00  0.00000000000E+00  0.14070965825E+04  0.14070965825E+04  0.25500000920E-02 0. -1.
       -2   -1    0    0    0  501  0.00000000000E+00  0.00000000000E+00 -0.15057275617E+03  0.15057275619E+03  0.25500000920E-02 0.  1.
    10030    2    1    2    0    0  0.00000000000E+00  0.00000000000E+00  0.12565238263E+04  0.15576693387E+04  0.92058766154E+03 0.  0.
        4    1    3    3  502    0 -0.63172096581E+02 -0.36745709580E+03  0.17155778779E+03  0.41042553343E+03  0.12699999809E+01 0.  1.
       -4    1    3    3    0  502  0.63172096581E+02  0.36745709580E+03  0.10849660386E+04  0.11472438053E+04  0.12699999809E+01 0. -1.
</event>
<event>
 5   0  0.2679861E-02  0.9087714E+03  0.7818609E-02  0.9414683E-01
        2   -1    0    0  501    0  0.00000000000E+00  0.00000000000E+00  0.10101386763E+04  0.10101386763E+04  0.25500000920E-02 0. -1.
       -2   -1    0    0    0  501  0.00000000000E+00  0.00000000000E+00 -0.20439407322E+03  0.20439407323E+03  0.25500000920E-02 0.  1.
    10030    2    1    2    0    0  0.00000000000E+00  0.00000000000E+00  0.80574460311E+03  0.12145327496E+04  0.90877138727E+03 0.  0.
        1    1    3    3  502    0  0.33065324086E+03  0.23658160902E+03  0.13172016692E+03  0.42737878494E+03  0.50400001928E-02 0.  1.
       -1    1    3    3    0  502 -0.33065324086E+03 -0.23658160902E+03  0.67402443619E+03  0.78715396462E+03  0.50400001928E-02 0. -1.
</event>
<event>
 5   0  0.2628383E-02  0.8900011E+03  0.7818609E-02  0.9438168E-01
        2   -1    0    0  501    0  0.00000000000E+00  0.00000000000E+00  0.66214449224E+03  0.66214449224E+03  0.25500000920E-02 0.  1.
       -2   -1    0    0    0  501  0.00000000000E+00  0.00000000000E+00 -0.29906686412E+03  0.29906686413E+03  0.25500000920E-02 0. -1.
    10030    2    1    2    0    0  0.00000000000E+00  0.00000000000E+00  0.36307762812E+03  0.96121135638E+03  0.89000107168E+03 0.  0.
        2    1    3    3  502    0 -0.23557485442E+03  0.95961259987E+02  0.57588559380E+03  0.62956198472E+03  0.25500000920E-02 0.  1.
       -2    1    3    3    0  502  0.23557485442E+03 -0.95961259987E+02 -0.21280796568E+03  0.33164937165E+03  0.25500000920E-02 0. -1.
</event>
<event>
 5   0  0.1559275E-02  0.8974115E+03  0.7818609E-02  0.9428823E-01
       -1   -1    0    0    0  501  0.00000000000E+00  0.00000000000E+00  0.11005823880E+04  0.11005823880E+04  0.50400001928E-02 0. -1.
        1   -1    0    0  501    0  0.00000000000E+00  0.00000000000E+00 -0.18293663580E+03  0.18293663587E+03  0.50400001928E-02 0.  1.
    10030    2    1    2    0    0  0.00000000000E+00  0.00000000000E+00  0.91764575221E+03  0.12835190239E+04  0.89741147651E+03 0.  0.
        1    1    3    3  502    0  0.98777262674E+02 -0.25199102759E+02  0.10838008606E+04  0.10885845157E+04  0.50400001928E-02 0. -1.
       -1    1    3    3    0  502 -0.98777262674E+02  0.25199102759E+02 -0.16615510840E+03  0.19493450817E+03  0.50400001928E-02 0.  1.
</event>
<event>
 5   0  0.2414128E-02  0.8880018E+03  0.7818609E-02  0.9440705E-01
        2   -1    0    0  501    0  0.00000000000E+00  0.00000000000E+00  0.70107721708E+03  0.70107721709E+03  0.25500000920E-02 0.  1.
       -2   -1    0    0    0  501  0.00000000000E+00  0.00000000000E+00 -0.28119127801E+03  0.28119127802E+03  0.25500000920E-02 0. -1.
    10030    2    1    2    0    0  0.00000000000E+00  0.00000000000E+00  0.41988593907E+03  0.98226849511E+03  0.88800179879E+03 0.  0.
        3    1    3    3  502    0 -0.17421997933E+03  0.39511485462E+02  0.65956922166E+03  0.68333397914E+03  0.10100000352E+00 0.  1.
       -3    1    3    3    0  502  0.17421997933E+03 -0.39511485462E+02 -0.23968328259E+03  0.29893451597E+03  0.10100000352E+00 0. -1.
</event>
<event>
 5   0  0.2803717E-02  0.9084771E+03  0.7818609E-02  0.9415046E-01
       -2   -1    0    0    0  501  0.00000000000E+00  0.00000000000E+00  0.16139373645E+03  0.16139373647E+03  0.25500000920E-02 0.  1.
        2   -1    0    0  501    0  0.00000000000E+00  0.00000000000E+00 -0.12784429192E+04  0.12784429192E+04  0.25500000920E-02 0. -1.
    10030    2    1    2    0    0  0.00000000000E+00  0.00000000000E+00 -0.11170491828E+04  0.14398366557E+04  0.90847714245E+03 0.  0.
        5    1    3    3  502    0 -0.22045316802E+03  0.16223569498E+03 -0.11330130637E+04  0.11656160228E+04  0.46999998093E+01 0. -1.
       -5    1    3    3    0  502  0.22045316802E+03 -0.16223569498E+03  0.15963880951E+02  0.27422063290E+03  0.46999998093E+01 0.  1.
</event>
<event>
 5   0  0.2679861E-02  0.8818072E+03  0.7818609E-02  0.9448613E-01
       -2   -1    0    0    0  501  0.00000000000E+00  0.00000000000E+00  0.45387212856E+03  0.45387212857E+03  0.25500000920E-02 0. -1.
        2   -1    0    0  501    0  0.00000000000E+00  0.00000000000E+00 -0.42830560168E+03  0.42830560168E+03  0.25500000920E-02 0.  1.
    10030    2    1    2    0    0  0.00000000000E+00  0.00000000000E+00  0.25566526886E+02  0.88217773025E+03  0.88180717873E+03 0.  0.
        1    1    3    3  502    0 -0.41046739501E+03  0.15581747127E+03  0.53215693927E+02  0.44226064354E+03  0.50400001928E-02 0.  1.
       -1    1    3    3    0  502  0.41046739501E+03 -0.15581747127E+03 -0.27649167041E+02  0.43991708671E+03  0.50400001928E-02 0. -1.
</event>
<event>
 5   0  0.1559275E-02  0.8369377E+03  0.7818609E-02  0.9508038E-01
        1   -1    0    0  501    0  0.00000000000E+00  0.00000000000E+00  0.90526323912E+03  0.90526323913E+03  0.50400001928E-02 0.  1.
       -1   -1    0    0    0  501  0.00000000000E+00  0.00000000000E+00 -0.19344225596E+03  0.19344225602E+03  0.50400001928E-02 0. -1.
    10030    2    1    2    0    0  0.00000000000E+00  0.00000000000E+00  0.71182098316E+03  0.10987054952E+04  0.83693766376E+03 0.  0.
        1    1    3    3  502    0  0.22198854985E+03  0.53889417874E+02  0.81619116311E+03  0.84755589809E+03  0.50400001928E-02 0.  1.
       -1    1    3    3    0  502 -0.22198854985E+03 -0.53889417874E+02 -0.10437017994E+03  0.25114959707E+03  0.50400001928E-02 0. -1.
</event>
<event>
 5   0  0.1560728E-02  0.1204745E+04  0.7818609E-02  0.9108714E-01
       -1   -1    0    0    0  501  0.00000000000E+00  0.00000000000E+00  0.39804465246E+03  0.39804465249E+03  0.50400001928E-02 0.  1.
        1   -1    0    0  501    0  0.00000000000E+00  0.00000000000E+00 -0.91158709264E+03  0.91158709265E+03  0.50400001928E-02 0. -1.
    10030    2    1    2    0    0  0.00000000000E+00  0.00000000000E+00 -0.51354244018E+03  0.13096317451E+04  0.12047445663E+04 0.  0.
        4    1    3    3  502    0 -0.40824362009E+03 -0.41714019278E+03 -0.41867395480E+03  0.71830236468E+03  0.12699999809E+01 0.  1.
       -4    1    3    3    0  502  0.40824362009E+03  0.41714019278E+03 -0.94868485373E+02  0.59132938046E+03  0.12699999809E+01 0. -1.
</event>
<event>
 5   0  0.1497410E-02  0.8896542E+03  0.7818609E-02  0.9438607E-01
        1   -1    0    0  501    0  0.00000000000E+00  0.00000000000E+00  0.12194138240E+04  0.12194138241E+04  0.50400001928E-02 0.  1.
       -1   -1    0    0    0  501  0.00000000000E+00  0.00000000000E+00 -0.16226744265E+03  0.16226744272E+03  0.50400001928E-02 0. -1.
    10030    2    1    2    0    0  0.00000000000E+00  0.00000000000E+00  0.10571463814E+04  0.13816812668E+04  0.88965423130E+03 0.  0.
        3    1    3    3  502    0  0.24843577229E+03 -0.34459337328E+02 -0.41977957464E+02  0.25430284701E+03  0.10100000352E+00 0. -1.
       -3    1    3    3    0  502 -0.24843577229E+03  0.34459337328E+02  0.10991243389E+04  0.11273784198E+04  0.10100000352E+00 0.  1.
</event>
<event>
 5   0  0.2705111E-02  0.9069897E+03  0.7818609E-02  0.9416886E-01
       -2   -1    0    0    0  501  0.00000000000E+00  0.00000000000E+00  0.18666926203E+03  0.18666926205E+03  0.25500000920E-02 0. -1.
        2   -1    0    0  501    0  0.00000000000E+00  0.00000000000E+00 -0.11017218070E+04  0.11017218070E+04  0.25500000920E-02 0.  1.
    10030    2    1    2    0    0  0.00000000000E+00  0.00000000000E+00 -0.91505254500E+03  0.12883910691E+04  0.90698973907E+03 0.  0.
        4    1    3    3  502    0 -0.25249927620E+03 -0.34372637151E+03 -0.23859994506E+03  0.48870773437E+03  0.12699999809E+01 0. -1.
       -4    1    3    3    0  502  0.25249927620E+03  0.34372637151E+03 -0.67645259994E+03  0.79968333471E+03  0.12699999809E+01 0.  1.
</event>
<event>
 5   0  0.2803717E-02  0.8810534E+03  0.7818609E-02  0.9449580E-01
        2   -1    0    0  501    0  0.00000000000E+00  0.00000000000E+00  0.86489052950E+03  0.86489052951E+03  0.25500000920E-02 0. -1.
       -2   -1    0    0    0  501  0.00000000000E+00  0.00000000000E+00 -0.22437957532E+03  0.22437957534E+03  0.25500000920E-02 0.  1.
    10030    2    1    2    0    0  0.00000000000E+00  0.00000000000E+00  0.64051095418E+03  0.10892701048E+04  0.88105339162E+03 0.  0.
        5    1    3    3  502    0 -0.12543537952E+03 -0.47252856077E+02  0.83903398407E+03  0.84968640290E+03  0.46999998093E+01 0. -1.
       -5    1    3    3    0  502  0.12543537952E+03  0.47252856077E+02 -0.19852302990E+03  0.23958370195E+03  0.46999998093E+01 0.  1.
</event>
<event>
 5   0  0.2628383E-02  0.8784995E+03  0.7818609E-02  0.9452865E-01
        2   -1    0    0  501    0  0.00000000000E+00  0.00000000000E+00  0.74016933901E+03  0.74016933902E+03  0.25500000920E-02 0. -1.
       -2   -1    0    0    0  501  0.00000000000E+00  0.00000000000E+00 -0.26067052007E+03  0.26067052009E+03  0.25500000920E-02 0.  1.
    10030    2    1    2    0    0  0.00000000000E+00  0.00000000000E+00  0.47949881894E+03  0.10008398591E+04  0.87849946284E+03 0.  0.
        2    1    3    3  502    0  0.20001064552E+03 -0.73714159136E+02 -0.19779533898E+03  0.29079379585E+03  0.25500000920E-02 0.  1.
       -2    1    3    3    0  502 -0.20001064552E+03  0.73714159136E+02  0.67729415792E+03  0.71004606325E+03  0.25500000920E-02 0. -1.
</event>
<event>
 5   0  0.2414128E-02  0.8995807E+03  0.7818609E-02  0.9426106E-01
        2   -1    0    0  501    0  0.00000000000E+00  0.00000000000E+00  0.61105503284E+03  0.61105503285E+03  0.25500000920E-02 0. -1.
       -2   -1    0    0    0  501  0.00000000000E+00  0.00000000000E+00 -0.33108529639E+03  0.33108529640E+03  0.25500000920E-02 0.  1.
    10030    2    1    2    0    0  0.00000000000E+00  0.00000000000E+00  0.27996973645E+03  0.94214032925E+03  0.89958065046E+03 0.  0.
        3    1    3    3  502    0 -0.34427166489E+03  0.23141432463E+03  0.32209575810E+03  0.52518687767E+03  0.10100000352E+00 0. -1.
       -3    1    3    3    0  502  0.34427166489E+03 -0.23141432463E+03 -0.42126021650E+02  0.41695345159E+03  0.10100000352E+00 0.  1.
</event>
<event>
 5   0  0.2628383E-02  0.8979197E+03  0.7818609E-02  0.9428186E-01
        2   -1    0    0  501    0  0.00000000000E+00  0.00000000000E+00  0.10942815375E+04  0.10942815375E+04  0.25500000920E-02 0. -1.
       -2   -1    0    0    0  501  0.00000000000E+00  0.00000000000E+00 -0.18419843680E+03  0.18419843682E+03  0.25500000920E-02 0.  1.
    10030    2    1    2    0    0  0.00000000000E+00  0.00000000000E+00  0.91008310073E+03  0.12784799743E+04  0.89791970386E+03 0.  0.
        2    1    3    3  502    0 -0.29952247497E+03 -0.11053714776E+03  0.90446687458E+03  0.95916239567E+03  0.25500000920E-02 0. -1.
       -2    1    3    3    0  502  0.29952247497E+03  0.11053714776E+03  0.56162261498E+01  0.31931757868E+03  0.25500000920E-02 0.  1.
</event>
<event>
 5   0  0.2414128E-02  0.9049340E+03  0.7818609E-02  0.9419435E-01
        2   -1    0    0  501    0  0.00000000000E+00  0.00000000000E+00  0.56217635524E+03  0.56217635525E+03  0.25500000920E-02 0.  1.
       -2   -1    0    0    0  501  0.00000000000E+00  0.00000000000E+00 -0.36416758777E+03  0.36416758778E+03  0.25500000920E-02 0. -1.
    10030    2    1    2    0    0  0.00000000000E+00  0.00000000000E+00  0.19800876747E+03  0.92634394303E+03  0.90493404665E+03 0.  0.
        3    1    3    3  502    0 -0.12223405332E+03  0.35299254990E+03 -0.16234259854E+03  0.40730827830E+03  0.10100000352E+00 0. -1.
       -3    1    3    3    0  502  0.12223405332E+03 -0.35299254990E+03  0.36035136601E+03  0.51903566473E+03  0.10100000352E+00 0.  1.
</event>
<event>
 5   0  0.2414128E-02  0.9085089E+03  0.7818609E-02  0.9415007E-01
       -2   -1    0    0    0  501  0.00000000000E+00  0.00000000000E+00  0.16989007275E+03  0.16989007277E+03  0.25500000920E-02 0. -1.
        2   -1    0    0  501    0  0.00000000000E+00  0.00000000000E+00 -0.12145919675E+04  0.12145919675E+04  0.25500000920E-02 0.  1.
    10030    2    1    2    0    0  0.00000000000E+00  0.00000000000E+00 -0.10447018947E+04  0.13844820403E+04  0.90850892727E+03 0.  0.
        3    1    3    3  502    0 -0.11257777185E+03  0.77904763877E+02  0.13770296004E+03  0.19417781118E+03  0.10100000352E+00 0. -1.
       -3    1    3    3    0  502  0.11257777185E+03 -0.77904763877E+02 -0.11824048548E+04  0.11903042291E+04  0.10100000352E+00 0.  1.
</event>
<event>
 5   0  0.2705111E-02  0.8851824E+03  0.7818609E-02  0.9444296E-01
        2   -1    0    0  501    0  0.00000000000E+00  0.00000000000E+00  0.84582810546E+03  0.84582810547E+03  0.25500000920E-02 0.  1.
       -2   -1    0    0    0  501  0.00000000000E+00  0.00000000000E+00 -0.23159192277E+03  0.23159192279E+03  0.25500000920E-02 0. -1.
    10030    2    1    2    0    0  0.00000000000E+00  0.00000000000E+00  0.61423618269E+03  0.10774200283E+04  0.88518237056E+03 0.  0.
        4    1    3    3  502    0  0.12346603132E+03  0.94032612426E+02  0.81162027271E+03  0.82632625098E+03  0.12699999809E+01 0.  1.
       -4    1    3    3    0  502 -0.12346603132E+03 -0.94032612426E+02 -0.19738409002E+03  0.25109377727E+03  0.12699999809E+01 0. -1.
</event>
<event>
 5   0  0.1497410E-02  0.4875100E+03  0.7818609E-02  0.1017091E+00
        1   -1    0    0  501    0  0.00000000000E+00  0.00000000000E+00  0.19294430226E+03  0.19294430232E+03  0.50400001928E-02 0.  1.
       -1   -1    0    0    0  501  0.00000000000E+00  0.00000000000E+00 -0.30794636114E+03  0.30794636118E+03  0.50400001928E-02 0. -1.
    10030    2    1    2    0    0  0.00000000000E+00  0.00000000000E+00 -0.11500205888E+03  0.50089066350E+03  0.48750998270E+03 0.  0.
        3    1    3    3  502    0 -0.17751399972E+03 -0.16336722205E+03 -0.93335462172E+02  0.25867274313E+03  0.10100000352E+00 0.  1.
       -3    1    3    3    0  502  0.17751399972E+03  0.16336722205E+03 -0.21666596711E+02  0.24221792037E+03  0.10100000352E+00 0. -1.
</event>
<event>
 5   0  0.1459111E-02  0.9128760E+03  0.7818609E-02  0.9409627E-01
       -1   -1    0    0    0  501  0.00000000000E+00  0.00000000000E+00  0.63042064972E+03  0.63042064974E+03  0.50400001928E-02 0.  1.
        1   -1    0    0  501    0  0.00000000000E+00  0.00000000000E+00 -0.33047082983E+03  0.33047082987E+03  0.50400001928E-02 0. -1.
    10030    2    1    2    0    0  0.00000000000E+00  0.00000000000E+00  0.29994981989E+03  0.96089147961E+03  0.91287597249E+03 0.  0.
        2    1    3    3  502    0  0.81573530143E+02  0.40464661128E+03  0.35500878519E+03  0.54444867381E+03  0.25500000920E-02 0. -1.
       -2    1    3    3    0  502 -0.81573530143E+02 -0.40464661128E+03 -0.55058965298E+02  0.41644280581E+03  0.25500000920E-02 0.  1.
</event>
<event>
 5   0  0.1459111E-02  0.8793774E+03  0.7818609E-02  0.9451734E-01
        1   -1    0    0  501    0  0.00000000000E+00  0.00000000000E+00  0.24249915498E+03  0.24249915503E+03  0.50400001928E-02 0.  1.
       -1   -1    0    0    0  501  0.00000000000E+00  0.00000000000E+00 -0.79722397535E+03  0.79722397537E+03  0.50400001928E-02 0. -1.
    10030    2    1    2    0    0  0.00000000000E+00  0.00000000000E+00 -0.55472482037E+03  0.10397231304E+04  0.87937737153E+03 0.  0.
        2    1    3    3  502    0 -0.25931045682E+03  0.32421979398E+03 -0.10616481983E+03  0.42852229441E+03  0.25500000920E-02 0.  1.
       -2    1    3    3    0  502  0.25931045682E+03 -0.32421979398E+03 -0.44856000054E+03  0.61120083600E+03  0.25500000920E-02 0. -1.
</event>
<event>
 5   0  0.1497410E-02  0.9047630E+03  0.7818609E-02  0.9419647E-01
       -1   -1    0    0    0  501  0.00000000000E+00  0.00000000000E+00  0.28258869879E+03  0.28258869883E+03  0.50400001928E-02 0. -1.
        1   -1    0    0  501    0  0.00000000000E+00  0.00000000000E+00 -0.72419394324E+03  0.72419394326E+03  0.50400001928E-02 0.  1.
    10030    2    1    2    0    0  0.00000000000E+00  0.00000000000E+00 -0.44160524446E+03  0.10067826421E+04  0.90476300570E+03 0.  0.
        3    1    3    3  502    0  0.42906900973E+03  0.31123342800E+02 -0.37650983847E+03  0.57168920424E+03  0.10100000352E+00 0. -1.
       -3    1    3    3    0  502 -0.42906900973E+03 -0.31123342800E+02 -0.65095405982E+02  0.43509343785E+03  0.10100000352E+00 0.  1.
</event>
<event>
 5   0  0.2679861E-02  0.9154931E+03  0.7818609E-02  0.9406419E-01
        2   -1    0    0  501    0  0.00000000000E+00  0.00000000000E+00  0.38279326667E+03  0.38279326668E+03  0.25500000920E-02 0.  1.
       -2   -1    0    0    0  501  0.00000000000E+00  0.00000000000E+00 -0.54737615859E+03  0.54737615859E+03  0.25500000920E-02 0. -1.
    10030    2    1    2    0    0  0.00000000000E+00  0.00000000000E+00 -0.16458289192E+03  0.93016942527E+03  0.91549310832E+03 0.  0.
        1    1    3    3  502    0 -0.10490180204E+03  0.13948748763E+03  0.34765990693E+03  0.38900971477E+03  0.50400001928E-02 0.  1.
       -1    1    3    3    0  502  0.10490180204E+03 -0.13948748763E+03 -0.51224279884E+03  0.54115971050E+03  0.50400001928E-02 0. -1.
</event>
<event>
 5   0  0.1497410E-02  0.8662596E+03  0.7818609E-02  0.9468770E-01
       -1   -1    0    0    0  501  0.00000000000E+00  0.00000000000E+00  0.13220827935E+03  0.13220827945E+03  0.50400001928E-02 0.  1.
        1   -1    0    0  501    0  0.00000000000E+00  0.00000000000E+00 -0.14189838495E+04  0.14189838495E+04  0.50400001928E-02 0. -1.
    10030    2    1    2    0    0  0.00000000000E+00  0.00000000000E+00 -0.12867755701E+04  0.15511921290E+04  0.86625957600E+03 0.  0.
        3    1    3    3  502    0 -0.15224034958E+02  0.85295600436E+02  0.11653159161E+03  0.14521271548E+03  0.10100000352E+00 0.  1.
       -3    1    3    3    0  502  0.15224034958E+02 -0.85295600436E+02 -0.14033071618E+04  0.14059794135E+04  0.10100000352E+00 0. -1.
</event>
<event>
 5   0  0.2414128E-02  0.8979264E+03  0.7818609E-02  0.9428177E-01
        2   -1    0    0  501    0  0.00000000000E+00  0.00000000000E+00  0.10068380415E+04  0.10068380415E+04  0.25500000920E-02 0. -1.
       -2   -1    0    0    0  501  0.00000000000E+00  0.00000000000E+00 -0.20019898744E+03  0.20019898745E+03  0.25500000920E-02 0.  1.
    10030    2    1    2    0    0  0.00000000000E+00  0.00000000000E+00  0.80663905407E+03  0.12070370290E+04  0.89792640330E+03 0.  0.
        3    1    3    3  502    0 -0.36544752065E+03  0.23612116757E+03  0.55217868614E+03  0.70299815629E+03  0.10100000352E+00 0. -1.
       -3    1    3    3    0  502  0.36544752065E+03 -0.23612116757E+03  0.25446036792E+03  0.50403887267E+03  0.10100000352E+00 0.  1.
</event>
<event>
 5   0  0.1559275E-02  0.9049426E+03  0.7818609E-02  0.9419424E-01
        1   -1    0    0  501    0  0.00000000000E+00  0.00000000000E+00  0.15832029571E+04  0.15832029571E+04  0.50400001928E-02 0.  1.
       -1   -1    0    0    0  501  0.00000000000E+00  0.00000000000E+00 -0.12931399303E+03  0.12931399313E+03  0.50400001928E-02 0. -1.
    10030    2    1    2    0    0  0.00000000000E+00  0.00000000000E+00  0.14538889641E+04  0.17125169503E+04  0.90494264183E+03 0.  0.
        1    1    3    3  502    0 -0.11908052873E+03  0.39201079507E+03  0.10903533379E+04  0.11647845454E+04  0.50400001928E-02 0.  1.
       -1    1    3    3    0  502  0.11908052873E+03 -0.39201079507E+03  0.36353562624E+03  0.54773240487E+03  0.50400001928E-02 0. -1.
</event>
<event>
 5   0  0.2705111E-02  0.8993212E+03  0.7818609E-02  0.9426430E-01
        2   -1    0    0  501    0  0.00000000000E+00  0.00000000000E+00  0.20117862919E+04  0.20117862919E+04  0.25500000920E-02 0. -1.
       -2   -1    0    0    0  501  0.00000000000E+00  0.00000000000E+00 -0.10050503943E+03  0.10050503946E+03  0.25500000920E-02 0.  1.
    10030    2    1    2    0    0  0.00000000000E+00  0.00000000000E+00  0.19112812525E+04  0.21122913314E+04  0.89932121210E+03 0.  0.
        4    1    3    3  502    0  0.33594019427E+03 -0.29192026366E+03  0.80488390220E+03  0.91973526810E+03  0.12699999809E+01 0.  1.
       -4    1    3    3    0  502 -0.33594019427E+03  0.29192026366E+03  0.11063973503E+04  0.11925560633E+04  0.12699999809E+01 0. -1.
</event>
<event>
 5   0  0.2705111E-02  0.9260880E+03  0.7818609E-02  0.9393545E-01
        2   -1    0    0  501    0  0.00000000000E+00  0.00000000000E+00  0.18554053331E+04  0.18554053331E+04  0.25500000920E-02 0. -1.
       -2   -1    0    0    0  501  0.00000000000E+00  0.00000000000E+00 -0.11555951197E+03  0.11555951199E+03  0.25500000920E-02 0.  1.
    10030    2    1    2    0    0  0.00000000000E+00  0.00000000000E+00  0.17398458212E+04  0.19709648451E+04  0.92608797601E+03 0.  0.
        4    1    3    3  502    0 -0.31479318552E+03  0.33901474822E+03  0.82830597409E+03  0.94874556588E+03  0.12699999809E+01 0.  1.
       -4    1    3    3    0  502  0.31479318552E+03 -0.33901474822E+03  0.91153984709E+03  0.10222192793E+04  0.12699999809E+01 0. -1.
</event>
<event>
 5   0  0.1537870E-02  0.9884336E+03  0.7818609E-02  0.9321322E-01
        1   -1    0    0  501    0  0.00000000000E+00  0.00000000000E+00  0.93912754614E+03  0.93912754615E+03  0.50400001928E-02 0.  1.
       -1   -1    0    0    0  501  0.00000000000E+00  0.00000000000E+00 -0.26008205513E+03  0.26008205518E+03  0.50400001928E-02 0. -1.
    10030    2    1    2    0    0  0.00000000000E+00  0.00000000000E+00  0.67904549100E+03  0.11992096013E+04  0.98843355319E+03 0.  0.
        5    1    3    3  502    0 -0.15721342271E+03 -0.29031908987E+03 -0.10662547024E+03  0.34697595756E+03  0.46999998093E+01 0. -1.
       -5    1    3    3    0  502  0.15721342271E+03  0.29031908987E+03  0.78567096125E+03  0.85223364377E+03  0.46999998093E+01 0.  1.
</event>
<event>
 5   0  0.1497410E-02  0.8797147E+03  0.7818609E-02  0.9451300E-01
       -1   -1    0    0    0  501  0.00000000000E+00  0.00000000000E+00  0.56045257557E+03  0.56045257559E+03  0.50400001928E-02 0.  1.
        1   -1    0    0  501    0  0.00000000000E+00  0.00000000000E+00 -0.34521118897E+03  0.34521118900E+03  0.50400001928E-02 0. -1.
    10030    2    1    2    0    0  0.00000000000E+00  0.00000000000E+00  0.21524138660E+03  0.90566376459E+03  0.87971472648E+03 0.  0.
        3    1    3    3  502    0  0.39829134613E+03  0.43020391792E+02  0.29460338470E+03  0.49727046463E+03  0.10100000352E+00 0.  1.
       -3    1    3    3    0  502 -0.39829134613E+03 -0.43020391792E+02 -0.79361998102E+02  0.40839329996E+03  0.10100000352E+00 0. -1.
</event>
<event>
 5   0  0.1459111E-02  0.9309597E+03  0.7818609E-02  0.9387687E-01
        1   -1    0    0  501    0  0.00000000000E+00  0.00000000000E+00  0.11013405381E+04  0.11013405381E+04  0.50400001928E-02 0. -1.
       -1   -1    0    0    0  501  0.00000000000E+00  0.00000000000E+00 -0.19673432404E+03  0.19673432410E+03  0.50400001928E-02 0.  1.
    10030    2    1    2    0    0  0.00000000000E+00  0.00000000000E+00  0.90460621409E+03  0.12980748622E+04  0.93095969055E+03 0.  0.
        2    1    3    3  502    0 -0.38690806451E+02 -0.20385503191E+03 -0.12868304271E+03  0.24415810047E+03  0.25500000920E-02 0.  1.
       -2    1    3    3    0  502  0.38690806451E+02  0.20385503191E+03  0.10332892568E+04  0.10539167618E+04  0.25500000920E-02 0. -1.
</event>
<event>
 5   0  0.2705111E-02  0.8992542E+03  0.7818609E-02  0.9426514E-01
        2   -1    0    0  501    0  0.00000000000E+00  0.00000000000E+00  0.47449207656E+03  0.47449207657E+03  0.25500000920E-02 0.  1.
       -2   -1    0    0    0  501  0.00000000000E+00  0.00000000000E+00 -0.42606509252E+03  0.42606509253E+03  0.25500000920E-02 0. -1.
    10030    2    1    2    0    0  0.00000000000E+00  0.00000000000E+00  0.48426984041E+02  0.90055716910E+03  0.89925415876E+03 0.  0.
        4    1    3    3  502    0 -0.26062988477E+03 -0.35037346569E+03  0.13148263518E+03  0.45604692582E+03  0.12699999809E+01 0.  1.
       -4    1    3    3    0  502  0.26062988477E+03  0.35037346569E+03 -0.83055651139E+02  0.44451024328E+03  0.12699999809E+01 0. -1.
</event>
<event>
 5   0  0.1497410E-02  0.9299755E+03  0.7818609E-02  0.9388867E-01
        1   -1    0    0  501    0  0.00000000000E+00  0.00000000000E+00  0.17780221699E+03  0.17780221706E+03  0.50400001928E-02 0.  1.
       -1   -1    0    0    0  501  0.00000000000E+00  0.00000000000E+00 -0.12160343369E+04  0.12160343369E+04  0.50400001928E-02 0. -1.
    10030    2    1    2    0    0  0.00000000000E+00  0.00000000000E+00 -0.10382321199E+04  0.13938365539E+04  0.92997548589E+03 0.  0.
        3    1    3    3  502    0  0.25898385767E+03  0.23084544435E+03 -0.55093144888E+02  0.35127983507E+03  0.10100000352E+00 0.  1.
       -3    1    3    3    0  502 -0.25898385767E+03 -0.23084544435E+03 -0.98313897499E+03  0.10425567189E+04  0.10100000352E+00 0. -1.
</event>
<event>
 5   0  0.2628383E-02  0.8080626E+03  0.7818609E-02  0.9548420E-01
        2   -1    0    0  501    0  0.00000000000E+00  0.00000000000E+00  0.96734653246E+03  0.96734653247E+03  0.25500000920E-02 0. -1.
       -2   -1    0    0    0  501  0.00000000000E+00  0.00000000000E+00 -0.16875161991E+03  0.16875161993E+03  0.25500000920E-02 0.  1.
    10030    2    1    2    0    0  0.00000000000E+00  0.00000000000E+00  0.79859491256E+03  0.11360981524E+04  0.80806260742E+03 0.  0.
        2    1    3    3  502    0 -0.16851152175E+03  0.12219581442E+03  0.88615802355E+03  0.91027687696E+03  0.25500000920E-02 0. -1.
       -2    1    3    3    0  502  0.16851152175E+03 -0.12219581442E+03 -0.87563110990E+02  0.22582127543E+03  0.25500000920E-02 0.  1.
</event>
<event>
 5   0  0.2705111E-02  0.9249127E+03  0.7818609E-02  0.9394964E-01
        2   -1    0    0  501    0  0.00000000000E+00  0.00000000000E+00  0.11925227589E+04  0.11925227589E+04  0.25500000920E-02 0. -1.
       -2   -1    0    0    0  501  0.00000000000E+00  0.00000000000E+00 -0.17933904488E+03  0.17933904490E+03  0.25500000920E-02 0.  1.
    10030    2    1    2    0    0  0.00000000000E+00  0.00000000000E+00  0.10131837140E+04  0.13718618038E+04  0.92491273662E+03 0.  0.
        4    1    3    3  502    0 -0.72004205799E+02 -0.12254058396E+03 -0.14613798628E+03  0.20385957005E+03  0.12699999809E+01 0.  1.
       -4    1    3    3    0  502  0.72004205799E+02  0.12254058396E+03  0.11593217003E+04  0.11680022337E+04  0.12699999809E+01 0. -1.
</event>
<event>
 5   0  0.1537870E-02  0.9385880E+03  0.7818609E-02  0.9378590E-01
       -1   -1    0    0    0  501  0.00000000000E+00  0.00000000000E+00  0.14663786595E+03  0.14663786603E+03  0.50400001928E-02 0.  1.
        1   -1    0    0  501    0  0.00000000000E+00  0.00000000000E+00 -0.15019098010E+04  0.15019098010E+04  0.50400001928E-02 0. -1.
    10030    2    1    2    0    0  0.00000000000E+00  0.00000000000E+00 -0.13552719351E+04  0.16485476671E+04  0.93858797807E+03 0.  0.
        5    1    3    3  502    0  0.18097316868E+03  0.37034520590E+03 -0.10715891483E+04  0.11481429580E+04  0.46999998093E+01 0. -1.
       -5    1    3    3    0  502 -0.18097316868E+03 -0.37034520590E+03 -0.28368278678E+03  0.50040470904E+03  0.46999998093E+01 0.  1.
</event>
<event>
 5   0  0.1040163E-02  0.9129160E+03  0.7818609E-02  0.9409578E-01
       -4   -1    0    0    0  501  0.00000000000E+00  0.00000000000E+00  0.19195943367E+03  0.19196363478E+03  0.12699999809E+01 0.  1.
        4   -1    0    0  501    0  0.00000000000E+00  0.00000000000E+00 -0.10853894465E+04  0.10853901895E+04  0.12699999809E+01 0. -1.
    10030    2    1    2    0    0  0.00000000000E+00  0.00000000000E+00 -0.89343001285E+03  0.12773538243E+04  0.91291598989E+03 0.  0.
        4    1    3    3  502    0 -0.23086697743E+03 -0.38432989492E+03 -0.56661656198E+03  0.72254063596E+03  0.12699999809E+01 0. -1.
       -4    1    3    3    0  502  0.23086697743E+03  0.38432989492E+03 -0.32681345087E+03  0.55481318835E+03  0.12699999809E+01 0.  1.
</event>
<event>
 5   0  0.2628383E-02  0.8981621E+03  0.7818609E-02  0.9427882E-01
       -2   -1    0    0    0  501  0.00000000000E+00  0.00000000000E+00  0.11740924421E+03  0.11740924423E+03  0.25500000920E-02 0.  1.
        2   -1    0    0  501    0  0.00000000000E+00  0.00000000000E+00 -0.17176993274E+04  0.17176993274E+04  0.25500000920E-02 0. -1.
    10030    2    1    2    0    0  0.00000000000E+00  0.00000000000E+00 -0.16002900832E+04  0.18351085717E+04  0.89816207854E+03 0.  0.
        2    1    3    3  502    0 -0.29714971282E+03 -0.21262061785E+03 -0.26668943536E+03  0.45235907629E+03  0.25500000920E-02 0.  1.
       -2    1    3    3    0  502  0.29714971282E+03  0.21262061785E+03 -0.13336006479E+04  0.13827494954E+04  0.25500000920E-02 0. -1.
</event>
<event>
 5   0  0.2414128E-02  0.8905376E+03  0.7818609E-02  0.9437488E-01
       -2   -1    0    0    0  501  0.00000000000E+00  0.00000000000E+00  0.64082953021E+03  0.64082953022E+03  0.25500000920E-02 0.  1.
        2   -1    0    0  501    0  0.00000000000E+00  0.00000000000E+00 -0.30938695584E+03  0.30938695585E+03  0.25500000920E-02 0. -1.
    10030    2    1    2    0    0  0.00000000000E+00  0.00000000000E+00  0.33144257437E+03  0.95021648607E+03  0.89053758500E+03 0.  0.
        3    1    3    3  502    0  0.76515394010E+02  0.16261932174E+02 -0.30199782102E+03  0.31196434101E+03  0.10100000352E+00 0. -1.
       -3    1    3    3    0  502 -0.76515394010E+02 -0.16261932174E+02  0.63344039539E+03  0.63825214506E+03  0.10100000352E+00 0.  1.
</event>
<event>
 5   0  0.2803717E-02  0.9011783E+03  0.7818609E-02  0.9424110E-01
        2   -1    0    0  501    0  0.00000000000E+00  0.00000000000E+00  0.89404088017E+03  0.89404088017E+03  0.25500000920E-02 0.  1.
       -2   -1    0    0    0  501  0.00000000000E+00  0.00000000000E+00 -0.22709319293E+03  0.22709319294E+03  0.25500000920E-02 0. -1.
    10030    2    1    2    0    0  0.00000000000E+00  0.00000000000E+00  0.66694768724E+03  0.11211340731E+04  0.90117833551E+03 0.  0.
        5    1    3    3  502    0  0.36385309539E+03 -0.36248815674E+02  0.59593505158E+01  0.36573303860E+03  0.46999998093E+01 0. -1.
       -5    1    3    3    0  502 -0.36385309539E+03  0.36248815674E+02  0.66098833672E+03  0.75540103452E+03  0.46999998093E+01 0.  1.
</event>
<event>
 5   0  0.1459111E-02  0.9747058E+03  0.7818609E-02  0.9336730E-01
       -1   -1    0    0    0  501  0.00000000000E+00  0.00000000000E+00  0.14483266637E+03  0.14483266646E+03  0.50400001928E-02 0.  1.
        1   -1    0    0  501    0  0.00000000000E+00  0.00000000000E+00 -0.16399121892E+04  0.16399121892E+04  0.50400001928E-02 0. -1.
    10030    2    1    2    0    0  0.00000000000E+00  0.00000000000E+00 -0.14950795228E+04  0.17847448557E+04  0.97470581214E+03 0.  0.
        2    1    3    3  502    0 -0.72262412082E+02 -0.16671577973E+03  0.80489895562E+02  0.19873256076E+03  0.25500000920E-02 0.  1.
       -2    1    3    3    0  502  0.72262412082E+02  0.16671577973E+03 -0.15755694184E+04  0.15860122949E+04  0.25500000920E-02 0. -1.
</event>
<event>
 5   0  0.2628383E-02  0.8665923E+03  0.7818609E-02  0.9468334E-01
       -2   -1    0    0    0  501  0.00000000000E+00  0.00000000000E+00  0.11856534156E+03  0.11856534159E+03  0.25500000920E-02 0. -1.
        2   -1    0    0  501    0  0.00000000000E+00  0.00000000000E+00 -0.15834776150E+04  0.15834776150E+04  0.25500000920E-02 0.  1.
    10030    2    1    2    0    0  0.00000000000E+00  0.00000000000E+00 -0.14649122735E+04  0.17020429566E+04  0.86659232469E+03 0.  0.
        2    1    3    3  502    0 -0.26566578295E+02  0.37932283882E+03 -0.11404616502E+04  0.12021831702E+04  0.25500000920E-02 0.  1.
       -2    1    3    3    0  502  0.26566578295E+02 -0.37932283882E+03 -0.32445062327E+03  0.49985978642E+03  0.25500000920E-02 0. -1.
</event>
<event>
 5   0  0.1040163E-02  0.7414950E+03  0.7818609E-02  0.9648789E-01
       -4   -1    0    0    0  501  0.00000000000E+00  0.00000000000E+00  0.12854742582E+03  0.12855369922E+03  0.12699999809E+01 0. -1.
        4   -1    0    0  501    0  0.00000000000E+00  0.00000000000E+00 -0.10692513854E+04  0.10692521397E+04  0.12699999809E+01 0.  1.
    10030    2    1    2    0    0  0.00000000000E+00  0.00000000000E+00 -0.94070395963E+03  0.11978058389E+04  0.74149503573E+03 0.  0.
        5    1    3    3  502    0  0.86509442000E+02  0.23690442250E+03 -0.31440347408E+02  0.25420105114E+03  0.46999998093E+01 0. -1.
       -5    1    3    3    0  502 -0.86509442000E+02 -0.23690442250E+03 -0.90926361222E+03  0.94360478775E+03  0.46999998093E+01 0.  1.
</event>
<event>
 5   0  0.2803717E-02  0.9102946E+03  0.7818609E-02  0.9412803E-01
       -2   -1    0    0    0  501  0.00000000000E+00  0.00000000000E+00  0.26315379010E+03  0.26315379012E+03  0.25500000920E-02 0. -1.
        2   -1    0    0  501    0  0.00000000000E+00  0.00000000000E+00 -0.78721668637E+03  0.78721668638E+03  0.25500000920E-02 0.  1.
    10030    2    1    2    0    0  0.00000000000E+00  0.00000000000E+00 -0.52406289627E+03  0.10503704765E+04  0.91029457795E+03 0.  0.
        5    1    3    3  502    0  0.33028535288E+02 -0.82995946914E+02 -0.77697444893E+03  0.78210651169E+03  0.46999998093E+01 0.  1.
       -5    1    3    3    0  502 -0.33028535288E+02  0.82995946914E+02  0.25291155265E+03  0.26826396480E+03  0.46999998093E+01 0. -1.
</event>
<event>
 5   0  0.1560728E-02  0.9138083E+03  0.7818609E-02  0.9408483E-01
        1   -1    0    0  501    0  0.00000000000E+00  0.00000000000E+00  0.63553388985E+03  0.63553388987E+03  0.50400001928E-02 0.  1.
       -1   -1    0    0    0  501  0.00000000000E+00  0.00000000000E+00 -0.32848196145E+03  0.32848196149E+03  0.50400001928E-02 0. -1.
    10030    2    1    2    0    0  0.00000000000E+00  0.00000000000E+00  0.30705192840E+03  0.96401585136E+03  0.91380833600E+03 0.  0.
        4    1    3    3  502    0  0.45518753915E+03  0.38533837955E+02  0.14413439990E+03  0.47901658697E+03  0.12699999809E+01 0.  1.
       -4    1    3    3    0  502 -0.45518753915E+03 -0.38533837955E+02  0.16291752850E+03  0.48499926438E+03  0.12699999809E+01 0. -1.
</event>
<event>
 5   0  0.1459111E-02  0.1087668E+04  0.7818609E-02  0.9217296E-01
        1   -1    0    0  501    0  0.00000000000E+00  0.00000000000E+00  0.82105337370E+03  0.82105337371E+03  0.50400001928E-02 0.  1.
       -1   -1    0    0    0  501  0.00000000000E+00  0.00000000000E+00 -0.36021431647E+03  0.36021431651E+03  0.50400001928E-02 0. -1.
    10030    2    1    2    0    0  0.00000000000E+00  0.00000000000E+00  0.46083905723E+03  0.11812676902E+04  0.10876675592E+04 0.  0.
        2    1    3    3  502    0 -0.23332130598E+03 -0.19715019180E+03 -0.25824302038E+03  0.39999560939E+03  0.25500000920E-02 0. -1.
       -2    1    3    3    0  502  0.23332130598E+03  0.19715019180E+03  0.71908207760E+03  0.78127208083E+03  0.25500000920E-02 0.  1.
</event>
<event>
 5   0  0.1559275E-02  0.7737560E+03  0.7818609E-02  0.9598801E-01
        1   -1    0    0  501    0  0.00000000000E+00  0.00000000000E+00  0.11787350524E+04  0.11787350524E+04  0.50400001928E-02 0.  1.
       -1   -1    0    0    0  501  0.00000000000E+00  0.00000000000E+00 -0.12697899547E+03  0.12697899557E+03  0.50400001928E-02 0. -1.
    10030    2    1    2    0    0  0.00000000000E+00  0.00000000000E+00  0.10517560569E+04  0.13057140480E+04  0.77375601568E+03 0.  0.
        1    1    3    3  502    0  0.28733156952E+03  0.24633705587E+03  0.39052806643E+03  0.54383227803E+03  0.50400001928E-02 0.  1.
       -1    1    3    3    0  502 -0.28733156952E+03 -0.24633705587E+03  0.66122799049E+03  0.76188176994E+03  0.50400001928E-02 0. -1.
</event>
<event>
 5   0  0.2803717E-02  0.8867648E+03  0.7818609E-02  0.9442279E-01
       -2   -1    0    0    0  501  0.00000000000E+00  0.00000000000E+00  0.98883823639E+02  0.98883823672E+02  0.25500000920E-02 0.  1.
        2   -1    0    0  501    0  0.00000000000E+00  0.00000000000E+00 -0.19880700167E+04  0.19880700167E+04  0.25500000920E-02 0. -1.
    10030    2    1    2    0    0  0.00000000000E+00  0.00000000000E+00 -0.18891861930E+04  0.20869538403E+04  0.88676482778E+03 0.  0.
        5    1    3    3  502    0  0.13816796972E+03 -0.38597320281E+03 -0.54728433846E+03  0.68381864428E+03  0.46999998093E+01 0.  1.
       -5    1    3    3    0  502 -0.13816796972E+03  0.38597320281E+03 -0.13419018546E+04  0.14031351961E+04  0.46999998093E+01 0. -1.
</event>
<event>
 5   0  0.1537870E-02  0.8919058E+03  0.7818609E-02  0.9435757E-01
        1   -1    0    0  501    0  0.00000000000E+00  0.00000000000E+00  0.37693539351E+03  0.37693539354E+03  0.50400001928E-02 0.  1.
       -1   -1    0    0    0  501  0.00000000000E+00  0.00000000000E+00 -0.52760763031E+03  0.52760763034E+03  0.50400001928E-02 0. -1.
    10030    2    1    2    0    0  0.00000000000E+00  0.00000000000E+00 -0.15067223681E+03  0.90454302388E+03  0.89190580170E+03 0.  0.
        5    1    3    3  502    0 -0.36163549480E+03  0.68359761284E+02  0.18002226105E+03  0.40973575940E+03  0.46999998093E+01 0.  1.
       -5    1    3    3    0  502  0.36163549480E+03 -0.68359761284E+02 -0.33069449786E+03  0.49480726447E+03  0.46999998093E+01 0. -1.
</event>
<event>
 5   0  0.1497410E-02  0.9133748E+03  0.7818609E-02  0.9409015E-01
       -1   -1    0    0    0  501  0.00000000000E+00  0.00000000000E+00  0.86797269879E+03  0.86797269881E+03  0.50400001928E-02 0. -1.
        1   -1    0    0  501    0  0.00000000000E+00  0.00000000000E+00 -0.24028794022E+03  0.24028794027E+03  0.50400001928E-02 0.  1.
    10030    2    1    2    0    0  0.00000000000E+00  0.00000000000E+00  0.62768475857E+03  0.11082606391E+04  0.91337477959E+03 0.  0.
        3    1    3    3  502    0  0.41192980699E+02 -0.18401057279E+03 -0.19084708751E+03  0.26828971946E+03  0.10100000352E+00 0.  1.
       -3    1    3    3    0  502 -0.41192980699E+02  0.18401057279E+03  0.81853184608E+03  0.83997091962E+03  0.10100000352E+00 0. -1.
</event>
<event>
 5   0  0.2679861E-02  0.9533930E+03  0.7818609E-02  0.9361193E-01
       -2   -1    0    0    0  501  0.00000000000E+00  0.00000000000E+00  0.30316941372E+03  0.30316941373E+03  0.25500000920E-02 0.  1.
        2   -1    0    0  501    0  0.00000000000E+00  0.00000000000E+00 -0.74954646170E+03  0.74954646171E+03  0.25500000920E-02 0. -1.
    10030    2    1    2    0    0  0.00000000000E+00  0.00000000000E+00 -0.44637704798E+03  0.10527158754E+04  0.95339301730E+03 0.  0.
        1    1    3    3  502    0  0.15600521899E+03  0.44977411965E+03 -0.25035163043E+03  0.53787575326E+03  0.50400001928E-02 0.  1.
       -1    1    3    3    0  502 -0.15600521899E+03 -0.44977411965E+03 -0.19602541754E+03  0.51484012218E+03  0.50400001928E-02 0. -1.
</event>
<event>
 5   0  0.1559275E-02  0.9028924E+03  0.7818609E-02  0.9421973E-01
       -1   -1    0    0    0  501  0.00000000000E+00  0.00000000000E+00  0.71143156354E+02  0.71143156533E+02  0.50400001928E-02 0.  1.
        1   -1    0    0  501    0  0.00000000000E+00  0.00000000000E+00 -0.28646979353E+04  0.28646979353E+04  0.50400001928E-02 0. -1.
    10030    2    1    2    0    0  0.00000000000E+00  0.00000000000E+00 -0.27935547789E+04  0.29358410918E+04  0.90289235989E+03 0.  0.
        1    1    3    3  502    0  0.13522057783E+03  0.40231606967E+03 -0.89661441036E+03  0.99199809752E+03  0.50400001928E-02 0. -1.
       -1    1    3    3    0  502 -0.13522057783E+03 -0.40231606967E+03 -0.18969403686E+04  0.19438429943E+04  0.50400001928E-02 0.  1.
</event>
<event>
 5   0  0.2414128E-02  0.8724081E+03  0.7818609E-02  0.9460745E-01
       -2   -1    0    0    0  501  0.00000000000E+00  0.00000000000E+00  0.14874557434E+03  0.14874557436E+03  0.25500000920E-02 0.  1.
        2   -1    0    0  501    0  0.00000000000E+00  0.00000000000E+00 -0.12791907713E+04  0.12791907713E+04  0.25500000920E-02 0. -1.
    10030    2    1    2    0    0  0.00000000000E+00  0.00000000000E+00 -0.11304451970E+04  0.14279363457E+04  0.87240808339E+03 0.  0.
        3    1    3    3  502    0  0.31763271852E+03 -0.18458472859E+03 -0.95016736171E+03  0.10187149215E+04  0.10100000352E+00 0. -1.
       -3    1    3    3    0  502 -0.31763271852E+03  0.18458472859E+03 -0.18027783529E+03  0.40922142417E+03  0.10100000352E+00 0.  1.
</event>
<event>
 5   0  0.1559275E-02  0.8958994E+03  0.7818609E-02  0.9430722E-01
        1   -1    0    0  501    0  0.00000000000E+00  0.00000000000E+00  0.59277088092E+03  0.59277088094E+03  0.50400001928E-02 0. -1.
       -1   -1    0    0    0  501  0.00000000000E+00  0.00000000000E+00 -0.33851008780E+03  0.33851008784E+03  0.50400001928E-02 0.  1.
    10030    2    1    2    0    0  0.00000000000E+00  0.00000000000E+00  0.25426079312E+03  0.93128096878E+03  0.89589937599E+03 0.  0.
        1    1    3    3  502    0 -0.36975451814E+03  0.18619826577E+03 -0.50713200699E+02  0.41708515511E+03  0.50400001928E-02 0. -1.
       -1    1    3    3    0  502  0.36975451814E+03 -0.18619826577E+03  0.30497399382E+03  0.51419581367E+03  0.50400001928E-02 0.  1.
</event>
<event>
 5   0  0.1560728E-02  0.9092996E+03  0.7818609E-02  0.9414031E-01
        1   -1    0    0  501    0  0.00000000000E+00  0.00000000000E+00  0.12084549309E+04  0.12084549309E+04  0.50400001928E-02 0.  1.
       -1   -1    0    0    0  501  0.00000000000E+00  0.00000000000E+00 -0.17105019294E+03  0.17105019302E+03  0.50400001928E-02 0. -1.
    10030    2    1    2    0    0  0.00000000000E+00  0.00000000000E+00  0.10374047379E+04  0.13795051239E+04  0.90929961871E+03 0.  0.
        4    1    3    3  502    0  0.38560070295E+03  0.14427793510E+03  0.81131462749E+03  0.90980056185E+03  0.12699999809E+01 0.  1.
       -4    1    3    3    0  502 -0.38560070295E+03 -0.14427793510E+03  0.22609011045E+03  0.46970456205E+03  0.12699999809E+01 0. -1.
</event>
<event>
 5   0  0.2679861E-02  0.9003227E+03  0.7818609E-02  0.9425178E-01
       -2   -1    0    0    0  501  0.00000000000E+00  0.00000000000E+00  0.22968309949E+03  0.22968309951E+03  0.25500000920E-02 0. -1.
        2   -1    0    0  501    0  0.00000000000E+00  0.00000000000E+00 -0.88228183174E+03  0.88228183174E+03  0.25500000920E-02 0.  1.
    10030    2    1    2    0    0  0.00000000000E+00  0.00000000000E+00 -0.65259873225E+03  0.11119649312E+04  0.90032266605E+03 0.  0.
        1    1    3    3  502    0 -0.34337375904E+02  0.41275928501E+03 -0.54409279511E+03  0.68380278770E+03  0.50400001928E-02 0.  1.
       -1    1    3    3    0  502  0.34337375904E+02 -0.41275928501E+03 -0.10850593713E+03  0.42816214355E+03  0.50400001928E-02 0. -1.
</event>
<event>
 5   0  0.1559275E-02  0.8591565E+03  0.7818609E-02  0.9478129E-01
        1   -1    0    0  501    0  0.00000000000E+00  0.00000000000E+00  0.15989618779E+04  0.15989618779E+04  0.50400001928E-02 0.  1.
       -1   -1    0    0    0  501  0.00000000000E+00  0.00000000000E+00 -0.11541080655E+03  0.11541080666E+03  0.50400001928E-02 0. -1.
    10030    2    1    2    0    0  0.00000000000E+00  0.00000000000E+00  0.14835510713E+04  0.17143726845E+04  0.85915651675E+03 0.  0.
        1    1    3    3  502    0 -0.16961379208E+02  0.15260275088E+03 -0.58786311329E+02  0.16441143022E+03  0.50400001928E-02 0. -1.
       -1    1    3    3    0  502  0.16961379208E+02 -0.15260275088E+03  0.15423373826E+04  0.15499612543E+04  0.50400001928E-02 0.  1.
</event>
<event>
 5   0  0.1559275E-02  0.8809394E+03  0.7818609E-02  0.9449727E-01
        1   -1    0    0  501    0  0.00000000000E+00  0.00000000000E+00  0.12208569946E+04  0.12208569946E+04  0.50400001928E-02 0.  1.
       -1   -1    0    0    0  501  0.00000000000E+00  0.00000000000E+00 -0.15891586363E+03  0.15891586371E+03  0.50400001928E-02 0. -1.
    10030    2    1    2    0    0  0.00000000000E+00  0.00000000000E+00  0.10619411309E+04  0.13797728583E+04  0.88093937071E+03 0.  0.
        1    1    3    3  502    0 -0.14754214708E+03 -0.41045200725E+03  0.62719004463E+03  0.76394167810E+03  0.50400001928E-02 0.  1.
       -1    1    3    3    0  502  0.14754214708E+03  0.41045200725E+03  0.43475108630E+03  0.61583118018E+03  0.50400001928E-02 0. -1.
</event>
<event>
 5   0  0.2414128E-02  0.8986530E+03  0.7818609E-02  0.9427267E-01
        2   -1    0    0  501    0  0.00000000000E+00  0.00000000000E+00  0.22190787110E+04  0.22190787110E+04  0.25500000920E-02 0.  1.
       -2   -1    0    0    0  501  0.00000000000E+00  0.00000000000E+00 -0.90981137129E+02  0.90981137165E+02  0.25500000920E-02 0. -1.
    10030    2    1    2    0    0  0.00000000000E+00  0.00000000000E+00  0.21280975739E+04  0.23100598482E+04  0.89865300211E+03 0.  0.
        3    1    3    3  502    0  0.83603911857E+02 -0.82066496456E+01 -0.70615244720E+02  0.10974281828E+03  0.10100000352E+00 0. -1.
       -3    1    3    3    0  502 -0.83603911857E+02  0.82066496456E+01  0.21987128186E+04  0.22003170299E+04  0.10100000352E+00 0.  1.
</event>
<event>
 5   0  0.2803717E-02  0.8928332E+03  0.7818609E-02  0.9434585E-01
       -2   -1    0    0    0  501  0.00000000000E+00  0.00000000000E+00  0.13905294139E+04  0.13905294139E+04  0.25500000920E-02 0. -1.
        2   -1    0    0  501    0  0.00000000000E+00  0.00000000000E+00 -0.14331791369E+03  0.14331791372E+03  0.25500000920E-02 0.  1.
    10030    2    1    2    0    0  0.00000000000E+00  0.00000000000E+00  0.12472115002E+04  0.15338473276E+04  0.89283318608E+03 0.  0.
        5    1    3    3  502    0 -0.27831319657E+03 -0.24217239557E+03  0.19185529750E+03  0.41585604449E+03  0.46999998093E+01 0.  1.
       -5    1    3    3    0  502  0.27831319657E+03  0.24217239557E+03  0.10553562027E+04  0.11179912831E+04  0.46999998093E+01 0. -1.
</event>
<event>
 5   0  0.1040163E-02  0.6021107E+03  0.7818609E-02  0.9901037E-01
        3   -1    0    0  501    0  0.00000000000E+00  0.00000000000E+00  0.51496787570E+03  0.51496788561E+03  0.10100000352E+00 0. -1.
       -3   -1    0    0    0  501  0.00000000000E+00  0.00000000000E+00 -0.17599990822E+03  0.17599993720E+03  0.10100000352E+00 0.  1.
    10030    2    1    2    0    0  0.00000000000E+00  0.00000000000E+00  0.33896796748E+03  0.69096782281E+03  0.60211066190E+03 0.  0.
        5    1    3    3  502    0 -0.62496190541E+02  0.25407975158E+03 -0.13080729166E+01  0.26169848118E+03  0.46999998093E+01 0.  1.
       -5    1    3    3    0  502  0.62496190541E+02 -0.25407975158E+03  0.34027604040E+03  0.42926934163E+03  0.46999998093E+01 0. -1.
</event>
<event>
 5   0  0.2628383E-02  0.8961646E+03  0.7818609E-02  0.9430389E-01
       -2   -1    0    0    0  501  0.00000000000E+00  0.00000000000E+00  0.32592435536E+03  0.32592435537E+03  0.25500000920E-02 0. -1.
        2   -1    0    0  501    0  0.00000000000E+00  0.00000000000E+00 -0.61602565680E+03  0.61602565681E+03  0.25500000920E-02 0.  1.
    10030    2    1    2    0    0  0.00000000000E+00  0.00000000000E+00 -0.29010130144E+03  0.94195001218E+03  0.89616463908E+03 0.  0.
        2    1    3    3  502    0  0.38496231666E+03 -0.22162679132E+03 -0.83193780349E+02  0.45192435758E+03  0.25500000920E-02 0. -1.
       -2    1    3    3    0  502 -0.38496231666E+03  0.22162679132E+03 -0.20690752109E+03  0.49002565460E+03  0.25500000920E-02 0.  1.
</event>
<event>
 5   0  0.2628383E-02  0.8476048E+03  0.7818609E-02  0.9493557E-01
       -2   -1    0    0    0  501  0.00000000000E+00  0.00000000000E+00  0.52184182121E+03  0.52184182122E+03  0.25500000920E-02 0.  1.
        2   -1    0    0  501    0  0.00000000000E+00  0.00000000000E+00 -0.34418185216E+03  0.34418185217E+03  0.25500000920E-02 0. -1.
    10030    2    1    2    0    0  0.00000000000E+00  0.00000000000E+00  0.17765996905E+03  0.86602367339E+03  0.84760482435E+03 0.  0.
        2    1    3    3  502    0 -0.54924586953E+02 -0.17845766368E+03 -0.29989064026E+03  0.35326794944E+03  0.25500000920E-02 0. -1.
       -2    1    3    3    0  502  0.54924586953E+02  0.17845766368E+03  0.47755060931E+03  0.51275572395E+03  0.25500000920E-02 0.  1.
</event>
<event>
 5   0  0.2414128E-02  0.9453101E+03  0.7818609E-02  0.9370649E-01
        2   -1    0    0  501    0  0.00000000000E+00  0.00000000000E+00  0.88856215091E+03  0.88856215092E+03  0.25500000920E-02 0.  1.
       -2   -1    0    0    0  501  0.00000000000E+00  0.00000000000E+00 -0.25142057875E+03  0.25142057877E+03  0.25500000920E-02 0. -1.
    10030    2    1    2    0    0  0.00000000000E+00  0.00000000000E+00  0.63714157216E+03  0.11399827297E+04  0.94531012954E+03 0.  0.
        3    1    3    3  502    0  0.39452800621E+03  0.16033885866E+03  0.71304365482E+02  0.43179302915E+03  0.10100000352E+00 0. -1.
       -3    1    3    3    0  502 -0.39452800621E+03 -0.16033885866E+03  0.56583720668E+03  0.70818970054E+03  0.10100000352E+00 0.  1.
</event>
<event>
 5   0  0.1459111E-02  0.8964869E+03  0.7818609E-02  0.9429984E-01
        1   -1    0    0  501    0  0.00000000000E+00  0.00000000000E+00  0.85809270962E+03  0.85809270964E+03  0.50400001928E-02 0.  1.
       -1   -1    0    0    0  501  0.00000000000E+00  0.00000000000E+00 -0.23414973022E+03  0.23414973028E+03  0.50400001928E-02 0. -1.
    10030    2    1    2    0    0  0.00000000000E+00  0.00000000000E+00  0.62394297940E+03  0.10922424399E+04  0.89648686884E+03 0.  0.
        2    1    3    3  502    0 -0.39210089917E+03 -0.19572565233E+03  0.42672075368E+03  0.61167168296E+03  0.25500000920E-02 0.  1.
       -2    1    3    3    0  502  0.39210089917E+03  0.19572565233E+03  0.19722222572E+03  0.48057075695E+03  0.25500000920E-02 0. -1.
</event>
<event>
 5   0  0.2679861E-02  0.8966884E+03  0.7818609E-02  0.9429731E-01
       -2   -1    0    0    0  501  0.00000000000E+00  0.00000000000E+00  0.89613137673E+02  0.89613137710E+02  0.25500000920E-02 0. -1.
        2   -1    0    0  501    0  0.00000000000E+00  0.00000000000E+00 -0.22431142470E+04  0.22431142470E+04  0.25500000920E-02 0.  1.
    10030    2    1    2    0    0  0.00000000000E+00  0.00000000000E+00 -0.21535011093E+04  0.23327273847E+04  0.89668836477E+03 0.  0.
        1    1    3    3  502    0  0.32639456431E+02 -0.31236939091E+03 -0.24438484074E+03  0.39794964619E+03  0.50400001928E-02 0. -1.
       -1    1    3    3    0  502 -0.32639456431E+02  0.31236939091E+03 -0.19091162686E+04  0.19347777385E+04  0.50400001928E-02 0.  1.
</event>
<event>
 5   0  0.1559275E-02  0.6673028E+03  0.7818609E-02  0.9774843E-01
       -1   -1    0    0    0  501  0.00000000000E+00  0.00000000000E+00  0.30610269699E+03  0.30610269703E+03  0.50400001928E-02 0.  1.
        1   -1    0    0  501    0  0.00000000000E+00  0.00000000000E+00 -0.36367945228E+03  0.36367945232E+03  0.50400001928E-02 0. -1.
    10030    2    1    2    0    0  0.00000000000E+00  0.00000000000E+00 -0.57576755292E+02  0.66978214935E+03  0.66730281345E+03 0.  0.
        1    1    3    3  502    0  0.24839774700E+03 -0.22151212406E+03 -0.51594711371E+01  0.33285985338E+03  0.50400001928E-02 0.  1.
       -1    1    3    3    0  502 -0.24839774700E+03  0.22151212406E+03 -0.52417284155E+02  0.33692229598E+03  0.50400001928E-02 0. -1.
</event>
<event>
 5   0  0.1497410E-02  0.8815649E+03  0.7818609E-02  0.9448924E-01
       -1   -1    0    0    0  501  0.00000000000E+00  0.00000000000E+00  0.27915067723E+03  0.27915067727E+03  0.50400001928E-02 0.  1.
        1   -1    0    0  501    0  0.00000000000E+00  0.00000000000E+00 -0.69600112652E+03  0.69600112654E+03  0.50400001928E-02 0. -1.
    10030    2    1    2    0    0  0.00000000000E+00  0.00000000000E+00 -0.41685044930E+03  0.97515180381E+03  0.88156493998E+03 0.  0.
        3    1    3    3  502    0  0.11152763205E+03 -0.42641631314E+03 -0.21335860241E+03  0.48968478458E+03  0.10100000352E+00 0.  1.
       -3    1    3    3    0  502 -0.11152763205E+03  0.42641631314E+03 -0.20349184688E+03  0.48546701924E+03  0.10100000352E+00 0. -1.
</event>
<event>
 5   0  0.1560728E-02  0.8821778E+03  0.7818609E-02  0.9448138E-01
       -1   -1    0    0    0  501  0.00000000000E+00  0.00000000000E+00  0.54889516724E+03  0.54889516727E+03  0.50400001928E-02 0. -1.
        1   -1    0    0  501    0  0.00000000000E+00  0.00000000000E+00 -0.35445642366E+03  0.35445642369E+03  0.50400001928E-02 0.  1.
    10030    2    1    2    0    0  0.00000000000E+00  0.00000000000E+00  0.19443874359E+03  0.90335159096E+03  0.88217780060E+03 0.  0.
        4    1    3    3  502    0 -0.20576115059E+03 -0.19030242573E+03 -0.25155077694E+03  0.37660598855E+03  0.12699999809E+01 0.  1.
       -4    1    3    3    0  502  0.20576115059E+03  0.19030242573E+03  0.44598952053E+03  0.52674560241E+03  0.12699999809E+01 0. -1.
</event>
<event>
 5   0  0.2705111E-02  0.8438772E+03  0.7818609E-02  0.9498592E-01
        2   -1    0    0  501    0  0.00000000000E+00  0.00000000000E+00  0.44814408595E+03  0.44814408596E+03  0.25500000920E-02 0. -1.
       -2   -1    0    0    0  501  0.00000000000E+00  0.00000000000E+00 -0.39726550207E+03  0.39726550208E+03  0.25500000920E-02 0.  1.
    10030    2    1    2    0    0  0.00000000000E+00  0.00000000000E+00  0.50878583880E+02  0.84540958803E+03  0.84387720744E+03 0.  0.
        4    1    3    3  502    0  0.25113657215E+03  0.33513922810E+01  0.36509737285E+03  0.44314615452E+03  0.12699999809E+01 0. -1.
       -4    1    3    3    0  502 -0.25113657215E+03 -0.33513922810E+01 -0.31421878897E+03  0.40226343351E+03  0.12699999809E+01 0.  1.
</event>
<event>
 5   0  0.1497410E-02  0.9118750E+03  0.7818609E-02  0.9410858E-01
        1   -1    0    0  501    0  0.00000000000E+00  0.00000000000E+00  0.91347251665E+03  0.91347251666E+03  0.50400001928E-02 0. -1.
       -1   -1    0    0    0  501  0.00000000000E+00  0.00000000000E+00 -0.22757006578E+03  0.22757006584E+03  0.50400001928E-02 0.  1.
    10030    2    1    2    0    0  0.00000000000E+00  0.00000000000E+00  0.68590245087E+03  0.11410425825E+04  0.91187499306E+03 0.  0.
        3    1    3    3  502    0  0.54635332020E+02  0.45037868495E+03  0.28625394821E+03  0.53643947695E+03  0.10100000352E+00 0. -1.
       -3    1    3    3    0  502 -0.54635332020E+02 -0.45037868495E+03  0.39964850266E+03  0.60460310555E+03  0.10100000352E+00 0.  1.
</event>
<event>
 5   0  0.2803717E-02  0.8478744E+03  0.7818609E-02  0.9493194E-01
        2   -1    0    0  501    0  0.00000000000E+00  0.00000000000E+00  0.40413468418E+03  0.40413468419E+03  0.25500000920E-02 0.  1.
       -2   -1    0    0    0  501  0.00000000000E+00  0.00000000000E+00 -0.44471007268E+03  0.44471007269E+03  0.25500000920E-02 0. -1.
    10030    2    1    2    0    0  0.00000000000E+00  0.00000000000E+00 -0.40575388505E+02  0.84884475688E+03  0.84787443595E+03 0.  0.
        5    1    3    3  502    0 -0.10089910883E+03 -0.12781383220E+03 -0.41212245685E+03  0.44315236127E+03  0.46999998093E+01 0. -1.
       -5    1    3    3    0  502  0.10089910883E+03  0.12781383220E+03  0.37154706834E+03  0.40569239561E+03  0.46999998093E+01 0.  1.
</event>
<event>
 5   0  0.1497410E-02  0.9366419E+03  0.7818609E-02  0.9380902E-01
        1   -1    0    0  501    0  0.00000000000E+00  0.00000000000E+00  0.90447934385E+03  0.90447934387E+03  0.50400001928E-02 0. -1.
       -1   -1    0    0    0  501  0.00000000000E+00  0.00000000000E+00 -0.24248702961E+03  0.24248702966E+03  0.50400001928E-02 0.  1.
    10030    2    1    2    0    0  0.00000000000E+00  0.00000000000E+00  0.66199231425E+03  0.11469663735E+04  0.93664189415E+03 0.  0.
        3    1    3    3  502    0 -0.39281958052E+02  0.33883090367E+03  0.72395141425E+03  0.80028439565E+03  0.10100000352E+00 0. -1.
       -3    1    3    3    0  502  0.39281958052E+02 -0.33883090367E+03 -0.61959100007E+02  0.34668197788E+03  0.10100000352E+00 0.  1.
</event>
<event>
 5   0  0.2679861E-02  0.9340705E+03  0.7818609E-02  0.9383966E-01
        2   -1    0    0  501    0  0.00000000000E+00  0.00000000000E+00  0.50844525180E+03  0.50844525181E+03  0.25500000920E-02 0. -1.
       -2   -1    0    0    0  501  0.00000000000E+00  0.00000000000E+00 -0.42899786014E+03  0.42899786014E+03  0.25500000920E-02 0.  1.
    10030    2    1    2    0    0  0.00000000000E+00  0.00000000000E+00  0.79447391670E+02  0.93744311195E+03  0.93407050061E+03 0.  0.
        1    1    3    3  502    0 -0.95402449818E+02  0.40030538760E+03  0.26137377250E+03  0.48750618432E+03  0.50400001928E-02 0. -1.
       -1    1    3    3    0  502  0.95402449818E+02 -0.40030538760E+03 -0.18192638083E+03  0.44993692763E+03  0.50400001928E-02 0.  1.
</event>
<event>
 5   0  0.1497410E-02  0.9196628E+03  0.7818609E-02  0.9401330E-01
        1   -1    0    0  501    0  0.00000000000E+00  0.00000000000E+00  0.94488310430E+03  0.94488310431E+03  0.50400001928E-02 0. -1.
       -1   -1    0    0    0  501  0.00000000000E+00  0.00000000000E+00 -0.22377893664E+03  0.22377893670E+03  0.50400001928E-02 0.  1.
    10030    2    1    2    0    0  0.00000000000E+00  0.00000000000E+00  0.72110416766E+03  0.11686620410E+04  0.91966284337E+03 0.  0.
        3    1    3    3  502    0 -0.13805000378E+03 -0.43409063717E+03  0.44044219296E+03  0.63362593095E+03  0.10100000352E+00 0.  1.
       -3    1    3    3    0  502  0.13805000378E+03  0.43409063717E+03  0.28066197470E+03  0.53503611006E+03  0.10100000352E+00 0. -1.
</event>
<event>
 5   0  0.2803717E-02  0.9041082E+03  0.7818609E-02  0.9420460E-01
        2   -1    0    0  501    0  0.00000000000E+00  0.00000000000E+00  0.19107203385E+03  0.19107203386E+03  0.25500000920E-02 0. -1.
       -2   -1    0    0    0  501  0.00000000000E+00  0.00000000000E+00 -0.10695072004E+04  0.10695072004E+04  0.25500000920E-02 0.  1.
    10030    2    1    2    0    0  0.00000000000E+00  0.00000000000E+00 -0.87843516653E+03  0.12605792342E+04  0.90410821477E+03 0.  0.
        5    1    3    3  502    0 -0.28597823423E+03  0.70034206180E+02 -0.91744209139E+03  0.96354056559E+03  0.46999998093E+01 0.  1.
       -5    1    3    3    0  502  0.28597823423E+03 -0.70034206180E+02  0.39006924863E+02  0.29703866865E+03  0.46999998093E+01 0. -1.
</event>
<event>
 5   0  0.2414128E-02  0.9153968E+03  0.7818609E-02  0.9406537E-01
       -2   -1    0    0    0  501  0.00000000000E+00  0.00000000000E+00  0.14428523226E+03  0.14428523228E+03  0.25500000920E-02 0. -1.
        2   -1    0    0  501    0  0.00000000000E+00  0.00000000000E+00 -0.14519005610E+04  0.14519005610E+04  0.25500000920E-02 0.  1.
    10030    2    1    2    0    0  0.00000000000E+00  0.00000000000E+00 -0.13076153288E+04  0.15961857933E+04  0.91539676575E+03 0.  0.
        3    1    3    3  502    0 -0.30822518474E+03  0.29865982503E+02 -0.12414999137E+04  0.12795377241E+04  0.10100000352E+00 0.  1.
       -3    1    3    3    0  502  0.30822518474E+03 -0.29865982503E+02 -0.66115415021E+02  0.31664806919E+03  0.10100000352E+00 0. -1.
</event>
<event>
 5   0  0.1040163E-02  0.9058789E+03  0.7818609E-02  0.9418262E-01
       -3   -1    0    0    0  501  0.00000000000E+00  0.00000000000E+00  0.17904516173E+03  0.17904519021E+03  0.10100000352E+00 0.  1.
        3   -1    0    0  501    0  0.00000000000E+00  0.00000000000E+00 -0.11458232522E+04  0.11458232567E+04  0.10100000352E+00 0. -1.
    10030    2    1    2    0    0  0.00000000000E+00  0.00000000000E+00 -0.96677809051E+03  0.13248684469E+04  0.90587886900E+03 0.  0.
        1    1    3    3  502    0 -0.35052640692E+03  0.14834764741E+03 -0.84246248931E+03  0.92445596561E+03  0.50400001928E-02 0. -1.
       -1    1    3    3    0  502  0.35052640692E+03 -0.14834764741E+03 -0.12431560120E+03  0.40041248129E+03  0.50400001928E-02 0.  1.
</event>
<event>
 5   0  0.2414128E-02  0.8878278E+03  0.7818609E-02  0.9440926E-01
       -2   -1    0    0    0  501  0.00000000000E+00  0.00000000000E+00  0.17202114192E+03  0.17202114194E+03  0.25500000920E-02 0.  1.
        2   -1    0    0  501    0  0.00000000000E+00  0.00000000000E+00 -0.11455542786E+04  0.11455542786E+04  0.25500000920E-02 0. -1.
    10030    2    1    2    0    0  0.00000000000E+00  0.00000000000E+00 -0.97353313668E+03  0.13175754205E+04  0.88782781021E+03 0.  0.
        3    1    3    3  502    0  0.84096765412E+02  0.17827303410E+03  0.10351363846E+03  0.22264012259E+03  0.10100000352E+00 0. -1.
       -3    1    3    3    0  502 -0.84096765412E+02 -0.17827303410E+03 -0.10770467751E+04  0.10949352979E+04  0.10100000352E+00 0.  1.
</event>
<event>
 5   0  0.1560728E-02  0.8624522E+03  0.7818609E-02  0.9473775E-01
       -1   -1    0    0    0  501  0.00000000000E+00  0.00000000000E+00  0.74052502517E+03  0.74052502518E+03  0.50400001928E-02 0. -1.
        1   -1    0    0  501    0  0.00000000000E+00  0.00000000000E+00 -0.25111366971E+03  0.25111366976E+03  0.50400001928E-02 0.  1.
    10030    2    1    2    0    0  0.00000000000E+00  0.00000000000E+00  0.48941135545E+03  0.99163869495E+03  0.86245221692E+03 0.  0.
        4    1    3    3  502    0  0.83721003891E+02  0.32210919827E+03 -0.70577485908E+02  0.34021513270E+03  0.12699999809E+01 0.  1.
       -4    1    3    3    0  502 -0.83721003891E+02 -0.32210919827E+03  0.55998884136E+03  0.65142356225E+03  0.12699999809E+01 0. -1.
</event>
<event>
 5   0  0.1560728E-02  0.1053584E+04  0.7818609E-02  0.9251651E-01
        1   -1    0    0  501    0  0.00000000000E+00  0.00000000000E+00  0.56370290433E+03  0.56370290435E+03  0.50400001928E-02 0.  1.
       -1   -1    0    0    0  501  0.00000000000E+00  0.00000000000E+00 -0.49229811580E+03  0.49229811582E+03  0.50400001928E-02 0. -1.
    10030    2    1    2    0    0  0.00000000000E+00  0.00000000000E+00  0.71404788531E+02  0.10560010202E+04  0.10535841261E+04 0.  0.
        4    1    3    3  502    0  0.29071525025E+03  0.12755616317E+03  0.45705029799E+03  0.55649125715E+03  0.12699999809E+01 0.  1.
       -4    1    3    3    0  502 -0.29071525025E+03 -0.12755616317E+03 -0.38564550946E+03  0.49950976302E+03  0.12699999809E+01 0. -1.
</event>
<event>
 5   0  0.1559275E-02  0.8975020E+03  0.7818609E-02  0.9428709E-01
       -1   -1    0    0    0  501  0.00000000000E+00  0.00000000000E+00  0.84523372794E+03  0.84523372796E+03  0.50400001928E-02 0.  1.
        1   -1    0    0  501    0  0.00000000000E+00  0.00000000000E+00 -0.23825063246E+03  0.23825063251E+03  0.50400001928E-02 0. -1.
    10030    2    1    2    0    0  0.00000000000E+00  0.00000000000E+00  0.60698309549E+03  0.10834843605E+04  0.89750202293E+03 0.  0.
        1    1    3    3  502    0 -0.26394892433E+03 -0.36209131259E+03  0.33302082834E+03  0.55828489630E+03  0.50400001928E-02 0. -1.
       -1    1    3    3    0  502  0.26394892433E+03  0.36209131259E+03  0.27396226715E+03  0.52519946416E+03  0.50400001928E-02 0.  1.
</event>
<event>
 5   0  0.1537870E-02  0.8070589E+03  0.7818609E-02  0.9549855E-01
        1   -1    0    0  501    0  0.00000000000E+00  0.00000000000E+00  0.38678895440E+03  0.38678895444E+03  0.50400001928E-02 0.  1.
       -1   -1    0    0    0  501  0.00000000000E+00  0.00000000000E+00 -0.42099453182E+03  0.42099453185E+03  0.50400001928E-02 0. -1.
    10030    2    1    2    0    0  0.00000000000E+00  0.00000000000E+00 -0.34205577420E+02  0.80778348629E+03  0.80705894407E+03 0.  0.
        5    1    3    3  502    0 -0.15723953808E+03 -0.15046204715E+03  0.32298283480E+03  0.38949082344E+03  0.46999998093E+01 0.  1.
       -5    1    3    3    0  502  0.15723953808E+03  0.15046204715E+03 -0.35718841222E+03  0.41829266285E+03  0.46999998093E+01 0. -1.
</event>
<event>
 5   0  0.1497410E-02  0.8927311E+03  0.7818609E-02  0.9434714E-01
        1   -1    0    0  501    0  0.00000000000E+00  0.00000000000E+00  0.41213034447E+03  0.41213034450E+03  0.50400001928E-02 0. -1.
       -1   -1    0    0    0  501  0.00000000000E+00  0.00000000000E+00 -0.48344458211E+03  0.48344458213E+03  0.50400001928E-02 0.  1.
    10030    2    1    2    0    0  0.00000000000E+00  0.00000000000E+00 -0.71314237635E+02  0.89557492664E+03  0.89273105062E+03 0.  0.
        3    1    3    3  502    0 -0.24566781478E+03  0.22840427249E+03  0.25976525728E+03  0.42426310940E+03  0.10100000352E+00 0. -1.
       -3    1    3    3    0  502  0.24566781478E+03 -0.22840427249E+03 -0.33107949492E+03  0.47131181723E+03  0.10100000352E+00 0.  1.
</event>
<event>
 5   0  0.1459111E-02  0.8968129E+03  0.7818609E-02  0.9429574E-01
        1   -1    0    0  501    0  0.00000000000E+00  0.00000000000E+00  0.87474629904E+03  0.87474629906E+03  0.50400001928E-02 0.  1.
       -1   -1    0    0    0  501  0.00000000000E+00  0.00000000000E+00 -0.22985904087E+03  0.22985904092E+03  0.50400001928E-02 0. -1.
    10030    2    1    2    0    0  0.00000000000E+00  0.00000000000E+00  0.64488725818E+03  0.11046053400E+04  0.89681290209E+03 0.  0.
        2    1    3    3  502    0 -0.11622887473E+03  0.11885936215E+03  0.83538704986E+03  0.85176770447E+03  0.25500000920E-02 0.  1.
       -2    1    3    3    0  502  0.11622887473E+03 -0.11885936215E+03 -0.19049979169E+03  0.25283763551E+03  0.25500000920E-02 0. -1.
</event>
<event>
 5   0  0.1459111E-02  0.8375309E+03  0.7818609E-02  0.9507227E-01
       -1   -1    0    0    0  501  0.00000000000E+00  0.00000000000E+00  0.21215121280E+03  0.21215121286E+03  0.50400001928E-02 0. -1.
        1   -1    0    0  501    0  0.00000000000E+00  0.00000000000E+00 -0.82660138912E+03  0.82660138914E+03  0.50400001928E-02 0.  1.
    10030    2    1    2    0    0  0.00000000000E+00  0.00000000000E+00 -0.61445017632E+03  0.10387526020E+04  0.83753086450E+03 0.  0.
        2    1    3    3  502    0  0.22681142265E+02  0.90148609929E+02 -0.81364343188E+03  0.81893640799E+03  0.25500000920E-02 0.  1.
       -2    1    3    3    0  502 -0.22681142265E+02 -0.90148609929E+02  0.19919325555E+03  0.21981619402E+03  0.25500000920E-02 0. -1.
</event>
<event>
 5   0  0.2628383E-02  0.8885428E+03  0.7818609E-02  0.9440018E-01
        2   -1    0    0  501    0  0.00000000000E+00  0.00000000000E+00  0.12999171138E+04  0.12999171138E+04  0.25500000920E-02 0. -1.
       -2   -1    0    0    0  501  0.00000000000E+00  0.00000000000E+00 -0.15183821525E+03  0.15183821527E+03  0.25500000920E-02 0.  1.
    10030    2    1    2    0    0  0.00000000000E+00  0.00000000000E+00  0.11480788986E+04  0.14517553291E+04  0.88854283982E+03 0.  0.
        2    1    3    3  502    0 -0.11727346380E+02  0.29720610794E+03  0.34845345147E+02  0.29947153343E+03  0.25500000920E-02 0.  1.
       -2    1    3    3    0  502  0.11727346380E+02 -0.29720610794E+03  0.11132335534E+04  0.11522837956E+04  0.25500000920E-02 0. -1.
</event>
<event>
 5   0  0.1497410E-02  0.8830016E+03  0.7818609E-02  0.9447083E-01
        1   -1    0    0  501    0  0.00000000000E+00  0.00000000000E+00  0.65841289891E+03  0.65841289893E+03  0.50400001928E-02 0.  1.
       -1   -1    0    0    0  501  0.00000000000E+00  0.00000000000E+00 -0.29604971305E+03  0.29604971309E+03  0.50400001928E-02 0. -1.
    10030    2    1    2    0    0  0.00000000000E+00  0.00000000000E+00  0.36236318586E+03  0.95446261202E+03  0.88300158509E+03 0.  0.
        3    1    3    3  502    0  0.14742443553E+03 -0.68286296274E+02  0.62492390208E+03  0.64569875022E+03  0.10100000352E+00 0.  1.
       -3    1    3    3    0  502 -0.14742443553E+03  0.68286296274E+02 -0.26256071622E+03  0.30876386180E+03  0.10100000352E+00 0. -1.
</event>
<event>
 5   0  0.1559275E-02  0.8858397E+03  0.7818609E-02  0.9443458E-01
        1   -1    0    0  501    0  0.00000000000E+00  0.00000000000E+00  0.79904584022E+03  0.79904584024E+03  0.50400001928E-02 0. -1.
       -1   -1    0    0    0  501  0.00000000000E+00  0.00000000000E+00 -0.24551531170E+03  0.24551531175E+03  0.50400001928E-02 0.  1.
    10030    2    1    2    0    0  0.00000000000E+00  0.00000000000E+00  0.55353052852E+03  0.10445611520E+04  0.88583968879E+03 0.  0.
        1    1    3    3  502    0  0.92393626148E+02  0.27158296311E+03  0.67469856453E+03  0.73315212678E+03  0.50400001928E-02 0. -1.
       -1    1    3    3    0  502 -0.92393626148E+02 -0.27158296311E+03 -0.12116803601E+03  0.31140902520E+03  0.50400001928E-02 0.  1.
</event>
<event>
 5   0  0.2628383E-02  0.9111958E+03  0.7818609E-02  0.9411693E-01
       -2   -1    0    0    0  501  0.00000000000E+00  0.00000000000E+00  0.11624292834E+03  0.11624292837E+03  0.25500000920E-02 0. -1.
        2   -1    0    0  501    0  0.00000000000E+00  0.00000000000E+00 -0.17856521993E+04  0.17856521993E+04  0.25500000920E-02 0.  1.
    10030    2    1    2    0    0  0.00000000000E+00  0.00000000000E+00 -0.16694092710E+04  0.19018951277E+04  0.91119578725E+03 0.  0.
        2    1    3    3  502    0  0.33948800959E+03 -0.25709686626E+03 -0.49673392885E+03  0.65429007586E+03  0.25500000920E-02 0. -1.
       -2    1    3    3    0  502 -0.33948800959E+03  0.25709686626E+03 -0.11726753421E+04  0.12476050518E+04  0.25500000920E-02 0.  1.
</event>
<event>
 5   0  0.1459111E-02  0.9014004E+03  0.7818609E-02  0.9423833E-01
       -1   -1    0    0    0  501  0.00000000000E+00  0.00000000000E+00  0.52563571801E+03  0.52563571803E+03  0.50400001928E-02 0. -1.
        1   -1    0    0  501    0  0.00000000000E+00  0.00000000000E+00 -0.38644759129E+03  0.38644759133E+03  0.50400001928E-02 0.  1.
    10030    2    1    2    0    0  0.00000000000E+00  0.00000000000E+00  0.13918812672E+03  0.91208330936E+03  0.90140037086E+03 0.  0.
        2    1    3    3  502    0 -0.27598431687E+03 -0.35598953753E+03  0.54090492350E+02  0.45367573812E+03  0.25500000920E-02 0. -1.
       -2    1    3    3    0  502  0.27598431687E+03  0.35598953753E+03  0.85097634365E+02  0.45840757124E+03  0.25500000920E-02 0.  1.
</event>
<event>
 5   0  0.1497410E-02  0.9112257E+03  0.7818609E-02  0.9411657E-01
       -1   -1    0    0    0  501  0.00000000000E+00  0.00000000000E+00  0.31647274101E+03  0.31647274105E+03  0.50400001928E-02 0.  1.
        1   -1    0    0  501    0  0.00000000000E+00  0.00000000000E+00 -0.65592715675E+03  0.65592715677E+03  0.50400001928E-02 0. -1.
    10030    2    1    2    0    0  0.00000000000E+00  0.00000000000E+00 -0.33945441575E+03  0.97239989782E+03  0.91122569153E+03 0.  0.
        3    1    3    3  502    0 -0.19851326421E+03 -0.26067027738E+03  0.16811221723E+03  0.36826381489E+03  0.10100000352E+00 0.  1.
       -3    1    3    3    0  502  0.19851326421E+03  0.26067027738E+03 -0.50756663298E+03  0.60413608292E+03  0.10100000352E+00 0. -1.
</event>
<event>
 5   0  0.2679861E-02  0.8946870E+03  0.7818609E-02  0.9432247E-01
       -2   -1    0    0    0  501  0.00000000000E+00  0.00000000000E+00  0.39672452775E+03  0.39672452776E+03  0.25500000920E-02 0. -1.
        2   -1    0    0  501    0  0.00000000000E+00  0.00000000000E+00 -0.50442107405E+03  0.50442107405E+03  0.25500000920E-02 0.  1.
    10030    2    1    2    0    0  0.00000000000E+00  0.00000000000E+00 -0.10769654629E+03  0.90114560182E+03  0.89468701208E+03 0.  0.
        1    1    3    3  502    0  0.39949690916E+03 -0.18829559970E+03  0.17821550570E+02  0.44200748974E+03  0.50400001928E-02 0. -1.
       -1    1    3    3    0  502 -0.39949690916E+03  0.18829559970E+03 -0.12551809686E+03  0.45913811208E+03  0.50400001928E-02 0.  1.
</event>
<event>
 5   0  0.2628383E-02  0.9333790E+03  0.7818609E-02  0.9384792E-01
       -2   -1    0    0    0  501  0.00000000000E+00  0.00000000000E+00  0.20371063611E+03  0.20371063612E+03  0.25500000920E-02 0.  1.
        2   -1    0    0  501    0  0.00000000000E+00  0.00000000000E+00 -0.10691591810E+04  0.10691591810E+04  0.25500000920E-02 0. -1.
    10030    2    1    2    0    0  0.00000000000E+00  0.00000000000E+00 -0.86544854492E+03  0.12728698172E+04  0.93337901601E+03 0.  0.
        2    1    3    3  502    0  0.80137873084E+02 -0.25052028442E+03 -0.95845047598E+03  0.99388621407E+03  0.25500000920E-02 0. -1.
       -2    1    3    3    0  502 -0.80137873084E+02  0.25052028442E+03  0.93001931055E+02  0.27898360309E+03  0.25500000920E-02 0.  1.
</event>
<event>
 5   0  0.2705111E-02  0.9081805E+03  0.7818609E-02  0.9415413E-01
        2   -1    0    0  501    0  0.00000000000E+00  0.00000000000E+00  0.29785067141E+03  0.29785067142E+03  0.25500000920E-02 0. -1.
       -2   -1    0    0    0  501  0.00000000000E+00  0.00000000000E+00 -0.69228629827E+03  0.69228629828E+03  0.25500000920E-02 0.  1.
    10030    2    1    2    0    0  0.00000000000E+00  0.00000000000E+00 -0.39443562686E+03  0.99013696970E+03  0.90818046391E+03 0.  0.
        4    1    3    3  502    0 -0.14930986567E+03 -0.26030004733E+03  0.17434025729E+03  0.34705286173E+03  0.12699999809E+01 0. -1.
       -4    1    3    3    0  502  0.14930986567E+03  0.26030004733E+03 -0.56877588415E+03  0.64308410797E+03  0.12699999809E+01 0.  1.
</event>
<event>
 5   0  0.2803717E-02  0.9266843E+03  0.7818609E-02  0.9392826E-01
        2   -1    0    0  501    0  0.00000000000E+00  0.00000000000E+00  0.56610801675E+03  0.56610801676E+03  0.25500000920E-02 0.  1.
       -2   -1    0    0    0  501  0.00000000000E+00  0.00000000000E+00 -0.37923144783E+03  0.37923144784E+03  0.25500000920E-02 0. -1.
    10030    2    1    2    0    0  0.00000000000E+00  0.00000000000E+00  0.18687656892E+03  0.94533946460E+03  0.92668433207E+03 0.  0.
        5    1    3    3  502    0  0.98437721793E+02  0.43088088496E+03  0.23521650331E+03  0.50069673009E+03  0.46999998093E+01 0.  1.
       -5    1    3    3    0  502 -0.98437721793E+02 -0.43088088496E+03 -0.48339934392E+02  0.44464273451E+03  0.46999998093E+01 0. -1.
</event>
<event>
 5   0  0.2705111E-02  0.9082105E+03  0.7818609E-02  0.9415376E-01
       -2   -1    0    0    0  501  0.00000000000E+00  0.00000000000E+00  0.99661932899E+02  0.99661932932E+02  0.25500000920E-02 0.  1.
        2   -1    0    0  501    0  0.00000000000E+00  0.00000000000E+00 -0.20691108798E+04  0.20691108798E+04  0.25500000920E-02 0. -1.
    10030    2    1    2    0    0  0.00000000000E+00  0.00000000000E+00 -0.19694489469E+04  0.21687728127E+04  0.90821052560E+03 0.  0.
        4    1    3    3  502    0  0.14219726428E+03 -0.39803391939E+02  0.40725759353E+02  0.15318150135E+03  0.12699999809E+01 0.  1.
       -4    1    3    3    0  502 -0.14219726428E+03  0.39803391939E+02 -0.20101747063E+04  0.20155913114E+04  0.12699999809E+01 0. -1.
</event>
<event>
 5   0  0.2679861E-02  0.7090852E+03  0.7818609E-02  0.9701820E-01
       -2   -1    0    0    0  501  0.00000000000E+00  0.00000000000E+00  0.16106725367E+03  0.16106725369E+03  0.25500000920E-02 0. -1.
        2   -1    0    0  501    0  0.00000000000E+00  0.00000000000E+00 -0.78042216479E+03  0.78042216479E+03  0.25500000920E-02 0.  1.
    10030    2    1    2    0    0  0.00000000000E+00  0.00000000000E+00 -0.61935491112E+03  0.94148941849E+03  0.70908519883E+03 0.  0.
        1    1    3    3  502    0  0.19999614915E+03  0.10252438730E+03  0.54404552131E+02  0.23123486975E+03  0.50400001928E-02 0. -1.
       -1    1    3    3    0  502 -0.19999614915E+03 -0.10252438730E+03 -0.67375946325E+03  0.71025454874E+03  0.50400001928E-02 0.  1.
</event>
<event>
 5   0  0.1459111E-02  0.9024287E+03  0.7818609E-02  0.9422551E-01
       -1   -1    0    0    0  501  0.00000000000E+00  0.00000000000E+00  0.43444960392E+03  0.43444960395E+03  0.50400001928E-02 0. -1.
        1   -1    0    0  501    0  0.00000000000E+00  0.00000000000E+00 -0.46862600565E+03  0.46862600567E+03  0.50400001928E-02 0.  1.
    10030    2    1    2    0    0  0.00000000000E+00  0.00000000000E+00 -0.34176401724E+02  0.90307560962E+03  0.90242868431E+03 0.  0.
        2    1    3    3  502    0  0.20107996574E+03  0.19659332884E+03 -0.37020415290E+03  0.46490128457E+03  0.25500000920E-02 0.  1.
       -2    1    3    3    0  502 -0.20107996574E+03 -0.19659332884E+03  0.33602775118E+03  0.43817432505E+03  0.25500000920E-02 0. -1.
</event>
<event>
 5   0  0.2628383E-02  0.9431602E+03  0.7818609E-02  0.9373181E-01
       -2   -1    0    0    0  501  0.00000000000E+00  0.00000000000E+00  0.88164642505E+03  0.88164642505E+03  0.25500000920E-02 0.  1.
        2   -1    0    0  501    0  0.00000000000E+00  0.00000000000E+00 -0.25224146601E+03  0.25224146602E+03  0.25500000920E-02 0. -1.
    10030    2    1    2    0    0  0.00000000000E+00  0.00000000000E+00  0.62940495904E+03  0.11338878911E+04  0.94316019162E+03 0.  0.
        2    1    3    3  502    0 -0.22676570682E+03  0.32985284609E+03  0.14960309781E+02  0.40056135203E+03  0.25500000920E-02 0. -1.
       -2    1    3    3    0  502  0.22676570682E+03 -0.32985284609E+03  0.61444464926E+03  0.73332653905E+03  0.25500000920E-02 0.  1.
</event>
<event>
 5   0  0.2414128E-02  0.9168759E+03  0.7818609E-02  0.9404728E-01
        2   -1    0    0  501    0  0.00000000000E+00  0.00000000000E+00  0.93096859410E+03  0.93096859410E+03  0.25500000920E-02 0. -1.
       -2   -1    0    0    0  501  0.00000000000E+00  0.00000000000E+00 -0.22574914401E+03  0.22574914402E+03  0.25500000920E-02 0.  1.
    10030    2    1    2    0    0  0.00000000000E+00  0.00000000000E+00  0.70521945009E+03  0.11567177381E+04  0.91687592013E+03 0.  0.
        3    1    3    3  502    0 -0.22139104142E+03  0.90965127012E-01 -0.15383704367E+03  0.26959200230E+03  0.10100000352E+00 0.  1.
       -3    1    3    3    0  502  0.22139104142E+03 -0.90965127012E-01  0.85905649376E+03  0.88712573583E+03  0.10100000352E+00 0. -1.
</event>
<event>
 5   0  0.2803717E-02  0.8939172E+03  0.7818609E-02  0.9433217E-01
        2   -1    0    0  501    0  0.00000000000E+00  0.00000000000E+00  0.14685508567E+04  0.14685508568E+04  0.25500000920E-02 0.  1.
       -2   -1    0    0    0  501  0.00000000000E+00  0.00000000000E+00 -0.13603342342E+03  0.13603342345E+03  0.25500000920E-02 0. -1.
    10030    2    1    2    0    0  0.00000000000E+00  0.00000000000E+00  0.13325174333E+04  0.16045842802E+04  0.89391722331E+03 0.  0.
        5    1    3    3  502    0  0.41214304298E+02 -0.19631869860E+03 -0.50642867333E+02  0.20694550082E+03  0.46999998093E+01 0. -1.
       -5    1    3    3    0  502 -0.41214304298E+02  0.19631869860E+03  0.13831603007E+04  0.13976387794E+04  0.46999998093E+01 0.  1.
</event>
<event>
 5   0  0.2679861E-02  0.9158531E+03  0.7818609E-02  0.9405978E-01
        2   -1    0    0  501    0  0.00000000000E+00  0.00000000000E+00  0.13120907408E+04  0.13120907408E+04  0.25500000920E-02 0.  1.
       -2   -1    0    0    0  501  0.00000000000E+00  0.00000000000E+00 -0.15981878467E+03  0.15981878469E+03  0.25500000920E-02 0. -1.
    10030    2    1    2    0    0  0.00000000000E+00  0.00000000000E+00  0.11522719561E+04  0.14719095255E+04  0.91585314889E+03 0.  0.
        1    1    3    3  502    0 -0.85084222324E+02 -0.19231836913E+03  0.12298929107E+04  0.12477428629E+04  0.50400001928E-02 0.  1.
       -1    1    3    3    0  502  0.85084222324E+02  0.19231836913E+03 -0.77620954623E+02  0.22416666258E+03  0.50400001928E-02 0. -1.
</event>
<event>
 5   0  0.1559275E-02  0.8860850E+03  0.7818609E-02  0.9443145E-01
       -1   -1    0    0    0  501  0.00000000000E+00  0.00000000000E+00  0.16785362626E+03  0.16785362634E+03  0.50400001928E-02 0. -1.
        1   -1    0    0  501    0  0.00000000000E+00  0.00000000000E+00 -0.11693917199E+04  0.11693917199E+04  0.50400001928E-02 0.  1.
    10030    2    1    2    0    0  0.00000000000E+00  0.00000000000E+00 -0.10015380937E+04  0.13372453463E+04  0.88608496381E+03 0.  0.
        1    1    3    3  502    0 -0.21505760393E+03 -0.37546383850E+03 -0.64444704072E+03  0.77623118679E+03  0.50400001928E-02 0. -1.
       -1    1    3    3    0  502  0.21505760393E+03  0.37546383850E+03 -0.35709105295E+03  0.56101415949E+03  0.50400001928E-02 0.  1.
</event>
<event>
 5   0  0.2628383E-02  0.9026433E+03  0.7818609E-02  0.9422283E-01
       -2   -1    0    0    0  501  0.00000000000E+00  0.00000000000E+00  0.16946769199E+03  0.16946769201E+03  0.25500000920E-02 0. -1.
        2   -1    0    0  501    0  0.00000000000E+00  0.00000000000E+00 -0.12019472750E+04  0.12019472750E+04  0.25500000920E-02 0.  1.
    10030    2    1    2    0    0  0.00000000000E+00  0.00000000000E+00 -0.10324795830E+04  0.13714149670E+04  0.90264329744E+03 0.  0.
        2    1    3    3  502    0 -0.53982392369E+02 -0.33943714854E+03 -0.96065302175E+03  0.10202871678E+04  0.25500000920E-02 0.  1.
       -2    1    3    3    0  502  0.53982392369E+02  0.33943714854E+03 -0.71826561242E+02  0.35112779924E+03  0.25500000920E-02 0. -1.
</event>
<event>
 5   0  0.1497410E-02  0.8968424E+03  0.7818609E-02  0.9429537E-01
       -1   -1    0    0    0  501  0.00000000000E+00  0.00000000000E+00  0.13826315959E+03  0.13826315968E+03  0.50400001928E-02 0. -1.
        1   -1    0    0  501    0  0.00000000000E+00  0.00000000000E+00 -0.14543394672E+04  0.14543394672E+04  0.50400001928E-02 0.  1.
    10030    2    1    2    0    0  0.00000000000E+00  0.00000000000E+00 -0.13160763076E+04  0.15926026268E+04  0.89684239402E+03 0.  0.
        3    1    3    3  502    0  0.38765337812E+03 -0.15573105711E+03 -0.36866491348E+03  0.55717244400E+03  0.10100000352E+00 0. -1.
       -3    1    3    3    0  502 -0.38765337812E+03  0.15573105711E+03 -0.94741139408E+03  0.10354301828E+04  0.10100000352E+00 0.  1.
</event>
<event>
 5   0  0.2803717E-02  0.9137240E+03  0.7818609E-02  0.9408586E-01
        2   -1    0    0  501    0  0.00000000000E+00  0.00000000000E+00  0.18101307953E+04  0.18101307953E+04  0.25500000920E-02 0.  1.
       -2   -1    0    0    0  501  0.00000000000E+00  0.00000000000E+00 -0.11530819061E+03  0.11530819064E+03  0.25500000920E-02 0. -1.
    10030    2    1    2    0    0  0.00000000000E+00  0.00000000000E+00  0.16948226047E+04  0.19254389859E+04  0.91372404325E+03 0.  0.
        5    1    3    3  502    0  0.12096001555E+03  0.30855780852E+03  0.15099762562E+04  0.15459267871E+04  0.46999998093E+01 0.  1.
       -5    1    3    3    0  502 -0.12096001555E+03 -0.30855780852E+03  0.18484634846E+03  0.37951219888E+03  0.46999998093E+01 0. -1.
</event>
<event>
 5   0  0.1459111E-02  0.9115375E+03  0.7818609E-02  0.9411273E-01
        1   -1    0    0  501    0  0.00000000000E+00  0.00000000000E+00  0.69586459583E+03  0.69586459585E+03  0.50400001928E-02 0.  1.
       -1   -1    0    0    0  501  0.00000000000E+00  0.00000000000E+00 -0.29851374121E+03  0.29851374126E+03  0.50400001928E-02 0. -1.
    10030    2    1    2    0    0  0.00000000000E+00  0.00000000000E+00  0.39735085462E+03  0.99437833711E+03  0.91153747901E+03 0.  0.
        2    1    3    3  502    0  0.12744536190E+03  0.81219398920E+02  0.66773652047E+03  0.68462469413E+03  0.25500000920E-02 0.  1.
       -2    1    3    3    0  502 -0.12744536190E+03 -0.81219398920E+02 -0.27038566586E+03  0.30975364298E+03  0.25500000920E-02 0. -1.
</event>
<event>
 5   0  0.2705111E-02  0.9126565E+03  0.7818609E-02  0.9409897E-01
       -2   -1    0    0    0  501  0.00000000000E+00  0.00000000000E+00  0.38998904278E+03  0.38998904279E+03  0.25500000920E-02 0. -1.
        2   -1    0    0  501    0  0.00000000000E+00  0.00000000000E+00 -0.53395209449E+03  0.53395209450E+03  0.25500000920E-02 0.  1.
    10030    2    1    2    0    0  0.00000000000E+00  0.00000000000E+00 -0.14396305171E+03  0.92394113729E+03  0.91265648790E+03 0.  0.
        4    1    3    3  502    0  0.43944769579E+03  0.11563777086E+03 -0.11430129668E+03  0.46856458542E+03  0.12699999809E+01 0.  1.
       -4    1    3    3    0  502 -0.43944769579E+03 -0.11563777086E+03 -0.29661755027E+02  0.45537655187E+03  0.12699999809E+01 0. -1.
</event>
<event>
 5   0  0.1559275E-02  0.8891065E+03  0.7818609E-02  0.9439302E-01
       -1   -1    0    0    0  501  0.00000000000E+00  0.00000000000E+00  0.42630375337E+03  0.42630375340E+03  0.50400001928E-02 0.  1.
        1   -1    0    0  501    0  0.00000000000E+00  0.00000000000E+00 -0.46358394304E+03  0.46358394307E+03  0.50400001928E-02 0. -1.
    10030    2    1    2    0    0  0.00000000000E+00  0.00000000000E+00 -0.37280189671E+02  0.88988769648E+03  0.88910646145E+03 0.  0.
        1    1    3    3  502    0 -0.81960161676E+02 -0.29368976012E+03 -0.34243081469E+03  0.45850845813E+03  0.50400001928E-02 0. -1.
       -1    1    3    3    0  502  0.81960161676E+02  0.29368976012E+03  0.30515062502E+03  0.43137923835E+03  0.50400001928E-02 0.  1.
</event>
<event>
 5   0  0.2679861E-02  0.8864849E+03  0.7818609E-02  0.9442635E-01
        2   -1    0    0  501    0  0.00000000000E+00  0.00000000000E+00  0.43466426159E+03  0.43466426159E+03  0.25500000920E-02 0.  1.
       -2   -1    0    0    0  501  0.00000000000E+00  0.00000000000E+00 -0.45198993341E+03  0.45198993342E+03  0.25500000920E-02 0. -1.
    10030    2    1    2    0    0  0.00000000000E+00  0.00000000000E+00 -0.17325671828E+02  0.88665419502E+03  0.88648490265E+03 0.  0.
        1    1    3    3  502    0 -0.87399517263E+02 -0.24724040075E+03 -0.36607877952E+03  0.45031118598E+03  0.50400001928E-02 0. -1.
       -1    1    3    3    0  502  0.87399517263E+02  0.24724040075E+03  0.34875310769E+03  0.43634300903E+03  0.50400001928E-02 0.  1.
</event>
<event>
 5   0  0.1560728E-02  0.7927437E+03  0.7818609E-02  0.9570580E-01
        1   -1    0    0  501    0  0.00000000000E+00  0.00000000000E+00  0.24456043630E+03  0.24456043635E+03  0.50400001928E-02 0. -1.
       -1   -1    0    0    0  501  0.00000000000E+00  0.00000000000E+00 -0.64242053958E+03  0.64242053960E+03  0.50400001928E-02 0.  1.
    10030    2    1    2    0    0  0.00000000000E+00  0.00000000000E+00 -0.39786010327E+03  0.88698097595E+03  0.79274371011E+03 0.  0.
        4    1    3    3  502    0  0.25257340901E+03 -0.45437858561E+02 -0.53691750204E+03  0.59509658277E+03  0.12699999809E+01 0.  1.
       -4    1    3    3    0  502 -0.25257340901E+03  0.45437858561E+02  0.13905739876E+03  0.29188439318E+03  0.12699999809E+01 0. -1.
</event>
<event>
 5   0  0.1537870E-02  0.8974918E+03  0.7818609E-02  0.9428722E-01
        1   -1    0    0  501    0  0.00000000000E+00  0.00000000000E+00  0.11198952818E+04  0.11198952818E+04  0.50400001928E-02 0. -1.
       -1   -1    0    0    0  501  0.00000000000E+00  0.00000000000E+00 -0.17981404506E+03  0.17981404513E+03  0.50400001928E-02 0.  1.
    10030    2    1    2    0    0  0.00000000000E+00  0.00000000000E+00  0.94008123672E+03  0.12997093269E+04  0.89749183999E+03 0.  0.
        5    1    3    3  502    0  0.33204036695E+03 -0.10511849626E+03  0.87976960134E+03  0.94621210359E+03  0.46999998093E+01 0. -1.
       -5    1    3    3    0  502 -0.33204036695E+03  0.10511849626E+03  0.60311635375E+02  0.35349722333E+03  0.46999998093E+01 0.  1.
</event>
<event>
 5   0  0.2414128E-02  0.9121410E+03  0.7818609E-02  0.9410531E-01
        2   -1    0    0  501    0  0.00000000000E+00  0.00000000000E+00  0.12831687266E+04  0.12831687266E+04  0.25500000920E-02 0. -1.
       -2   -1    0    0    0  501  0.00000000000E+00  0.00000000000E+00 -0.16209895981E+03  0.16209895983E+03  0.25500000920E-02 0.  1.
    10030    2    1    2    0    0  0.00000000000E+00  0.00000000000E+00  0.11210697668E+04  0.14452676864E+04  0.91214103263E+03 0.  0.
        3    1    3    3  502    0  0.42790327460E+03  0.20464100926E+02  0.80844530856E+03  0.91493377846E+03  0.10100000352E+00 0. -1.
       -3    1    3    3    0  502 -0.42790327460E+03 -0.20464100926E+02  0.31262445820E+03  0.53033390794E+03  0.10100000352E+00 0.  1.
</event>
<event>
 5   0  0.1497410E-02  0.9025840E+03  0.7818609E-02  0.9422357E-01
       -1   -1    0    0    0  501  0.00000000000E+00  0.00000000000E+00  0.41956211671E+03  0.41956211674E+03  0.50400001928E-02 0.  1.
        1   -1    0    0  501    0  0.00000000000E+00  0.00000000000E+00 -0.48542148497E+03  0.48542148499E+03  0.50400001928E-02 0. -1.
    10030    2    1    2    0    0  0.00000000000E+00  0.00000000000E+00 -0.65859368258E+02  0.90498360173E+03  0.90258399222E+03 0.  0.
        3    1    3    3  502    0 -0.91686651232E+02  0.36652127892E+03 -0.28040598783E+03  0.47050166645E+03  0.10100000352E+00 0. -1.
       -3    1    3    3    0  502  0.91686651232E+02 -0.36652127892E+03  0.21454661957E+03  0.43448193528E+03  0.10100000352E+00 0.  1.
</event>
<event>
 5   0  0.2679861E-02  0.9180217E+03  0.7818609E-02  0.9403330E-01
        2   -1    0    0  501    0  0.00000000000E+00  0.00000000000E+00  0.70700156773E+03  0.70700156773E+03  0.25500000920E-02 0. -1.
       -2   -1    0    0    0  501  0.00000000000E+00  0.00000000000E+00 -0.29800635928E+03  0.29800635929E+03  0.25500000920E-02 0.  1.
    10030    2    1    2    0    0  0.00000000000E+00  0.00000000000E+00  0.40899520845E+03  0.10050079270E+04  0.91802170608E+03 0.  0.
        1    1    3    3  502    0 -0.20046754215E+03  0.24118998214E+03 -0.16241833832E+03  0.35318488018E+03  0.50400001928E-02 0.  1.
       -1    1    3    3    0  502  0.20046754215E+03 -0.24118998214E+03  0.57141354677E+03  0.65182304684E+03  0.50400001928E-02 0. -1.
</event>
<event>
 5   0  0.1560728E-02  0.1073247E+04  0.7818609E-02  0.9231666E-01
        1   -1    0    0  501    0  0.00000000000E+00  0.00000000000E+00  0.20609881465E+04  0.20609881465E+04  0.50400001928E-02 0. -1.
       -1   -1    0    0    0  501  0.00000000000E+00  0.00000000000E+00 -0.13972175509E+03  0.13972175518E+03  0.50400001928E-02 0.  1.
    10030    2    1    2    0    0  0.00000000000E+00  0.00000000000E+00  0.19212663914E+04  0.22007099017E+04  0.10732471871E+04 0.  0.
        4    1    3    3  502    0 -0.46949628502E+03  0.34416488431E+02  0.14888230887E+04  0.15614759232E+04  0.12699999809E+01 0. -1.
       -4    1    3    3    0  502  0.46949628502E+03 -0.34416488431E+02  0.43244330271E+03  0.63923397851E+03  0.12699999809E+01 0.  1.
</event>
<event>
 5   0  0.2414128E-02  0.8686454E+03  0.7818609E-02  0.9465648E-01
        2   -1    0    0  501    0  0.00000000000E+00  0.00000000000E+00  0.48194454500E+03  0.48194454500E+03  0.25500000920E-02 0. -1.
       -2   -1    0    0    0  501  0.00000000000E+00  0.00000000000E+00 -0.39140649985E+03  0.39140649986E+03  0.25500000920E-02 0.  1.
    10030    2    1    2    0    0  0.00000000000E+00  0.00000000000E+00  0.90538045148E+02  0.87335104486E+03  0.86864544547E+03 0.  0.
        3    1    3    3  502    0 -0.61663109646E+02  0.21341639159E+03  0.42050294358E+03  0.47557505301E+03  0.10100000352E+00 0. -1.
       -3    1    3    3    0  502  0.61663109646E+02 -0.21341639159E+03 -0.32996489843E+03  0.39777599184E+03  0.10100000352E+00 0.  1.
</event>
<event>
 5   0  0.1560728E-02  0.8180997E+03  0.7818609E-02  0.9534182E-01
        1   -1    0    0  501    0  0.00000000000E+00  0.00000000000E+00  0.63539884321E+03  0.63539884323E+03  0.50400001928E-02 0.  1.
       -1   -1    0    0    0  501  0.00000000000E+00  0.00000000000E+00 -0.26333344834E+03  0.26333344839E+03  0.50400001928E-02 0. -1.
    10030    2    1    2    0    0  0.00000000000E+00  0.00000000000E+00  0.37206539487E+03  0.89873229162E+03  0.81809967238E+03 0.  0.
        4    1    3    3  502    0 -0.12207973063E+02  0.18230528795E+03  0.58807581547E+03  0.61580762439E+03  0.12699999809E+01 0.  1.
       -4    1    3    3    0  502  0.12207973063E+02 -0.18230528795E+03 -0.21601042060E+03  0.28292466723E+03  0.12699999809E+01 0. -1.
</event>
<event>
 5   0  0.1537870E-02  0.8175725E+03  0.7818609E-02  0.9534924E-01
       -1   -1    0    0    0  501  0.00000000000E+00  0.00000000000E+00  0.10652579914E+03  0.10652579926E+03  0.50400001928E-02 0.  1.
        1   -1    0    0  501    0  0.00000000000E+00  0.00000000000E+00 -0.15686922122E+04  0.15686922122E+04  0.50400001928E-02 0. -1.
    10030    2    1    2    0    0  0.00000000000E+00  0.00000000000E+00 -0.14621664131E+04  0.16752180115E+04  0.81757248393E+03 0.  0.
        5    1    3    3  502    0  0.36519294154E+03  0.18357908619E+03 -0.72265077348E+03  0.83024899629E+03  0.46999998093E+01 0. -1.
       -5    1    3    3    0  502 -0.36519294154E+03 -0.18357908619E+03 -0.73951563957E+03  0.84496901517E+03  0.46999998093E+01 0.  1.
</event>
<event>
 5   0  0.1560728E-02  0.9623232E+03  0.7818609E-02  0.9350861E-01
       -1   -1    0    0    0  501  0.00000000000E+00  0.00000000000E+00  0.20164344463E+03  0.20164344469E+03  0.50400001928E-02 0. -1.
        1   -1    0    0  501    0  0.00000000000E+00  0.00000000000E+00 -0.11481478847E+04  0.11481478847E+04  0.50400001928E-02 0.  1.
    10030    2    1    2    0    0  0.00000000000E+00  0.00000000000E+00 -0.94650444011E+03  0.13497913294E+04  0.96232321903E+03 0.  0.
        4    1    3    3  502    0  0.47513072562E+03 -0.68772620528E+02 -0.51839891127E+03  0.70655355343E+03  0.12699999809E+01 0.  1.
       -4    1    3    3    0  502 -0.47513072562E+03  0.68772620528E+02 -0.42810552884E+03  0.64323777601E+03  0.12699999809E+01 0. -1.
</event>
<event>
 5   0  0.1497410E-02  0.8925289E+03  0.7818609E-02  0.9434969E-01
        1   -1    0    0  501    0  0.00000000000E+00  0.00000000000E+00  0.74269877433E+03  0.74269877434E+03  0.50400001928E-02 0. -1.
       -1   -1    0    0    0  501  0.00000000000E+00  0.00000000000E+00 -0.26814632184E+03  0.26814632189E+03  0.50400001928E-02 0.  1.
    10030    2    1    2    0    0  0.00000000000E+00  0.00000000000E+00  0.47455245248E+03  0.10108450962E+04  0.89252886700E+03 0.  0.
        3    1    3    3  502    0  0.17547102367E+03  0.30749117625E+03  0.54497302110E+03  0.64987422441E+03  0.10100000352E+00 0. -1.
       -3    1    3    3    0  502 -0.17547102367E+03 -0.30749117625E+03 -0.70420568621E+02  0.36097087183E+03  0.10100000352E+00 0.  1.
</event>
<event>
 5   0  0.2628383E-02  0.8969938E+03  0.7818609E-02  0.9429347E-01
        2   -1    0    0  501    0  0.00000000000E+00  0.00000000000E+00  0.80009801639E+03  0.80009801639E+03  0.25500000920E-02 0.  1.
       -2   -1    0    0    0  501  0.00000000000E+00  0.00000000000E+00 -0.25140602201E+03  0.25140602202E+03  0.25500000920E-02 0. -1.
    10030    2    1    2    0    0  0.00000000000E+00  0.00000000000E+00  0.54869199438E+03  0.10515040384E+04  0.89699377818E+03 0.  0.
        2    1    3    3  502    0  0.41909256015E+03 -0.98784607775E+02  0.12721774469E+03  0.44897809220E+03  0.25500000920E-02 0. -1.
       -2    1    3    3    0  502 -0.41909256015E+03  0.98784607775E+02  0.42147424969E+03  0.60252594621E+03  0.25500000920E-02 0.  1.
</event>
<event>
 5   0  0.2705111E-02  0.9087498E+03  0.7818609E-02  0.9414709E-01
        2   -1    0    0  501    0  0.00000000000E+00  0.00000000000E+00  0.48232616955E+03  0.48232616956E+03  0.25500000920E-02 0. -1.
       -2   -1    0    0    0  501  0.00000000000E+00  0.00000000000E+00 -0.42804344001E+03  0.42804344002E+03  0.25500000920E-02 0.  1.
    10030    2    1    2    0    0  0.00000000000E+00  0.00000000000E+00  0.54282729534E+02  0.91036960958E+03  0.90874980678E+03 0.  0.
        4    1    3    3  502    0  0.38749856115E+02  0.20061817393E+03  0.43370429995E+03  0.47942698688E+03  0.12699999809E+01 0. -1.
       -4    1    3    3    0  502 -0.38749856115E+02 -0.20061817393E+03 -0.37942157041E+03  0.43094262269E+03  0.12699999809E+01 0.  1.
</event>
<event>
 5   0  0.2414128E-02  0.9065300E+03  0.7818609E-02  0.9417455E-01
       -2   -1    0    0    0  501  0.00000000000E+00  0.00000000000E+00  0.87875627339E+03  0.87875627340E+03  0.25500000920E-02 0. -1.
        2   -1    0    0  501    0  0.00000000000E+00  0.00000000000E+00 -0.23379539890E+03  0.23379539892E+03  0.25500000920E-02 0.  1.
    10030    2    1    2    0    0  0.00000000000E+00  0.00000000000E+00  0.64496087449E+03  0.11125516723E+04  0.90653002925E+03 0.  0.
        3    1    3    3  502    0  0.39968689874E+03  0.21376557894E+03  0.32008066673E+03  0.55488465754E+03  0.10100000352E+00 0.  1.
       -3    1    3    3    0  502 -0.39968689874E+03 -0.21376557894E+03  0.32488020776E+03  0.55766701477E+03  0.10100000352E+00 0. -1.
</event>
<event>
 5   0  0.2803717E-02  0.9179407E+03  0.7818609E-02  0.9403428E-01
       -2   -1    0    0    0  501  0.00000000000E+00  0.00000000000E+00  0.12459293714E+03  0.12459293717E+03  0.25500000920E-02 0. -1.
        2   -1    0    0  501    0  0.00000000000E+00  0.00000000000E+00 -0.16907360814E+04  0.16907360814E+04  0.25500000920E-02 0.  1.
    10030    2    1    2    0    0  0.00000000000E+00  0.00000000000E+00 -0.15661431443E+04  0.18153290186E+04  0.91794068294E+03 0.  0.
        5    1    3    3  502    0 -0.16945402019E+03  0.42507458818E+03 -0.85238995769E+03  0.96746772579E+03  0.46999998093E+01 0.  1.
       -5    1    3    3    0  502  0.16945402019E+03 -0.42507458818E+03 -0.71375318660E+03  0.84786129282E+03  0.46999998093E+01 0. -1.
</event>
<event>
 5   0  0.1459111E-02  0.5885250E+03  0.7818609E-02  0.9929503E-01
        1   -1    0    0  501    0  0.00000000000E+00  0.00000000000E+00  0.17662477851E+04  0.17662477851E+04  0.50400001928E-02 0.  1.
       -1   -1    0    0    0  501  0.00000000000E+00  0.00000000000E+00 -0.49025063486E+02  0.49025063745E+02  0.50400001928E-02 0. -1.
    10030    2    1    2    0    0  0.00000000000E+00  0.00000000000E+00  0.17172227216E+04  0.18152728488E+04  0.58852496985E+03 0.  0.
        2    1    3    3  502    0 -0.55005240154E+02  0.12593682230E+03  0.16611881373E+04  0.16668628279E+04  0.25500000920E-02 0.  1.
       -2    1    3    3    0  502  0.55005240154E+02 -0.12593682230E+03  0.56034584286E+02  0.14841002088E+03  0.25500000920E-02 0. -1.
</event>
<event>
 5   0  0.1560728E-02  0.8980368E+03  0.7818609E-02  0.9428039E-01
        1   -1    0    0  501    0  0.00000000000E+00  0.00000000000E+00  0.29949732939E+03  0.29949732943E+03  0.50400001928E-02 0.  1.
       -1   -1    0    0    0  501  0.00000000000E+00  0.00000000000E+00 -0.67318637507E+03  0.67318637509E+03  0.50400001928E-02 0. -1.
    10030    2    1    2    0    0  0.00000000000E+00  0.00000000000E+00 -0.37368904568E+03  0.97268370452E+03  0.89803679556E+03 0.  0.
        4    1    3    3  502    0 -0.14609993501E+03  0.55711507900E+02 -0.64274375157E+03  0.66149082095E+03  0.12699999809E+01 0. -1.
       -4    1    3    3    0  502  0.14609993501E+03 -0.55711507900E+02  0.26905470589E+03  0.31119288357E+03  0.12699999809E+01 0.  1.
</event>
<event>
 5   0  0.2414128E-02  0.8812497E+03  0.7818609E-02  0.9449329E-01
       -2   -1    0    0    0  501  0.00000000000E+00  0.00000000000E+00  0.85734650583E+03  0.85734650583E+03  0.25500000920E-02 0. -1.
        2   -1    0    0  501    0  0.00000000000E+00  0.00000000000E+00 -0.22645480948E+03  0.22645480949E+03  0.25500000920E-02 0.  1.
    10030    2    1    2    0    0  0.00000000000E+00  0.00000000000E+00  0.63089169635E+03  0.10838013153E+04  0.88124965735E+03 0.  0.
        3    1    3    3  502    0  0.35630224614E+02  0.39186404303E+03  0.71566162630E+02  0.39993582855E+03  0.10100000352E+00 0.  1.
       -3    1    3    3    0  502 -0.35630224614E+02 -0.39186404303E+03  0.55932553372E+03  0.68386548677E+03  0.10100000352E+00 0. -1.
</event>
<event>
 5   0  0.2679861E-02  0.8749000E+03  0.7818609E-02  0.9457513E-01
       -2   -1    0    0    0  501  0.00000000000E+00  0.00000000000E+00  0.28122126547E+03  0.28122126548E+03  0.25500000920E-02 0. -1.
        2   -1    0    0  501    0  0.00000000000E+00  0.00000000000E+00 -0.68046954757E+03  0.68046954758E+03  0.25500000920E-02 0.  1.
    10030    2    1    2    0    0  0.00000000000E+00  0.00000000000E+00 -0.39924828210E+03  0.96169081306E+03  0.87490001095E+03 0.  0.
        1    1    3    3  502    0 -0.11441944030E+03  0.26675801315E+03  0.16012005939E+03  0.33149672599E+03  0.50400001928E-02 0. -1.
       -1    1    3    3    0  502  0.11441944030E+03 -0.26675801315E+03 -0.55936834148E+03  0.63019408707E+03  0.50400001928E-02 0.  1.
</event>
<event>
 5   0  0.1537870E-02  0.9363707E+03  0.7818609E-02  0.9381224E-01
       -1   -1    0    0    0  501  0.00000000000E+00  0.00000000000E+00  0.85464643180E+03  0.85464643182E+03  0.50400001928E-02 0. -1.
        1   -1    0    0  501    0  0.00000000000E+00  0.00000000000E+00 -0.25647744837E+03  0.25647744842E+03  0.50400001928E-02 0.  1.
    10030    2    1    2    0    0  0.00000000000E+00  0.00000000000E+00  0.59816898343E+03  0.11111238802E+04  0.93637073027E+03 0.  0.
        5    1    3    3  502    0 -0.21259306832E+03  0.37043299795E+03  0.52659248411E+03  0.67803993466E+03  0.46999998093E+01 0.  1.
       -5    1    3    3    0  502  0.21259306832E+03 -0.37043299795E+03  0.71576499319E+02  0.43308394558E+03  0.46999998093E+01 0. -1.
</event>
<event>
 5   0  0.2414128E-02  0.9666379E+03  0.7818609E-02  0.9345912E-01
        2   -1    0    0  501    0  0.00000000000E+00  0.00000000000E+00  0.10760820881E+04  0.10760820881E+04  0.25500000920E-02 0. -1.
       -2   -1    0    0    0  501  0.00000000000E+00  0.00000000000E+00 -0.21708122782E+03  0.21708122783E+03  0.25500000920E-02 0.  1.
    10030    2    1    2    0    0  0.00000000000E+00  0.00000000000E+00  0.85900086024E+03  0.12931633159E+04  0.96663792792E+03 0.  0.
        3    1    3    3  502    0  0.30756563105E+03 -0.33920138525E+03  0.63650453159E+03  0.78408687407E+03  0.10100000352E+00 0. -1.
       -3    1    3    3    0  502 -0.30756563105E+03  0.33920138525E+03  0.22249632866E+03  0.50907644183E+03  0.10100000352E+00 0.  1.
</event>
<event>
 5   0  0.1497410E-02  0.8921235E+03  0.7818609E-02  0.9435481E-01
       -1   -1    0    0    0  501  0.00000000000E+00  0.00000000000E+00  0.65410309499E+03  0.65410309501E+03  0.50400001928E-02 0. -1.
        1   -1    0    0  501    0  0.00000000000E+00  0.00000000000E+00 -0.30418915902E+03  0.30418915906E+03  0.50400001928E-02 0.  1.
    10030    2    1    2    0    0  0.00000000000E+00  0.00000000000E+00  0.34991393597E+03  0.95829225407E+03  0.89212346770E+03 0.  0.
        3    1    3    3  502    0  0.25442826706E+03 -0.35420666308E+03  0.74334373458E+02  0.44240446712E+03  0.10100000352E+00 0.  1.
       -3    1    3    3    0  502 -0.25442826706E+03  0.35420666308E+03  0.27557956251E+03  0.51588778695E+03  0.10100000352E+00 0. -1.
</event>
<event>
 5   0  0.1040163E-02  0.8925139E+03  0.7818609E-02  0.9434988E-01
        3   -1    0    0  501    0  0.00000000000E+00  0.00000000000E+00  0.83799389337E+03  0.83799389946E+03  0.10100000352E+00 0. -1.
       -3   -1    0    0    0  501  0.00000000000E+00  0.00000000000E+00 -0.23764524002E+03  0.23764526148E+03  0.10100000352E+00 0.  1.
    10030    2    1    2    0    0  0.00000000000E+00  0.00000000000E+00  0.60034865336E+03  0.10756391609E+04  0.89251392087E+03 0.  0.
        2    1    3    3  502    0 -0.22903794769E+03 -0.12979201106E+03 -0.13409325525E+03  0.29544093949E+03  0.25500000920E-02 0.  1.
       -2    1    3    3    0  502  0.22903794769E+03  0.12979201106E+03  0.73444190861E+03  0.78019822144E+03  0.25500000920E-02 0. -1.
</event>
<event>
 5   0  0.2628383E-02  0.8655078E+03  0.7818609E-02  0.9469756E-01
       -2   -1    0    0    0  501  0.00000000000E+00  0.00000000000E+00  0.17341420135E+03  0.17341420137E+03  0.25500000920E-02 0. -1.
        2   -1    0    0  501    0  0.00000000000E+00  0.00000000000E+00 -0.10799342421E+04  0.10799342421E+04  0.25500000920E-02 0.  1.
    10030    2    1    2    0    0  0.00000000000E+00  0.00000000000E+00 -0.90652004075E+03  0.12533484435E+04  0.86550779111E+03 0.  0.
        2    1    3    3  502    0  0.26503267275E+03 -0.10166567178E+03 -0.92627880606E+03  0.96879856162E+03  0.25500000920E-02 0.  1.
       -2    1    3    3    0  502 -0.26503267275E+03  0.10166567178E+03  0.19758765310E+02  0.28454988185E+03  0.25500000920E-02 0. -1.
</event>
<event>
 5   0  0.1559275E-02  0.8955506E+03  0.7818609E-02  0.9431161E-01
       -1   -1    0    0    0  501  0.00000000000E+00  0.00000000000E+00  0.34327691387E+03  0.34327691391E+03  0.50400001928E-02 0. -1.
        1   -1    0    0  501    0  0.00000000000E+00  0.00000000000E+00 -0.58408450168E+03  0.58408450170E+03  0.50400001928E-02 0.  1.
    10030    2    1    2    0    0  0.00000000000E+00  0.00000000000E+00 -0.24080758781E+03  0.92736141561E+03  0.89555061321E+03 0.  0.
        1    1    3    3  502    0 -0.24596421768E+03 -0.33773974047E+03  0.46363941296E+02  0.42037619312E+03  0.50400001928E-02 0. -1.
       -1    1    3    3    0  502  0.24596421768E+03  0.33773974047E+03 -0.28717152910E+03  0.50698522249E+03  0.50400001928E-02 0.  1.
</event>
<event>
 5   0  0.2414128E-02  0.8734557E+03  0.7818609E-02  0.9459385E-01
       -2   -1    0    0    0  501  0.00000000000E+00  0.00000000000E+00  0.12882635495E+03  0.12882635498E+03  0.25500000920E-02 0.  1.
        2   -1    0    0  501    0  0.00000000000E+00  0.00000000000E+00 -0.14805295960E+04  0.14805295960E+04  0.25500000920E-02 0. -1.
    10030    2    1    2    0    0  0.00000000000E+00  0.00000000000E+00 -0.13517032410E+04  0.16093559509E+04  0.87345573732E+03 0.  0.
        3    1    3    3  502    0 -0.33653576727E+03 -0.22141079984E+02 -0.16462514458E+03  0.37529721356E+03  0.10100000352E+00 0.  1.
       -3    1    3    3    0  502  0.33653576727E+03  0.22141079984E+02 -0.11870780964E+04  0.12340587374E+04  0.10100000352E+00 0. -1.
</event>
<event>
 5   0  0.2628383E-02  0.8960257E+03  0.7818609E-02  0.9430563E-01
       -2   -1    0    0    0  501  0.00000000000E+00  0.00000000000E+00  0.22182172063E+03  0.22182172065E+03  0.25500000920E-02 0. -1.
        2   -1    0    0  501    0  0.00000000000E+00  0.00000000000E+00 -0.90485063986E+03  0.90485063986E+03  0.25500000920E-02 0.  1.
    10030    2    1    2    0    0  0.00000000000E+00  0.00000000000E+00 -0.68302891922E+03  0.11266723605E+04  0.89602572700E+03 0.  0.
        2    1    3    3  502    0  0.38442936582E+03 -0.18227103372E+03 -0.16499773368E+03  0.45632545312E+03  0.25500000920E-02 0. -1.
       -2    1    3    3    0  502 -0.38442936582E+03  0.18227103372E+03 -0.51803118554E+03  0.67034690739E+03  0.25500000920E-02 0.  1.
</event>
<event>
 5   0  0.1559275E-02  0.9038048E+03  0.7818609E-02  0.9420838E-01
       -1   -1    0    0    0  501  0.00000000000E+00  0.00000000000E+00  0.29776518390E+03  0.29776518394E+03  0.50400001928E-02 0.  1.
        1   -1    0    0  501    0  0.00000000000E+00  0.00000000000E+00 -0.68582818955E+03  0.68582818956E+03  0.50400001928E-02 0. -1.
    10030    2    1    2    0    0  0.00000000000E+00  0.00000000000E+00 -0.38806300565E+03  0.98359337350E+03  0.90380475106E+03 0.  0.
        1    1    3    3  502    0 -0.10259856520E+03  0.29744958695E+03  0.15896934442E+03  0.35252514074E+03  0.50400001928E-02 0.  1.
       -1    1    3    3    0  502  0.10259856520E+03 -0.29744958695E+03 -0.54703235007E+03  0.63106823277E+03  0.50400001928E-02 0. -1.
</event>
<event>
 5   0  0.2803717E-02  0.8456852E+03  0.7818609E-02  0.9496147E-01
        2   -1    0    0  501    0  0.00000000000E+00  0.00000000000E+00  0.17058906225E+04  0.17058906225E+04  0.25500000920E-02 0.  1.
       -2   -1    0    0    0  501  0.00000000000E+00  0.00000000000E+00 -0.10481085725E+03  0.10481085728E+03  0.25500000920E-02 0. -1.
    10030    2    1    2    0    0  0.00000000000E+00  0.00000000000E+00  0.16010797653E+04  0.18107014798E+04  0.84568518622E+03 0.  0.
        5    1    3    3  502    0 -0.33681879307E+03 -0.24001124305E+03  0.61239682621E+03  0.73898867305E+03  0.46999998093E+01 0.  1.
       -5    1    3    3    0  502  0.33681879307E+03  0.24001124305E+03  0.98868293909E+03  0.10717128068E+04  0.46999998093E+01 0. -1.
</event>
<event>
 5   0  0.2628383E-02  0.9055089E+03  0.7818609E-02  0.9418721E-01
        2   -1    0    0  501    0  0.00000000000E+00  0.00000000000E+00  0.99576536046E+03  0.99576536047E+03  0.25500000920E-02 0. -1.
       -2   -1    0    0    0  501  0.00000000000E+00  0.00000000000E+00 -0.20585830855E+03  0.20585830857E+03  0.25500000920E-02 0.  1.
    10030    2    1    2    0    0  0.00000000000E+00  0.00000000000E+00  0.78990705191E+03  0.12016236690E+04  0.90550885767E+03 0.  0.
        2    1    3    3  502    0 -0.11888876913E+03 -0.18542669736E+03  0.91986961909E+03  0.94587404852E+03  0.25500000920E-02 0. -1.
       -2    1    3    3    0  502  0.11888876913E+03  0.18542669736E+03 -0.12996256718E+03  0.25574962052E+03  0.25500000920E-02 0.  1.
</event>
<event>
 5   0  0.2803717E-02  0.8654162E+03  0.7818609E-02  0.9469876E-01
       -2   -1    0    0    0  501  0.00000000000E+00  0.00000000000E+00  0.21352880474E+03  0.21352880475E+03  0.25500000920E-02 0.  1.
        2   -1    0    0  501    0  0.00000000000E+00  0.00000000000E+00 -0.87686677651E+03  0.87686677651E+03  0.25500000920E-02 0. -1.
    10030    2    1    2    0    0  0.00000000000E+00  0.00000000000E+00 -0.66333797177E+03  0.10903955813E+04  0.86541623445E+03 0.  0.
        5    1    3    3  502    0  0.35162523786E+03  0.52227257808E+01 -0.14050814569E+02  0.35197599372E+03  0.46999998093E+01 0.  1.
       -5    1    3    3    0  502 -0.35162523786E+03 -0.52227257808E+01 -0.64928715720E+03  0.73841958754E+03  0.46999998093E+01 0. -1.
</event>
<event>
 5   0  0.1560728E-02  0.9015736E+03  0.7818609E-02  0.9423616E-01
        1   -1    0    0  501    0  0.00000000000E+00  0.00000000000E+00  0.26569820082E+03  0.26569820087E+03  0.50400001928E-02 0.  1.
       -1   -1    0    0    0  501  0.00000000000E+00  0.00000000000E+00 -0.76481036304E+03  0.76481036306E+03  0.50400001928E-02 0. -1.
    10030    2    1    2    0    0  0.00000000000E+00  0.00000000000E+00 -0.49911216222E+03  0.10305085639E+04  0.90157359647E+03 0.  0.
        4    1    3    3  502    0  0.35439788870E+03  0.25678253586E+03 -0.37304354750E+03  0.57506367949E+03  0.12699999809E+01 0. -1.
       -4    1    3    3    0  502 -0.35439788870E+03 -0.25678253586E+03 -0.12606861472E+03  0.45544488444E+03  0.12699999809E+01 0.  1.
</event>
<event>
 5   0  0.2705111E-02  0.9000626E+03  0.7818609E-02  0.9425503E-01
        2   -1    0    0  501    0  0.00000000000E+00  0.00000000000E+00  0.74208697085E+03  0.74208697086E+03  0.25500000920E-02 0. -1.
       -2   -1    0    0    0  501  0.00000000000E+00  0.00000000000E+00 -0.27291705591E+03  0.27291705592E+03  0.25500000920E-02 0.  1.
    10030    2    1    2    0    0  0.00000000000E+00  0.00000000000E+00  0.46916991495E+03  0.10150040268E+04  0.90006264520E+03 0.  0.
        4    1    3    3  502    0 -0.29716975738E+03  0.21963654897E+03 -0.55075801374E+02  0.37361080704E+03  0.12699999809E+01 0.  1.
       -4    1    3    3    0  502  0.29716975738E+03 -0.21963654897E+03  0.52424571632E+03  0.64139321973E+03  0.12699999809E+01 0. -1.
</event>
<event>
 5   0  0.2414128E-02  0.8958692E+03  0.7818609E-02  0.9430760E-01
       -2   -1    0    0    0  501  0.00000000000E+00  0.00000000000E+00  0.45690995319E+03  0.45690995319E+03  0.25500000920E-02 0. -1.
        2   -1    0    0  501    0  0.00000000000E+00  0.00000000000E+00 -0.43913551652E+03  0.43913551653E+03  0.25500000920E-02 0.  1.
    10030    2    1    2    0    0  0.00000000000E+00  0.00000000000E+00  0.17774436663E+02  0.89604546973E+03  0.89586916077E+03 0.  0.
        3    1    3    3  502    0  0.14932275656E+03  0.72474682236E+02 -0.40724214947E+03  0.43976817040E+03  0.10100000352E+00 0.  1.
       -3    1    3    3    0  502 -0.14932275656E+03 -0.72474682236E+02  0.42501658613E+03  0.45627729933E+03  0.10100000352E+00 0. -1.
</event>
<event>
 5   0  0.2803717E-02  0.9637433E+03  0.7818609E-02  0.9349229E-01
        2   -1    0    0  501    0  0.00000000000E+00  0.00000000000E+00  0.36169186010E+03  0.36169186011E+03  0.25500000920E-02 0.  1.
       -2   -1    0    0    0  501  0.00000000000E+00  0.00000000000E+00 -0.64198371437E+03  0.64198371438E+03  0.25500000920E-02 0. -1.
    10030    2    1    2    0    0  0.00000000000E+00  0.00000000000E+00 -0.28029185428E+03  0.10036755745E+04  0.96374329323E+03 0.  0.
        5    1    3    3  502    0  0.47613217650E+03 -0.18457884226E+02 -0.65513127942E+02  0.48099542921E+03  0.46999998093E+01 0.  1.
       -5    1    3    3    0  502 -0.47613217650E+03  0.18457884226E+02 -0.21477872633E+03  0.52268014528E+03  0.46999998093E+01 0. -1.
</event>
<event>
 5   0  0.2414128E-02  0.9068373E+03  0.7818609E-02  0.9417075E-01
       -2   -1    0    0    0  501  0.00000000000E+00  0.00000000000E+00  0.16975452624E+03  0.16975452625E+03  0.25500000920E-02 0.  1.
        2   -1    0    0  501    0  0.00000000000E+00  0.00000000000E+00 -0.12110926871E+04  0.12110926871E+04  0.25500000920E-02 0. -1.
    10030    2    1    2    0    0  0.00000000000E+00  0.00000000000E+00 -0.10413381608E+04  0.13808472133E+04  0.90683728493E+03 0.  0.
        3    1    3    3  502    0 -0.25398250248E+03 -0.20969827128E+03 -0.46160885994E+02  0.33258279291E+03  0.10100000352E+00 0.  1.
       -3    1    3    3    0  502  0.25398250248E+03  0.20969827128E+03 -0.99517727484E+03  0.10482644204E+04  0.10100000352E+00 0. -1.
</event>
<event>
 5   0  0.1497410E-02  0.9225600E+03  0.7818609E-02  0.9397812E-01
        1   -1    0    0  501    0  0.00000000000E+00  0.00000000000E+00  0.47646190305E+03  0.47646190308E+03  0.50400001928E-02 0. -1.
       -1   -1    0    0    0  501  0.00000000000E+00  0.00000000000E+00 -0.44658189476E+03  0.44658189479E+03  0.50400001928E-02 0.  1.
    10030    2    1    2    0    0  0.00000000000E+00  0.00000000000E+00  0.29880008289E+02  0.92304379787E+03  0.92256004569E+03 0.  0.
        3    1    3    3  502    0  0.27195581087E+02  0.72119526579E+02 -0.44009339613E+03  0.44679193509E+03  0.10100000352E+00 0.  1.
       -3    1    3    3    0  502 -0.27195581087E+02 -0.72119526579E+02  0.46997340442E+03  0.47625186278E+03  0.10100000352E+00 0. -1.
</event>
<event>
 5   0  0.1497410E-02  0.8926257E+03  0.7818609E-02  0.9434847E-01
        1   -1    0    0  501    0  0.00000000000E+00  0.00000000000E+00  0.28706630562E+03  0.28706630566E+03  0.50400001928E-02 0.  1.
       -1   -1    0    0    0  501  0.00000000000E+00  0.00000000000E+00 -0.69389947706E+03  0.69389947708E+03  0.50400001928E-02 0. -1.
    10030    2    1    2    0    0  0.00000000000E+00  0.00000000000E+00 -0.40683317144E+03  0.98096578274E+03  0.89262569845E+03 0.  0.
        3    1    3    3  502    0  0.39347756565E+03 -0.19940015106E+03 -0.27803418298E+03  0.52142883696E+03  0.10100000352E+00 0. -1.
       -3    1    3    3    0  502 -0.39347756565E+03  0.19940015106E+03 -0.12879898846E+03  0.45953694578E+03  0.10100000352E+00 0.  1.
</event>
<event>
 5   0  0.2705111E-02  0.8012791E+03  0.7818609E-02  0.9558167E-01
       -2   -1    0    0    0  501  0.00000000000E+00  0.00000000000E+00  0.42998892060E+03  0.42998892061E+03  0.25500000920E-02 0.  1.
        2   -1    0    0  501    0  0.00000000000E+00  0.00000000000E+00 -0.37329346759E+03  0.37329346760E+03  0.25500000920E-02 0. -1.
    10030    2    1    2    0    0  0.00000000000E+00  0.00000000000E+00  0.56695453011E+02  0.80328238821E+03  0.80127911542E+03 0.  0.
        4    1    3    3  502    0 -0.79570015434E+02 -0.18833640057E+03 -0.31705459203E+03  0.37726279218E+03  0.12699999809E+01 0. -1.
       -4    1    3    3    0  502  0.79570015434E+02  0.18833640057E+03  0.37375004504E+03  0.42601959603E+03  0.12699999809E+01 0.  1.
</event>
<event>
 5   0  0.1537870E-02  0.8914799E+03  0.7818609E-02  0.9436295E-01
        1   -1    0    0  501    0  0.00000000000E+00  0.00000000000E+00  0.25574617381E+03  0.25574617386E+03  0.50400001928E-02 0.  1.
       -1   -1    0    0    0  501  0.00000000000E+00  0.00000000000E+00 -0.77688007731E+03  0.77688007732E+03  0.50400001928E-02 0. -1.
    10030    2    1    2    0    0  0.00000000000E+00  0.00000000000E+00 -0.52113390349E+03  0.10326262512E+04  0.89147990962E+03 0.  0.
        5    1    3    3  502    0  0.28901722380E+03  0.27140386584E+03 -0.49645387839E+03  0.63535781840E+03  0.46999998093E+01 0. -1.
       -5    1    3    3    0  502 -0.28901722380E+03 -0.27140386584E+03 -0.24680025108E+02  0.39726843278E+03  0.46999998093E+01 0.  1.
</event>
<event>
 5   0  0.1537870E-02  0.9925613E+03  0.7818609E-02  0.9316741E-01
        1   -1    0    0  501    0  0.00000000000E+00  0.00000000000E+00  0.98548340352E+03  0.98548340353E+03  0.50400001928E-02 0.  1.
       -1   -1    0    0    0  501  0.00000000000E+00  0.00000000000E+00 -0.24992250948E+03  0.24992250953E+03  0.50400001928E-02 0. -1.
    10030    2    1    2    0    0  0.00000000000E+00  0.00000000000E+00  0.73556089404E+03  0.12354059131E+04  0.99256130349E+03 0.  0.
        5    1    3    3  502    0 -0.10612034531E+03  0.14438982389E+03 -0.20822155868E+03  0.27475126284E+03  0.46999998093E+01 0. -1.
       -5    1    3    3    0  502  0.10612034531E+03 -0.14438982389E+03  0.94378245272E+03  0.96065465022E+03  0.46999998093E+01 0.  1.
</event>
<event>
 5   0  0.1497410E-02  0.8837151E+03  0.7818609E-02  0.9446170E-01
       -1   -1    0    0    0  501  0.00000000000E+00  0.00000000000E+00  0.20679310196E+03  0.20679310202E+03  0.50400001928E-02 0. -1.
        1   -1    0    0  501    0  0.00000000000E+00  0.00000000000E+00 -0.94412285814E+03  0.94412285815E+03  0.50400001928E-02 0.  1.
    10030    2    1    2    0    0  0.00000000000E+00  0.00000000000E+00 -0.73732975618E+03  0.11509159602E+04  0.88371510004E+03 0.  0.
        3    1    3    3  502    0  0.33604579052E+03 -0.20962887403E+03 -0.11356484260E+03  0.41202915168E+03  0.10100000352E+00 0. -1.
       -3    1    3    3    0  502 -0.33604579052E+03  0.20962887403E+03 -0.62376491358E+03  0.73888680849E+03  0.10100000352E+00 0.  1.
</event>
<event>
 5   0  0.1537870E-02  0.8838056E+03  0.7818609E-02  0.9446055E-01
        1   -1    0    0  501    0  0.00000000000E+00  0.00000000000E+00  0.91983041432E+03  0.91983041434E+03  0.50400001928E-02 0. -1.
       -1   -1    0    0    0  501  0.00000000000E+00  0.00000000000E+00 -0.21229794128E+03  0.21229794134E+03  0.50400001928E-02 0.  1.
    10030    2    1    2    0    0  0.00000000000E+00  0.00000000000E+00  0.70753247305E+03  0.11321283557E+04  0.88380564227E+03 0.  0.
        5    1    3    3  502    0 -0.13442373441E+03 -0.45313120673E+02  0.88983794098E+03  0.90108638348E+03  0.46999998093E+01 0. -1.
       -5    1    3    3    0  502  0.13442373441E+03  0.45313120673E+02 -0.18230546794E+03  0.23104197220E+03  0.46999998093E+01 0.  1.
</event>
<event>
 5   0  0.1559275E-02  0.8957839E+03  0.7818609E-02  0.9430867E-01
       -1   -1    0    0    0  501  0.00000000000E+00  0.00000000000E+00  0.27886905505E+03  0.27886905509E+03  0.50400001928E-02 0. -1.
        1   -1    0    0  501    0  0.00000000000E+00  0.00000000000E+00 -0.71935988300E+03  0.71935988302E+03  0.50400001928E-02 0.  1.
    10030    2    1    2    0    0  0.00000000000E+00  0.00000000000E+00 -0.44049082796E+03  0.99822893811E+03  0.89578392672E+03 0.  0.
        1    1    3    3  502    0 -0.13686425977E+03 -0.18137254747E+03  0.20987492323E+03  0.30931425768E+03  0.50400001928E-02 0. -1.
       -1    1    3    3    0  502  0.13686425977E+03  0.18137254747E+03 -0.65036575119E+03  0.68891468043E+03  0.50400001928E-02 0.  1.
</event>
<event>
 5   0  0.2679861E-02  0.9105669E+03  0.7818609E-02  0.9412468E-01
       -2   -1    0    0    0  501  0.00000000000E+00  0.00000000000E+00  0.17245382743E+03  0.17245382744E+03  0.25500000920E-02 0.  1.
        2   -1    0    0  501    0  0.00000000000E+00  0.00000000000E+00 -0.12019623911E+04  0.12019623911E+04  0.25500000920E-02 0. -1.
    10030    2    1    2    0    0  0.00000000000E+00  0.00000000000E+00 -0.10295085636E+04  0.13744162185E+04  0.91056688887E+03 0.  0.
        1    1    3    3  502    0  0.19275224393E+03 -0.40367606386E+03 -0.38689739986E+03  0.59143671692E+03  0.50400001928E-02 0.  1.
       -1    1    3    3    0  502 -0.19275224393E+03  0.40367606386E+03 -0.64261116378E+03  0.78297950159E+03  0.50400001928E-02 0. -1.
</event>
<event>
 5   0  0.1459111E-02  0.8251193E+03  0.7818609E-02  0.9524353E-01
        1   -1    0    0  501    0  0.00000000000E+00  0.00000000000E+00  0.10008595206E+04  0.10008595207E+04  0.50400001928E-02 0.  1.
       -1   -1    0    0    0  501  0.00000000000E+00  0.00000000000E+00 -0.17005931418E+03  0.17005931425E+03  0.50400001928E-02 0. -1.
    10030    2    1    2    0    0  0.00000000000E+00  0.00000000000E+00  0.83080020646E+03  0.11709188349E+04  0.82511934585E+03 0.  0.
        2    1    3    3  502    0  0.35918463356E+03 -0.20289779767E+03  0.42240506875E+03  0.59042963967E+03  0.25500000920E-02 0.  1.
       -2    1    3    3    0  502 -0.35918463356E+03  0.20289779767E+03  0.40839513771E+03  0.58048919524E+03  0.25500000920E-02 0. -1.
</event>
<event>
 5   0  0.1497410E-02  0.8508097E+03  0.7818609E-02  0.9489251E-01
       -1   -1    0    0    0  501  0.00000000000E+00  0.00000000000E+00  0.63292098263E+03  0.63292098265E+03  0.50400001928E-02 0. -1.
        1   -1    0    0  501    0  0.00000000000E+00  0.00000000000E+00 -0.28592715666E+03  0.28592715671E+03  0.50400001928E-02 0.  1.
    10030    2    1    2    0    0  0.00000000000E+00  0.00000000000E+00  0.34699382596E+03  0.91884813935E+03  0.85080972487E+03 0.  0.
        3    1    3    3  502    0 -0.32729961004E+03 -0.13781841671E+03  0.42642726085E+03  0.55494069027E+03  0.10100000352E+00 0. -1.
       -3    1    3    3    0  502  0.32729961004E+03  0.13781841671E+03 -0.79433434886E+02  0.36390744908E+03  0.10100000352E+00 0.  1.
</event>
<event>
 5   0  0.1459111E-02  0.9082291E+03  0.7818609E-02  0.9415353E-01
        1   -1    0    0  501    0  0.00000000000E+00  0.00000000000E+00  0.63637823144E+03  0.63637823146E+03  0.50400001928E-02 0. -1.
       -1   -1    0    0    0  501  0.00000000000E+00  0.00000000000E+00 -0.32405263404E+03  0.32405263408E+03  0.50400001928E-02 0.  1.
    10030    2    1    2    0    0  0.00000000000E+00  0.00000000000E+00  0.31232559740E+03  0.96043086554E+03  0.90822913887E+03 0.  0.
        2    1    3    3  502    0 -0.30736228503E+03  0.10648370717E+02  0.50948507640E+03  0.59511343888E+03  0.25500000920E-02 0. -1.
       -2    1    3    3    0  502  0.30736228503E+03 -0.10648370717E+02 -0.19715947900E+03  0.36531742666E+03  0.25500000920E-02 0.  1.
</event>
<event>
 5   0  0.1497410E-02  0.9283556E+03  0.7818609E-02  0.9390814E-01
       -1   -1    0    0    0  501  0.00000000000E+00  0.00000000000E+00  0.45845348361E+03  0.45845348364E+03  0.50400001928E-02 0.  1.
        1   -1    0    0  501    0  0.00000000000E+00  0.00000000000E+00 -0.46997363749E+03  0.46997363752E+03  0.50400001928E-02 0. -1.
    10030    2    1    2    0    0  0.00000000000E+00  0.00000000000E+00 -0.11520153884E+02  0.92842712116E+03  0.92835564594E+03 0.  0.
        3    1    3    3  502    0 -0.46232967299E+03 -0.41209153717E+02 -0.95180591466E+01  0.46426019055E+03  0.10100000352E+00 0. -1.
       -3    1    3    3    0  502  0.46232967299E+03  0.41209153717E+02 -0.20020947378E+01  0.46416693060E+03  0.10100000352E+00 0.  1.
</event>
<event>
 5   0  0.2803717E-02  0.8828881E+03  0.7818609E-02  0.9447229E-01
        2   -1    0    0  501    0  0.00000000000E+00  0.00000000000E+00  0.94330581074E+03  0.94330581074E+03  0.25500000920E-02 0. -1.
       -2   -1    0    0    0  501  0.00000000000E+00  0.00000000000E+00 -0.20658502285E+03  0.20658502286E+03  0.25500000920E-02 0.  1.
    10030    2    1    2    0    0  0.00000000000E+00  0.00000000000E+00  0.73672078789E+03  0.11498908336E+04  0.88288810724E+03 0.  0.
        5    1    3    3  502    0 -0.17835777375E+02  0.19806783223E+03  0.88162245531E+03  0.90378605036E+03  0.46999998093E+01 0. -1.
       -5    1    3    3    0  502  0.17835777375E+02 -0.19806783223E+03 -0.14490166742E+03  0.24610478325E+03  0.46999998093E+01 0.  1.
</event>
<event>
 5   0  0.2679861E-02  0.8888739E+03  0.7818609E-02  0.9439597E-01
        2   -1    0    0  501    0  0.00000000000E+00  0.00000000000E+00  0.31671160209E+03  0.31671160210E+03  0.25500000920E-02 0. -1.
       -2   -1    0    0    0  501  0.00000000000E+00  0.00000000000E+00 -0.62367213341E+03  0.62367213341E+03  0.25500000920E-02 0.  1.
    10030    2    1    2    0    0  0.00000000000E+00  0.00000000000E+00 -0.30696053132E+03  0.94038373551E+03  0.88887389557E+03 0.  0.
        1    1    3    3  502    0 -0.30516422279E+03 -0.30743581136E+03 -0.25865034614E+03  0.50452153825E+03  0.50400001928E-02 0.  1.
       -1    1    3    3    0  502  0.30516422279E+03  0.30743581136E+03 -0.48310185183E+02  0.43586219726E+03  0.50400001928E-02 0. -1.
</event>
<event>
 5   0  0.1559275E-02  0.8822095E+03  0.7818609E-02  0.9448098E-01
        1   -1    0    0  501    0  0.00000000000E+00  0.00000000000E+00  0.35166663458E+03  0.35166663461E+03  0.50400001928E-02 0. -1.
       -1   -1    0    0    0  501  0.00000000000E+00  0.00000000000E+00 -0.55328936829E+03  0.55328936831E+03  0.50400001928E-02 0.  1.
    10030    2    1    2    0    0  0.00000000000E+00  0.00000000000E+00 -0.20162273371E+03  0.90495600292E+03  0.88220952187E+03 0.  0.
        1    1    3    3  502    0  0.20693538429E+03 -0.10188022243E+03 -0.48649994322E+03  0.53840879243E+03  0.50400001928E-02 0.  1.
       -1    1    3    3    0  502 -0.20693538429E+03  0.10188022243E+03  0.28487720951E+03  0.36654721049E+03  0.50400001928E-02 0. -1.
</event>
<event>
 5   0  0.2628383E-02  0.9187908E+03  0.7818609E-02  0.9402392E-01
        2   -1    0    0  501    0  0.00000000000E+00  0.00000000000E+00  0.30433536171E+03  0.30433536172E+03  0.25500000920E-02 0.  1.
       -2   -1    0    0    0  501  0.00000000000E+00  0.00000000000E+00 -0.69345912970E+03  0.69345912971E+03  0.25500000920E-02 0. -1.
    10030    2    1    2    0    0  0.00000000000E+00  0.00000000000E+00 -0.38912376799E+03  0.99779449143E+03  0.91879080334E+03 0.  0.
        2    1    3    3  502    0 -0.42734457334E+03  0.11263186044E+03 -0.33078640177E+03  0.55202261181E+03  0.25500000920E-02 0. -1.
       -2    1    3    3    0  502  0.42734457334E+03 -0.11263186044E+03 -0.58337366227E+02  0.44577187962E+03  0.25500000920E-02 0.  1.
</event>
<event>
 5   0  0.2803717E-02  0.9036045E+03  0.7818609E-02  0.9421087E-01
        2   -1    0    0  501    0  0.00000000000E+00  0.00000000000E+00  0.80887444425E+03  0.80887444426E+03  0.25500000920E-02 0. -1.
       -2   -1    0    0    0  501  0.00000000000E+00  0.00000000000E+00 -0.25235716409E+03  0.25235716410E+03  0.25500000920E-02 0.  1.
    10030    2    1    2    0    0  0.00000000000E+00  0.00000000000E+00  0.55651728016E+03  0.10612316084E+04  0.90360447291E+03 0.  0.
        5    1    3    3  502    0  0.43053297776E+03  0.37880123667E+02  0.43277540212E+03  0.61164547524E+03  0.46999998093E+01 0. -1.
       -5    1    3    3    0  502 -0.43053297776E+03 -0.37880123667E+02  0.12374187805E+03  0.44958613312E+03  0.46999998093E+01 0.  1.
</event>
<event>
 5   0  0.1459111E-02  0.8890308E+03  0.7818609E-02  0.9439398E-01
       -1   -1    0    0    0  501  0.00000000000E+00  0.00000000000E+00  0.17647416658E+03  0.17647416665E+03  0.50400001928E-02 0. -1.
        1   -1    0    0  501    0  0.00000000000E+00  0.00000000000E+00 -0.11196764111E+04  0.11196764111E+04  0.50400001928E-02 0.  1.
    10030    2    1    2    0    0  0.00000000000E+00  0.00000000000E+00 -0.94320224455E+03  0.12961505778E+04  0.88903084659E+03 0.  0.
        2    1    3    3  502    0 -0.33254401978E+03  0.29432963293E+03 -0.44323671891E+03  0.62743465549E+03  0.25500000920E-02 0.  1.
       -2    1    3    3    0  502  0.33254401978E+03 -0.29432963293E+03 -0.49996552564E+03  0.66871592230E+03  0.25500000920E-02 0. -1.
</event>
<event>
 5   0  0.2628383E-02  0.8612124E+03  0.7818609E-02  0.9475410E-01
        2   -1    0    0  501    0  0.00000000000E+00  0.00000000000E+00  0.94019661988E+03  0.94019661988E+03  0.25500000920E-02 0.  1.
       -2   -1    0    0    0  501  0.00000000000E+00  0.00000000000E+00 -0.19721586219E+03  0.19721586221E+03  0.25500000920E-02 0. -1.
    10030    2    1    2    0    0  0.00000000000E+00  0.00000000000E+00  0.74298075769E+03  0.11374124821E+04  0.86121237109E+03 0.  0.
        2    1    3    3  502    0 -0.31034788763E+03  0.75239823608E+02  0.75300174866E+03  0.81791715711E+03  0.25500000920E-02 0.  1.
       -2    1    3    3    0  502  0.31034788763E+03 -0.75239823608E+02 -0.10020990967E+02  0.31949532498E+03  0.25500000920E-02 0. -1.
</event>
<event>
 5   0  0.2414128E-02  0.8835370E+03  0.7818609E-02  0.9446398E-01
        2   -1    0    0  501    0  0.00000000000E+00  0.00000000000E+00  0.92923217685E+03  0.92923217685E+03  0.25500000920E-02 0.  1.
       -2   -1    0    0    0  501  0.00000000000E+00  0.00000000000E+00 -0.21002221947E+03  0.21002221949E+03  0.25500000920E-02 0. -1.
    10030    2    1    2    0    0  0.00000000000E+00  0.00000000000E+00  0.71920995738E+03  0.11392543963E+04  0.88353699232E+03 0.  0.
        3    1    3    3  502    0  0.32181351367E+03  0.17405912179E+03  0.40361348725E+02  0.36808907092E+03  0.10100000352E+00 0. -1.
       -3    1    3    3    0  502 -0.32181351367E+03 -0.17405912179E+03  0.67884860865E+03  0.77116532542E+03  0.10100000352E+00 0.  1.
</event>
<event>
 5   0  0.1537870E-02  0.8204548E+03  0.7818609E-02  0.9530873E-01
       -1   -1    0    0    0  501  0.00000000000E+00  0.00000000000E+00  0.22180083419E+03  0.22180083425E+03  0.50400001928E-02 0.  1.
        1   -1    0    0  501    0  0.00000000000E+00  0.00000000000E+00 -0.75872806644E+03  0.75872806646E+03  0.50400001928E-02 0. -1.
    10030    2    1    2    0    0  0.00000000000E+00  0.00000000000E+00 -0.53692723225E+03  0.98052890070E+03  0.82045479606E+03 0.  0.
        5    1    3    3  502    0  0.16390024744E+03  0.13539632083E+03  0.15079310113E+03  0.26068391618E+03  0.46999998093E+01 0.  1.
       -5    1    3    3    0  502 -0.16390024744E+03 -0.13539632083E+03 -0.68772033338E+03  0.71984498453E+03  0.46999998093E+01 0. -1.
</event>
<event>
 5   0  0.1497410E-02  0.8593227E+03  0.7818609E-02  0.9477909E-01
       -1   -1    0    0    0  501  0.00000000000E+00  0.00000000000E+00  0.15421627308E+03  0.15421627316E+03  0.50400001928E-02 0. -1.
        1   -1    0    0  501    0  0.00000000000E+00  0.00000000000E+00 -0.11970778642E+04  0.11970778642E+04  0.50400001928E-02 0.  1.
    10030    2    1    2    0    0  0.00000000000E+00  0.00000000000E+00 -0.10428615912E+04  0.13512941374E+04  0.85932272604E+03 0.  0.
        3    1    3    3  502    0 -0.22202524755E+03  0.43820130800E+02 -0.10957599564E+04  0.11188857433E+04  0.10100000352E+00 0.  1.
       -3    1    3    3    0  502  0.22202524755E+03 -0.43820130800E+02  0.52898365197E+02  0.23240839411E+03  0.10100000352E+00 0. -1.
</event>
<event>
 5   0  0.2679861E-02  0.8939403E+03  0.7818609E-02  0.9433188E-01
        2   -1    0    0  501    0  0.00000000000E+00  0.00000000000E+00  0.10966941735E+04  0.10966941735E+04  0.25500000920E-02 0. -1.
       -2   -1    0    0    0  501  0.00000000000E+00  0.00000000000E+00 -0.18216776562E+03  0.18216776564E+03  0.25500000920E-02 0.  1.
    10030    2    1    2    0    0  0.00000000000E+00  0.00000000000E+00  0.91452640785E+03  0.12788619391E+04  0.89394032724E+03 0.  0.
        1    1    3    3  502    0  0.37019928548E+03  0.14678428881E+03  0.16692328461E+03  0.43180611550E+03  0.50400001928E-02 0. -1.
       -1    1    3    3    0  502 -0.37019928548E+03 -0.14678428881E+03  0.74760312324E+03  0.84705582361E+03  0.50400001928E-02 0.  1.
</event>
<event>
 5   0  0.1560728E-02  0.8909519E+03  0.7818609E-02  0.9436963E-01
       -1   -1    0    0    0  501  0.00000000000E+00  0.00000000000E+00  0.75481899518E+03  0.75481899520E+03  0.50400001928E-02 0. -1.
        1   -1    0    0  501    0  0.00000000000E+00  0.00000000000E+00 -0.26290917626E+03  0.26290917631E+03  0.50400001928E-02 0.  1.
    10030    2    1    2    0    0  0.00000000000E+00  0.00000000000E+00  0.49190981892E+03  0.10177281715E+04  0.89095194097E+03 0.  0.
        4    1    3    3  502    0  0.44473633116E+03  0.14345613823E+02  0.27021422502E+03  0.52058960919E+03  0.12699999809E+01 0.  1.
       -4    1    3    3    0  502 -0.44473633116E+03 -0.14345613823E+02  0.22169559391E+03  0.49713856232E+03  0.12699999809E+01 0. -1.
</event>
<event>
 5   0  0.1459111E-02  0.9117237E+03  0.7818609E-02  0.9411044E-01
        1   -1    0    0  501    0  0.00000000000E+00  0.00000000000E+00  0.16405401067E+04  0.16405401067E+04  0.50400001928E-02 0. -1.
       -1   -1    0    0    0  501  0.00000000000E+00  0.00000000000E+00 -0.12667172641E+03  0.12667172651E+03  0.50400001928E-02 0.  1.
    10030    2    1    2    0    0  0.00000000000E+00  0.00000000000E+00  0.15138683803E+04  0.17672118332E+04  0.91172374687E+03 0.  0.
        2    1    3    3  502    0  0.14463716250E+03 -0.42952606211E+03  0.85184260673E+03  0.96490847932E+03  0.25500000920E-02 0.  1.
       -2    1    3    3    0  502 -0.14463716250E+03  0.42952606211E+03  0.66202577353E+03  0.80230335387E+03  0.25500000920E-02 0. -1.
</event>
<event>
 5   0  0.2705111E-02  0.8758034E+03  0.7818609E-02  0.9456344E-01
       -2   -1    0    0    0  501  0.00000000000E+00  0.00000000000E+00  0.37992860587E+03  0.37992860588E+03  0.25500000920E-02 0.  1.
        2   -1    0    0  501    0  0.00000000000E+00  0.00000000000E+00 -0.50472084164E+03  0.50472084165E+03  0.25500000920E-02 0. -1.
    10030    2    1    2    0    0  0.00000000000E+00  0.00000000000E+00 -0.12479223577E+03  0.88464944753E+03  0.87580337000E+03 0.  0.
        4    1    3    3  502    0 -0.26434272213E+01  0.62353378424E+02 -0.50020372973E+03  0.50408363954E+03  0.12699999809E+01 0. -1.
       -4    1    3    3    0  502  0.26434272213E+01 -0.62353378424E+02  0.37541149397E+03  0.38056580799E+03  0.12699999809E+01 0.  1.
</event>
<event>
 5   0  0.2628383E-02  0.9021477E+03  0.7818609E-02  0.9422901E-01
        2   -1    0    0  501    0  0.00000000000E+00  0.00000000000E+00  0.25277248905E+04  0.25277248905E+04  0.25500000920E-02 0.  1.
       -2   -1    0    0    0  501  0.00000000000E+00  0.00000000000E+00 -0.80494370252E+02  0.80494370293E+02  0.25500000920E-02 0. -1.
    10030    2    1    2    0    0  0.00000000000E+00  0.00000000000E+00  0.24472305202E+04  0.26082192608E+04  0.90214771137E+03 0.  0.
        2    1    3    3  502    0  0.24236739644E+03 -0.37502216475E+03  0.10388536784E+04  0.11307522027E+04  0.25500000920E-02 0. -1.
       -2    1    3    3    0  502 -0.24236739644E+03  0.37502216475E+03  0.14083768418E+04  0.14774670580E+04  0.25500000920E-02 0.  1.
</event>
<event>
 5   0  0.2414128E-02  0.8751062E+03  0.7818609E-02  0.9457246E-01
        2   -1    0    0  501    0  0.00000000000E+00  0.00000000000E+00  0.80417954916E+03  0.80417954916E+03  0.25500000920E-02 0.  1.
       -2   -1    0    0    0  501  0.00000000000E+00  0.00000000000E+00 -0.23807209696E+03  0.23807209697E+03  0.25500000920E-02 0. -1.
    10030    2    1    2    0    0  0.00000000000E+00  0.00000000000E+00  0.56610745220E+03  0.10422516461E+04  0.87510619151E+03 0.  0.
        3    1    3    3  502    0 -0.40755438634E+03  0.10378744334E+03  0.42686565689E+03  0.59923844207E+03  0.10100000352E+00 0.  1.
       -3    1    3    3    0  502  0.40755438634E+03 -0.10378744334E+03  0.13924179531E+03  0.44301320407E+03  0.10100000352E+00 0. -1.
</event>
<event>
 5   0  0.1040163E-02  0.9149590E+03  0.7818609E-02  0.9407073E-01
        4   -1    0    0  501    0  0.00000000000E+00  0.00000000000E+00  0.11121230777E+04  0.11121238029E+04  0.12699999809E+01 0. -1.
       -4   -1    0    0    0  501  0.00000000000E+00  0.00000000000E+00 -0.18818442761E+03  0.18818871299E+03  0.12699999809E+01 0.  1.
    10030    2    1    2    0    0  0.00000000000E+00  0.00000000000E+00  0.92393865011E+03  0.13003125159E+04  0.91495902079E+03 0.  0.
        4    1    3    3  502    0 -0.44341381384E+03  0.11043619169E+03  0.49290800156E+03  0.67213977239E+03  0.12699999809E+01 0.  1.
       -4    1    3    3    0  502  0.44341381384E+03 -0.11043619169E+03  0.43103064855E+03  0.62817274346E+03  0.12699999809E+01 0. -1.
</event>
<event>
 5   0  0.2705111E-02  0.8997961E+03  0.7818609E-02  0.9425836E-01
        2   -1    0    0  501    0  0.00000000000E+00  0.00000000000E+00  0.11420388625E+04  0.11420388625E+04  0.25500000920E-02 0.  1.
       -2   -1    0    0    0  501  0.00000000000E+00  0.00000000000E+00 -0.17723410616E+03  0.17723410618E+03  0.25500000920E-02 0. -1.
    10030    2    1    2    0    0  0.00000000000E+00  0.00000000000E+00  0.96480475634E+03  0.13192729687E+04  0.89979605914E+03 0.  0.
        4    1    3    3  502    0 -0.35837791852E+03 -0.29621221793E+02  0.87880165399E+03  0.94952941462E+03  0.12699999809E+01 0.  1.
       -4    1    3    3    0  502  0.35837791852E+03  0.29621221793E+02  0.86003102348E+02  0.36974355407E+03  0.12699999809E+01 0. -1.
</event>
<event>
 5   0  0.2414128E-02  0.8928498E+03  0.7818609E-02  0.9434564E-01
        2   -1    0    0  501    0  0.00000000000E+00  0.00000000000E+00  0.15887052334E+03  0.15887052336E+03  0.25500000920E-02 0.  1.
       -2   -1    0    0    0  501  0.00000000000E+00  0.00000000000E+00 -0.12544503988E+04  0.12544503988E+04  0.25500000920E-02 0. -1.
    10030    2    1    2    0    0  0.00000000000E+00  0.00000000000E+00 -0.10955798755E+04  0.14133209222E+04  0.89284980009E+03 0.  0.
        3    1    3    3  502    0  0.55660469331E+02 -0.30923155845E+03 -0.45790826855E+02  0.31752016410E+03  0.10100000352E+00 0.  1.
       -3    1    3    3    0  502 -0.55660469331E+02  0.30923155845E+03 -0.10497890486E+04  0.10958007581E+04  0.10100000352E+00 0. -1.
</event>
<event>
 5   0  0.1497410E-02  0.9533924E+03  0.7818609E-02  0.9361194E-01
       -1   -1    0    0    0  501  0.00000000000E+00  0.00000000000E+00  0.67126408042E+03  0.67126408044E+03  0.50400001928E-02 0. -1.
        1   -1    0    0  501    0  0.00000000000E+00  0.00000000000E+00 -0.33852442114E+03  0.33852442118E+03  0.50400001928E-02 0.  1.
    10030    2    1    2    0    0  0.00000000000E+00  0.00000000000E+00  0.33273965928E+03  0.10097885016E+04  0.95339243607E+03 0.  0.
        3    1    3    3  502    0  0.14403943431E+03 -0.96351865964E+02 -0.30398027003E+03  0.34990720981E+03  0.10100000352E+00 0.  1.
       -3    1    3    3    0  502 -0.14403943431E+03  0.96351865964E+02  0.63671992930E+03  0.65988129181E+03  0.10100000352E+00 0. -1.
</event>
<event>
 5   0  0.2414128E-02  0.9023854E+03  0.7818609E-02  0.9422604E-01
        2   -1    0    0  501    0  0.00000000000E+00  0.00000000000E+00  0.22518545441E+03  0.22518545442E+03  0.25500000920E-02 0. -1.
       -2   -1    0    0    0  501  0.00000000000E+00  0.00000000000E+00 -0.90403206147E+03  0.90403206147E+03  0.25500000920E-02 0.  1.
    10030    2    1    2    0    0  0.00000000000E+00  0.00000000000E+00 -0.67884660706E+03  0.11292175159E+04  0.90238543998E+03 0.  0.
        3    1    3    3  502    0  0.16193913436E+03 -0.13714755188E+03 -0.83768384557E+03  0.86414580341E+03  0.10100000352E+00 0.  1.
       -3    1    3    3    0  502 -0.16193913436E+03  0.13714755188E+03  0.15883723850E+03  0.26507171249E+03  0.10100000352E+00 0. -1.
</event>
<event>
 5   0  0.1459111E-02  0.8948667E+03  0.7818609E-02  0.9432021E-01
        1   -1    0    0  501    0  0.00000000000E+00  0.00000000000E+00  0.14341273052E+04  0.14341273052E+04  0.50400001928E-02 0. -1.
       -1   -1    0    0    0  501  0.00000000000E+00  0.00000000000E+00 -0.13959473326E+03  0.13959473336E+03  0.50400001928E-02 0.  1.
    10030    2    1    2    0    0  0.00000000000E+00  0.00000000000E+00  0.12945325720E+04  0.15737220386E+04  0.89486673582E+03 0.  0.
        2    1    3    3  502    0  0.12051480686E+03 -0.39990985306E+03  0.36509335677E+03  0.55474757179E+03  0.25500000920E-02 0.  1.
       -2    1    3    3    0  502 -0.12051480686E+03  0.39990985306E+03  0.92943921520E+03  0.10189744668E+04  0.25500000920E-02 0. -1.
</event>
<event>
 5   0  0.1559275E-02  0.9956685E+03  0.7818609E-02  0.9313308E-01
        1   -1    0    0  501    0  0.00000000000E+00  0.00000000000E+00  0.99380932093E+03  0.99380932094E+03  0.50400001928E-02 0. -1.
       -1   -1    0    0    0  501  0.00000000000E+00  0.00000000000E+00 -0.24938278251E+03  0.24938278256E+03  0.50400001928E-02 0.  1.
    10030    2    1    2    0    0  0.00000000000E+00  0.00000000000E+00  0.74442653842E+03  0.12431921035E+04  0.99566848656E+03 0.  0.
        1    1    3    3  502    0 -0.28948805382E+03  0.39874525126E+03  0.28359056008E+03  0.56852855206E+03  0.50400001928E-02 0. -1.
       -1    1    3    3    0  502  0.28948805382E+03 -0.39874525126E+03  0.46083597833E+03  0.67466355145E+03  0.50400001928E-02 0.  1.
</event>
<event>
 5   0  0.2705111E-02  0.9359865E+03  0.7818609E-02  0.9381682E-01
       -2   -1    0    0    0  501  0.00000000000E+00  0.00000000000E+00  0.22805338099E+03  0.22805338100E+03  0.25500000920E-02 0. -1.
        2   -1    0    0  501    0  0.00000000000E+00  0.00000000000E+00 -0.96037910615E+03  0.96037910616E+03  0.25500000920E-02 0.  1.
    10030    2    1    2    0    0  0.00000000000E+00  0.00000000000E+00 -0.73232572517E+03  0.11884324872E+04  0.93598654307E+03 0.  0.
        4    1    3    3  502    0 -0.18862581479E+03  0.37497376907E+03 -0.10338768333E+03  0.43229116514E+03  0.12699999809E+01 0. -1.
       -4    1    3    3    0  502  0.18862581479E+03 -0.37497376907E+03 -0.62893804183E+03  0.75614132202E+03  0.12699999809E+01 0.  1.
</event>
<event>
 5   0  0.2705111E-02  0.8271704E+03  0.7818609E-02  0.9521501E-01
       -2   -1    0    0    0  501  0.00000000000E+00  0.00000000000E+00  0.18036107132E+03  0.18036107133E+03  0.25500000920E-02 0. -1.
        2   -1    0    0  501    0  0.00000000000E+00  0.00000000000E+00 -0.94839046615E+03  0.94839046615E+03  0.25500000920E-02 0.  1.
    10030    2    1    2    0    0  0.00000000000E+00  0.00000000000E+00 -0.76802939483E+03  0.11287515375E+04  0.82717040690E+03 0.  0.
        4    1    3    3  502    0 -0.17102982009E+03  0.23635096825E+03  0.16018755666E+02  0.29218349199E+03  0.12699999809E+01 0. -1.
       -4    1    3    3    0  502  0.17102982009E+03 -0.23635096825E+03 -0.78404815050E+03  0.83656804550E+03  0.12699999809E+01 0.  1.
</event>
<event>
 5   0  0.2705111E-02  0.8970639E+03  0.7818609E-02  0.9429259E-01
       -2   -1    0    0    0  501  0.00000000000E+00  0.00000000000E+00  0.33241277996E+03  0.33241277997E+03  0.25500000920E-02 0.  1.
        2   -1    0    0  501    0  0.00000000000E+00  0.00000000000E+00 -0.60521415864E+03  0.60521415864E+03  0.25500000920E-02 0. -1.
    10030    2    1    2    0    0  0.00000000000E+00  0.00000000000E+00 -0.27280137868E+03  0.93762693861E+03  0.89706392403E+03 0.  0.
        4    1    3    3  502    0  0.26554454584E+03  0.35870239025E+03 -0.18312083087E+03  0.48240663573E+03  0.12699999809E+01 0.  1.
       -4    1    3    3    0  502 -0.26554454584E+03 -0.35870239025E+03 -0.89680547806E+02  0.45522030288E+03  0.12699999809E+01 0. -1.
</event>
<event>
 5   0  0.1537870E-02  0.8256622E+03  0.7818609E-02  0.9523597E-01
       -1   -1    0    0    0  501  0.00000000000E+00  0.00000000000E+00  0.58057245300E+03  0.58057245302E+03  0.50400001928E-02 0. -1.
        1   -1    0    0  501    0  0.00000000000E+00  0.00000000000E+00 -0.29355426985E+03  0.29355426990E+03  0.50400001928E-02 0.  1.
    10030    2    1    2    0    0  0.00000000000E+00  0.00000000000E+00  0.28701818315E+03  0.87412672292E+03  0.82566221317E+03 0.  0.
        5    1    3    3  502    0 -0.29007728144E+03  0.11182608429E+03 -0.14401561630E+03  0.34265505990E+03  0.46999998093E+01 0.  1.
       -5    1    3    3    0  502  0.29007728144E+03 -0.11182608429E+03  0.43103379944E+03  0.53147166302E+03  0.46999998093E+01 0. -1.
</event>
<event>
 5   0  0.1559275E-02  0.1059998E+04  0.7818609E-02  0.9245082E-01
        1   -1    0    0  501    0  0.00000000000E+00  0.00000000000E+00  0.53387343260E+03  0.53387343262E+03  0.50400001928E-02 0.  1.
       -1   -1    0    0    0  501  0.00000000000E+00  0.00000000000E+00 -0.52615301885E+03  0.52615301888E+03  0.50400001928E-02 0. -1.
    10030    2    1    2    0    0  0.00000000000E+00  0.00000000000E+00  0.77204137447E+01  0.10600264515E+04  0.10599983364E+04 0.  0.
        1    1    3    3  502    0 -0.15874636710E+03  0.44479708855E+03  0.24439570999E+03  0.53176510053E+03  0.50400001928E-02 0.  1.
       -1    1    3    3    0  502  0.15874636710E+03 -0.44479708855E+03 -0.23667529624E+03  0.52826135097E+03  0.50400001928E-02 0. -1.
</event>
<event>
 5   0  0.1537870E-02  0.8736845E+03  0.7818609E-02  0.9459088E-01
       -1   -1    0    0    0  501  0.00000000000E+00  0.00000000000E+00  0.24855245719E+03  0.24855245724E+03  0.50400001928E-02 0. -1.
        1   -1    0    0  501    0  0.00000000000E+00  0.00000000000E+00 -0.76777012691E+03  0.76777012693E+03  0.50400001928E-02 0.  1.
    10030    2    1    2    0    0  0.00000000000E+00  0.00000000000E+00 -0.51921766972E+03  0.10163225842E+04  0.87368450058E+03 0.  0.
        5    1    3    3  502    0 -0.21609691860E+03  0.87016258805E+01 -0.70108947619E+03  0.73370439561E+03  0.46999998093E+01 0.  1.
       -5    1    3    3    0  502  0.21609691860E+03 -0.87016258805E+01  0.18187180647E+03  0.28261818856E+03  0.46999998093E+01 0. -1.
</event>
<event>
 5   0  0.2414128E-02  0.8666628E+03  0.7818609E-02  0.9468242E-01
       -2   -1    0    0    0  501  0.00000000000E+00  0.00000000000E+00  0.13625047620E+03  0.13625047622E+03  0.25500000920E-02 0. -1.
        2   -1    0    0  501    0  0.00000000000E+00  0.00000000000E+00 -0.13781684787E+04  0.13781684787E+04  0.25500000920E-02 0.  1.
    10030    2    1    2    0    0  0.00000000000E+00  0.00000000000E+00 -0.12419180025E+04  0.15144189550E+04  0.86666282147E+03 0.  0.
        3    1    3    3  502    0  0.26418798866E+03 -0.28275118411E+03 -0.96173872027E+03  0.10366701027E+04  0.10100000352E+00 0.  1.
       -3    1    3    3    0  502 -0.26418798866E+03  0.28275118411E+03 -0.28017928225E+03  0.47774885230E+03  0.10100000352E+00 0. -1.
</event>
<event>
 5   0  0.1040163E-02  0.9390857E+03  0.7818609E-02  0.9377999E-01
        3   -1    0    0  501    0  0.00000000000E+00  0.00000000000E+00  0.72769193779E+03  0.72769194480E+03  0.10100000352E+00 0.  1.
       -3   -1    0    0    0  501  0.00000000000E+00  0.00000000000E+00 -0.30297226918E+03  0.30297228601E+03  0.10100000352E+00 0. -1.
    10030    2    1    2    0    0  0.00000000000E+00  0.00000000000E+00  0.42471966861E+03  0.10306642308E+04  0.93908570417E+03 0.  0.
        4    1    3    3  502    0  0.10261629375E+03  0.21727131844E+03 -0.23037978346E+03  0.33288644773E+03  0.12699999809E+01 0.  1.
       -4    1    3    3    0  502 -0.10261629375E+03 -0.21727131844E+03  0.65509945207E+03  0.69777778308E+03  0.12699999809E+01 0. -1.
</event>
<event>
 5   0  0.2679861E-02  0.7977620E+03  0.7818609E-02  0.9563262E-01
       -2   -1    0    0    0  501  0.00000000000E+00  0.00000000000E+00  0.12697680468E+03  0.12697680471E+03  0.25500000920E-02 0.  1.
        2   -1    0    0  501    0  0.00000000000E+00  0.00000000000E+00 -0.12530325437E+04  0.12530325437E+04  0.25500000920E-02 0. -1.
    10030    2    1    2    0    0  0.00000000000E+00  0.00000000000E+00 -0.11260557390E+04  0.13800093484E+04  0.79776204115E+03 0.  0.
        1    1    3    3  502    0 -0.14107533239E+03  0.20705204230E+03 -0.10999320848E+04  0.11281061071E+04  0.50400001928E-02 0. -1.
       -1    1    3    3    0  502  0.14107533239E+03 -0.20705204230E+03 -0.26123654156E+02  0.25190324127E+03  0.50400001928E-02 0.  1.
</event>
<event>
 5   0  0.1040163E-02  0.4973197E+03  0.7818609E-02  0.1014481E+00
        4   -1    0    0  501    0  0.00000000000E+00  0.00000000000E+00  0.45222825824E+03  0.45223004151E+03  0.12699999809E+01 0.  1.
       -4   -1    0    0    0  501  0.00000000000E+00  0.00000000000E+00 -0.13672178847E+03  0.13672768682E+03  0.12699999809E+01 0. -1.
    10030    2    1    2    0    0  0.00000000000E+00  0.00000000000E+00  0.31550646977E+03  0.58895772833E+03  0.49731968923E+03 0.  0.
        4    1    3    3  502    0  0.17179711470E+03  0.33686847759E+01 -0.55099895727E+02  0.18045278625E+03  0.12699999809E+01 0. -1.
       -4    1    3    3    0  502 -0.17179711470E+03 -0.33686847759E+01  0.37060636550E+03  0.40850494208E+03  0.12699999809E+01 0.  1.
</event>
<event>
 5   0  0.1559275E-02  0.8780086E+03  0.7818609E-02  0.9453497E-01
        1   -1    0    0  501    0  0.00000000000E+00  0.00000000000E+00  0.84589939372E+03  0.84589939373E+03  0.50400001928E-02 0. -1.
       -1   -1    0    0    0  501  0.00000000000E+00  0.00000000000E+00 -0.22783418282E+03  0.22783418287E+03  0.50400001928E-02 0.  1.
    10030    2    1    2    0    0  0.00000000000E+00  0.00000000000E+00  0.61806521090E+03  0.10737335766E+04  0.87800864950E+03 0.  0.
        1    1    3    3  502    0 -0.65463873698E+01  0.11155703595E+03  0.82821466666E+03  0.83571966685E+03  0.50400001928E-02 0. -1.
       -1    1    3    3    0  502  0.65463873698E+01 -0.11155703595E+03 -0.21014945576E+03  0.23801390976E+03  0.50400001928E-02 0.  1.
</event>
<event>
 5   0  0.1459111E-02  0.8847617E+03  0.7818609E-02  0.9444833E-01
       -1   -1    0    0    0  501  0.00000000000E+00  0.00000000000E+00  0.28018225133E+03  0.28018225138E+03  0.50400001928E-02 0. -1.
        1   -1    0    0  501    0  0.00000000000E+00  0.00000000000E+00 -0.69847689896E+03  0.69847689898E+03  0.50400001928E-02 0.  1.
    10030    2    1    2    0    0  0.00000000000E+00  0.00000000000E+00 -0.41829464763E+03  0.97865915036E+03  0.88476173083E+03 0.  0.
        2    1    3    3  502    0  0.20463580368E+03  0.39201908951E+03 -0.19577958429E+03  0.48361598849E+03  0.25500000920E-02 0.  1.
       -2    1    3    3    0  502 -0.20463580368E+03 -0.39201908951E+03 -0.22251506334E+03  0.49504316187E+03  0.25500000920E-02 0. -1.
</event>
<event>
 5   0  0.2414128E-02  0.8923970E+03  0.7818609E-02  0.9435136E-01
       -2   -1    0    0    0  501  0.00000000000E+00  0.00000000000E+00  0.21036914149E+03  0.21036914151E+03  0.25500000920E-02 0. -1.
        2   -1    0    0  501    0  0.00000000000E+00  0.00000000000E+00 -0.94639881224E+03  0.94639881224E+03  0.25500000920E-02 0.  1.
    10030    2    1    2    0    0  0.00000000000E+00  0.00000000000E+00 -0.73602967075E+03  0.11567679538E+04  0.89239700952E+03 0.  0.
        3    1    3    3  502    0  0.11642832959E+03 -0.29196581223E+03  0.42495924477E+02  0.31718370898E+03  0.10100000352E+00 0. -1.
       -3    1    3    3    0  502 -0.11642832959E+03  0.29196581223E+03 -0.77852559522E+03  0.83958424477E+03  0.10100000352E+00 0.  1.
</event>
<event>
 5   0  0.1459111E-02  0.8969011E+03  0.7818609E-02  0.9429464E-01
        1   -1    0    0  501    0  0.00000000000E+00  0.00000000000E+00  0.42591401794E+03  0.42591401797E+03  0.50400001928E-02 0.  1.
       -1   -1    0    0    0  501  0.00000000000E+00  0.00000000000E+00 -0.47217954578E+03  0.47217954581E+03  0.50400001928E-02 0. -1.
    10030    2    1    2    0    0  0.00000000000E+00  0.00000000000E+00 -0.46265527839E+02  0.89809356378E+03  0.89690108163E+03 0.  0.
        2    1    3    3  502    0  0.35636327336E+03 -0.10375164404E+03  0.22889355387E+03  0.43606357937E+03  0.25500000920E-02 0.  1.
       -2    1    3    3    0  502 -0.35636327336E+03  0.10375164404E+03 -0.27515908171E+03  0.46202998441E+03  0.25500000920E-02 0. -1.
</event>
<event>
 5   0  0.2628383E-02  0.7985821E+03  0.7818609E-02  0.9562072E-01
        2   -1    0    0  501    0  0.00000000000E+00  0.00000000000E+00  0.26030589643E+04  0.26030589643E+04  0.25500000920E-02 0.  1.
       -2   -1    0    0    0  501  0.00000000000E+00  0.00000000000E+00 -0.61248461366E+02  0.61248461419E+02  0.25500000920E-02 0. -1.
    10030    2    1    2    0    0  0.00000000000E+00  0.00000000000E+00  0.25418105030E+04  0.26643074258E+04  0.79858213474E+03 0.  0.
        2    1    3    3  502    0 -0.17134967332E+02  0.34267243236E+03  0.19523218510E+04  0.19822408060E+04  0.25500000920E-02 0.  1.
       -2    1    3    3    0  502  0.17134967332E+02 -0.34267243236E+03  0.58948865198E+03  0.68206661979E+03  0.25500000920E-02 0. -1.
</event>
<event>
 5   0  0.1497410E-02  0.8105811E+03  0.7818609E-02  0.9544826E-01
        1   -1    0    0  501    0  0.00000000000E+00  0.00000000000E+00  0.13797643419E+04  0.13797643419E+04  0.50400001928E-02 0.  1.
       -1   -1    0    0    0  501  0.00000000000E+00  0.00000000000E+00 -0.11904961637E+03  0.11904961647E+03  0.50400001928E-02 0. -1.
    10030    2    1    2    0    0  0.00000000000E+00  0.00000000000E+00  0.12607147255E+04  0.14988139584E+04  0.81058106483E+03 0.  0.
        3    1    3    3  502    0  0.11697104850E+03 -0.67459844837E+02  0.13369488071E+04  0.13437504157E+04  0.10100000352E+00 0.  1.
       -3    1    3    3    0  502 -0.11697104850E+03  0.67459844837E+02 -0.76234081572E+02  0.15506354261E+03  0.10100000352E+00 0. -1.
</event>
<event>
 5   0  0.1559275E-02  0.8882897E+03  0.7818609E-02  0.9440339E-01
       -1   -1    0    0    0  501  0.00000000000E+00  0.00000000000E+00  0.15778970276E+03  0.15778970284E+03  0.50400001928E-02 0. -1.
        1   -1    0    0  501    0  0.00000000000E+00  0.00000000000E+00 -0.12501745402E+04  0.12501745402E+04  0.50400001928E-02 0.  1.
    10030    2    1    2    0    0  0.00000000000E+00  0.00000000000E+00 -0.10923848374E+04  0.14079642430E+04  0.88828974813E+03 0.  0.
        1    1    3    3  502    0  0.11701913661E+03 -0.30979791472E+03 -0.77076456205E+02  0.34001324448E+03  0.50400001928E-02 0. -1.
       -1    1    3    3    0  502 -0.11701913661E+03  0.30979791472E+03 -0.10153083812E+04  0.10679509986E+04  0.50400001928E-02 0.  1.
</event>
<event>
 5   0  0.2705111E-02  0.8852938E+03  0.7818609E-02  0.9444154E-01
        2   -1    0    0  501    0  0.00000000000E+00  0.00000000000E+00  0.68167924526E+03  0.68167924526E+03  0.25500000920E-02 0. -1.
       -2   -1    0    0    0  501  0.00000000000E+00  0.00000000000E+00 -0.28743175179E+03  0.28743175180E+03  0.25500000920E-02 0.  1.
    10030    2    1    2    0    0  0.00000000000E+00  0.00000000000E+00  0.39424749347E+03  0.96911099707E+03  0.88529375833E+03 0.  0.
        4    1    3    3  502    0  0.12106061136E+03 -0.10663685450E+03 -0.25410053931E+03  0.30099134097E+03  0.12699999809E+01 0.  1.
       -4    1    3    3    0  502 -0.12106061136E+03  0.10663685450E+03  0.64834803278E+03  0.66811965610E+03  0.12699999809E+01 0. -1.
</event>
<event>
 5   0  0.2803717E-02  0.9088415E+03  0.7818609E-02  0.9414596E-01
       -2   -1    0    0    0  501  0.00000000000E+00  0.00000000000E+00  0.10041938146E+03  0.10041938149E+03  0.25500000920E-02 0.  1.
        2   -1    0    0  501    0  0.00000000000E+00  0.00000000000E+00 -0.20563582713E+04  0.20563582713E+04  0.25500000920E-02 0. -1.
    10030    2    1    2    0    0  0.00000000000E+00  0.00000000000E+00 -0.19559388898E+04  0.21567776528E+04  0.90884151688E+03 0.  0.
        5    1    3    3  502    0  0.25425783175E+03 -0.25375079530E+03 -0.31758195655E+03  0.47949650702E+03  0.46999998093E+01 0.  1.
       -5    1    3    3    0  502 -0.25425783175E+03  0.25375079530E+03 -0.16383569333E+04  0.16772811458E+04  0.46999998093E+01 0. -1.
</event>
<event>
 5   0  0.1459111E-02  0.6321679E+03  0.7818609E-02  0.9840827E-01
       -1   -1    0    0    0  501  0.00000000000E+00  0.00000000000E+00  0.93473737627E+02  0.93473737763E+02  0.50400001928E-02 0.  1.
        1   -1    0    0  501    0  0.00000000000E+00  0.00000000000E+00 -0.10688464787E+04  0.10688464788E+04  0.50400001928E-02 0. -1.
    10030    2    1    2    0    0  0.00000000000E+00  0.00000000000E+00 -0.97537274112E+03  0.11623202165E+04  0.63216793783E+03 0.  0.
        2    1    3    3  502    0  0.23985428785E+01 -0.29015696270E+03 -0.25721730227E+03  0.38775966346E+03  0.25500000920E-02 0.  1.
       -2    1    3    3    0  502 -0.23985428785E+01  0.29015696270E+03 -0.71815543885E+03  0.77456055306E+03  0.25500000920E-02 0. -1.
</event>
<event>
 5   0  0.1459111E-02  0.9046871E+03  0.7818609E-02  0.9419741E-01
        1   -1    0    0  501    0  0.00000000000E+00  0.00000000000E+00  0.28091817829E+03  0.28091817833E+03  0.50400001928E-02 0.  1.
       -1   -1    0    0    0  501  0.00000000000E+00  0.00000000000E+00 -0.72837824898E+03  0.72837824900E+03  0.50400001928E-02 0. -1.
    10030    2    1    2    0    0  0.00000000000E+00  0.00000000000E+00 -0.44746007069E+03  0.10092964273E+04  0.90468710799E+03 0.  0.
        2    1    3    3  502    0 -0.15395899342E+03 -0.13410057291E+03 -0.67404737653E+03  0.70429127577E+03  0.25500000920E-02 0. -1.
       -2    1    3    3    0  502  0.15395899342E+03  0.13410057291E+03  0.22658730584E+03  0.30500515157E+03  0.25500000920E-02 0.  1.
</event>
<event>
 5   0  0.1559275E-02  0.8933530E+03  0.7818609E-02  0.9433929E-01
        1   -1    0    0  501    0  0.00000000000E+00  0.00000000000E+00  0.54525356014E+03  0.54525356016E+03  0.50400001928E-02 0.  1.
       -1   -1    0    0    0  501  0.00000000000E+00  0.00000000000E+00 -0.36592132261E+03  0.36592132264E+03  0.50400001928E-02 0. -1.
    10030    2    1    2    0    0  0.00000000000E+00  0.00000000000E+00  0.17933223753E+03  0.91117488280E+03  0.89335301848E+03 0.  0.
        1    1    3    3  502    0 -0.34753162237E+03 -0.85255788889E+02 -0.18301183003E+03  0.40192052454E+03  0.50400001928E-02 0. -1.
       -1    1    3    3    0  502  0.34753162237E+03  0.85255788889E+02  0.36234406757E+03  0.50925435827E+03  0.50400001928E-02 0.  1.
</event>
<event>
 5   0  0.1537870E-02  0.8653497E+03  0.7818609E-02  0.9469964E-01
       -1   -1    0    0    0  501  0.00000000000E+00  0.00000000000E+00  0.23422415047E+03  0.23422415052E+03  0.50400001928E-02 0.  1.
        1   -1    0    0  501    0  0.00000000000E+00  0.00000000000E+00 -0.79926662803E+03  0.79926662804E+03  0.50400001928E-02 0. -1.
    10030    2    1    2    0    0  0.00000000000E+00  0.00000000000E+00 -0.56504247756E+03  0.10334907786E+04  0.86534974891E+03 0.  0.
        5    1    3    3  502    0  0.25023637726E+03 -0.95996349378E+02 -0.68814868691E+03  0.73851489416E+03  0.46999998093E+01 0. -1.
       -5    1    3    3    0  502 -0.25023637726E+03  0.95996349378E+02  0.12310620935E+03  0.29497588440E+03  0.46999998093E+01 0.  1.
</event>
<event>
 5   0  0.1497410E-02  0.8686123E+03  0.7818609E-02  0.9465691E-01
        1   -1    0    0  501    0  0.00000000000E+00  0.00000000000E+00  0.87798779170E+03  0.87798779171E+03  0.50400001928E-02 0. -1.
       -1   -1    0    0    0  501  0.00000000000E+00  0.00000000000E+00 -0.21483422726E+03  0.21483422732E+03  0.50400001928E-02 0.  1.
    10030    2    1    2    0    0  0.00000000000E+00  0.00000000000E+00  0.66315356444E+03  0.10928220190E+04  0.86861229282E+03 0.  0.
        3    1    3    3  502    0  0.18739607956E+03 -0.33276620896E+03  0.59177185740E+03  0.70430432475E+03  0.10100000352E+00 0. -1.
       -3    1    3    3    0  502 -0.18739607956E+03  0.33276620896E+03  0.71381707042E+02  0.38851769427E+03  0.10100000352E+00 0.  1.
</event>
<event>
 5   0  0.2679861E-02  0.7933321E+03  0.7818609E-02  0.9569719E-01
        2   -1    0    0  501    0  0.00000000000E+00  0.00000000000E+00  0.13106573797E+04  0.13106573797E+04  0.25500000920E-02 0.  1.
       -2   -1    0    0    0  501  0.00000000000E+00  0.00000000000E+00 -0.12004963523E+03  0.12004963526E+03  0.25500000920E-02 0. -1.
    10030    2    1    2    0    0  0.00000000000E+00  0.00000000000E+00  0.11906077444E+04  0.14307070149E+04  0.79333206253E+03 0.  0.
        1    1    3    3  502    0  0.24467319897E+03  0.49027767612E+02  0.11513738195E+04  0.11781045660E+04  0.50400001928E-02 0.  1.
       -1    1    3    3    0  502 -0.24467319897E+03 -0.49027767612E+02  0.39233924950E+02  0.25260244889E+03  0.50400001928E-02 0. -1.
</event>
<event>
 5   0  0.1497410E-02  0.9003611E+03  0.7818609E-02  0.9425130E-01
       -1   -1    0    0    0  501  0.00000000000E+00  0.00000000000E+00  0.18913107239E+03  0.18913107246E+03  0.50400001928E-02 0.  1.
        1   -1    0    0  501    0  0.00000000000E+00  0.00000000000E+00 -0.10715453102E+04  0.10715453102E+04  0.50400001928E-02 0. -1.
    10030    2    1    2    0    0  0.00000000000E+00  0.00000000000E+00 -0.88241423780E+03  0.12606763827E+04  0.90036106909E+03 0.  0.
        3    1    3    3  502    0 -0.39726632918E+03  0.51495652020E+02 -0.15360470910E+03  0.42903001683E+03  0.10100000352E+00 0.  1.
       -3    1    3    3    0  502  0.39726632918E+03 -0.51495652020E+02 -0.72880952870E+03  0.83164636583E+03  0.10100000352E+00 0. -1.
</event>
<event>
 5   0  0.1559275E-02  0.8808351E+03  0.7818609E-02  0.9449861E-01
       -1   -1    0    0    0  501  0.00000000000E+00  0.00000000000E+00  0.16232698632E+03  0.16232698639E+03  0.50400001928E-02 0. -1.
        1   -1    0    0  501    0  0.00000000000E+00  0.00000000000E+00 -0.11949190776E+04  0.11949190776E+04  0.50400001928E-02 0.  1.
    10030    2    1    2    0    0  0.00000000000E+00  0.00000000000E+00 -0.10325920913E+04  0.13572460640E+04  0.88083508744E+03 0.  0.
        1    1    3    3  502    0  0.21385786376E+03  0.30327915755E+03 -0.15083475631E+03  0.40058027539E+03  0.50400001928E-02 0. -1.
       -1    1    3    3    0  502 -0.21385786376E+03 -0.30327915755E+03 -0.88175733496E+03  0.95666578860E+03  0.50400001928E-02 0.  1.
</event>
<event>
 5   0  0.1559275E-02  0.9130722E+03  0.7818609E-02  0.9409386E-01
        1   -1    0    0  501    0  0.00000000000E+00  0.00000000000E+00  0.21152488530E+04  0.21152488530E+04  0.50400001928E-02 0. -1.
       -1   -1    0    0    0  501  0.00000000000E+00  0.00000000000E+00 -0.98534609687E+02  0.98534609816E+02  0.50400001928E-02 0.  1.
    10030    2    1    2    0    0  0.00000000000E+00  0.00000000000E+00  0.20167142433E+04  0.22137834628E+04  0.91307222116E+03 0.  0.
        1    1    3    3  502    0 -0.93459806171E+02 -0.44604700763E+03  0.10739790811E+04  0.11666720769E+04  0.50400001928E-02 0. -1.
       -1    1    3    3    0  502  0.93459806171E+02  0.44604700763E+03  0.94273516220E+03  0.10471113859E+04  0.50400001928E-02 0.  1.
</event>
<event>
 5   0  0.1459111E-02  0.8277115E+03  0.7818609E-02  0.9520750E-01
       -1   -1    0    0    0  501  0.00000000000E+00  0.00000000000E+00  0.14318516459E+03  0.14318516468E+03  0.50400001928E-02 0.  1.
        1   -1    0    0  501    0  0.00000000000E+00  0.00000000000E+00 -0.11961895631E+04  0.11961895631E+04  0.50400001928E-02 0. -1.
    10030    2    1    2    0    0  0.00000000000E+00  0.00000000000E+00 -0.10530043985E+04  0.13393747278E+04  0.82771154284E+03 0.  0.
        2    1    3    3  502    0 -0.11869247767E+03 -0.38746809614E+03 -0.66243941499E+03  0.77655998372E+03  0.25500000920E-02 0. -1.
       -2    1    3    3    0  502  0.11869247767E+03  0.38746809614E+03 -0.39056498352E+03  0.56281474407E+03  0.25500000920E-02 0.  1.
</event>
<event>
 5   0  0.1497410E-02  0.9028695E+03  0.7818609E-02  0.9422001E-01
       -1   -1    0    0    0  501  0.00000000000E+00  0.00000000000E+00  0.49883399136E+03  0.49883399139E+03  0.50400001928E-02 0.  1.
        1   -1    0    0  501    0  0.00000000000E+00  0.00000000000E+00 -0.40853940594E+03  0.40853940597E+03  0.50400001928E-02 0. -1.
    10030    2    1    2    0    0  0.00000000000E+00  0.00000000000E+00  0.90294585426E+02  0.90737339735E+03  0.90286951996E+03 0.  0.
        3    1    3    3  502    0 -0.17473256522E+03 -0.37974116106E+03 -0.12616863718E+03  0.43663869957E+03  0.10100000352E+00 0. -1.
       -3    1    3    3    0  502  0.17473256522E+03  0.37974116106E+03  0.21646322261E+03  0.47073469778E+03  0.10100000352E+00 0.  1.
</event>
<event>
 5   0  0.2679861E-02  0.9051402E+03  0.7818609E-02  0.9419179E-01
        2   -1    0    0  501    0  0.00000000000E+00  0.00000000000E+00  0.19719158460E+04  0.19719158460E+04  0.25500000920E-02 0. -1.
       -2   -1    0    0    0  501  0.00000000000E+00  0.00000000000E+00 -0.10386836723E+03  0.10386836727E+03  0.25500000920E-02 0.  1.
    10030    2    1    2    0    0  0.00000000000E+00  0.00000000000E+00  0.18680474787E+04  0.20757842132E+04  0.90514016434E+03 0.  0.
        1    1    3    3  502    0  0.29031750691E+03  0.11967386443E+02  0.17297534145E+04  0.17539881266E+04  0.50400001928E-02 0. -1.
       -1    1    3    3    0  502 -0.29031750691E+03 -0.11967386443E+02  0.13829406421E+03  0.32179608664E+03  0.50400001928E-02 0.  1.
</event>
<event>
 5   0  0.2414128E-02  0.5719077E+03  0.7818609E-02  0.9965466E-01
        2   -1    0    0  501    0  0.00000000000E+00  0.00000000000E+00  0.10284300517E+04  0.10284300517E+04  0.25500000920E-02 0. -1.
       -2   -1    0    0    0  501  0.00000000000E+00  0.00000000000E+00 -0.79509153211E+02  0.79509153251E+02  0.25500000920E-02 0.  1.
    10030    2    1    2    0    0  0.00000000000E+00  0.00000000000E+00  0.94892089845E+03  0.11079392049E+04  0.57190769384E+03 0.  0.
        3    1    3    3  502    0  0.10805051269E+03 -0.16789546656E+02 -0.37406972186E+02  0.11556856812E+03  0.10100000352E+00 0.  1.
       -3    1    3    3    0  502 -0.10805051269E+03  0.16789546656E+02  0.98632787064E+03  0.99237063679E+03  0.10100000352E+00 0. -1.
</event>
<event>
 5   0  0.1497410E-02  0.8576472E+03  0.7818609E-02  0.9480130E-01
        1   -1    0    0  501    0  0.00000000000E+00  0.00000000000E+00  0.76648246753E+03  0.76648246754E+03  0.50400001928E-02 0.  1.
       -1   -1    0    0    0  501  0.00000000000E+00  0.00000000000E+00 -0.23991374926E+03  0.23991374932E+03  0.50400001928E-02 0. -1.
    10030    2    1    2    0    0  0.00000000000E+00  0.00000000000E+00  0.52656871826E+03  0.10063962169E+04  0.85764720617E+03 0.  0.
        3    1    3    3  502    0 -0.25674226925E+03  0.10471806380E+03  0.64713903208E+03  0.70403934745E+03  0.10100000352E+00 0.  1.
       -3    1    3    3    0  502  0.25674226925E+03 -0.10471806380E+03 -0.12057031382E+03  0.30235686942E+03  0.10100000352E+00 0. -1.
</event>
<event>
 5   0  0.2803717E-02  0.9535708E+03  0.7818609E-02  0.9360987E-01
        2   -1    0    0  501    0  0.00000000000E+00  0.00000000000E+00  0.43707849282E+03  0.43707849283E+03  0.25500000920E-02 0. -1.
       -2   -1    0    0    0  501  0.00000000000E+00  0.00000000000E+00 -0.52009952029E+03  0.52009952030E+03  0.25500000920E-02 0.  1.
    10030    2    1    2    0    0  0.00000000000E+00  0.00000000000E+00 -0.83021027466E+02  0.95717801313E+03  0.95357079329E+03 0.  0.
        5    1    3    3  502    0  0.17036629323E+03 -0.23906502466E+03 -0.41859829974E+03  0.51129579152E+03  0.46999998093E+01 0.  1.
       -5    1    3    3    0  502 -0.17036629323E+03  0.23906502466E+03  0.33557727227E+03  0.44588222161E+03  0.46999998093E+01 0. -1.
</event>
<event>
 5   0  0.1459111E-02  0.6594962E+03  0.7818609E-02  0.9789122E-01
       -1   -1    0    0    0  501  0.00000000000E+00  0.00000000000E+00  0.31346379066E+03  0.31346379070E+03  0.50400001928E-02 0.  1.
        1   -1    0    0  501    0  0.00000000000E+00  0.00000000000E+00 -0.34687836785E+03  0.34687836788E+03  0.50400001928E-02 0. -1.
    10030    2    1    2    0    0  0.00000000000E+00  0.00000000000E+00 -0.33414577189E+02  0.66034215858E+03  0.65949619592E+03 0.  0.
        2    1    3    3  502    0 -0.23144445311E+03  0.15280076388E+03 -0.19531547349E+03  0.33920899532E+03  0.25500000920E-02 0. -1.
       -2    1    3    3    0  502  0.23144445311E+03 -0.15280076388E+03  0.16190089630E+03  0.32113316326E+03  0.25500000920E-02 0.  1.
</event>
<event>
 5   0  0.1459111E-02  0.9192367E+03  0.7818609E-02  0.9401849E-01
       -1   -1    0    0    0  501  0.00000000000E+00  0.00000000000E+00  0.22484037147E+03  0.22484037152E+03  0.50400001928E-02 0. -1.
        1   -1    0    0  501    0  0.00000000000E+00  0.00000000000E+00 -0.93955122765E+03  0.93955122766E+03  0.50400001928E-02 0.  1.
    10030    2    1    2    0    0  0.00000000000E+00  0.00000000000E+00 -0.71471085618E+03  0.11643915992E+04  0.91923674226E+03 0.  0.
        2    1    3    3  502    0  0.19850080624E+03  0.74849407535E+02 -0.87382499399E+03  0.89920805380E+03  0.25500000920E-02 0.  1.
       -2    1    3    3    0  502 -0.19850080624E+03 -0.74849407535E+02  0.15911413781E+03  0.26518354539E+03  0.25500000920E-02 0. -1.
</event>
<event>
 5   0  0.1559275E-02  0.9286294E+03  0.7818609E-02  0.9390484E-01
        1   -1    0    0  501    0  0.00000000000E+00  0.00000000000E+00  0.84931759362E+03  0.84931759363E+03  0.50400001928E-02 0.  1.
       -1   -1    0    0    0  501  0.00000000000E+00  0.00000000000E+00 -0.25383689067E+03  0.25383689072E+03  0.50400001928E-02 0. -1.
    10030    2    1    2    0    0  0.00000000000E+00  0.00000000000E+00  0.59548070295E+03  0.11031544844E+04  0.92862939258E+03 0.  0.
        1    1    3    3  502    0 -0.25962902524E+03  0.36872445068E+03  0.42907705673E+03  0.62247254712E+03  0.50400001928E-02 0.  1.
       -1    1    3    3    0  502  0.25962902524E+03 -0.36872445068E+03  0.16640364622E+03  0.48068193723E+03  0.50400001928E-02 0. -1.
</event>
<event>
 5   0  0.1497410E-02  0.9305631E+03  0.7818609E-02  0.9388162E-01
        1   -1    0    0  501    0  0.00000000000E+00  0.00000000000E+00  0.23961799169E+03  0.23961799174E+03  0.50400001928E-02 0. -1.
       -1   -1    0    0    0  501  0.00000000000E+00  0.00000000000E+00 -0.90346692993E+03  0.90346692994E+03  0.50400001928E-02 0.  1.
    10030    2    1    2    0    0  0.00000000000E+00  0.00000000000E+00 -0.66384893824E+03  0.11430849217E+04  0.93056312272E+03 0.  0.
        3    1    3    3  502    0 -0.20063355473E+03 -0.39232549569E+03 -0.51541745099E+03  0.67810639050E+03  0.10100000352E+00 0.  1.
       -3    1    3    3    0  502  0.20063355473E+03  0.39232549569E+03 -0.14843148726E+03  0.46497853119E+03  0.10100000352E+00 0. -1.
</event>
<event>
 5   0  0.2803717E-02  0.8979978E+03  0.7818609E-02  0.9428088E-01
       -2   -1    0    0    0  501  0.00000000000E+00  0.00000000000E+00  0.21954679020E+03  0.21954679021E+03  0.25500000920E-02 0.  1.
        2   -1    0    0  501    0  0.00000000000E+00  0.00000000000E+00 -0.91825526851E+03  0.91825526851E+03  0.25500000920E-02 0. -1.
    10030    2    1    2    0    0  0.00000000000E+00  0.00000000000E+00 -0.69870847831E+03  0.11378020587E+04  0.89799776569E+03 0.  0.
        5    1    3    3  502    0  0.14565510534E+02 -0.44654663938E+02 -0.91510250324E+03  0.91631919905E+03  0.46999998093E+01 0. -1.
       -5    1    3    3    0  502 -0.14565510534E+02  0.44654663938E+02  0.21639402493E+03  0.22148285968E+03  0.46999998093E+01 0.  1.
</event>
<event>
 5   0  0.2705111E-02  0.8990450E+03  0.7818609E-02  0.9426776E-01
       -2   -1    0    0    0  501  0.00000000000E+00  0.00000000000E+00  0.13428038533E+03  0.13428038535E+03  0.25500000920E-02 0.  1.
        2   -1    0    0  501    0  0.00000000000E+00  0.00000000000E+00 -0.15048399965E+04  0.15048399965E+04  0.25500000920E-02 0. -1.
    10030    2    1    2    0    0  0.00000000000E+00  0.00000000000E+00 -0.13705596112E+04  0.16391203819E+04  0.89904503695E+03 0.  0.
        4    1    3    3  502    0 -0.88285823354E+02 -0.42817815272E+03 -0.87595652022E+03  0.97899558491E+03  0.12699999809E+01 0. -1.
       -4    1    3    3    0  502  0.88285823354E+02  0.42817815272E+03 -0.49460309099E+03  0.66012479698E+03  0.12699999809E+01 0.  1.
</event>
<event>
 5   0  0.1537870E-02  0.8758759E+03  0.7818609E-02  0.9456251E-01
       -1   -1    0    0    0  501  0.00000000000E+00  0.00000000000E+00  0.40436044730E+03  0.40436044733E+03  0.50400001928E-02 0. -1.
        1   -1    0    0  501    0  0.00000000000E+00  0.00000000000E+00 -0.47430363448E+03  0.47430363451E+03  0.50400001928E-02 0.  1.
    10030    2    1    2    0    0  0.00000000000E+00  0.00000000000E+00 -0.69943187183E+02  0.87866408184E+03  0.87587585837E+03 0.  0.
        5    1    3    3  502    0 -0.28516696843E+03  0.33159751121E+03 -0.57187756499E+02  0.44110048608E+03  0.46999998093E+01 0.  1.
       -5    1    3    3    0  502  0.28516696843E+03 -0.33159751121E+03 -0.12755430685E+02  0.43756359576E+03  0.46999998093E+01 0. -1.
</event>
<event>
 5   0  0.1537870E-02  0.9129777E+03  0.7818609E-02  0.9409502E-01
       -1   -1    0    0    0  501  0.00000000000E+00  0.00000000000E+00  0.30170253890E+03  0.30170253894E+03  0.50400001928E-02 0.  1.
        1   -1    0    0  501    0  0.00000000000E+00  0.00000000000E+00 -0.69068718322E+03  0.69068718323E+03  0.50400001928E-02 0. -1.
    10030    2    1    2    0    0  0.00000000000E+00  0.00000000000E+00 -0.38898464432E+03  0.99238972217E+03  0.91297771449E+03 0.  0.
        5    1    3    3  502    0  0.41457769023E+03  0.93290277171E+02 -0.13314186413E+02  0.42517889718E+03  0.46999998093E+01 0.  1.
       -5    1    3    3    0  502 -0.41457769023E+03 -0.93290277171E+02 -0.37567045790E+03  0.56721082499E+03  0.46999998093E+01 0. -1.
</event>
<event>
 5   0  0.2679861E-02  0.8760816E+03  0.7818609E-02  0.9455985E-01
        2   -1    0    0  501    0  0.00000000000E+00  0.00000000000E+00  0.12735446903E+04  0.12735446903E+04  0.25500000920E-02 0.  1.
       -2   -1    0    0    0  501  0.00000000000E+00  0.00000000000E+00 -0.15066590396E+03  0.15066590398E+03  0.25500000920E-02 0. -1.
    10030    2    1    2    0    0  0.00000000000E+00  0.00000000000E+00  0.11228787863E+04  0.14242105943E+04  0.87608164462E+03 0.  0.
        1    1    3    3  502    0 -0.11212700948E+03  0.21308320901E+03 -0.33433976811E+02  0.24309411973E+03  0.50400001928E-02 0. -1.
       -1    1    3    3    0  502  0.11212700948E+03 -0.21308320901E+03  0.11563127631E+04  0.11811164745E+04  0.50400001928E-02 0.  1.
</event>
<event>
 5   0  0.2705111E-02  0.9418394E+03  0.7818609E-02  0.9374740E-01
        2   -1    0    0  501    0  0.00000000000E+00  0.00000000000E+00  0.48277480192E+03  0.48277480193E+03  0.25500000920E-02 0. -1.
       -2   -1    0    0    0  501  0.00000000000E+00  0.00000000000E+00 -0.45935574235E+03  0.45935574236E+03  0.25500000920E-02 0.  1.
    10030    2    1    2    0    0  0.00000000000E+00  0.00000000000E+00  0.23419059570E+02  0.94213054428E+03  0.94183942905E+03 0.  0.
        4    1    3    3  502    0  0.37064795996E+03 -0.23116590784E+03  0.18767916030E+03  0.47543944649E+03  0.12699999809E+01 0. -1.
       -4    1    3    3    0  502 -0.37064795996E+03  0.23116590784E+03 -0.16426010073E+03  0.46669109779E+03  0.12699999809E+01 0.  1.
</event>
<event>
 5   0  0.2705111E-02  0.9337323E+03  0.7818609E-02  0.9384370E-01
        2   -1    0    0  501    0  0.00000000000E+00  0.00000000000E+00  0.14642027292E+04  0.14642027293E+04  0.25500000920E-02 0. -1.
       -2   -1    0    0    0  501  0.00000000000E+00  0.00000000000E+00 -0.14886190876E+03  0.14886190879E+03  0.25500000920E-02 0.  1.
    10030    2    1    2    0    0  0.00000000000E+00  0.00000000000E+00  0.13153408205E+04  0.16130646380E+04  0.93373232377E+03 0.  0.
        4    1    3    3  502    0  0.36680714838E+03 -0.28869752853E+03  0.64335645840E+03  0.79486029750E+03  0.12699999809E+01 0.  1.
       -4    1    3    3    0  502 -0.36680714838E+03  0.28869752853E+03  0.67198436208E+03  0.81820434053E+03  0.12699999809E+01 0. -1.
</event>
<event>
 5   0  0.1560728E-02  0.8613321E+03  0.7818609E-02  0.9475252E-01
        1   -1    0    0  501    0  0.00000000000E+00  0.00000000000E+00  0.48154206225E+03  0.48154206227E+03  0.50400001928E-02 0.  1.
       -1   -1    0    0    0  501  0.00000000000E+00  0.00000000000E+00 -0.38516520588E+03  0.38516520591E+03  0.50400001928E-02 0. -1.
    10030    2    1    2    0    0  0.00000000000E+00  0.00000000000E+00  0.96376856368E+02  0.86670726819E+03  0.86133210220E+03 0.  0.
        4    1    3    3  502    0  0.39232859513E+03  0.42038941263E+02 -0.12546500269E+03  0.41404357131E+03  0.12699999809E+01 0. -1.
       -4    1    3    3    0  502 -0.39232859513E+03 -0.42038941263E+02  0.22184185906E+03  0.45266369688E+03  0.12699999809E+01 0.  1.
</event>
<event>
 5   0  0.1497410E-02  0.9107257E+03  0.7818609E-02  0.9412272E-01
       -1   -1    0    0    0  501  0.00000000000E+00  0.00000000000E+00  0.19996891962E+03  0.19996891968E+03  0.50400001928E-02 0.  1.
        1   -1    0    0  501    0  0.00000000000E+00  0.00000000000E+00 -0.10369377449E+04  0.10369377449E+04  0.50400001928E-02 0. -1.
    10030    2    1    2    0    0  0.00000000000E+00  0.00000000000E+00 -0.83696882524E+03  0.12369066645E+04  0.91072568997E+03 0.  0.
        3    1    3    3  502    0 -0.91224789655E+02  0.10216734325E+03  0.17132899283E+03  0.21934849500E+03  0.10100000352E+00 0.  1.
       -3    1    3    3    0  502  0.91224789655E+02 -0.10216734325E+03 -0.10082978181E+04  0.10175581695E+04  0.10100000352E+00 0. -1.
</event>
<event>
 5   0  0.1559275E-02  0.1029903E+04  0.7818609E-02  0.9276343E-01
       -1   -1    0    0    0  501  0.00000000000E+00  0.00000000000E+00  0.37928274827E+03  0.37928274831E+03  0.50400001928E-02 0.  1.
        1   -1    0    0  501    0  0.00000000000E+00  0.00000000000E+00 -0.69914851608E+03  0.69914851610E+03  0.50400001928E-02 0. -1.
    10030    2    1    2    0    0  0.00000000000E+00  0.00000000000E+00 -0.31986576781E+03  0.10784312644E+04  0.10299028511E+04 0.  0.
        1    1    3    3  502    0  0.40178823453E+03  0.12739093221E+03  0.14983175495E+03  0.44733856287E+03  0.50400001928E-02 0.  1.
       -1    1    3    3    0  502 -0.40178823453E+03 -0.12739093221E+03 -0.46969752277E+03  0.63109270154E+03  0.50400001928E-02 0. -1.
</event>
<event>
 5   0  0.2705111E-02  0.9137469E+03  0.7818609E-02  0.9408558E-01
        2   -1    0    0  501    0  0.00000000000E+00  0.00000000000E+00  0.61732835788E+03  0.61732835788E+03  0.25500000920E-02 0. -1.
       -2   -1    0    0    0  501  0.00000000000E+00  0.00000000000E+00 -0.33812368128E+03  0.33812368129E+03  0.25500000920E-02 0.  1.
    10030    2    1    2    0    0  0.00000000000E+00  0.00000000000E+00  0.27920467660E+03  0.95545203917E+03  0.91374687290E+03 0.  0.
        4    1    3    3  502    0 -0.15333186554E+03 -0.18656263509E+02 -0.30999086834E+03  0.34634472496E+03  0.12699999809E+01 0.  1.
       -4    1    3    3    0  502  0.15333186554E+03  0.18656263509E+02  0.58919554493E+03  0.60910731421E+03  0.12699999809E+01 0. -1.
</event>
<event>
 5   0  0.1560728E-02  0.9062817E+03  0.7818609E-02  0.9417763E-01
       -1   -1    0    0    0  501  0.00000000000E+00  0.00000000000E+00  0.44365496664E+03  0.44365496667E+03  0.50400001928E-02 0.  1.
        1   -1    0    0  501    0  0.00000000000E+00  0.00000000000E+00 -0.46282954276E+03  0.46282954279E+03  0.50400001928E-02 0. -1.
    10030    2    1    2    0    0  0.00000000000E+00  0.00000000000E+00 -0.19174576117E+02  0.90648450946E+03  0.90628168994E+03 0.  0.
        4    1    3    3  502    0  0.24930177479E+03  0.56915777548E+02  0.36458763885E+03  0.44532745250E+03  0.12699999809E+01 0.  1.
       -4    1    3    3    0  502 -0.24930177479E+03 -0.56915777548E+02 -0.38376221496E+03  0.46115705696E+03  0.12699999809E+01 0. -1.
</event>
<event>
 5   0  0.1040163E-02  0.9126341E+03  0.7818609E-02  0.9409925E-01
       -3   -1    0    0    0  501  0.00000000000E+00  0.00000000000E+00  0.20738380179E+03  0.20738382639E+03  0.10100000352E+00 0.  1.
        3   -1    0    0  501    0  0.00000000000E+00  0.00000000000E+00 -0.10040574109E+04  0.10040574160E+04  0.10100000352E+00 0. -1.
    10030    2    1    2    0    0  0.00000000000E+00  0.00000000000E+00 -0.79667360911E+03  0.12114412424E+04  0.91263412398E+03 0.  0.
        3    1    3    3  502    0 -0.45366704925E+03  0.10330129717E+02 -0.33461070359E+03  0.56381276707E+03  0.10100000352E+00 0.  1.
       -3    1    3    3    0  502  0.45366704925E+03 -0.10330129717E+02 -0.46206290552E+03  0.64762847530E+03  0.10100000352E+00 0. -1.
</event>
<event>
 5   0  0.2679861E-02  0.7299165E+03  0.7818609E-02  0.9667396E-01
        2   -1    0    0  501    0  0.00000000000E+00  0.00000000000E+00  0.93600110746E+03  0.93600110746E+03  0.25500000920E-02 0. -1.
       -2   -1    0    0    0  501  0.00000000000E+00  0.00000000000E+00 -0.14230166301E+03  0.14230166303E+03  0.25500000920E-02 0.  1.
    10030    2    1    2    0    0  0.00000000000E+00  0.00000000000E+00  0.79369944445E+03  0.10783027705E+04  0.72991647243E+03 0.  0.
        1    1    3    3  502    0 -0.10642057051E+03  0.11303556086E+03  0.88478731977E+03  0.89830450133E+03  0.50400001928E-02 0. -1.
       -1    1    3    3    0  502  0.10642057051E+03 -0.11303556086E+03 -0.91087875319E+02  0.17999826917E+03  0.50400001928E-02 0.  1.
</event>
<event>
 5   0  0.1497410E-02  0.9170150E+03  0.7818609E-02  0.9404558E-01
        1   -1    0    0  501    0  0.00000000000E+00  0.00000000000E+00  0.59683236197E+03  0.59683236199E+03  0.50400001928E-02 0. -1.
       -1   -1    0    0    0  501  0.00000000000E+00  0.00000000000E+00 -0.35224149871E+03  0.35224149874E+03  0.50400001928E-02 0.  1.
    10030    2    1    2    0    0  0.00000000000E+00  0.00000000000E+00  0.24459086326E+03  0.94907386073E+03  0.91701499592E+03 0.  0.
        3    1    3    3  502    0 -0.17655061279E+03 -0.61397121427E+02 -0.31101723995E+03  0.36286562133E+03  0.10100000352E+00 0.  1.
       -3    1    3    3    0  502  0.17655061279E+03  0.61397121427E+02  0.55560810321E+03  0.58620823941E+03  0.10100000352E+00 0. -1.
</event>
<event>
 5   0  0.2414128E-02  0.9126404E+03  0.7818609E-02  0.9409917E-01
        2   -1    0    0  501    0  0.00000000000E+00  0.00000000000E+00  0.39146875466E+03  0.39146875467E+03  0.25500000920E-02 0. -1.
       -2   -1    0    0    0  501  0.00000000000E+00  0.00000000000E+00 -0.53191503709E+03  0.53191503710E+03  0.25500000920E-02 0.  1.
    10030    2    1    2    0    0  0.00000000000E+00  0.00000000000E+00 -0.14044628243E+03  0.92338379177E+03  0.91264038298E+03 0.  0.
        3    1    3    3  502    0 -0.15881250479E+03 -0.41585808341E+03  0.31301237095E+02  0.44625008107E+03  0.10100000352E+00 0. -1.
       -3    1    3    3    0  502  0.15881250479E+03  0.41585808341E+03 -0.17174751953E+03  0.47713371069E+03  0.10100000352E+00 0.  1.
</event>
<event>
 5   0  0.2679861E-02  0.7883534E+03  0.7818609E-02  0.9577030E-01
        2   -1    0    0  501    0  0.00000000000E+00  0.00000000000E+00  0.12564112273E+04  0.12564112273E+04  0.25500000920E-02 0.  1.
       -2   -1    0    0    0  501  0.00000000000E+00  0.00000000000E+00 -0.12366592155E+03  0.12366592157E+03  0.25500000920E-02 0. -1.
    10030    2    1    2    0    0  0.00000000000E+00  0.00000000000E+00  0.11327453058E+04  0.13800771489E+04  0.78835335298E+03 0.  0.
        1    1    3    3  502    0 -0.25293422302E+03  0.29608173772E+03  0.67336079273E+03  0.77785273272E+03  0.50400001928E-02 0.  1.
       -1    1    3    3    0  502  0.25293422302E+03 -0.29608173772E+03  0.45938451302E+03  0.60222441616E+03  0.50400001928E-02 0. -1.
</event>
<event>
 5   0  0.1537870E-02  0.9091111E+03  0.7818609E-02  0.9414263E-01
       -1   -1    0    0    0  501  0.00000000000E+00  0.00000000000E+00  0.38510762972E+03  0.38510762975E+03  0.50400001928E-02 0.  1.
        1   -1    0    0  501    0  0.00000000000E+00  0.00000000000E+00 -0.53652724435E+03  0.53652724437E+03  0.50400001928E-02 0. -1.
    10030    2    1    2    0    0  0.00000000000E+00  0.00000000000E+00 -0.15141961463E+03  0.92163487412E+03  0.90911107215E+03 0.  0.
        5    1    3    3  502    0 -0.18045690993E+03  0.20928238992E+03  0.29014227140E+03  0.40070992342E+03  0.46999998093E+01 0.  1.
       -5    1    3    3    0  502  0.18045690993E+03 -0.20928238992E+03 -0.44156188603E+03  0.52092495071E+03  0.46999998093E+01 0. -1.
</event>
<event>
 5   0  0.1459111E-02  0.9557022E+03  0.7818609E-02  0.9358510E-01
        1   -1    0    0  501    0  0.00000000000E+00  0.00000000000E+00  0.40721255380E+03  0.40721255383E+03  0.50400001928E-02 0. -1.
       -1   -1    0    0    0  501  0.00000000000E+00  0.00000000000E+00 -0.56074322738E+03  0.56074322740E+03  0.50400001928E-02 0.  1.
    10030    2    1    2    0    0  0.00000000000E+00  0.00000000000E+00 -0.15353067358E+03  0.96795578123E+03  0.95570221653E+03 0.  0.
        2    1    3    3  502    0 -0.18806249823E+03  0.39114345374E+03 -0.27928146987E+03  0.51609964548E+03  0.25500000920E-02 0.  1.
       -2    1    3    3    0  502  0.18806249823E+03 -0.39114345374E+03  0.12575079629E+03  0.45185613575E+03  0.25500000920E-02 0. -1.
</event>
<event>
 5   0  0.2628383E-02  0.8931738E+03  0.7818609E-02  0.9434155E-01
        2   -1    0    0  501    0  0.00000000000E+00  0.00000000000E+00  0.19843023594E+04  0.19843023594E+04  0.25500000920E-02 0. -1.
       -2   -1    0    0    0  501  0.00000000000E+00  0.00000000000E+00 -0.10050880584E+03  0.10050880587E+03  0.25500000920E-02 0.  1.
    10030    2    1    2    0    0  0.00000000000E+00  0.00000000000E+00  0.18837935535E+04  0.20848111652E+04  0.89317380302E+03 0.  0.
        2    1    3    3  502    0  0.36285713191E+03  0.12490071849E+03  0.40873455790E+03  0.56065089537E+03  0.25500000920E-02 0.  1.
       -2    1    3    3    0  502 -0.36285713191E+03 -0.12490071849E+03  0.14750589956E+04  0.15241602699E+04  0.25500000920E-02 0. -1.
</event>
<event>
 5   0  0.2628383E-02  0.9085689E+03  0.7818609E-02  0.9414933E-01
       -2   -1    0    0    0  501  0.00000000000E+00  0.00000000000E+00  0.48939750576E+03  0.48939750576E+03  0.25500000920E-02 0. -1.
        2   -1    0    0  501    0  0.00000000000E+00  0.00000000000E+00 -0.42169067411E+03  0.42169067412E+03  0.25500000920E-02 0.  1.
    10030    2    1    2    0    0  0.00000000000E+00  0.00000000000E+00  0.67706831641E+02  0.91108817988E+03  0.90856890574E+03 0.  0.
        2    1    3    3  502    0  0.14713951200E+03  0.34873539092E+03  0.28576294545E+03  0.47426455684E+03  0.25500000920E-02 0. -1.
       -2    1    3    3    0  502 -0.14713951200E+03 -0.34873539092E+03 -0.21805611381E+03  0.43682362305E+03  0.25500000920E-02 0.  1.
</event>
<event>
 5   0  0.1559275E-02  0.8902388E+03  0.7818609E-02  0.9437866E-01
        1   -1    0    0  501    0  0.00000000000E+00  0.00000000000E+00  0.56590013980E+03  0.56590013982E+03  0.50400001928E-02 0. -1.
       -1   -1    0    0    0  501  0.00000000000E+00  0.00000000000E+00 -0.35011706358E+03  0.35011706362E+03  0.50400001928E-02 0.  1.
    10030    2    1    2    0    0  0.00000000000E+00  0.00000000000E+00  0.21578307622E+03  0.91601720344E+03  0.89023883369E+03 0.  0.
        1    1    3    3  502    0 -0.39853501554E+03  0.10958164797E+03 -0.62098207939E+02  0.41796469185E+03  0.50400001928E-02 0.  1.
       -1    1    3    3    0  502  0.39853501554E+03 -0.10958164797E+03  0.27788128416E+03  0.49805251158E+03  0.50400001928E-02 0. -1.
</event>
<event>
 5   0  0.1459111E-02  0.5324624E+03  0.7818609E-02  0.1005637E+00
        1   -1    0    0  501    0  0.00000000000E+00  0.00000000000E+00  0.14847526312E+04  0.14847526312E+04  0.50400001928E-02 0.  1.
       -1   -1    0    0    0  501  0.00000000000E+00  0.00000000000E+00 -0.47737952406E+02  0.47737952672E+02  0.50400001928E-02 0. -1.
    10030    2    1    2    0    0  0.00000000000E+00  0.00000000000E+00  0.14370146788E+04  0.15324905839E+04  0.53246239549E+03 0.  0.
        2    1    3    3  502    0  0.38476106028E+02  0.98861796461E+02  0.14212931993E+04  0.14252467940E+04  0.25500000920E-02 0.  1.
       -2    1    3    3    0  502 -0.38476106028E+02 -0.98861796461E+02  0.15721479488E+02  0.10724378984E+03  0.25500000920E-02 0. -1.
</event>
<event>
 5   0  0.2679861E-02  0.9420867E+03  0.7818609E-02  0.9374448E-01
       -2   -1    0    0    0  501  0.00000000000E+00  0.00000000000E+00  0.29413008046E+03  0.29413008047E+03  0.25500000920E-02 0. -1.
        2   -1    0    0  501    0  0.00000000000E+00  0.00000000000E+00 -0.75436642069E+03  0.75436642069E+03  0.25500000920E-02 0.  1.
    10030    2    1    2    0    0  0.00000000000E+00  0.00000000000E+00 -0.46023634023E+03  0.10484965012E+04  0.94208673916E+03 0.  0.
        1    1    3    3  502    0 -0.23226265453E+02 -0.43974593535E+03 -0.43999232692E+02  0.44255155583E+03  0.50400001928E-02 0.  1.
       -1    1    3    3    0  502  0.23226265453E+02  0.43974593535E+03 -0.41623710753E+03  0.60594494534E+03  0.50400001928E-02 0. -1.
</event>
<event>
 5   0  0.1560728E-02  0.8680058E+03  0.7818609E-02  0.9466484E-01
        1   -1    0    0  501    0  0.00000000000E+00  0.00000000000E+00  0.52821493584E+03  0.52821493587E+03  0.50400001928E-02 0. -1.
       -1   -1    0    0    0  501  0.00000000000E+00  0.00000000000E+00 -0.35659442534E+03  0.35659442537E+03  0.50400001928E-02 0.  1.
    10030    2    1    2    0    0  0.00000000000E+00  0.00000000000E+00  0.17162051050E+03  0.88480936124E+03  0.86800576387E+03 0.  0.
        4    1    3    3  502    0 -0.76461721639E+02  0.28504880278E+03 -0.23856003748E+03  0.37948876034E+03  0.12699999809E+01 0.  1.
       -4    1    3    3    0  502  0.76461721639E+02 -0.28504880278E+03  0.41018054799E+03  0.50532060090E+03  0.12699999809E+01 0. -1.
</event>
<event>
 5   0  0.2679861E-02  0.9079982E+03  0.7818609E-02  0.9415638E-01
       -2   -1    0    0    0  501  0.00000000000E+00  0.00000000000E+00  0.14065593169E+03  0.14065593171E+03  0.25500000920E-02 0. -1.
        2   -1    0    0  501    0  0.00000000000E+00  0.00000000000E+00 -0.14653855910E+04  0.14653855910E+04  0.25500000920E-02 0.  1.
    10030    2    1    2    0    0  0.00000000000E+00  0.00000000000E+00 -0.13247296593E+04  0.16060415228E+04  0.90799818417E+03 0.  0.
        1    1    3    3  502    0  0.14361359491E+03  0.23053632196E+03 -0.18902993193E+02  0.27226675074E+03  0.50400001928E-02 0. -1.
       -1    1    3    3    0  502 -0.14361359491E+03 -0.23053632196E+03 -0.13058266662E+04  0.13337747720E+04  0.50400001928E-02 0.  1.
</event>
<event>
 5   0  0.1559275E-02  0.9080373E+03  0.7818609E-02  0.9415590E-01
       -1   -1    0    0    0  501  0.00000000000E+00  0.00000000000E+00  0.34442201773E+03  0.34442201777E+03  0.50400001928E-02 0.  1.
        1   -1    0    0  501    0  0.00000000000E+00  0.00000000000E+00 -0.59848947031E+03  0.59848947033E+03  0.50400001928E-02 0. -1.
    10030    2    1    2    0    0  0.00000000000E+00  0.00000000000E+00 -0.25406745258E+03  0.94291148810E+03  0.90803733620E+03 0.  0.
        1    1    3    3  502    0 -0.38008214661E+03 -0.24790336445E+03 -0.11182773501E+03  0.46735849047E+03  0.50400001928E-02 0.  1.
       -1    1    3    3    0  502  0.38008214661E+03  0.24790336445E+03 -0.14223971757E+03  0.47555299763E+03  0.50400001928E-02 0. -1.
</event>
<event>
 5   0  0.2705111E-02  0.5664297E+03  0.7818609E-02  0.9977610E-01
       -2   -1    0    0    0  501  0.00000000000E+00  0.00000000000E+00  0.61451981706E+02  0.61451981759E+02  0.25500000920E-02 0. -1.
        2   -1    0    0  501    0  0.00000000000E+00  0.00000000000E+00 -0.13052573506E+04  0.13052573506E+04  0.25500000920E-02 0.  1.
    10030    2    1    2    0    0  0.00000000000E+00  0.00000000000E+00 -0.12438053688E+04  0.13667093323E+04  0.56642969861E+03 0.  0.
        4    1    3    3  502    0 -0.12137507709E+03  0.86100520269E+02 -0.12033133310E+04  0.12124808429E+04  0.12699999809E+01 0.  1.
       -4    1    3    3    0  502  0.12137507709E+03 -0.86100520269E+02 -0.40492037891E+02  0.15422848946E+03  0.12699999809E+01 0. -1.
</event>
<event>
 5   0  0.1537870E-02  0.7404328E+03  0.7818609E-02  0.9650480E-01
        1   -1    0    0  501    0  0.00000000000E+00  0.00000000000E+00  0.34241881199E+03  0.34241881202E+03  0.50400001928E-02 0. -1.
       -1   -1    0    0    0  501  0.00000000000E+00  0.00000000000E+00 -0.40027062558E+03  0.40027062561E+03  0.50400001928E-02 0.  1.
    10030    2    1    2    0    0  0.00000000000E+00  0.00000000000E+00 -0.57851813594E+02  0.74268943764E+03  0.74043282507E+03 0.  0.
        5    1    3    3  502    0 -0.23198896131E+03 -0.27164961944E+03  0.68456068413E+02  0.36375914726E+03  0.46999998093E+01 0. -1.
       -5    1    3    3    0  502  0.23198896131E+03  0.27164961944E+03 -0.12630788201E+03  0.37893029038E+03  0.46999998093E+01 0.  1.
</event>
<event>
 5   0  0.2414128E-02  0.8842941E+03  0.7818609E-02  0.9445430E-01
       -2   -1    0    0    0  501  0.00000000000E+00  0.00000000000E+00  0.44473368381E+03  0.44473368381E+03  0.25500000920E-02 0. -1.
        2   -1    0    0  501    0  0.00000000000E+00  0.00000000000E+00 -0.43957548526E+03  0.43957548526E+03  0.25500000920E-02 0.  1.
    10030    2    1    2    0    0  0.00000000000E+00  0.00000000000E+00  0.51581985502E+01  0.88430916908E+03  0.88429412500E+03 0.  0.
        3    1    3    3  502    0 -0.38980721893E+03 -0.20687002448E+03 -0.24791783090E+02  0.44199492947E+03  0.10100000352E+00 0.  1.
       -3    1    3    3    0  502  0.38980721893E+03  0.20687002448E+03  0.29949981640E+02  0.44231423961E+03  0.10100000352E+00 0. -1.
</event>
<event>
 5   0  0.2628383E-02  0.9060129E+03  0.7818609E-02  0.9418096E-01
       -2   -1    0    0    0  501  0.00000000000E+00  0.00000000000E+00  0.56525244925E+03  0.56525244925E+03  0.25500000920E-02 0. -1.
        2   -1    0    0  501    0  0.00000000000E+00  0.00000000000E+00 -0.36304986632E+03  0.36304986632E+03  0.25500000920E-02 0.  1.
    10030    2    1    2    0    0  0.00000000000E+00  0.00000000000E+00  0.20220258293E+03  0.92830231558E+03  0.90601286115E+03 0.  0.
        2    1    3    3  502    0 -0.25758393661E+03 -0.14053699281E+03  0.45472204342E+03  0.54117674334E+03  0.25500000920E-02 0. -1.
       -2    1    3    3    0  502  0.25758393661E+03  0.14053699281E+03 -0.25251946049E+03  0.38712557224E+03  0.25500000920E-02 0.  1.
</event>
<event>
 5   0  0.2679861E-02  0.8979004E+03  0.7818609E-02  0.9428210E-01
        2   -1    0    0  501    0  0.00000000000E+00  0.00000000000E+00  0.14549818076E+04  0.14549818076E+04  0.25500000920E-02 0. -1.
       -2   -1    0    0    0  501  0.00000000000E+00  0.00000000000E+00 -0.13852839627E+03  0.13852839629E+03  0.25500000920E-02 0.  1.
    10030    2    1    2    0    0  0.00000000000E+00  0.00000000000E+00  0.13164534113E+04  0.15935102039E+04  0.89790043196E+03 0.  0.
        1    1    3    3  502    0  0.44220155222E+03  0.14947234709E+02  0.52317787023E+03  0.68518662898E+03  0.50400001928E-02 0.  1.
       -1    1    3    3    0  502 -0.44220155222E+03 -0.14947234709E+02  0.79327554112E+03  0.90832357493E+03  0.50400001928E-02 0. -1.
</event>
<event>
 5   0  0.1459111E-02  0.9137716E+03  0.7818609E-02  0.9408528E-01
       -1   -1    0    0    0  501  0.00000000000E+00  0.00000000000E+00  0.22492837133E+03  0.22492837138E+03  0.50400001928E-02 0.  1.
        1   -1    0    0  501    0  0.00000000000E+00  0.00000000000E+00 -0.92804931187E+03  0.92804931189E+03  0.50400001928E-02 0. -1.
    10030    2    1    2    0    0  0.00000000000E+00  0.00000000000E+00 -0.70312094055E+03  0.11529776833E+04  0.91377156942E+03 0.  0.
        2    1    3    3  502    0 -0.91335696682E+02  0.37090346892E+03 -0.66784449223E+03  0.76936848035E+03  0.25500000920E-02 0. -1.
       -2    1    3    3    0  502  0.91335696682E+02 -0.37090346892E+03 -0.35276448313E+02  0.38360920291E+03  0.25500000920E-02 0.  1.
</event>
<event>
 5   0  0.2628383E-02  0.9155278E+03  0.7818609E-02  0.9406376E-01
       -2   -1    0    0    0  501  0.00000000000E+00  0.00000000000E+00  0.52724802697E+03  0.52724802698E+03  0.25500000920E-02 0. -1.
        2   -1    0    0  501    0  0.00000000000E+00  0.00000000000E+00 -0.39743685845E+03  0.39743685845E+03  0.25500000920E-02 0.  1.
    10030    2    1    2    0    0  0.00000000000E+00  0.00000000000E+00  0.12981116853E+03  0.92468488543E+03  0.91552782474E+03 0.  0.
        2    1    3    3  502    0  0.26397856927E+03  0.35751286141E+03  0.17576528781E+03  0.47790539598E+03  0.25500000920E-02 0. -1.
       -2    1    3    3    0  502 -0.26397856927E+03 -0.35751286141E+03 -0.45954119282E+02  0.44677948945E+03  0.25500000920E-02 0.  1.
</event>
<event>
 5   0  0.1497410E-02  0.8569489E+03  0.7818609E-02  0.9481057E-01
        1   -1    0    0  501    0  0.00000000000E+00  0.00000000000E+00  0.61899044092E+03  0.61899044094E+03  0.50400001928E-02 0. -1.
       -1   -1    0    0    0  501  0.00000000000E+00  0.00000000000E+00 -0.29659646289E+03  0.29659646294E+03  0.50400001928E-02 0.  1.
    10030    2    1    2    0    0  0.00000000000E+00  0.00000000000E+00  0.32239397803E+03  0.91558690388E+03  0.85694894917E+03 0.  0.
        3    1    3    3  502    0 -0.36833364758E+03 -0.95328204959E+02 -0.49348692221E+02  0.38365667755E+03  0.10100000352E+00 0. -1.
       -3    1    3    3    0  502  0.36833364758E+03  0.95328204959E+02  0.37174267025E+03  0.53193022633E+03  0.10100000352E+00 0.  1.
</event>
<event>
 5   0  0.1459111E-02  0.4941448E+03  0.7818609E-02  0.1015319E+00
        1   -1    0    0  501    0  0.00000000000E+00  0.00000000000E+00  0.34240694396E+03  0.34240694399E+03  0.50400001928E-02 0.  1.
       -1   -1    0    0    0  501  0.00000000000E+00  0.00000000000E+00 -0.17828135275E+03  0.17828135282E+03  0.50400001928E-02 0. -1.
    10030    2    1    2    0    0  0.00000000000E+00  0.00000000000E+00  0.16412559121E+03  0.52068829682E+03  0.49414480950E+03 0.  0.
        2    1    3    3  502    0 -0.64682643637E+02  0.12874414309E+03  0.29355773289E+03  0.32700923735E+03  0.25500000920E-02 0.  1.
       -2    1    3    3    0  502  0.64682643637E+02 -0.12874414309E+03 -0.12943214168E+03  0.19367905946E+03  0.25500000920E-02 0. -1.
</event>
<event>
 5   0  0.1459111E-02  0.9309508E+03  0.7818609E-02  0.9387698E-01
        1   -1    0    0  501    0  0.00000000000E+00  0.00000000000E+00  0.56683767334E+03  0.56683767336E+03  0.50400001928E-02 0. -1.
       -1   -1    0    0    0  501  0.00000000000E+00  0.00000000000E+00 -0.38223875534E+03  0.38223875537E+03  0.50400001928E-02 0.  1.
    10030    2    1    2    0    0  0.00000000000E+00  0.00000000000E+00  0.18459891800E+03  0.94907642873E+03  0.93095075436E+03 0.  0.
        2    1    3    3  502    0  0.28065437890E+03  0.21171075503E+03 -0.21872915106E+03  0.41404198546E+03  0.25500000920E-02 0.  1.
       -2    1    3    3    0  502 -0.28065437890E+03 -0.21171075503E+03  0.40332806906E+03  0.53503444327E+03  0.25500000920E-02 0. -1.
</event>
<event>
 5   0  0.1537870E-02  0.9112746E+03  0.7818609E-02  0.9411596E-01
        1   -1    0    0  501    0  0.00000000000E+00  0.00000000000E+00  0.43098669886E+03  0.43098669889E+03  0.50400001928E-02 0.  1.
       -1   -1    0    0    0  501  0.00000000000E+00  0.00000000000E+00 -0.48169782028E+03  0.48169782031E+03  0.50400001928E-02 0. -1.
    10030    2    1    2    0    0  0.00000000000E+00  0.00000000000E+00 -0.50711121420E+02  0.91268451920E+03  0.91127460941E+03 0.  0.
        5    1    3    3  502    0 -0.44268254611E+03  0.10700092603E+03 -0.38268476989E+02  0.45705973475E+03  0.46999998093E+01 0. -1.
       -5    1    3    3    0  502  0.44268254611E+03 -0.10700092603E+03 -0.12442644431E+02  0.45562478445E+03  0.46999998093E+01 0.  1.
</event>
<event>
 5   0  0.2414128E-02  0.9032367E+03  0.7818609E-02  0.9421544E-01
       -2   -1    0    0    0  501  0.00000000000E+00  0.00000000000E+00  0.14428802513E+03  0.14428802516E+03  0.25500000920E-02 0.  1.
        2   -1    0    0  501    0  0.00000000000E+00  0.00000000000E+00 -0.14135556434E+04  0.14135556434E+04  0.25500000920E-02 0. -1.
    10030    2    1    2    0    0  0.00000000000E+00  0.00000000000E+00 -0.12692676182E+04  0.15578436685E+04  0.90323674021E+03 0.  0.
        3    1    3    3  502    0 -0.40309185375E+02 -0.44955149629E+03 -0.60803910771E+03  0.75725355394E+03  0.10100000352E+00 0. -1.
       -3    1    3    3    0  502  0.40309185375E+02  0.44955149629E+03 -0.66122851054E+03  0.80059011460E+03  0.10100000352E+00 0.  1.
</event>
<event>
 5   0  0.2705111E-02  0.9054613E+03  0.7818609E-02  0.9418780E-01
       -2   -1    0    0    0  501  0.00000000000E+00  0.00000000000E+00  0.27454462517E+03  0.27454462519E+03  0.25500000920E-02 0. -1.
        2   -1    0    0  501    0  0.00000000000E+00  0.00000000000E+00 -0.74656361983E+03  0.74656361984E+03  0.25500000920E-02 0.  1.
    10030    2    1    2    0    0  0.00000000000E+00  0.00000000000E+00 -0.47201899466E+03  0.10211082450E+04  0.90546127291E+03 0.  0.
        4    1    3    3  502    0  0.21527118574E+03 -0.35876074815E+03 -0.43105141449E+03  0.60071448514E+03  0.12699999809E+01 0.  1.
       -4    1    3    3    0  502 -0.21527118574E+03  0.35876074815E+03 -0.40967580168E+02  0.42039375988E+03  0.12699999809E+01 0. -1.
</event>
<event>
 5   0  0.2414128E-02  0.9233672E+03  0.7818609E-02  0.9396834E-01
        2   -1    0    0  501    0  0.00000000000E+00  0.00000000000E+00  0.16014816570E+04  0.16014816571E+04  0.25500000920E-02 0.  1.
       -2   -1    0    0    0  501  0.00000000000E+00  0.00000000000E+00 -0.13309658644E+03  0.13309658647E+03  0.25500000920E-02 0. -1.
    10030    2    1    2    0    0  0.00000000000E+00  0.00000000000E+00  0.14683850706E+04  0.17345782435E+04  0.92336718986E+03 0.  0.
        3    1    3    3  502    0  0.32917002960E+03 -0.52833283226E+02  0.13421437938E+03  0.35938527243E+03  0.10100000352E+00 0. -1.
       -3    1    3    3    0  502 -0.32917002960E+03  0.52833283226E+02  0.13341706912E+04  0.13751929711E+04  0.10100000352E+00 0.  1.
</event>
<event>
 5   0  0.1459111E-02  0.8763700E+03  0.7818609E-02  0.9455612E-01
       -1   -1    0    0    0  501  0.00000000000E+00  0.00000000000E+00  0.10080404305E+04  0.10080404305E+04  0.50400001928E-02 0. -1.
        1   -1    0    0  501    0  0.00000000000E+00  0.00000000000E+00 -0.19047459716E+03  0.19047459723E+03  0.50400001928E-02 0.  1.
    10030    2    1    2    0    0  0.00000000000E+00  0.00000000000E+00  0.81756583330E+03  0.11985150277E+04  0.87637000168E+03 0.  0.
        2    1    3    3  502    0 -0.11919683361E+03  0.23527537248E+03  0.88732949884E+03  0.92569758861E+03  0.25500000920E-02 0. -1.
       -2    1    3    3    0  502  0.11919683361E+03 -0.23527537248E+03 -0.69763665536E+02  0.27281743909E+03  0.25500000920E-02 0.  1.
</event>
<event>
 5   0  0.1040163E-02  0.8765845E+03  0.7818609E-02  0.9455335E-01
       -4   -1    0    0    0  501  0.00000000000E+00  0.00000000000E+00  0.76618989177E+03  0.76619094431E+03  0.12699999809E+01 0.  1.
        4   -1    0    0  501    0  0.00000000000E+00  0.00000000000E+00 -0.25071843280E+03  0.25072164934E+03  0.12699999809E+01 0. -1.
    10030    2    1    2    0    0  0.00000000000E+00  0.00000000000E+00  0.51547145897E+03  0.10169125936E+04  0.87658450711E+03 0.  0.
        4    1    3    3  502    0  0.22349879908E+03 -0.70755460566E+02  0.68734396846E+03  0.72622406479E+03  0.12699999809E+01 0.  1.
       -4    1    3    3    0  502 -0.22349879908E+03  0.70755460566E+02 -0.17187250950E+03  0.29068852886E+03  0.12699999809E+01 0. -1.
</event>
<event>
 5   0  0.1537870E-02  0.8815727E+03  0.7818609E-02  0.9448914E-01
        1   -1    0    0  501    0  0.00000000000E+00  0.00000000000E+00  0.85389643418E+03  0.85389643420E+03  0.50400001928E-02 0. -1.
       -1   -1    0    0    0  501  0.00000000000E+00  0.00000000000E+00 -0.22753648105E+03  0.22753648111E+03  0.50400001928E-02 0.  1.
    10030    2    1    2    0    0  0.00000000000E+00  0.00000000000E+00  0.62635995313E+03  0.10814329153E+04  0.88157266258E+03 0.  0.
        5    1    3    3  502    0  0.40901995345E+03 -0.89742938569E+02  0.14444895007E+03  0.44298838192E+03  0.46999998093E+01 0.  1.
       -5    1    3    3    0  502 -0.40901995345E+03  0.89742938569E+02  0.48191100306E+03  0.63844453338E+03  0.46999998093E+01 0. -1.
</event>
<event>
 5   0  0.1537870E-02  0.8077008E+03  0.7818609E-02  0.9548937E-01
        1   -1    0    0  501    0  0.00000000000E+00  0.00000000000E+00  0.15450895459E+04  0.15450895459E+04  0.50400001928E-02 0.  1.
       -1   -1    0    0    0  501  0.00000000000E+00  0.00000000000E+00 -0.10555707102E+03  0.10555707114E+03  0.50400001928E-02 0. -1.
    10030    2    1    2    0    0  0.00000000000E+00  0.00000000000E+00  0.14395324749E+04  0.16506466170E+04  0.80770075406E+03 0.  0.
        5    1    3    3  502    0 -0.27761726635E+03  0.29301296932E+03  0.69514993879E+03  0.80385538137E+03  0.46999998093E+01 0. -1.
       -5    1    3    3    0  502  0.27761726635E+03 -0.29301296932E+03  0.74438253608E+03  0.84679123566E+03  0.46999998093E+01 0.  1.
</event>
<event>
 5   0  0.1560728E-02  0.4679469E+03  0.7818609E-02  0.1022501E+00
       -1   -1    0    0    0  501  0.00000000000E+00  0.00000000000E+00  0.91276644835E+02  0.91276644975E+02  0.50400001928E-02 0.  1.
        1   -1    0    0  501    0  0.00000000000E+00  0.00000000000E+00 -0.59975449496E+03  0.59975449499E+03  0.50400001928E-02 0. -1.
    10030    2    1    2    0    0  0.00000000000E+00  0.00000000000E+00 -0.50847785013E+03  0.69103113996E+03  0.46794691186E+03 0.  0.
        4    1    3    3  502    0 -0.13798960971E+02 -0.96131955750E+02 -0.56857847496E+03  0.57681440631E+03  0.12699999809E+01 0. -1.
       -4    1    3    3    0  502  0.13798960971E+02  0.96131955750E+02  0.60100624832E+02  0.11421673365E+03  0.12699999809E+01 0.  1.
</event>
<event>
 5   0  0.1559275E-02  0.9257280E+03  0.7818609E-02  0.9393980E-01
       -1   -1    0    0    0  501  0.00000000000E+00  0.00000000000E+00  0.13094883956E+03  0.13094883966E+03  0.50400001928E-02 0.  1.
        1   -1    0    0  501    0  0.00000000000E+00  0.00000000000E+00 -0.16360823936E+04  0.16360823936E+04  0.50400001928E-02 0. -1.
    10030    2    1    2    0    0  0.00000000000E+00  0.00000000000E+00 -0.15051335541E+04  0.17670312333E+04  0.92572801830E+03 0.  0.
        1    1    3    3  502    0  0.36981655588E+03  0.91850474123E+02 -0.12541216236E+04  0.13107333220E+04  0.50400001928E-02 0. -1.
       -1    1    3    3    0  502 -0.36981655588E+03 -0.91850474123E+02 -0.25101193050E+03  0.45629791132E+03  0.50400001928E-02 0.  1.
</event>
<event>
 5   0  0.2705111E-02  0.8755245E+03  0.7818609E-02  0.9456705E-01
       -2   -1    0    0    0  501  0.00000000000E+00  0.00000000000E+00  0.18147409971E+03  0.18147409973E+03  0.25500000920E-02 0.  1.
        2   -1    0    0  501    0  0.00000000000E+00  0.00000000000E+00 -0.10559953578E+04  0.10559953578E+04  0.25500000920E-02 0. -1.
    10030    2    1    2    0    0  0.00000000000E+00  0.00000000000E+00 -0.87452125808E+03  0.12374694575E+04  0.87552454419E+03 0.  0.
        4    1    3    3  502    0  0.11389311629E+03  0.37175936402E+03 -0.15296784849E+03  0.41782465491E+03  0.12699999809E+01 0.  1.
       -4    1    3    3    0  502 -0.11389311629E+03 -0.37175936402E+03 -0.72155340958E+03  0.81964480262E+03  0.12699999809E+01 0. -1.
</event>
<event>
 5   0  0.2803717E-02  0.8907009E+03  0.7818609E-02  0.9437281E-01
       -2   -1    0    0    0  501  0.00000000000E+00  0.00000000000E+00  0.18456984987E+03  0.18456984989E+03  0.25500000920E-02 0.  1.
        2   -1    0    0  501    0  0.00000000000E+00  0.00000000000E+00 -0.10745904954E+04  0.10745904954E+04  0.25500000920E-02 0. -1.
    10030    2    1    2    0    0  0.00000000000E+00  0.00000000000E+00 -0.89002064553E+03  0.12591603453E+04  0.89070086206E+03 0.  0.
        5    1    3    3  502    0  0.10885877524E+03 -0.32243028912E+03 -0.85106551466E+03  0.91659485300E+03  0.46999998093E+01 0. -1.
       -5    1    3    3    0  502 -0.10885877524E+03  0.32243028912E+03 -0.38955130863E+02  0.34256549229E+03  0.46999998093E+01 0.  1.
</event>
<event>
 5   0  0.1537870E-02  0.9040481E+03  0.7818609E-02  0.9420535E-01
        1   -1    0    0  501    0  0.00000000000E+00  0.00000000000E+00  0.42417718129E+03  0.42417718132E+03  0.50400001928E-02 0. -1.
       -1   -1    0    0    0  501  0.00000000000E+00  0.00000000000E+00 -0.48169903340E+03  0.48169903342E+03  0.50400001928E-02 0.  1.
    10030    2    1    2    0    0  0.00000000000E+00  0.00000000000E+00 -0.57521852105E+02  0.90587621475E+03  0.90404809218E+03 0.  0.
        5    1    3    3  502    0  0.31496386908E+03 -0.16495822367E+03  0.25089157969E+03  0.43518057073E+03  0.46999998093E+01 0. -1.
       -5    1    3    3    0  502 -0.31496386908E+03  0.16495822367E+03 -0.30841343179E+03  0.47069564401E+03  0.46999998093E+01 0.  1.
</event>
<event>
 5   0  0.2679861E-02  0.8919868E+03  0.7818609E-02  0.9435654E-01
       -2   -1    0    0    0  501  0.00000000000E+00  0.00000000000E+00  0.27919051258E+03  0.27919051259E+03  0.25500000920E-02 0. -1.
        2   -1    0    0  501    0  0.00000000000E+00  0.00000000000E+00 -0.71245295385E+03  0.71245295385E+03  0.25500000920E-02 0.  1.
    10030    2    1    2    0    0  0.00000000000E+00  0.00000000000E+00 -0.43326244127E+03  0.99164346644E+03  0.89198678326E+03 0.  0.
        1    1    3    3  502    0  0.28040881949E+03 -0.17914895758E+03 -0.54677153366E+03  0.64006450073E+03  0.50400001928E-02 0.  1.
       -1    1    3    3    0  502 -0.28040881949E+03  0.17914895758E+03  0.11350909238E+03  0.35157896571E+03  0.50400001928E-02 0. -1.
</event>
<event>
 5   0  0.2628383E-02  0.9082027E+03  0.7818609E-02  0.9415385E-01
        2   -1    0    0  501    0  0.00000000000E+00  0.00000000000E+00  0.38125815452E+03  0.38125815453E+03  0.25500000920E-02 0.  1.
       -2   -1    0    0    0  501  0.00000000000E+00  0.00000000000E+00 -0.54086202413E+03  0.54086202413E+03  0.25500000920E-02 0. -1.
    10030    2    1    2    0    0  0.00000000000E+00  0.00000000000E+00 -0.15960386960E+03  0.92212017866E+03  0.90820274647E+03 0.  0.
        2    1    3    3  502    0 -0.27727314169E+03 -0.26799451373E+03  0.16367822079E+03  0.41891767026E+03  0.25500000920E-02 0.  1.
       -2    1    3    3    0  502  0.27727314169E+03  0.26799451373E+03 -0.32328209039E+03  0.50320250840E+03  0.25500000920E-02 0. -1.
</event>
<event>
 5   0  0.2628383E-02  0.8702103E+03  0.7818609E-02  0.9463606E-01
        2   -1    0    0  501    0  0.00000000000E+00  0.00000000000E+00  0.14289608152E+04  0.14289608152E+04  0.25500000920E-02 0. -1.
       -2   -1    0    0    0  501  0.00000000000E+00  0.00000000000E+00 -0.13248541929E+03  0.13248541931E+03  0.25500000920E-02 0.  1.
    10030    2    1    2    0    0  0.00000000000E+00  0.00000000000E+00  0.12964753959E+04  0.15614462345E+04  0.87021025683E+03 0.  0.
        2    1    3    3  502    0  0.12850705254E+03 -0.36952087945E+03  0.30657532547E+03  0.49703940799E+03  0.25500000920E-02 0.  1.
       -2    1    3    3    0  502 -0.12850705254E+03  0.36952087945E+03  0.98990007044E+03  0.10644068265E+04  0.25500000920E-02 0. -1.
</event>
<event>
 5   0  0.1560728E-02  0.8835708E+03  0.7818609E-02  0.9446355E-01
        1   -1    0    0  501    0  0.00000000000E+00  0.00000000000E+00  0.98358309956E+03  0.98358309958E+03  0.50400001928E-02 0. -1.
       -1   -1    0    0    0  501  0.00000000000E+00  0.00000000000E+00 -0.19843196850E+03  0.19843196857E+03  0.50400001928E-02 0.  1.
    10030    2    1    2    0    0  0.00000000000E+00  0.00000000000E+00  0.78515113106E+03  0.11820150681E+04  0.88357077968E+03 0.  0.
        4    1    3    3  502    0  0.11802456536E+03 -0.41033051208E+03  0.54435088333E+03  0.69182398358E+03  0.12699999809E+01 0. -1.
       -4    1    3    3    0  502 -0.11802456536E+03  0.41033051208E+03  0.24080024773E+03  0.49019108456E+03  0.12699999809E+01 0.  1.
</event>
<event>
 5   0  0.1559275E-02  0.8880895E+03  0.7818609E-02  0.9440594E-01
        1   -1    0    0  501    0  0.00000000000E+00  0.00000000000E+00  0.10493532535E+04  0.10493532535E+04  0.50400001928E-02 0. -1.
       -1   -1    0    0    0  501  0.00000000000E+00  0.00000000000E+00 -0.18790217190E+03  0.18790217197E+03  0.50400001928E-02 0.  1.
    10030    2    1    2    0    0  0.00000000000E+00  0.00000000000E+00  0.86145108157E+03  0.12372554255E+04  0.88808953483E+03 0.  0.
        1    1    3    3  502    0  0.28829910782E+03 -0.26579985246E+03  0.14045925316E+03  0.41652699668E+03  0.50400001928E-02 0. -1.
       -1    1    3    3    0  502 -0.28829910782E+03  0.26579985246E+03  0.72099182841E+03  0.82072842877E+03  0.50400001928E-02 0.  1.
</event>
<event>
 5   0  0.2803717E-02  0.8983973E+03  0.7818609E-02  0.9427587E-01
        2   -1    0    0  501    0  0.00000000000E+00  0.00000000000E+00  0.10445571382E+04  0.10445571382E+04  0.25500000920E-02 0.  1.
       -2   -1    0    0    0  501  0.00000000000E+00  0.00000000000E+00 -0.19317221319E+03  0.19317221321E+03  0.25500000920E-02 0. -1.
    10030    2    1    2    0    0  0.00000000000E+00  0.00000000000E+00  0.85138492500E+03  0.12377293514E+04  0.89839727115E+03 0.  0.
        5    1    3    3  502    0 -0.35701768161E+03  0.22762444487E+03  0.63226975149E+03  0.76096099869E+03  0.46999998093E+01 0.  1.
       -5    1    3    3    0  502  0.35701768161E+03 -0.22762444487E+03  0.21911517351E+03  0.47676835271E+03  0.46999998093E+01 0. -1.
</event>
<event>
 5   0  0.1537870E-02  0.8832743E+03  0.7818609E-02  0.9446734E-01
       -1   -1    0    0    0  501  0.00000000000E+00  0.00000000000E+00  0.41677576084E+03  0.41677576087E+03  0.50400001928E-02 0.  1.
        1   -1    0    0  501    0  0.00000000000E+00  0.00000000000E+00 -0.46798160419E+03  0.46798160421E+03  0.50400001928E-02 0. -1.
    10030    2    1    2    0    0  0.00000000000E+00  0.00000000000E+00 -0.51205843345E+02  0.88475736509E+03  0.88327433829E+03 0.  0.
        5    1    3    3  502    0 -0.11913870588E+03  0.17190109821E+03  0.36399392006E+03  0.41983054038E+03  0.46999998093E+01 0.  1.
       -5    1    3    3    0  502  0.11913870588E+03 -0.17190109821E+03 -0.41519976340E+03  0.46492682470E+03  0.46999998093E+01 0. -1.
</event>
<event>
 5   0  0.2628383E-02  0.8902200E+03  0.7818609E-02  0.9437890E-01
       -2   -1    0    0    0  501  0.00000000000E+00  0.00000000000E+00  0.38551821235E+03  0.38551821235E+03  0.25500000920E-02 0.  1.
        2   -1    0    0  501    0  0.00000000000E+00  0.00000000000E+00 -0.51391327246E+03  0.51391327247E+03  0.25500000920E-02 0. -1.
    10030    2    1    2    0    0  0.00000000000E+00  0.00000000000E+00 -0.12839506012E+03  0.89943148482E+03  0.89022003147E+03 0.  0.
        2    1    3    3  502    0 -0.29880312571E+03  0.17848162777E+03  0.21613322924E+03  0.40969814763E+03  0.25500000920E-02 0.  1.
       -2    1    3    3    0  502  0.29880312571E+03 -0.17848162777E+03 -0.34452828936E+03  0.48973333719E+03  0.25500000920E-02 0. -1.
</event>
<event>
 5   0  0.2705111E-02  0.1227825E+04  0.7818609E-02  0.9088844E-01
        2   -1    0    0  501    0  0.00000000000E+00  0.00000000000E+00  0.21078622797E+04  0.21078622797E+04  0.25500000920E-02 0. -1.
       -2   -1    0    0    0  501  0.00000000000E+00  0.00000000000E+00 -0.17880143683E+03  0.17880143685E+03  0.25500000920E-02 0.  1.
    10030    2    1    2    0    0  0.00000000000E+00  0.00000000000E+00  0.19290608429E+04  0.22866637166E+04  0.12278254017E+04 0.  0.
        4    1    3    3  502    0  0.24104896577E+03 -0.15296989854E+03  0.19767116677E+04  0.19972218265E+04  0.12699999809E+01 0. -1.
       -4    1    3    3    0  502 -0.24104896577E+03  0.15296989854E+03 -0.47650824832E+02  0.28944189014E+03  0.12699999809E+01 0.  1.
</event>
<event>
 5   0  0.1560728E-02  0.8899589E+03  0.7818609E-02  0.9438221E-01
        1   -1    0    0  501    0  0.00000000000E+00  0.00000000000E+00  0.15554739841E+03  0.15554739850E+03  0.50400001928E-02 0.  1.
       -1   -1    0    0    0  501  0.00000000000E+00  0.00000000000E+00 -0.12729670414E+04  0.12729670414E+04  0.50400001928E-02 0. -1.
    10030    2    1    2    0    0  0.00000000000E+00  0.00000000000E+00 -0.11174196430E+04  0.14285144399E+04  0.88995890156E+03 0.  0.
        4    1    3    3  502    0 -0.31618827777E+03 -0.18893552965E+03 -0.15795826141E+03  0.40077934903E+03  0.12699999809E+01 0.  1.
       -4    1    3    3    0  502  0.31618827777E+03  0.18893552965E+03 -0.95946138155E+03  0.10277350908E+04  0.12699999809E+01 0. -1.
</event>
<event>
 5   0  0.2803717E-02  0.9067221E+03  0.7818609E-02  0.9417217E-01
        2   -1    0    0  501    0  0.00000000000E+00  0.00000000000E+00  0.69090761639E+03  0.69090761639E+03  0.25500000920E-02 0. -1.
       -2   -1    0    0    0  501  0.00000000000E+00  0.00000000000E+00 -0.29748729592E+03  0.29748729593E+03  0.25500000920E-02 0.  1.
    10030    2    1    2    0    0  0.00000000000E+00  0.00000000000E+00  0.39342032047E+03  0.98839491233E+03  0.90672209312E+03 0.  0.
        5    1    3    3  502    0 -0.20443754447E+03 -0.16004562985E+03  0.60180876329E+03  0.65544274410E+03  0.46999998093E+01 0. -1.
       -5    1    3    3    0  502  0.20443754447E+03  0.16004562985E+03 -0.20838844282E+03  0.33295216822E+03  0.46999998093E+01 0.  1.
</event>
<event>
 5   0  0.2414128E-02  0.9325436E+03  0.7818609E-02  0.9385790E-01
       -2   -1    0    0    0  501  0.00000000000E+00  0.00000000000E+00  0.10617205084E+03  0.10617205087E+03  0.25500000920E-02 0. -1.
        2   -1    0    0  501    0  0.00000000000E+00  0.00000000000E+00 -0.20477085173E+04  0.20477085173E+04  0.25500000920E-02 0.  1.
    10030    2    1    2    0    0  0.00000000000E+00  0.00000000000E+00 -0.19415364665E+04  0.21538805682E+04  0.93254364581E+03 0.  0.
        3    1    3    3  502    0  0.25523262324E+03 -0.29818061413E+03 -0.15521207820E+04  0.16009791700E+04  0.10100000352E+00 0.  1.
       -3    1    3    3    0  502 -0.25523262324E+03  0.29818061413E+03 -0.38941568444E+03  0.55290139817E+03  0.10100000352E+00 0. -1.
</event>
<event>
 5   0  0.2705111E-02  0.9225156E+03  0.7818609E-02  0.9397865E-01
        2   -1    0    0  501    0  0.00000000000E+00  0.00000000000E+00  0.44119042099E+03  0.44119042100E+03  0.25500000920E-02 0.  1.
       -2   -1    0    0    0  501  0.00000000000E+00  0.00000000000E+00 -0.48223794313E+03  0.48223794313E+03  0.25500000920E-02 0. -1.
    10030    2    1    2    0    0  0.00000000000E+00  0.00000000000E+00 -0.41047522138E+02  0.92342836413E+03  0.92251560670E+03 0.  0.
        4    1    3    3  502    0  0.37928143459E+03 -0.19742731881E+03  0.15263640183E+03  0.45401700067E+03  0.12699999809E+01 0.  1.
       -4    1    3    3    0  502 -0.37928143459E+03  0.19742731881E+03 -0.19368392397E+03  0.46941136346E+03  0.12699999809E+01 0. -1.
</event>
<event>
 5   0  0.1459111E-02  0.9019627E+03  0.7818609E-02  0.9423131E-01
       -1   -1    0    0    0  501  0.00000000000E+00  0.00000000000E+00  0.90867001201E+02  0.90867001341E+02  0.50400001928E-02 0. -1.
        1   -1    0    0  501    0  0.00000000000E+00  0.00000000000E+00 -0.22382621187E+04  0.22382621187E+04  0.50400001928E-02 0.  1.
    10030    2    1    2    0    0  0.00000000000E+00  0.00000000000E+00 -0.21473951175E+04  0.23291291200E+04  0.90196267505E+03 0.  0.
        2    1    3    3  502    0  0.23069759295E+03 -0.90955307161E+02 -0.10099340515E+03  0.26775719446E+03  0.25500000920E-02 0. -1.
       -2    1    3    3    0  502 -0.23069759295E+03  0.90955307161E+02 -0.20464017123E+04  0.20613719256E+04  0.25500000920E-02 0.  1.
</event>
<event>
 5   0  0.2414128E-02  0.9083661E+03  0.7818609E-02  0.9415183E-01
        2   -1    0    0  501    0  0.00000000000E+00  0.00000000000E+00  0.19616267057E+04  0.19616267057E+04  0.25500000920E-02 0.  1.
       -2   -1    0    0    0  501  0.00000000000E+00  0.00000000000E+00 -0.10515876438E+03  0.10515876441E+03  0.25500000920E-02 0. -1.
    10030    2    1    2    0    0  0.00000000000E+00  0.00000000000E+00  0.18564679413E+04  0.20667854701E+04  0.90836609488E+03 0.  0.
        3    1    3    3  502    0  0.32263415391E+03 -0.14035135927E+03  0.15817219172E+04  0.16203812931E+04  0.10100000352E+00 0.  1.
       -3    1    3    3    0  502 -0.32263415391E+03  0.14035135927E+03  0.27474602409E+03  0.44640417703E+03  0.10100000352E+00 0. -1.
</event>
<event>
 5   0  0.1497410E-02  0.9009365E+03  0.7818609E-02  0.9424412E-01
       -1   -1    0    0    0  501  0.00000000000E+00  0.00000000000E+00  0.17006826714E+03  0.17006826721E+03  0.50400001928E-02 0. -1.
        1   -1    0    0  501    0  0.00000000000E+00  0.00000000000E+00 -0.11931774998E+04  0.11931774998E+04  0.50400001928E-02 0.  1.
    10030    2    1    2    0    0  0.00000000000E+00  0.00000000000E+00 -0.10231092327E+04  0.13632457671E+04  0.90093646800E+03 0.  0.
        3    1    3    3  502    0 -0.42410553602E+03 -0.12598599796E+02 -0.74052165893E+03  0.85346152107E+03  0.10100000352E+00 0.  1.
       -3    1    3    3    0  502  0.42410553602E+03  0.12598599796E+02 -0.28258757376E+03  0.50978424598E+03  0.10100000352E+00 0. -1.
</event>
<event>
 5   0  0.2705111E-02  0.9060960E+03  0.7818609E-02  0.9417993E-01
        2   -1    0    0  501    0  0.00000000000E+00  0.00000000000E+00  0.73564346701E+03  0.73564346701E+03  0.25500000920E-02 0. -1.
       -2   -1    0    0    0  501  0.00000000000E+00  0.00000000000E+00 -0.27901081575E+03  0.27901081576E+03  0.25500000920E-02 0.  1.
    10030    2    1    2    0    0  0.00000000000E+00  0.00000000000E+00  0.45663265126E+03  0.10146542828E+04  0.90609598573E+03 0.  0.
        4    1    3    3  502    0  0.27628551237E+03 -0.35864447871E+03  0.20920317055E+03  0.49872550157E+03  0.12699999809E+01 0.  1.
       -4    1    3    3    0  502 -0.27628551237E+03  0.35864447871E+03  0.24742948071E+03  0.51592878120E+03  0.12699999809E+01 0. -1.
</event>
<event>
 5   0  0.1559275E-02  0.8934292E+03  0.7818609E-02  0.9433833E-01
       -1   -1    0    0    0  501  0.00000000000E+00  0.00000000000E+00  0.10525711446E+04  0.10525711446E+04  0.50400001928E-02 0. -1.
        1   -1    0    0  501    0  0.00000000000E+00  0.00000000000E+00 -0.18958710841E+03  0.18958710847E+03  0.50400001928E-02 0.  1.
    10030    2    1    2    0    0  0.00000000000E+00  0.00000000000E+00  0.86298403621E+03  0.12421582531E+04  0.89342916843E+03 0.  0.
        1    1    3    3  502    0 -0.36525381817E+03 -0.25631427209E+03  0.46087241524E+03  0.64149102949E+03  0.50400001928E-02 0.  1.
       -1    1    3    3    0  502  0.36525381817E+03  0.25631427209E+03  0.40211162097E+03  0.60066722360E+03  0.50400001928E-02 0. -1.
</event>
<event>
 5   0  0.2803717E-02  0.9266630E+03  0.7818609E-02  0.9392852E-01
       -2   -1    0    0    0  501  0.00000000000E+00  0.00000000000E+00  0.12376203167E+03  0.12376203170E+03  0.25500000920E-02 0.  1.
        2   -1    0    0  501    0  0.00000000000E+00  0.00000000000E+00 -0.17345875529E+04  0.17345875529E+04  0.25500000920E-02 0. -1.
    10030    2    1    2    0    0  0.00000000000E+00  0.00000000000E+00 -0.16108255213E+04  0.18583495846E+04  0.92666300172E+03 0.  0.
        5    1    3    3  502    0 -0.19504134326E+03 -0.26597397942E+03 -0.15289325763E+03  0.36356804252E+03  0.46999998093E+01 0.  1.
       -5    1    3    3    0  502  0.19504134326E+03  0.26597397942E+03 -0.14579322636E+04  0.14947815421E+04  0.46999998093E+01 0. -1.
</event>
<event>
 5   0  0.1537870E-02  0.7113938E+03  0.7818609E-02  0.9697943E-01
        1   -1    0    0  501    0  0.00000000000E+00  0.00000000000E+00  0.36440126549E+03  0.36440126553E+03  0.50400001928E-02 0.  1.
       -1   -1    0    0    0  501  0.00000000000E+00  0.00000000000E+00 -0.34720040756E+03  0.34720040760E+03  0.50400001928E-02 0. -1.
    10030    2    1    2    0    0  0.00000000000E+00  0.00000000000E+00  0.17200857932E+02  0.71160167312E+03  0.71139375291E+03 0.  0.
        5    1    3    3  502    0  0.20760956658E+03  0.17310647860E+03  0.23981857253E+03  0.36138984877E+03  0.46999998093E+01 0.  1.
       -5    1    3    3    0  502 -0.20760956658E+03 -0.17310647860E+03 -0.22261771460E+03  0.35021182435E+03  0.46999998093E+01 0. -1.
</event>
<event>
 5   0  0.1537870E-02  0.8821499E+03  0.7818609E-02  0.9448174E-01
        1   -1    0    0  501    0  0.00000000000E+00  0.00000000000E+00  0.11843919665E+04  0.11843919665E+04  0.50400001928E-02 0.  1.
       -1   -1    0    0    0  501  0.00000000000E+00  0.00000000000E+00 -0.16425906432E+03  0.16425906440E+03  0.50400001928E-02 0. -1.
    10030    2    1    2    0    0  0.00000000000E+00  0.00000000000E+00  0.10201329022E+04  0.13486510309E+04  0.88214991075E+03 0.  0.
        5    1    3    3  502    0 -0.57466260784E+02  0.38938919317E+03  0.81429342723E+03  0.90444579192E+03  0.46999998093E+01 0.  1.
       -5    1    3    3    0  502  0.57466260784E+02 -0.38938919317E+03  0.20583947492E+03  0.44420523896E+03  0.46999998093E+01 0. -1.
</event>
<event>
 5   0  0.2803717E-02  0.8670505E+03  0.7818609E-02  0.9467734E-01
       -2   -1    0    0    0  501  0.00000000000E+00  0.00000000000E+00  0.17540413609E+03  0.17540413611E+03  0.25500000920E-02 0.  1.
        2   -1    0    0  501    0  0.00000000000E+00  0.00000000000E+00 -0.10714921196E+04  0.10714921196E+04  0.25500000920E-02 0. -1.
    10030    2    1    2    0    0  0.00000000000E+00  0.00000000000E+00 -0.89608798353E+03  0.12468962557E+04  0.86705051659E+03 0.  0.
        5    1    3    3  502    0 -0.44693959226E+02  0.31002139513E+03 -0.17069788136E+02  0.31372644628E+03  0.46999998093E+01 0.  1.
       -5    1    3    3    0  502  0.44693959226E+02 -0.31002139513E+03 -0.87901819539E+03  0.93316980945E+03  0.46999998093E+01 0. -1.
</event>
<event>
 5   0  0.1560728E-02  0.9302152E+03  0.7818609E-02  0.9388580E-01
        1   -1    0    0  501    0  0.00000000000E+00  0.00000000000E+00  0.36237885111E+03  0.36237885115E+03  0.50400001928E-02 0. -1.
       -1   -1    0    0    0  501  0.00000000000E+00  0.00000000000E+00 -0.59695828459E+03  0.59695828461E+03  0.50400001928E-02 0.  1.
    10030    2    1    2    0    0  0.00000000000E+00  0.00000000000E+00 -0.23457943348E+03  0.95933713576E+03  0.93021515223E+03 0.  0.
        4    1    3    3  502    0 -0.27410789585E+03  0.24182555751E+03 -0.41388446647E+03  0.55219263243E+03  0.12699999809E+01 0.  1.
       -4    1    3    3    0  502  0.27410789585E+03 -0.24182555751E+03  0.17930503299E+03  0.40714450332E+03  0.12699999809E+01 0. -1.
</event>
<event>
 5   0  0.1560728E-02  0.9687674E+03  0.7818609E-02  0.9343479E-01
       -1   -1    0    0    0  501  0.00000000000E+00  0.00000000000E+00  0.22064894226E+03  0.22064894232E+03  0.50400001928E-02 0. -1.
        1   -1    0    0  501    0  0.00000000000E+00  0.00000000000E+00 -0.10633523271E+04  0.10633523272E+04  0.50400001928E-02 0.  1.
    10030    2    1    2    0    0  0.00000000000E+00  0.00000000000E+00 -0.84270338488E+03  0.12840012695E+04  0.96876739475E+03 0.  0.
        4    1    3    3  502    0  0.85559784703E+02 -0.28193022644E+02 -0.10521495849E+04  0.10559998509E+04  0.12699999809E+01 0.  1.
       -4    1    3    3    0  502 -0.85559784703E+02  0.28193022644E+02  0.20944619998E+03  0.22800141857E+03  0.12699999809E+01 0. -1.
</event>
<event>
 5   0  0.1537870E-02  0.9035480E+03  0.7818609E-02  0.9421157E-01
       -1   -1    0    0    0  501  0.00000000000E+00  0.00000000000E+00  0.54284088530E+03  0.54284088533E+03  0.50400001928E-02 0.  1.
        1   -1    0    0  501    0  0.00000000000E+00  0.00000000000E+00 -0.37598446352E+03  0.37598446356E+03  0.50400001928E-02 0. -1.
    10030    2    1    2    0    0  0.00000000000E+00  0.00000000000E+00  0.16685642178E+03  0.91882534889E+03  0.90354798227E+03 0.  0.
        5    1    3    3  502    0  0.29869397768E+03 -0.29314904839E+03 -0.89515534247E+02  0.42800651601E+03  0.46999998093E+01 0. -1.
       -5    1    3    3    0  502 -0.29869397768E+03  0.29314904839E+03  0.25637195603E+03  0.49081883288E+03  0.46999998093E+01 0.  1.
</event>
<event>
 5   0  0.1459111E-02  0.7038609E+03  0.7818609E-02  0.9710652E-01
        1   -1    0    0  501    0  0.00000000000E+00  0.00000000000E+00  0.11085107466E+04  0.11085107466E+04  0.50400001928E-02 0.  1.
       -1   -1    0    0    0  501  0.00000000000E+00  0.00000000000E+00 -0.11173101292E+03  0.11173101304E+03  0.50400001928E-02 0. -1.
    10030    2    1    2    0    0  0.00000000000E+00  0.00000000000E+00  0.99677973369E+03  0.12202417597E+04  0.70386086304E+03 0.  0.
        2    1    3    3  502    0 -0.97455181327E+02 -0.27438575283E+03  0.15571627883E+03  0.33020086800E+03  0.25500000920E-02 0. -1.
       -2    1    3    3    0  502  0.97455181327E+02  0.27438575283E+03  0.84106345486E+03  0.89004089166E+03  0.25500000920E-02 0.  1.
</event>
<event>
 5   0  0.1560728E-02  0.9146617E+03  0.7818609E-02  0.9407437E-01
       -1   -1    0    0    0  501  0.00000000000E+00  0.00000000000E+00  0.18373358245E+03  0.18373358252E+03  0.50400001928E-02 0.  1.
        1   -1    0    0  501    0  0.00000000000E+00  0.00000000000E+00 -0.11383411703E+04  0.11383411703E+04  0.50400001928E-02 0. -1.
    10030    2    1    2    0    0  0.00000000000E+00  0.00000000000E+00 -0.95460758785E+03  0.13220747528E+04  0.91466168898E+03 0.  0.
        4    1    3    3  502    0 -0.70740690203E+02  0.37350590896E+03 -0.10981612799E+03  0.39569193086E+03  0.12699999809E+01 0.  1.
       -4    1    3    3    0  502  0.70740690203E+02 -0.37350590896E+03 -0.84479145987E+03  0.92638282197E+03  0.12699999809E+01 0. -1.
</event>
<event>
 5   0  0.1560728E-02  0.8951957E+03  0.7818609E-02  0.9431607E-01
        1   -1    0    0  501    0  0.00000000000E+00  0.00000000000E+00  0.72212134379E+03  0.72212134381E+03  0.50400001928E-02 0. -1.
       -1   -1    0    0    0  501  0.00000000000E+00  0.00000000000E+00 -0.27743793626E+03  0.27743793631E+03  0.50400001928E-02 0.  1.
    10030    2    1    2    0    0  0.00000000000E+00  0.00000000000E+00  0.44468340753E+03  0.99955928011E+03  0.89519574481E+03 0.  0.
        4    1    3    3  502    0  0.44354111210E+03  0.60061205548E+02  0.21956683663E+03  0.49854515862E+03  0.12699999809E+01 0.  1.
       -4    1    3    3    0  502 -0.44354111210E+03 -0.60061205548E+02  0.22511657090E+03  0.50101412149E+03  0.12699999809E+01 0. -1.
</event>
<event>
 5   0  0.1559275E-02  0.9100254E+03  0.7818609E-02  0.9413135E-01
       -1   -1    0    0    0  501  0.00000000000E+00  0.00000000000E+00  0.21030564218E+03  0.21030564224E+03  0.50400001928E-02 0. -1.
        1   -1    0    0  501    0  0.00000000000E+00  0.00000000000E+00 -0.98445554047E+03  0.98445554048E+03  0.50400001928E-02 0.  1.
    10030    2    1    2    0    0  0.00000000000E+00  0.00000000000E+00 -0.77414989829E+03  0.11947611827E+04  0.91002539455E+03 0.  0.
        1    1    3    3  502    0  0.92940347050E+02  0.14368423614E+03  0.16644930682E+03  0.23872251589E+03  0.50400001928E-02 0. -1.
       -1    1    3    3    0  502 -0.92940347050E+02 -0.14368423614E+03 -0.94059920510E+03  0.95603866684E+03  0.50400001928E-02 0.  1.
</event>
<event>
 5   0  0.2628383E-02  0.8942602E+03  0.7818609E-02  0.9432785E-01
       -2   -1    0    0    0  501  0.00000000000E+00  0.00000000000E+00  0.10910553261E+03  0.10910553264E+03  0.25500000920E-02 0. -1.
        2   -1    0    0  501    0  0.00000000000E+00  0.00000000000E+00 -0.18324033119E+04  0.18324033119E+04  0.25500000920E-02 0.  1.
    10030    2    1    2    0    0  0.00000000000E+00  0.00000000000E+00 -0.17232977793E+04  0.19415088446E+04  0.89426022912E+03 0.  0.
        2    1    3    3  502    0  0.25213768181E+03  0.35756646407E+03 -0.66150712828E+03  0.79310709717E+03  0.25500000920E-02 0.  1.
       -2    1    3    3    0  502 -0.25213768181E+03 -0.35756646407E+03 -0.10617906510E+04  0.11484017474E+04  0.25500000920E-02 0. -1.
</event>
<event>
 5   0  0.1559275E-02  0.8638790E+03  0.7818609E-02  0.9471896E-01
        1   -1    0    0  501    0  0.00000000000E+00  0.00000000000E+00  0.23355270281E+03  0.23355270286E+03  0.50400001928E-02 0.  1.
       -1   -1    0    0    0  501  0.00000000000E+00  0.00000000000E+00 -0.79884203171E+03  0.79884203173E+03  0.50400001928E-02 0. -1.
    10030    2    1    2    0    0  0.00000000000E+00  0.00000000000E+00 -0.56528932891E+03  0.10323947346E+04  0.86387896296E+03 0.  0.
        1    1    3    3  502    0 -0.21043630293E+03 -0.59447969698E+02  0.16251517596E+03  0.27244941023E+03  0.50400001928E-02 0.  1.
       -1    1    3    3    0  502  0.21043630293E+03  0.59447969698E+02 -0.72780450486E+03  0.75994532436E+03  0.50400001928E-02 0. -1.
</event>
<event>
 5   0  0.1560728E-02  0.8816568E+03  0.7818609E-02  0.9448806E-01
        1   -1    0    0  501    0  0.00000000000E+00  0.00000000000E+00  0.12235018943E+04  0.12235018943E+04  0.50400001928E-02 0. -1.
       -1   -1    0    0    0  501  0.00000000000E+00  0.00000000000E+00 -0.15883070267E+03  0.15883070275E+03  0.50400001928E-02 0.  1.
    10030    2    1    2    0    0  0.00000000000E+00  0.00000000000E+00  0.10646711917E+04  0.13823325971E+04  0.88165677143E+03 0.  0.
        4    1    3    3  502    0 -0.35438012633E+03 -0.23096981689E+03  0.72687744482E+03  0.84100223718E+03  0.12699999809E+01 0. -1.
       -4    1    3    3    0  502  0.35438012633E+03  0.23096981689E+03  0.33779374684E+03  0.54133035990E+03  0.12699999809E+01 0.  1.
</event>
<event>
 5   0  0.2803717E-02  0.8955340E+03  0.7818609E-02  0.9431181E-01
       -2   -1    0    0    0  501  0.00000000000E+00  0.00000000000E+00  0.41861721373E+03  0.41861721374E+03  0.25500000920E-02 0. -1.
        2   -1    0    0  501    0  0.00000000000E+00  0.00000000000E+00 -0.47894663488E+03  0.47894663488E+03  0.25500000920E-02 0.  1.
    10030    2    1    2    0    0  0.00000000000E+00  0.00000000000E+00 -0.60329421151E+02  0.89756384862E+03  0.89553404363E+03 0.  0.
        5    1    3    3  502    0  0.25984284043E+03 -0.22627533824E+03  0.25641060608E+03  0.42951987070E+03  0.46999998093E+01 0. -1.
       -5    1    3    3    0  502 -0.25984284043E+03  0.22627533824E+03 -0.31674002723E+03  0.46804397792E+03  0.46999998093E+01 0.  1.
</event>
<event>
 5   0  0.1040163E-02  0.8242867E+03  0.7818609E-02  0.9525514E-01
       -4   -1    0    0    0  501  0.00000000000E+00  0.00000000000E+00  0.12881796582E+03  0.12882422605E+03  0.12699999809E+01 0. -1.
        4   -1    0    0  501    0  0.00000000000E+00  0.00000000000E+00 -0.13185827806E+04  0.13185833922E+04  0.12699999809E+01 0.  1.
    10030    2    1    2    0    0  0.00000000000E+00  0.00000000000E+00 -0.11897648148E+04  0.14474076182E+04  0.82428666063E+03 0.  0.
        2    1    3    3  502    0 -0.13816236001E+03 -0.11831418551E+03 -0.12442879761E+04  0.12575132809E+04  0.25500000920E-02 0.  1.
       -2    1    3    3    0  502  0.13816236001E+03  0.11831418551E+03  0.54523161339E+02  0.18989433732E+03  0.25500000920E-02 0. -1.
</event>
<event>
 5   0  0.1497410E-02  0.9508520E+03  0.7818609E-02  0.9364155E-01
       -1   -1    0    0    0  501  0.00000000000E+00  0.00000000000E+00  0.20333365515E+03  0.20333365522E+03  0.50400001928E-02 0. -1.
        1   -1    0    0  501    0  0.00000000000E+00  0.00000000000E+00 -0.11116205753E+04  0.11116205753E+04  0.50400001928E-02 0.  1.
    10030    2    1    2    0    0  0.00000000000E+00  0.00000000000E+00 -0.90828692018E+03  0.13149542306E+04  0.95085198590E+03 0.  0.
        3    1    3    3  502    0  0.40445472815E+03 -0.16417047738E+03 -0.71468500050E+03  0.83744267440E+03  0.10100000352E+00 0.  1.
       -3    1    3    3    0  502 -0.40445472815E+03  0.16417047738E+03 -0.19360191968E+03  0.47751155616E+03  0.10100000352E+00 0. -1.
</event>
<event>
 5   0  0.1560728E-02  0.8822069E+03  0.7818609E-02  0.9448101E-01
        1   -1    0    0  501    0  0.00000000000E+00  0.00000000000E+00  0.54219377199E+03  0.54219377201E+03  0.50400001928E-02 0. -1.
       -1   -1    0    0    0  501  0.00000000000E+00  0.00000000000E+00 -0.35886106497E+03  0.35886106500E+03  0.50400001928E-02 0.  1.
    10030    2    1    2    0    0  0.00000000000E+00  0.00000000000E+00  0.18333270702E+03  0.90105483702E+03  0.88220685661E+03 0.  0.
        4    1    3    3  502    0 -0.16689956419E+03  0.26258739656E+03  0.41101721317E+03  0.51550399395E+03  0.12699999809E+01 0. -1.
       -4    1    3    3    0  502  0.16689956419E+03 -0.26258739656E+03 -0.22768450614E+03  0.38555084307E+03  0.12699999809E+01 0.  1.
</event>
<event>
 5   0  0.1459111E-02  0.9100441E+03  0.7818609E-02  0.9413112E-01
        1   -1    0    0  501    0  0.00000000000E+00  0.00000000000E+00  0.38617964406E+03  0.38617964409E+03  0.50400001928E-02 0.  1.
       -1   -1    0    0    0  501  0.00000000000E+00  0.00000000000E+00 -0.53613663824E+03  0.53613663826E+03  0.50400001928E-02 0. -1.
    10030    2    1    2    0    0  0.00000000000E+00  0.00000000000E+00 -0.14995699418E+03  0.92231628236E+03  0.91004407838E+03 0.  0.
        2    1    3    3  502    0 -0.86491407420E+02  0.24221363776E+03  0.30544565710E+03  0.39930597206E+03  0.25500000920E-02 0.  1.
       -2    1    3    3    0  502  0.86491407420E+02 -0.24221363776E+03 -0.45540265128E+03  0.52301031030E+03  0.25500000920E-02 0. -1.
</event>
<event>
 5   0  0.2705111E-02  0.8875579E+03  0.7818609E-02  0.9441270E-01
       -2   -1    0    0    0  501  0.00000000000E+00  0.00000000000E+00  0.23148621316E+03  0.23148621318E+03  0.25500000920E-02 0.  1.
        2   -1    0    0  501    0  0.00000000000E+00  0.00000000000E+00 -0.85076239729E+03  0.85076239729E+03  0.25500000920E-02 0. -1.
    10030    2    1    2    0    0  0.00000000000E+00  0.00000000000E+00 -0.61927618412E+03  0.10822486105E+04  0.88755792072E+03 0.  0.
        4    1    3    3  502    0  0.34852103064E+01 -0.29851769236E+03 -0.71001248005E+03  0.77022353513E+03  0.12699999809E+01 0. -1.
       -4    1    3    3    0  502 -0.34852103064E+01  0.29851769236E+03  0.90736295925E+02  0.31202507534E+03  0.12699999809E+01 0.  1.
</event>
<event>
 5   0  0.1537870E-02  0.9006419E+03  0.7818609E-02  0.9424779E-01
        1   -1    0    0  501    0  0.00000000000E+00  0.00000000000E+00  0.31002928115E+03  0.31002928119E+03  0.50400001928E-02 0.  1.
       -1   -1    0    0    0  501  0.00000000000E+00  0.00000000000E+00 -0.65409615992E+03  0.65409615994E+03  0.50400001928E-02 0. -1.
    10030    2    1    2    0    0  0.00000000000E+00  0.00000000000E+00 -0.34406687877E+03  0.96412544113E+03  0.90064190951E+03 0.  0.
        5    1    3    3  502    0  0.33094274256E+03  0.27071031746E+03 -0.20796329988E+02  0.42809082234E+03  0.46999998093E+01 0.  1.
       -5    1    3    3    0  502 -0.33094274256E+03 -0.27071031746E+03 -0.32327054878E+03  0.53603461879E+03  0.46999998093E+01 0. -1.
</event>
<event>
 5   0  0.1497410E-02  0.8566670E+03  0.7818609E-02  0.9481432E-01
       -1   -1    0    0    0  501  0.00000000000E+00  0.00000000000E+00  0.43538637465E+03  0.43538637468E+03  0.50400001928E-02 0.  1.
        1   -1    0    0  501    0  0.00000000000E+00  0.00000000000E+00 -0.42139486007E+03  0.42139486010E+03  0.50400001928E-02 0. -1.
    10030    2    1    2    0    0  0.00000000000E+00  0.00000000000E+00  0.13991514577E+02  0.85678123478E+03  0.85666698418E+03 0.  0.
        3    1    3    3  502    0 -0.10415355777E+03 -0.29478419790E+03  0.29982121761E+03  0.43317255183E+03  0.10100000352E+00 0.  1.
       -3    1    3    3    0  502  0.10415355777E+03  0.29478419790E+03 -0.28582970303E+03  0.42360868294E+03  0.10100000352E+00 0. -1.
</event>
<event>
 5   0  0.2628383E-02  0.8980632E+03  0.7818609E-02  0.9428006E-01
       -2   -1    0    0    0  501  0.00000000000E+00  0.00000000000E+00  0.35614525485E+03  0.35614525486E+03  0.25500000920E-02 0.  1.
        2   -1    0    0  501    0  0.00000000000E+00  0.00000000000E+00 -0.56614360708E+03  0.56614360708E+03  0.25500000920E-02 0. -1.
    10030    2    1    2    0    0  0.00000000000E+00  0.00000000000E+00 -0.20999835223E+03  0.92228886194E+03  0.89806315865E+03 0.  0.
        2    1    3    3  502    0  0.82809620863E+02 -0.36011545188E+03  0.15700799197E+03  0.40148733671E+03  0.25500000920E-02 0.  1.
       -2    1    3    3    0  502 -0.82809620863E+02  0.36011545188E+03 -0.36700634420E+03  0.52080152523E+03  0.25500000920E-02 0. -1.
</event>
<event>
 5   0  0.2803717E-02  0.8770609E+03  0.7818609E-02  0.9454720E-01
        2   -1    0    0  501    0  0.00000000000E+00  0.00000000000E+00  0.78829981013E+03  0.78829981013E+03  0.25500000920E-02 0. -1.
       -2   -1    0    0    0  501  0.00000000000E+00  0.00000000000E+00 -0.24395408531E+03  0.24395408532E+03  0.25500000920E-02 0.  1.
    10030    2    1    2    0    0  0.00000000000E+00  0.00000000000E+00  0.54434572482E+03  0.10322538955E+04  0.87706090812E+03 0.  0.
        5    1    3    3  502    0  0.24117175353E+02 -0.18321119095E+03 -0.19585975456E+03  0.26931600786E+03  0.46999998093E+01 0.  1.
       -5    1    3    3    0  502 -0.24117175353E+02  0.18321119095E+03  0.74020547937E+03  0.76293788759E+03  0.46999998093E+01 0. -1.
</event>
<event>
 5   0  0.2414128E-02  0.7352853E+03  0.7818609E-02  0.9658722E-01
       -2   -1    0    0    0  501  0.00000000000E+00  0.00000000000E+00  0.57040987361E+02  0.57040987418E+02  0.25500000920E-02 0.  1.
        2   -1    0    0  501    0  0.00000000000E+00  0.00000000000E+00 -0.23695437452E+04  0.23695437452E+04  0.25500000920E-02 0. -1.
    10030    2    1    2    0    0  0.00000000000E+00  0.00000000000E+00 -0.23125027578E+04  0.24265847326E+04  0.73528529127E+03 0.  0.
        3    1    3    3  502    0 -0.10413033678E+03  0.44595489708E+02 -0.19886152100E+01  0.11329540825E+03  0.10100000352E+00 0.  1.
       -3    1    3    3    0  502  0.10413033678E+03 -0.44595489708E+02 -0.23105141426E+04  0.23132893243E+04  0.10100000352E+00 0. -1.
</event>
<event>
 5   0  0.1040163E-02  0.8851390E+03  0.7818609E-02  0.9444351E-01
       -4   -1    0    0    0  501  0.00000000000E+00  0.00000000000E+00  0.31259755220E+03  0.31260013203E+03  0.12699999809E+01 0. -1.
        4   -1    0    0  501    0  0.00000000000E+00  0.00000000000E+00 -0.62657537237E+03  0.62657665944E+03  0.12699999809E+01 0.  1.
    10030    2    1    2    0    0  0.00000000000E+00  0.00000000000E+00 -0.31397782016E+03  0.93917679147E+03  0.88513895750E+03 0.  0.
        5    1    3    3  502    0 -0.10968804912E+03  0.38680306228E+03 -0.35320452265E+03  0.53518557709E+03  0.46999998093E+01 0.  1.
       -5    1    3    3    0  502  0.10968804912E+03 -0.38680306228E+03  0.39226702487E+02  0.40399121438E+03  0.46999998093E+01 0. -1.
</event>
<event>
 5   0  0.2414128E-02  0.8923821E+03  0.7818609E-02  0.9435155E-01
       -2   -1    0    0    0  501  0.00000000000E+00  0.00000000000E+00  0.96449130737E+02  0.96449130770E+02  0.25500000920E-02 0. -1.
        2   -1    0    0  501    0  0.00000000000E+00  0.00000000000E+00 -0.20641603602E+04  0.20641603602E+04  0.25500000920E-02 0.  1.
    10030    2    1    2    0    0  0.00000000000E+00  0.00000000000E+00 -0.19677112294E+04  0.21606094909E+04  0.89238214343E+03 0.  0.
        3    1    3    3  502    0 -0.20111896058E+03  0.12237895951E+02 -0.19477365902E+04  0.19581308530E+04  0.10100000352E+00 0.  1.
       -3    1    3    3    0  502  0.20111896058E+03 -0.12237895951E+02 -0.19974639195E+02  0.20247863792E+03  0.10100000352E+00 0. -1.
</event>
<event>
 5   0  0.1537870E-02  0.7333956E+03  0.7818609E-02  0.9661766E-01
       -1   -1    0    0    0  501  0.00000000000E+00  0.00000000000E+00  0.83459213586E+02  0.83459213738E+02  0.50400001928E-02 0.  1.
        1   -1    0    0  501    0  0.00000000000E+00  0.00000000000E+00 -0.16111733259E+04  0.16111733259E+04  0.50400001928E-02 0. -1.
    10030    2    1    2    0    0  0.00000000000E+00  0.00000000000E+00 -0.15277141123E+04  0.16946325397E+04  0.73339555185E+03 0.  0.
        5    1    3    3  502    0  0.17085620742E+03 -0.25379379361E+03 -0.12308291838E+04  0.12682924359E+04  0.46999998093E+01 0. -1.
       -5    1    3    3    0  502 -0.17085620742E+03  0.25379379361E+03 -0.29688492854E+03  0.42634010377E+03  0.46999998093E+01 0.  1.
</event>
<event>
 5   0  0.1497410E-02  0.9275725E+03  0.7818609E-02  0.9391756E-01
       -1   -1    0    0    0  501  0.00000000000E+00  0.00000000000E+00  0.18648092995E+03  0.18648093002E+03  0.50400001928E-02 0.  1.
        1   -1    0    0  501    0  0.00000000000E+00  0.00000000000E+00 -0.11534567514E+04  0.11534567514E+04  0.50400001928E-02 0. -1.
    10030    2    1    2    0    0  0.00000000000E+00  0.00000000000E+00 -0.96697582141E+03  0.13399376814E+04  0.92757250434E+03 0.  0.
        3    1    3    3  502    0 -0.16379930318E+03  0.17551773823E+03 -0.10567104013E+04  0.10836390408E+04  0.10100000352E+00 0. -1.
       -3    1    3    3    0  502  0.16379930318E+03 -0.17551773823E+03  0.89734579926E+02  0.25629864063E+03  0.10100000352E+00 0.  1.
</event>
<event>
 5   0  0.1040163E-02  0.9012255E+03  0.7818609E-02  0.9424051E-01
        3   -1    0    0  501    0  0.00000000000E+00  0.00000000000E+00  0.16231772541E+04  0.16231772573E+04  0.10100000352E+00 0.  1.
       -3   -1    0    0    0  501  0.00000000000E+00  0.00000000000E+00 -0.12509526592E+03  0.12509530669E+03  0.10100000352E+00 0. -1.
    10030    2    1    2    0    0  0.00000000000E+00  0.00000000000E+00  0.14980819882E+04  0.17482725640E+04  0.90122545154E+03 0.  0.
        4    1    3    3  502    0 -0.50899916858E+02 -0.22986653844E+03  0.14943724571E+04  0.15128053676E+04  0.12699999809E+01 0.  1.
       -4    1    3    3    0  502  0.50899916858E+02  0.22986653844E+03  0.37095311646E+01  0.23546719634E+03  0.12699999809E+01 0. -1.
</event>
<event>
 5   0  0.1560728E-02  0.9081478E+03  0.7818609E-02  0.9415453E-01
        1   -1    0    0  501    0  0.00000000000E+00  0.00000000000E+00  0.78532588520E+03  0.78532588521E+03  0.50400001928E-02 0. -1.
       -1   -1    0    0    0  501  0.00000000000E+00  0.00000000000E+00 -0.26254467419E+03  0.26254467424E+03  0.50400001928E-02 0.  1.
    10030    2    1    2    0    0  0.00000000000E+00  0.00000000000E+00  0.52278121101E+03  0.10478705595E+04  0.90814784853E+03 0.  0.
        4    1    3    3  502    0  0.41032825637E+03  0.18545998655E+03  0.32883763745E+03  0.55758451314E+03  0.12699999809E+01 0.  1.
       -4    1    3    3    0  502 -0.41032825637E+03 -0.18545998655E+03  0.19394357356E+03  0.49028604631E+03  0.12699999809E+01 0. -1.
</event>
<event>
 5   0  0.2705111E-02  0.8965913E+03  0.7818609E-02  0.9429853E-01
        2   -1    0    0  501    0  0.00000000000E+00  0.00000000000E+00  0.16829051116E+04  0.16829051116E+04  0.25500000920E-02 0.  1.
       -2   -1    0    0    0  501  0.00000000000E+00  0.00000000000E+00 -0.11941789372E+03  0.11941789375E+03  0.25500000920E-02 0. -1.
    10030    2    1    2    0    0  0.00000000000E+00  0.00000000000E+00  0.15634872179E+04  0.18023230054E+04  0.89659128658E+03 0.  0.
        4    1    3    3  502    0 -0.20271378717E+03  0.44425648620E+02  0.15805294360E+04  0.15940958029E+04  0.12699999809E+01 0.  1.
       -4    1    3    3    0  502  0.20271378717E+03 -0.44425648620E+02 -0.17042218096E+02  0.20822720251E+03  0.12699999809E+01 0. -1.
</event>
<event>
 5   0  0.1560728E-02  0.8678645E+03  0.7818609E-02  0.9466669E-01
       -1   -1    0    0    0  501  0.00000000000E+00  0.00000000000E+00  0.42074225862E+03  0.42074225865E+03  0.50400001928E-02 0. -1.
        1   -1    0    0  501    0  0.00000000000E+00  0.00000000000E+00 -0.44753573474E+03  0.44753573477E+03  0.50400001928E-02 0.  1.
    10030    2    1    2    0    0  0.00000000000E+00  0.00000000000E+00 -0.26793476122E+02  0.86827799341E+03  0.86786449604E+03 0.  0.
        4    1    3    3  502    0  0.26192848651E+03  0.27856558945E+03 -0.21865360393E+03  0.44047284943E+03  0.12699999809E+01 0.  1.
       -4    1    3    3    0  502 -0.26192848651E+03 -0.27856558945E+03  0.19186012781E+03  0.42780514398E+03  0.12699999809E+01 0. -1.
</event>
<event>
 5   0  0.2803717E-02  0.8549989E+03  0.7818609E-02  0.9483652E-01
       -2   -1    0    0    0  501  0.00000000000E+00  0.00000000000E+00  0.38674337328E+03  0.38674337329E+03  0.25500000920E-02 0. -1.
        2   -1    0    0  501    0  0.00000000000E+00  0.00000000000E+00 -0.47255052400E+03  0.47255052401E+03  0.25500000920E-02 0.  1.
    10030    2    1    2    0    0  0.00000000000E+00  0.00000000000E+00 -0.85807150719E+02  0.85929389730E+03  0.85499890925E+03 0.  0.
        5    1    3    3  502    0 -0.24625019735E+03 -0.21875038811E+03  0.23094049602E+03  0.40230149725E+03  0.46999998093E+01 0. -1.
       -5    1    3    3    0  502  0.24625019735E+03  0.21875038811E+03 -0.31674764674E+03  0.45699240005E+03  0.46999998093E+01 0.  1.
</event>
<event>
 5   0  0.1497410E-02  0.8950712E+03  0.7818609E-02  0.9431764E-01
       -1   -1    0    0    0  501  0.00000000000E+00  0.00000000000E+00  0.19278673077E+03  0.19278673084E+03  0.50400001928E-02 0.  1.
        1   -1    0    0  501    0  0.00000000000E+00  0.00000000000E+00 -0.10389102529E+04  0.10389102529E+04  0.50400001928E-02 0. -1.
    10030    2    1    2    0    0  0.00000000000E+00  0.00000000000E+00 -0.84612352213E+03  0.12316969837E+04  0.89507119553E+03 0.  0.
        3    1    3    3  502    0 -0.15019898714E+03 -0.27346280126E+03 -0.86458341585E+03  0.91915511889E+03  0.10100000352E+00 0. -1.
       -3    1    3    3    0  502  0.15019898714E+03  0.27346280126E+03  0.18459893721E+02  0.31254186486E+03  0.10100000352E+00 0.  1.
</event>
<event>
 5   0  0.2628383E-02  0.8972255E+03  0.7818609E-02  0.9429056E-01
       -2   -1    0    0    0  501  0.00000000000E+00  0.00000000000E+00  0.18608356156E+03  0.18608356158E+03  0.25500000920E-02 0.  1.
        2   -1    0    0  501    0  0.00000000000E+00  0.00000000000E+00 -0.10815216461E+04  0.10815216461E+04  0.25500000920E-02 0. -1.
    10030    2    1    2    0    0  0.00000000000E+00  0.00000000000E+00 -0.89543808453E+03  0.12676052077E+04  0.89722550080E+03 0.  0.
        2    1    3    3  502    0 -0.10316810381E+03  0.74076719641E+02 -0.10555906666E+04  0.10632039660E+04  0.25500000920E-02 0. -1.
       -2    1    3    3    0  502  0.10316810381E+03 -0.74076719641E+02  0.16015258205E+03  0.20440124163E+03  0.25500000920E-02 0.  1.
</event>
<event>
 5   0  0.2705111E-02  0.8631406E+03  0.7818609E-02  0.9472868E-01
        2   -1    0    0  501    0  0.00000000000E+00  0.00000000000E+00  0.21127416792E+04  0.21127416792E+04  0.25500000920E-02 0.  1.
       -2   -1    0    0    0  501  0.00000000000E+00  0.00000000000E+00 -0.88156989084E+02  0.88156989121E+02  0.25500000920E-02 0. -1.
    10030    2    1    2    0    0  0.00000000000E+00  0.00000000000E+00  0.20245846901E+04  0.22008986684E+04  0.86314064948E+03 0.  0.
        4    1    3    3  502    0 -0.28388499249E+03  0.23159386730E+03  0.15938920863E+04  0.16354571238E+04  0.12699999809E+01 0.  1.
       -4    1    3    3    0  502  0.28388499249E+03 -0.23159386730E+03  0.43069260388E+03  0.56544154452E+03  0.12699999809E+01 0. -1.
</event>
<event>
 5   0  0.2628383E-02  0.8651274E+03  0.7818609E-02  0.9470255E-01
       -2   -1    0    0    0  501  0.00000000000E+00  0.00000000000E+00  0.13232030492E+03  0.13232030495E+03  0.25500000920E-02 0.  1.
        2   -1    0    0  501    0  0.00000000000E+00  0.00000000000E+00 -0.14140789708E+04  0.14140789708E+04  0.25500000920E-02 0. -1.
    10030    2    1    2    0    0  0.00000000000E+00  0.00000000000E+00 -0.12817586659E+04  0.15463992758E+04  0.86512741404E+03 0.  0.
        2    1    3    3  502    0 -0.32792313047E+02 -0.17869243897E+03 -0.13425769161E+04  0.13548133079E+04  0.25500000920E-02 0. -1.
       -2    1    3    3    0  502  0.32792313047E+02  0.17869243897E+03  0.60818250187E+02  0.19158596791E+03  0.25500000920E-02 0.  1.
</event>
<event>
 5   0  0.1560728E-02  0.9213857E+03  0.7818609E-02  0.9399236E-01
       -1   -1    0    0    0  501  0.00000000000E+00  0.00000000000E+00  0.56229804691E+03  0.56229804694E+03  0.50400001928E-02 0.  1.
        1   -1    0    0  501    0  0.00000000000E+00  0.00000000000E+00 -0.37744735005E+03  0.37744735008E+03  0.50400001928E-02 0. -1.
    10030    2    1    2    0    0  0.00000000000E+00  0.00000000000E+00  0.18485069686E+03  0.93974539702E+03  0.92138571244E+03 0.  0.
        4    1    3    3  502    0  0.32179844818E+03  0.21843470205E+03 -0.15941244156E+03  0.42033546095E+03  0.12699999809E+01 0. -1.
       -4    1    3    3    0  502 -0.32179844818E+03 -0.21843470205E+03  0.34426313842E+03  0.51940993607E+03  0.12699999809E+01 0.  1.
</event>
<event>
 5   0  0.2803717E-02  0.9007484E+03  0.7818609E-02  0.9424646E-01
        2   -1    0    0  501    0  0.00000000000E+00  0.00000000000E+00  0.10908290139E+04  0.10908290139E+04  0.25500000920E-02 0. -1.
       -2   -1    0    0    0  501  0.00000000000E+00  0.00000000000E+00 -0.18594749073E+03  0.18594749075E+03  0.25500000920E-02 0.  1.
    10030    2    1    2    0    0  0.00000000000E+00  0.00000000000E+00  0.90488152318E+03  0.12767765047E+04  0.90074839543E+03 0.  0.
        5    1    3    3  502    0 -0.38404740037E+03  0.22086782742E+03  0.56706974742E+03  0.71962850928E+03  0.46999998093E+01 0.  1.
       -5    1    3    3    0  502  0.38404740037E+03 -0.22086782742E+03  0.33781177575E+03  0.55714799538E+03  0.46999998093E+01 0. -1.
</event>
<event>
 5   0  0.1459111E-02  0.8871351E+03  0.7818609E-02  0.9441808E-01
        1   -1    0    0  501    0  0.00000000000E+00  0.00000000000E+00  0.10121040232E+04  0.10121040232E+04  0.50400001928E-02 0. -1.
       -1   -1    0    0    0  501  0.00000000000E+00  0.00000000000E+00 -0.19439915513E+03  0.19439915520E+03  0.50400001928E-02 0.  1.
    10030    2    1    2    0    0  0.00000000000E+00  0.00000000000E+00  0.81770486807E+03  0.12065031784E+04  0.88713509019E+03 0.  0.
        2    1    3    3  502    0 -0.24335962742E+03  0.59190832484E+02 -0.89034972054E+02  0.26580949788E+03  0.25500000920E-02 0.  1.
       -2    1    3    3    0  502  0.24335962742E+03 -0.59190832484E+02  0.90673984012E+03  0.94069368053E+03  0.25500000920E-02 0. -1.
</event>
<event>
 5   0  0.1560728E-02  0.9241568E+03  0.7818609E-02  0.9395878E-01
        1   -1    0    0  501    0  0.00000000000E+00  0.00000000000E+00  0.52679412641E+03  0.52679412644E+03  0.50400001928E-02 0.  1.
       -1   -1    0    0    0  501  0.00000000000E+00  0.00000000000E+00 -0.40531291678E+03  0.40531291681E+03  0.50400001928E-02 0. -1.
    10030    2    1    2    0    0  0.00000000000E+00  0.00000000000E+00  0.12148120963E+03  0.93210704324E+03  0.92415683505E+03 0.  0.
        4    1    3    3  502    0 -0.33889028513E+03 -0.28831992038E+03 -0.64990725218E+02  0.44966699802E+03  0.12699999809E+01 0.  1.
       -4    1    3    3    0  502  0.33889028513E+03  0.28831992038E+03  0.18647193485E+03  0.48244004522E+03  0.12699999809E+01 0. -1.
</event>
<event>
 5   0  0.1497410E-02  0.9038856E+03  0.7818609E-02  0.9420737E-01
       -1   -1    0    0    0  501  0.00000000000E+00  0.00000000000E+00  0.14047902775E+04  0.14047902776E+04  0.50400001928E-02 0. -1.
        1   -1    0    0  501    0  0.00000000000E+00  0.00000000000E+00 -0.14539701627E+03  0.14539701636E+03  0.50400001928E-02 0.  1.
    10030    2    1    2    0    0  0.00000000000E+00  0.00000000000E+00  0.12593932613E+04  0.15501872939E+04  0.90388564524E+03 0.  0.
        3    1    3    3  502    0  0.94611671877E+01 -0.18215112348E+03 -0.79469709648E+02  0.19895725777E+03  0.10100000352E+00 0.  1.
       -3    1    3    3    0  502 -0.94611671877E+01  0.18215112348E+03  0.13388629709E+04  0.13512300361E+04  0.10100000352E+00 0. -1.
</event>
<event>
 5   0  0.1459111E-02  0.9713627E+03  0.7818609E-02  0.9340524E-01
        1   -1    0    0  501    0  0.00000000000E+00  0.00000000000E+00  0.97413146727E+03  0.97413146728E+03  0.50400001928E-02 0. -1.
       -1   -1    0    0    0  501  0.00000000000E+00  0.00000000000E+00 -0.24215043928E+03  0.24215043933E+03  0.50400001928E-02 0.  1.
    10030    2    1    2    0    0  0.00000000000E+00  0.00000000000E+00  0.73198102799E+03  0.12162819066E+04  0.97136267739E+03 0.  0.
        2    1    3    3  502    0  0.33437671600E+03 -0.22032666633E+03  0.21857619306E+02  0.40103538950E+03  0.25500000920E-02 0.  1.
       -2    1    3    3    0  502 -0.33437671600E+03  0.22032666633E+03  0.71012340868E+03  0.81524651711E+03  0.25500000920E-02 0. -1.
</event>
<event>
 5   0  0.2679861E-02  0.9111673E+03  0.7818609E-02  0.9411728E-01
       -2   -1    0    0    0  501  0.00000000000E+00  0.00000000000E+00  0.87374098733E+03  0.87374098733E+03  0.25500000920E-02 0.  1.
        2   -1    0    0  501    0  0.00000000000E+00  0.00000000000E+00 -0.23754917847E+03  0.23754917848E+03  0.25500000920E-02 0. -1.
    10030    2    1    2    0    0  0.00000000000E+00  0.00000000000E+00  0.63619180886E+03  0.11112901658E+04  0.91116728155E+03 0.  0.
        1    1    3    3  502    0 -0.44061992003E+03 -0.10406568965E+03  0.25613573595E+03  0.52017410253E+03  0.50400001928E-02 0. -1.
       -1    1    3    3    0  502  0.44061992003E+03  0.10406568965E+03  0.38005607290E+03  0.59111606328E+03  0.50400001928E-02 0.  1.
</event>
<event>
 5   0  0.1560728E-02  0.8995104E+03  0.7818609E-02  0.9426194E-01
        1   -1    0    0  501    0  0.00000000000E+00  0.00000000000E+00  0.41933465575E+03  0.41933465578E+03  0.50400001928E-02 0.  1.
       -1   -1    0    0    0  501  0.00000000000E+00  0.00000000000E+00 -0.48238263349E+03  0.48238263351E+03  0.50400001928E-02 0. -1.
    10030    2    1    2    0    0  0.00000000000E+00  0.00000000000E+00 -0.63047977740E+02  0.90171728929E+03  0.89951043480E+03 0.  0.
        4    1    3    3  502    0  0.17816610298E+03  0.19297741646E+03  0.33446720038E+03  0.42526857931E+03  0.12699999809E+01 0.  1.
       -4    1    3    3    0  502 -0.17816610298E+03 -0.19297741646E+03 -0.39751517812E+03  0.47644870999E+03  0.12699999809E+01 0. -1.
</event>
<event>
 5   0  0.2414128E-02  0.9766308E+03  0.7818609E-02  0.9334554E-01
       -2   -1    0    0    0  501  0.00000000000E+00  0.00000000000E+00  0.20354781499E+03  0.20354781501E+03  0.25500000920E-02 0. -1.
        2   -1    0    0  501    0  0.00000000000E+00  0.00000000000E+00 -0.11714787699E+04  0.11714787699E+04  0.25500000920E-02 0.  1.
    10030    2    1    2    0    0  0.00000000000E+00  0.00000000000E+00 -0.96793095493E+03  0.13750265849E+04  0.97663082879E+03 0.  0.
        3    1    3    3  502    0 -0.29153793965E+03  0.12226771636E+02  0.67303017394E+02  0.29945545671E+03  0.10100000352E+00 0. -1.
       -3    1    3    3    0  502  0.29153793965E+03 -0.12226771636E+02 -0.10352339723E+04  0.10755711282E+04  0.10100000352E+00 0.  1.
</event>
<event>
 5   0  0.2679861E-02  0.9545424E+03  0.7818609E-02  0.9359857E-01
       -2   -1    0    0    0  501  0.00000000000E+00  0.00000000000E+00  0.11741398245E+03  0.11741398248E+03  0.25500000920E-02 0.  1.
        2   -1    0    0  501    0  0.00000000000E+00  0.00000000000E+00 -0.19400399770E+04  0.19400399770E+04  0.25500000920E-02 0. -1.
    10030    2    1    2    0    0  0.00000000000E+00  0.00000000000E+00 -0.18226259946E+04  0.20574539595E+04  0.95454244505E+03 0.  0.
        1    1    3    3  502    0  0.18881847946E+03 -0.19827433946E+03 -0.17539272444E+04  0.17751692625E+04  0.50400001928E-02 0. -1.
       -1    1    3    3    0  502 -0.18881847946E+03  0.19827433946E+03 -0.68698750197E+02  0.28228469702E+03  0.50400001928E-02 0.  1.
</event>
<event>
 5   0  0.2679861E-02  0.8915944E+03  0.7818609E-02  0.9436150E-01
        2   -1    0    0  501    0  0.00000000000E+00  0.00000000000E+00  0.10007455260E+04  0.10007455260E+04  0.25500000920E-02 0.  1.
       -2   -1    0    0    0  501  0.00000000000E+00  0.00000000000E+00 -0.19858707043E+03  0.19858707045E+03  0.25500000920E-02 0. -1.
    10030    2    1    2    0    0  0.00000000000E+00  0.00000000000E+00  0.80215845555E+03  0.11993325964E+04  0.89159435230E+03 0.  0.
        1    1    3    3  502    0  0.12864895626E+03  0.39023602979E+03  0.63367986256E+03  0.75523829427E+03  0.50400001928E-02 0.  1.
       -1    1    3    3    0  502 -0.12864895626E+03 -0.39023602979E+03  0.16847859298E+03  0.44409430216E+03  0.50400001928E-02 0. -1.
</event>
<event>
 5   0  0.2803717E-02  0.8592584E+03  0.7818609E-02  0.9477994E-01
        2   -1    0    0  501    0  0.00000000000E+00  0.00000000000E+00  0.52554289525E+03  0.52554289526E+03  0.25500000920E-02 0.  1.
       -2   -1    0    0    0  501  0.00000000000E+00  0.00000000000E+00 -0.35122013332E+03  0.35122013333E+03  0.25500000920E-02 0. -1.
    10030    2    1    2    0    0  0.00000000000E+00  0.00000000000E+00  0.17432276193E+03  0.87676302859E+03  0.85925839127E+03 0.  0.
        5    1    3    3  502    0  0.34838362220E+03 -0.21259618226E+03 -0.49701141070E+02  0.41116976828E+03  0.46999998093E+01 0. -1.
       -5    1    3    3    0  502 -0.34838362220E+03  0.21259618226E+03  0.22402390300E+03  0.46559326030E+03  0.46999998093E+01 0.  1.
</event>
<event>
 5   0  0.1537870E-02  0.8967946E+03  0.7818609E-02  0.9429597E-01
       -1   -1    0    0    0  501  0.00000000000E+00  0.00000000000E+00  0.14378839928E+03  0.14378839937E+03  0.50400001928E-02 0.  1.
        1   -1    0    0  501    0  0.00000000000E+00  0.00000000000E+00 -0.13983057861E+04  0.13983057861E+04  0.50400001928E-02 0. -1.
    10030    2    1    2    0    0  0.00000000000E+00  0.00000000000E+00 -0.12545173868E+04  0.15420941855E+04  0.89679462702E+03 0.  0.
        5    1    3    3  502    0  0.12336633875E+03 -0.38189591433E+03 -0.97106072026E+03  0.10507353403E+04  0.46999998093E+01 0. -1.
       -5    1    3    3    0  502 -0.12336633875E+03  0.38189591433E+03 -0.28345666653E+03  0.49135884516E+03  0.46999998093E+01 0.  1.
</event>
<event>
 5   0  0.2414128E-02  0.9065785E+03  0.7818609E-02  0.9417395E-01
        2   -1    0    0  501    0  0.00000000000E+00  0.00000000000E+00  0.14996062459E+04  0.14996062459E+04  0.25500000920E-02 0. -1.
       -2   -1    0    0    0  501  0.00000000000E+00  0.00000000000E+00 -0.13701672495E+03  0.13701672497E+03  0.25500000920E-02 0.  1.
    10030    2    1    2    0    0  0.00000000000E+00  0.00000000000E+00  0.13625895210E+04  0.16366229709E+04  0.90657848321E+03 0.  0.
        3    1    3    3  502    0 -0.39331087686E+03 -0.13933495397E+03  0.10010039779E+04  0.10844891190E+04  0.10100000352E+00 0. -1.
       -3    1    3    3    0  502  0.39331087686E+03  0.13933495397E+03  0.36158554305E+03  0.55213385188E+03  0.10100000352E+00 0.  1.
</event>
<event>
 5   0  0.1459111E-02  0.8962524E+03  0.7818609E-02  0.9430278E-01
       -1   -1    0    0    0  501  0.00000000000E+00  0.00000000000E+00  0.10975929400E+04  0.10975929400E+04  0.50400001928E-02 0. -1.
        1   -1    0    0  501    0  0.00000000000E+00  0.00000000000E+00 -0.18296133502E+03  0.18296133508E+03  0.50400001928E-02 0.  1.
    10030    2    1    2    0    0  0.00000000000E+00  0.00000000000E+00  0.91463160496E+03  0.12805542751E+04  0.89625235208E+03 0.  0.
        2    1    3    3  502    0  0.97538036236E+02 -0.42110859890E+03  0.62619674208E+03  0.76089978340E+03  0.25500000920E-02 0.  1.
       -2    1    3    3    0  502 -0.97538036236E+02  0.42110859890E+03  0.28843486288E+03  0.51965449167E+03  0.25500000920E-02 0. -1.
</event>
<event>
 5   0  0.1559275E-02  0.9181153E+03  0.7818609E-02  0.9403215E-01
        1   -1    0    0  501    0  0.00000000000E+00  0.00000000000E+00  0.12564465075E+04  0.12564465075E+04  0.50400001928E-02 0.  1.
       -1   -1    0    0    0  501  0.00000000000E+00  0.00000000000E+00 -0.16772217159E+03  0.16772217166E+03  0.50400001928E-02 0. -1.
    10030    2    1    2    0    0  0.00000000000E+00  0.00000000000E+00  0.10887243359E+04  0.14241686792E+04  0.91811532345E+03 0.  0.
        1    1    3    3  502    0 -0.41641945519E+03 -0.12741907961E+03  0.31907578716E+03  0.53986122521E+03  0.50400001928E-02 0. -1.
       -1    1    3    3    0  502  0.41641945519E+03  0.12741907961E+03  0.76964854879E+03  0.88430745400E+03  0.50400001928E-02 0.  1.
</event>
<event>
 5   0  0.1497410E-02  0.9059898E+03  0.7818609E-02  0.9418125E-01
        1   -1    0    0  501    0  0.00000000000E+00  0.00000000000E+00  0.66616831869E+03  0.66616831871E+03  0.50400001928E-02 0. -1.
       -1   -1    0    0    0  501  0.00000000000E+00  0.00000000000E+00 -0.30803682395E+03  0.30803682399E+03  0.50400001928E-02 0.  1.
    10030    2    1    2    0    0  0.00000000000E+00  0.00000000000E+00  0.35813149475E+03  0.97420514270E+03  0.90598978611E+03 0.  0.
        3    1    3    3  502    0  0.19894437426E+03  0.28436427591E+03 -0.13399519339E+03  0.37201697208E+03  0.10100000352E+00 0.  1.
       -3    1    3    3    0  502 -0.19894437426E+03 -0.28436427591E+03  0.49212668814E+03  0.60218817062E+03  0.10100000352E+00 0. -1.
</event>
<event>
 5   0  0.1497410E-02  0.8926346E+03  0.7818609E-02  0.9434836E-01
        1   -1    0    0  501    0  0.00000000000E+00  0.00000000000E+00  0.48131517215E+03  0.48131517218E+03  0.50400001928E-02 0. -1.
       -1   -1    0    0    0  501  0.00000000000E+00  0.00000000000E+00 -0.41386427248E+03  0.41386427251E+03  0.50400001928E-02 0.  1.
    10030    2    1    2    0    0  0.00000000000E+00  0.00000000000E+00  0.67450899675E+02  0.89517944469E+03  0.89263464773E+03 0.  0.
        3    1    3    3  502    0  0.25690587590E+03 -0.32584023421E+03  0.19859198801E+03  0.46001225549E+03  0.10100000352E+00 0. -1.
       -3    1    3    3    0  502 -0.25690587590E+03  0.32584023421E+03 -0.13114108834E+03  0.43516718919E+03  0.10100000352E+00 0.  1.
</event>
<event>
 5   0  0.2628383E-02  0.9312328E+03  0.7818609E-02  0.9387360E-01
        2   -1    0    0  501    0  0.00000000000E+00  0.00000000000E+00  0.84962613151E+03  0.84962613151E+03  0.25500000920E-02 0. -1.
       -2   -1    0    0    0  501  0.00000000000E+00  0.00000000000E+00 -0.25516942981E+03  0.25516942983E+03  0.25500000920E-02 0.  1.
    10030    2    1    2    0    0  0.00000000000E+00  0.00000000000E+00  0.59445670169E+03  0.11047955613E+04  0.93123276476E+03 0.  0.
        2    1    3    3  502    0 -0.21777087441E+03 -0.29114372932E+03 -0.47862927351E+02  0.36671471839E+03  0.25500000920E-02 0.  1.
       -2    1    3    3    0  502  0.21777087441E+03  0.29114372932E+03  0.64231962904E+03  0.73808084295E+03  0.25500000920E-02 0. -1.
</event>
<event>
 5   0  0.1537870E-02  0.9105684E+03  0.7818609E-02  0.9412466E-01
        1   -1    0    0  501    0  0.00000000000E+00  0.00000000000E+00  0.98143163925E+03  0.98143163926E+03  0.50400001928E-02 0.  1.
       -1   -1    0    0    0  501  0.00000000000E+00  0.00000000000E+00 -0.21120543205E+03  0.21120543211E+03  0.50400001928E-02 0. -1.
    10030    2    1    2    0    0  0.00000000000E+00  0.00000000000E+00  0.77022620719E+03  0.11926370714E+04  0.91056837951E+03 0.  0.
        5    1    3    3  502    0  0.27974793838E+03 -0.17214182549E+03 -0.27766221607E+02  0.32967373291E+03  0.46999998093E+01 0. -1.
       -5    1    3    3    0  502 -0.27974793838E+03  0.17214182549E+03  0.79799242880E+03  0.86296333846E+03  0.46999998093E+01 0.  1.
</event>
<event>
 5   0  0.2803717E-02  0.8824509E+03  0.7818609E-02  0.9447788E-01
        2   -1    0    0  501    0  0.00000000000E+00  0.00000000000E+00  0.20828300203E+04  0.20828300203E+04  0.25500000920E-02 0.  1.
       -2   -1    0    0    0  501  0.00000000000E+00  0.00000000000E+00 -0.93468928259E+02  0.93468928294E+02  0.25500000920E-02 0. -1.
    10030    2    1    2    0    0  0.00000000000E+00  0.00000000000E+00  0.19893610920E+04  0.21762989485E+04  0.88245088199E+03 0.  0.
        5    1    3    3  502    0 -0.73877457025E+02 -0.41892516667E+03  0.70600229673E+03  0.82426786114E+03  0.46999998093E+01 0.  1.
       -5    1    3    3    0  502  0.73877457025E+02  0.41892516667E+03  0.12833587953E+04  0.13520310874E+04  0.46999998093E+01 0. -1.
</event>
<event>
 5   0  0.1040163E-02  0.8707901E+03  0.7818609E-02  0.9462850E-01
       -4   -1    0    0    0  501  0.00000000000E+00  0.00000000000E+00  0.61403807843E+03  0.61403939178E+03  0.12699999809E+01 0.  1.
        4   -1    0    0  501    0  0.00000000000E+00  0.00000000000E+00 -0.30872198669E+03  0.30872459890E+03  0.12699999809E+01 0. -1.
    10030    2    1    2    0    0  0.00000000000E+00  0.00000000000E+00  0.30531609174E+03  0.92276399067E+03  0.87079013925E+03 0.  0.
        5    1    3    3  502    0  0.25783256580E+03 -0.19866316575E+03 -0.15373979927E+03  0.36000375178E+03  0.46999998093E+01 0. -1.
       -5    1    3    3    0  502 -0.25783256580E+03  0.19866316575E+03  0.45905589101E+03  0.56276023890E+03  0.46999998093E+01 0.  1.
</event>
<event>
 5   0  0.1040163E-02  0.8986840E+03  0.7818609E-02  0.9427228E-01
        4   -1    0    0  501    0  0.00000000000E+00  0.00000000000E+00  0.75599341866E+03  0.75599448540E+03  0.12699999809E+01 0.  1.
       -4   -1    0    0    0  501  0.00000000000E+00  0.00000000000E+00 -0.26707394642E+03  0.26707696598E+03  0.12699999809E+01 0. -1.
    10030    2    1    2    0    0  0.00000000000E+00  0.00000000000E+00  0.48891947224E+03  0.10230714514E+04  0.89868400692E+03 0.  0.
        2    1    3    3  502    0  0.35649185390E+03  0.22606477067E+03  0.69142596382E+02  0.42775275694E+03  0.25500000920E-02 0. -1.
       -2    1    3    3    0  502 -0.35649185390E+03 -0.22606477067E+03  0.41977687586E+03  0.59531869444E+03  0.25500000920E-02 0.  1.
</event>
<event>
 5   0  0.1559275E-02  0.6197816E+03  0.7818609E-02  0.9865195E-01
        1   -1    0    0  501    0  0.00000000000E+00  0.00000000000E+00  0.58296086325E+03  0.58296086327E+03  0.50400001928E-02 0.  1.
       -1   -1    0    0    0  501  0.00000000000E+00  0.00000000000E+00 -0.16473198346E+03  0.16473198354E+03  0.50400001928E-02 0. -1.
    10030    2    1    2    0    0  0.00000000000E+00  0.00000000000E+00  0.41822887979E+03  0.74769284681E+03  0.61978157223E+03 0.  0.
        1    1    3    3  502    0 -0.25698390698E+03 -0.93764545867E+02  0.33463591604E+02  0.27559450374E+03  0.50400001928E-02 0. -1.
       -1    1    3    3    0  502  0.25698390698E+03  0.93764545867E+02  0.38476528819E+03  0.47209834307E+03  0.50400001928E-02 0.  1.
</event>
<event>
 5   0  0.1459111E-02  0.5200295E+03  0.7818609E-02  0.1008679E+00
        1   -1    0    0  501    0  0.00000000000E+00  0.00000000000E+00  0.59810009380E+03  0.59810009382E+03  0.50400001928E-02 0. -1.
       -1   -1    0    0    0  501  0.00000000000E+00  0.00000000000E+00 -0.11303740034E+03  0.11303740045E+03  0.50400001928E-02 0.  1.
    10030    2    1    2    0    0  0.00000000000E+00  0.00000000000E+00  0.48506269346E+03  0.71113749428E+03  0.52002953683E+03 0.  0.
        2    1    3    3  502    0 -0.89411954588E+02 -0.24386698814E+03  0.25883118403E+03  0.36668677009E+03  0.25500000920E-02 0. -1.
       -2    1    3    3    0  502  0.89411954588E+02  0.24386698814E+03  0.22623150943E+03  0.34445072419E+03  0.25500000920E-02 0.  1.
</event>
<event>
 5   0  0.2679861E-02  0.8988515E+03  0.7818609E-02  0.9427018E-01
       -2   -1    0    0    0  501  0.00000000000E+00  0.00000000000E+00  0.68388663737E+02  0.68388663784E+02  0.25500000920E-02 0. -1.
        2   -1    0    0  501    0  0.00000000000E+00  0.00000000000E+00 -0.29534644140E+04  0.29534644140E+04  0.25500000920E-02 0.  1.
    10030    2    1    2    0    0  0.00000000000E+00  0.00000000000E+00 -0.28850757503E+04  0.30218530778E+04  0.89885145545E+03 0.  0.
        1    1    3    3  502    0  0.17408706119E+03 -0.41246149813E+03 -0.15750111073E+04  0.16374036706E+04  0.50400001928E-02 0. -1.
       -1    1    3    3    0  502 -0.17408706119E+03  0.41246149813E+03 -0.13100646430E+04  0.13844494072E+04  0.50400001928E-02 0.  1.
</event>
<event>
 5   0  0.2679861E-02  0.8756282E+03  0.7818609E-02  0.9456571E-01
       -2   -1    0    0    0  501  0.00000000000E+00  0.00000000000E+00  0.99933913943E+02  0.99933913975E+02  0.25500000920E-02 0. -1.
        2   -1    0    0  501    0  0.00000000000E+00  0.00000000000E+00 -0.19180795784E+04  0.19180795784E+04  0.25500000920E-02 0.  1.
    10030    2    1    2    0    0  0.00000000000E+00  0.00000000000E+00 -0.18181456644E+04  0.20180134924E+04  0.87562823060E+03 0.  0.
        1    1    3    3  502    0 -0.33192539131E+03 -0.28279811740E+03 -0.81886840120E+03  0.92773633060E+03  0.50400001928E-02 0. -1.
       -1    1    3    3    0  502  0.33192539131E+03  0.28279811740E+03 -0.99927726325E+03  0.10902771618E+04  0.50400001928E-02 0.  1.
</event>
<event>
 5   0  0.1537870E-02  0.8977547E+03  0.7818609E-02  0.9428393E-01
        1   -1    0    0  501    0  0.00000000000E+00  0.00000000000E+00  0.54200735704E+03  0.54200735707E+03  0.50400001928E-02 0. -1.
       -1   -1    0    0    0  501  0.00000000000E+00  0.00000000000E+00 -0.37174930416E+03  0.37174930420E+03  0.50400001928E-02 0.  1.
    10030    2    1    2    0    0  0.00000000000E+00  0.00000000000E+00  0.17025805288E+03  0.91375666126E+03  0.89775466105E+03 0.  0.
        5    1    3    3  502    0  0.34280316161E+03 -0.27057271652E+03  0.19063558037E+03  0.47653710982E+03  0.46999998093E+01 0.  1.
       -5    1    3    3    0  502 -0.34280316161E+03  0.27057271652E+03 -0.20377527487E+02  0.43721955144E+03  0.46999998093E+01 0. -1.
</event>
<event>
 5   0  0.1560728E-02  0.8953135E+03  0.7818609E-02  0.9431459E-01
        1   -1    0    0  501    0  0.00000000000E+00  0.00000000000E+00  0.84833713686E+03  0.84833713687E+03  0.50400001928E-02 0. -1.
       -1   -1    0    0    0  501  0.00000000000E+00  0.00000000000E+00 -0.23622281280E+03  0.23622281286E+03  0.50400001928E-02 0.  1.
    10030    2    1    2    0    0  0.00000000000E+00  0.00000000000E+00  0.61211432405E+03  0.10845599497E+04  0.89531354220E+03 0.  0.
        4    1    3    3  502    0 -0.32385544521E+03 -0.81400272659E+02  0.66721463084E+03  0.74611348352E+03  0.12699999809E+01 0. -1.
       -4    1    3    3    0  502  0.32385544521E+03  0.81400272659E+02 -0.55100306791E+02  0.33844646621E+03  0.12699999809E+01 0.  1.
</event>
<event>
 5   0  0.2803717E-02  0.9260302E+03  0.7818609E-02  0.9393615E-01
       -2   -1    0    0    0  501  0.00000000000E+00  0.00000000000E+00  0.59506005702E+03  0.59506005703E+03  0.25500000920E-02 0.  1.
        2   -1    0    0  501    0  0.00000000000E+00  0.00000000000E+00 -0.36027120052E+03  0.36027120053E+03  0.25500000920E-02 0. -1.
    10030    2    1    2    0    0  0.00000000000E+00  0.00000000000E+00  0.23478885650E+03  0.95533125755E+03  0.92603023953E+03 0.  0.
        5    1    3    3  502    0 -0.53648377624E+02  0.10774739446E+03  0.57861234385E+03  0.59101775260E+03  0.46999998093E+01 0.  1.
       -5    1    3    3    0  502  0.53648377624E+02 -0.10774739446E+03 -0.34382348735E+03  0.36431350495E+03  0.46999998093E+01 0. -1.
</event>
<event>
 5   0  0.1537870E-02  0.9284282E+03  0.7818609E-02  0.9390726E-01
       -1   -1    0    0    0  501  0.00000000000E+00  0.00000000000E+00  0.29159087531E+03  0.29159087535E+03  0.50400001928E-02 0. -1.
        1   -1    0    0  501    0  0.00000000000E+00  0.00000000000E+00 -0.73903117392E+03  0.73903117394E+03  0.50400001928E-02 0.  1.
    10030    2    1    2    0    0  0.00000000000E+00  0.00000000000E+00 -0.44744029861E+03  0.10306220493E+04  0.92842823506E+03 0.  0.
        5    1    3    3  502    0  0.34384545029E+03 -0.20905632539E+03 -0.48057268004E+03  0.62682248816E+03  0.46999998093E+01 0.  1.
       -5    1    3    3    0  502 -0.34384545029E+03  0.20905632539E+03  0.33132381424E+02  0.40379956113E+03  0.46999998093E+01 0. -1.
</event>
<event>
 5   0  0.1459111E-02  0.8975759E+03  0.7818609E-02  0.9428617E-01
       -1   -1    0    0    0  501  0.00000000000E+00  0.00000000000E+00  0.15738337588E+03  0.15738337596E+03  0.50400001928E-02 0.  1.
        1   -1    0    0  501    0  0.00000000000E+00  0.00000000000E+00 -0.12797451952E+04  0.12797451952E+04  0.50400001928E-02 0. -1.
    10030    2    1    2    0    0  0.00000000000E+00  0.00000000000E+00 -0.11223618193E+04  0.14371285711E+04  0.89757588903E+03 0.  0.
        2    1    3    3  502    0 -0.10637110693E+03  0.13605282748E+03  0.10204984326E+03  0.20059749443E+03  0.25500000920E-02 0.  1.
       -2    1    3    3    0  502  0.10637110693E+03 -0.13605282748E+03 -0.12244116626E+04  0.12365310767E+04  0.25500000920E-02 0. -1.
</event>
<event>
 5   0  0.2803717E-02  0.8942460E+03  0.7818609E-02  0.9432803E-01
       -2   -1    0    0    0  501  0.00000000000E+00  0.00000000000E+00  0.11761061870E+03  0.11761061873E+03  0.25500000920E-02 0.  1.
        2   -1    0    0  501    0  0.00000000000E+00  0.00000000000E+00 -0.16998379148E+04  0.16998379148E+04  0.25500000920E-02 0. -1.
    10030    2    1    2    0    0  0.00000000000E+00  0.00000000000E+00 -0.15822272961E+04  0.18174485336E+04  0.89424602630E+03 0.  0.
        5    1    3    3  502    0 -0.42155424558E+03  0.77805737363E+02 -0.53295179742E+03  0.68397472402E+03  0.46999998093E+01 0.  1.
       -5    1    3    3    0  502  0.42155424558E+03 -0.77805737363E+02 -0.10492754987E+04  0.11334738095E+04  0.46999998093E+01 0. -1.
</event>
<event>
 5   0  0.2679861E-02  0.8828978E+03  0.7818609E-02  0.9447216E-01
        2   -1    0    0  501    0  0.00000000000E+00  0.00000000000E+00  0.77665391788E+03  0.77665391789E+03  0.25500000920E-02 0. -1.
       -2   -1    0    0    0  501  0.00000000000E+00  0.00000000000E+00 -0.25091890452E+03  0.25091890453E+03  0.25500000920E-02 0.  1.
    10030    2    1    2    0    0  0.00000000000E+00  0.00000000000E+00  0.52573501337E+03  0.10275728224E+04  0.88289784295E+03 0.  0.
        1    1    3    3  502    0 -0.43548456161E+03  0.62378710523E+01  0.34672577652E+03  0.55669064889E+03  0.50400001928E-02 0. -1.
       -1    1    3    3    0  502  0.43548456161E+03 -0.62378710523E+01  0.17900923685E+03  0.47088217352E+03  0.50400001928E-02 0.  1.
</event>
<event>
 5   0  0.1459111E-02  0.8920075E+03  0.7818609E-02  0.9435628E-01
        1   -1    0    0  501    0  0.00000000000E+00  0.00000000000E+00  0.64975786278E+03  0.64975786280E+03  0.50400001928E-02 0.  1.
       -1   -1    0    0    0  501  0.00000000000E+00  0.00000000000E+00 -0.30614377457E+03  0.30614377461E+03  0.50400001928E-02 0. -1.
    10030    2    1    2    0    0  0.00000000000E+00  0.00000000000E+00  0.34361408821E+03  0.95590163740E+03  0.89200745444E+03 0.  0.
        2    1    3    3  502    0 -0.22191458744E+03  0.30273570655E+03 -0.86329682495E+02  0.38515945558E+03  0.25500000920E-02 0. -1.
       -2    1    3    3    0  502  0.22191458744E+03 -0.30273570655E+03  0.42994377070E+03  0.57074218182E+03  0.25500000920E-02 0.  1.
</event>
<event>
 5   0  0.1537870E-02  0.8957657E+03  0.7818609E-02  0.9430890E-01
       -1   -1    0    0    0  501  0.00000000000E+00  0.00000000000E+00  0.30628638983E+03  0.30628638987E+03  0.50400001928E-02 0. -1.
        1   -1    0    0  501    0  0.00000000000E+00  0.00000000000E+00 -0.65493946373E+03  0.65493946375E+03  0.50400001928E-02 0.  1.
    10030    2    1    2    0    0  0.00000000000E+00  0.00000000000E+00 -0.34865307389E+03  0.96122585362E+03  0.89576569243E+03 0.  0.
        5    1    3    3  502    0 -0.35947820900E+03 -0.25182321641E+03 -0.78723604219E+02  0.44593610633E+03  0.46999998093E+01 0. -1.
       -5    1    3    3    0  502  0.35947820900E+03  0.25182321641E+03 -0.26992946968E+03  0.51528974729E+03  0.46999998093E+01 0.  1.
</event>
<event>
 5   0  0.1497410E-02  0.6792045E+03  0.7818609E-02  0.9753471E-01
        1   -1    0    0  501    0  0.00000000000E+00  0.00000000000E+00  0.62962109179E+03  0.62962109182E+03  0.50400001928E-02 0. -1.
       -1   -1    0    0    0  501  0.00000000000E+00  0.00000000000E+00 -0.18317317766E+03  0.18317317773E+03  0.50400001928E-02 0.  1.
    10030    2    1    2    0    0  0.00000000000E+00  0.00000000000E+00  0.44644791414E+03  0.81279426954E+03  0.67920452337E+03 0.  0.
        3    1    3    3  502    0  0.32333635560E+03  0.51801416998E+02  0.33092499773E+03  0.46555466916E+03  0.10100000352E+00 0. -1.
       -3    1    3    3    0  502 -0.32333635560E+03 -0.51801416998E+02  0.11552291641E+03  0.34723960038E+03  0.10100000352E+00 0.  1.
</event>
<event>
 5   0  0.1497410E-02  0.9083993E+03  0.7818609E-02  0.9415142E-01
       -1   -1    0    0    0  501  0.00000000000E+00  0.00000000000E+00  0.28961716914E+03  0.28961716919E+03  0.50400001928E-02 0. -1.
        1   -1    0    0  501    0  0.00000000000E+00  0.00000000000E+00 -0.71231043545E+03  0.71231043547E+03  0.50400001928E-02 0.  1.
    10030    2    1    2    0    0  0.00000000000E+00  0.00000000000E+00 -0.42269326631E+03  0.10019276047E+04  0.90839932166E+03 0.  0.
        3    1    3    3  502    0 -0.71839932927E+02  0.12248954441E+03  0.26450419526E+03  0.30021183182E+03  0.10100000352E+00 0. -1.
       -3    1    3    3    0  502  0.71839932927E+02 -0.12248954441E+03 -0.68719746157E+03  0.70171577283E+03  0.10100000352E+00 0.  1.
</event>
<event>
 5   0  0.1537870E-02  0.8962451E+03  0.7818609E-02  0.9430287E-01
       -1   -1    0    0    0  501  0.00000000000E+00  0.00000000000E+00  0.36679172934E+03  0.36679172938E+03  0.50400001928E-02 0.  1.
        1   -1    0    0  501    0  0.00000000000E+00  0.00000000000E+00 -0.54748732734E+03  0.54748732736E+03  0.50400001928E-02 0. -1.
    10030    2    1    2    0    0  0.00000000000E+00  0.00000000000E+00 -0.18069559799E+03  0.91427905674E+03  0.89624510847E+03 0.  0.
        5    1    3    3  502    0  0.29551341444E+02 -0.38230699676E+02  0.36410108049E+03  0.36732350182E+03  0.46999998093E+01 0.  1.
       -5    1    3    3    0  502 -0.29551341444E+02  0.38230699676E+02 -0.54479667848E+03  0.54695555492E+03  0.46999998093E+01 0. -1.
</event>
<event>
 5   0  0.1560728E-02  0.8065009E+03  0.7818609E-02  0.9550655E-01
       -1   -1    0    0    0  501  0.00000000000E+00  0.00000000000E+00  0.21811659949E+03  0.21811659955E+03  0.50400001928E-02 0. -1.
        1   -1    0    0  501    0  0.00000000000E+00  0.00000000000E+00 -0.74552299772E+03  0.74552299774E+03  0.50400001928E-02 0.  1.
    10030    2    1    2    0    0  0.00000000000E+00  0.00000000000E+00 -0.52740639823E+03  0.96363959729E+03  0.80650093898E+03 0.  0.
        4    1    3    3  502    0 -0.27124707895E+03 -0.29783929455E+03 -0.24212632590E+03  0.47001063159E+03  0.12699999809E+01 0.  1.
       -4    1    3    3    0  502  0.27124707895E+03  0.29783929455E+03 -0.28528007233E+03  0.49362896570E+03  0.12699999809E+01 0. -1.
</event>
<event>
 5   0  0.1497410E-02  0.8885993E+03  0.7818609E-02  0.9439946E-01
        1   -1    0    0  501    0  0.00000000000E+00  0.00000000000E+00  0.52914113547E+03  0.52914113549E+03  0.50400001928E-02 0.  1.
       -1   -1    0    0    0  501  0.00000000000E+00  0.00000000000E+00 -0.37306145487E+03  0.37306145491E+03  0.50400001928E-02 0. -1.
    10030    2    1    2    0    0  0.00000000000E+00  0.00000000000E+00  0.15607968060E+03  0.90220259040E+03  0.88859926144E+03 0.  0.
        3    1    3    3  502    0 -0.71033913279E+02 -0.29669456232E+03  0.40598404483E+03  0.50783514549E+03  0.10100000352E+00 0.  1.
       -3    1    3    3    0  502  0.71033913279E+02  0.29669456232E+03 -0.24990436423E+03  0.39436744491E+03  0.10100000352E+00 0. -1.
</event>
<event>
 5   0  0.2705111E-02  0.8538075E+03  0.7818609E-02  0.9485241E-01
        2   -1    0    0  501    0  0.00000000000E+00  0.00000000000E+00  0.12190151191E+04  0.12190151191E+04  0.25500000920E-02 0.  1.
       -2   -1    0    0    0  501  0.00000000000E+00  0.00000000000E+00 -0.14950334017E+03  0.14950334019E+03  0.25500000920E-02 0. -1.
    10030    2    1    2    0    0  0.00000000000E+00  0.00000000000E+00  0.10695117789E+04  0.13685184592E+04  0.85380754747E+03 0.  0.
        4    1    3    3  502    0 -0.62621920345E+02  0.35990088822E+03  0.18069445859E+03  0.40755644335E+03  0.12699999809E+01 0. -1.
       -4    1    3    3    0  502  0.62621920345E+02 -0.35990088822E+03  0.88881732030E+03  0.96096201590E+03  0.12699999809E+01 0.  1.
</event>
<event>
 5   0  0.1497410E-02  0.9013333E+03  0.7818609E-02  0.9423916E-01
        1   -1    0    0  501    0  0.00000000000E+00  0.00000000000E+00  0.66782884696E+03  0.66782884698E+03  0.50400001928E-02 0.  1.
       -1   -1    0    0    0  501  0.00000000000E+00  0.00000000000E+00 -0.30412045422E+03  0.30412045426E+03  0.50400001928E-02 0. -1.
    10030    2    1    2    0    0  0.00000000000E+00  0.00000000000E+00  0.36370839274E+03  0.97194930124E+03  0.90133326202E+03 0.  0.
        3    1    3    3  502    0 -0.42392257031E+03  0.10140468685E+03  0.30531021914E+03  0.53217252489E+03  0.10100000352E+00 0.  1.
       -3    1    3    3    0  502  0.42392257031E+03 -0.10140468685E+03  0.58398173598E+02  0.43977677635E+03  0.10100000352E+00 0. -1.
</event>
<event>
 5   0  0.2414128E-02  0.9024689E+03  0.7818609E-02  0.9422500E-01
        2   -1    0    0  501    0  0.00000000000E+00  0.00000000000E+00  0.14894753002E+04  0.14894753002E+04  0.25500000920E-02 0.  1.
       -2   -1    0    0    0  501  0.00000000000E+00  0.00000000000E+00 -0.13670084293E+03  0.13670084295E+03  0.25500000920E-02 0. -1.
    10030    2    1    2    0    0  0.00000000000E+00  0.00000000000E+00  0.13527744573E+04  0.16261761432E+04  0.90246890047E+03 0.  0.
        3    1    3    3  502    0  0.23081391027E+03  0.25507270667E+03  0.15019170166E+03  0.37535943349E+03  0.10100000352E+00 0. -1.
       -3    1    3    3    0  502 -0.23081391027E+03 -0.25507270667E+03  0.12025827557E+04  0.12508167097E+04  0.10100000352E+00 0.  1.
</event>
<event>
 5   0  0.2414128E-02  0.8966762E+03  0.7818609E-02  0.9429746E-01
        2   -1    0    0  501    0  0.00000000000E+00  0.00000000000E+00  0.53304820511E+03  0.53304820512E+03  0.25500000920E-02 0. -1.
       -2   -1    0    0    0  501  0.00000000000E+00  0.00000000000E+00 -0.37708981065E+03  0.37708981066E+03  0.25500000920E-02 0.  1.
    10030    2    1    2    0    0  0.00000000000E+00  0.00000000000E+00  0.15595839446E+03  0.91013801578E+03  0.89667618846E+03 0.  0.
        3    1    3    3  502    0 -0.17450184915E+03 -0.16450922431E+03  0.46247071037E+03  0.52095426709E+03  0.10100000352E+00 0. -1.
       -3    1    3    3    0  502  0.17450184915E+03  0.16450922431E+03 -0.30651231591E+03  0.38918374869E+03  0.10100000352E+00 0.  1.
</event>
<event>
 5   0  0.1040163E-02  0.8479848E+03  0.7818609E-02  0.9493046E-01
        4   -1    0    0  501    0  0.00000000000E+00  0.00000000000E+00  0.43799350885E+03  0.43799535008E+03  0.12699999809E+01 0.  1.
       -4   -1    0    0    0  501  0.00000000000E+00  0.00000000000E+00 -0.41043516450E+03  0.41043712936E+03  0.12699999809E+01 0. -1.
    10030    2    1    2    0    0  0.00000000000E+00  0.00000000000E+00  0.27558344351E+02  0.84843247944E+03  0.84798479339E+03 0.  0.
        4    1    3    3  502    0 -0.29064160938E+02 -0.94282438084E+02 -0.39879036049E+03  0.41081536985E+03  0.12699999809E+01 0. -1.
       -4    1    3    3    0  502  0.29064160938E+02  0.94282438084E+02  0.42634870484E+03  0.43761710959E+03  0.12699999809E+01 0.  1.
</event>
<event>
 5   0  0.2803717E-02  0.9191143E+03  0.7818609E-02  0.9401998E-01
       -2   -1    0    0    0  501  0.00000000000E+00  0.00000000000E+00  0.24013382708E+03  0.24013382710E+03  0.25500000920E-02 0. -1.
        2   -1    0    0  501    0  0.00000000000E+00  0.00000000000E+00 -0.87947941724E+03  0.87947941724E+03  0.25500000920E-02 0.  1.
    10030    2    1    2    0    0  0.00000000000E+00  0.00000000000E+00 -0.63934559016E+03  0.11196132443E+04  0.91911426561E+03 0.  0.
        5    1    3    3  502    0  0.17600724229E+03 -0.14584751621E+02  0.19711223533E+03  0.26470093999E+03  0.46999998093E+01 0. -1.
       -5    1    3    3    0  502 -0.17600724229E+03  0.14584751621E+02 -0.83645782548E+03  0.85491230435E+03  0.46999998093E+01 0.  1.
</event>
<event>
 5   0  0.1537870E-02  0.5719243E+03  0.7818609E-02  0.9965429E-01
       -1   -1    0    0    0  501  0.00000000000E+00  0.00000000000E+00  0.20918990752E+03  0.20918990758E+03  0.50400001928E-02 0. -1.
        1   -1    0    0  501    0  0.00000000000E+00  0.00000000000E+00 -0.39090969754E+03  0.39090969757E+03  0.50400001928E-02 0.  1.
    10030    2    1    2    0    0  0.00000000000E+00  0.00000000000E+00 -0.18171979001E+03  0.60009960515E+03  0.57192434292E+03 0.  0.
        5    1    3    3  502    0  0.16287756497E+03 -0.19208661343E+03 -0.23290212368E+03  0.34306246872E+03  0.46999998093E+01 0. -1.
       -5    1    3    3    0  502 -0.16287756497E+03  0.19208661343E+03  0.51182333665E+02  0.25703713644E+03  0.46999998093E+01 0.  1.
</event>
<event>
 5   0  0.1459111E-02  0.8923679E+03  0.7818609E-02  0.9435173E-01
       -1   -1    0    0    0  501  0.00000000000E+00  0.00000000000E+00  0.30455215897E+03  0.30455215902E+03  0.50400001928E-02 0.  1.
        1   -1    0    0  501    0  0.00000000000E+00  0.00000000000E+00 -0.65368145535E+03  0.65368145537E+03  0.50400001928E-02 0. -1.
    10030    2    1    2    0    0  0.00000000000E+00  0.00000000000E+00 -0.34912929638E+03  0.95823361439E+03  0.89236785809E+03 0.  0.
        2    1    3    3  502    0 -0.42484789713E+03 -0.13622750208E+02 -0.32021852116E+03  0.53218532141E+03  0.25500000920E-02 0. -1.
       -2    1    3    3    0  502  0.42484789713E+03  0.13622750208E+02 -0.28910775222E+02  0.42604829298E+03  0.25500000920E-02 0.  1.
</event>
<event>
 5   0  0.2803717E-02  0.8954141E+03  0.7818609E-02  0.9431332E-01
        2   -1    0    0  501    0  0.00000000000E+00  0.00000000000E+00  0.34368241491E+03  0.34368241491E+03  0.25500000920E-02 0. -1.
       -2   -1    0    0    0  501  0.00000000000E+00  0.00000000000E+00 -0.58321749546E+03  0.58321749546E+03  0.25500000920E-02 0.  1.
    10030    2    1    2    0    0  0.00000000000E+00  0.00000000000E+00 -0.23953508055E+03  0.92689991038E+03  0.89541408803E+03 0.  0.
        5    1    3    3  502    0 -0.38934635278E+02  0.10658971675E+03 -0.56805692929E+03  0.57929961026E+03  0.46999998093E+01 0.  1.
       -5    1    3    3    0  502  0.38934635278E+02 -0.10658971675E+03  0.32852184874E+03  0.34760030011E+03  0.46999998093E+01 0. -1.
</event>
<event>
 5   0  0.2679861E-02  0.7391196E+03  0.7818609E-02  0.9652576E-01
       -2   -1    0    0    0  501  0.00000000000E+00  0.00000000000E+00  0.39436129026E+03  0.39436129027E+03  0.25500000920E-02 0. -1.
        2   -1    0    0  501    0  0.00000000000E+00  0.00000000000E+00 -0.34631805697E+03  0.34631805698E+03  0.25500000920E-02 0.  1.
    10030    2    1    2    0    0  0.00000000000E+00  0.00000000000E+00  0.48043233298E+02  0.74067934725E+03  0.73911957299E+03 0.  0.
        1    1    3    3  502    0 -0.32036775667E+03 -0.25557003574E+02 -0.15880729498E+03  0.35848070646E+03  0.50400001928E-02 0.  1.
       -1    1    3    3    0  502  0.32036775667E+03  0.25557003574E+02  0.20685052828E+03  0.38219864078E+03  0.50400001928E-02 0. -1.
</event>
<event>
 5   0  0.1459111E-02  0.9223018E+03  0.7818609E-02  0.9398125E-01
       -1   -1    0    0    0  501  0.00000000000E+00  0.00000000000E+00  0.77787653310E+02  0.77787653473E+02  0.50400001928E-02 0. -1.
        1   -1    0    0  501    0  0.00000000000E+00  0.00000000000E+00 -0.27338546475E+04  0.27338546475E+04  0.50400001928E-02 0.  1.
    10030    2    1    2    0    0  0.00000000000E+00  0.00000000000E+00 -0.26560669942E+04  0.28116423010E+04  0.92230176787E+03 0.  0.
        2    1    3    3  502    0  0.20028706847E+03  0.42474368177E+02 -0.68365382868E+02  0.21585367110E+03  0.25500000920E-02 0. -1.
       -2    1    3    3    0  502 -0.20028706847E+03 -0.42474368177E+02 -0.25877016113E+04  0.25957886299E+04  0.25500000920E-02 0.  1.
</event>
<event>
 5   0  0.2679861E-02  0.8851616E+03  0.7818609E-02  0.9444323E-01
       -2   -1    0    0    0  501  0.00000000000E+00  0.00000000000E+00  0.17268617593E+03  0.17268617595E+03  0.25500000920E-02 0.  1.
        2   -1    0    0  501    0  0.00000000000E+00  0.00000000000E+00 -0.11342990474E+04  0.11342990474E+04  0.25500000920E-02 0. -1.
    10030    2    1    2    0    0  0.00000000000E+00  0.00000000000E+00 -0.96161287149E+03  0.13069852234E+04  0.88516160079E+03 0.  0.
        1    1    3    3  502    0  0.11871429386E+03 -0.33601512291E+03 -0.86832276761E+03  0.93860730615E+03  0.50400001928E-02 0. -1.
       -1    1    3    3    0  502 -0.11871429386E+03  0.33601512291E+03 -0.93290103884E+02  0.36837791722E+03  0.50400001928E-02 0.  1.
</event>
<event>
 5   0  0.1560728E-02  0.8877170E+03  0.7818609E-02  0.9441067E-01
        1   -1    0    0  501    0  0.00000000000E+00  0.00000000000E+00  0.67338830039E+03  0.67338830041E+03  0.50400001928E-02 0.  1.
       -1   -1    0    0    0  501  0.00000000000E+00  0.00000000000E+00 -0.29256576461E+03  0.29256576465E+03  0.50400001928E-02 0. -1.
    10030    2    1    2    0    0  0.00000000000E+00  0.00000000000E+00  0.38082253579E+03  0.96595406507E+03  0.88771698872E+03 0.  0.
        4    1    3    3  502    0  0.28771429754E+03  0.14517317165E+03 -0.14169927183E+03  0.35204412126E+03  0.12699999809E+01 0. -1.
       -4    1    3    3    0  502 -0.28771429754E+03 -0.14517317165E+03  0.52252180761E+03  0.61390994381E+03  0.12699999809E+01 0.  1.
</event>
<event>
 5   0  0.1040163E-02  0.9113552E+03  0.7818609E-02  0.9411497E-01
        3   -1    0    0  501    0  0.00000000000E+00  0.00000000000E+00  0.12760963728E+04  0.12760963768E+04  0.10100000352E+00 0. -1.
       -3   -1    0    0    0  501  0.00000000000E+00  0.00000000000E+00 -0.16271658803E+03  0.16271661938E+03  0.10100000352E+00 0.  1.
    10030    2    1    2    0    0  0.00000000000E+00  0.00000000000E+00  0.11133797848E+04  0.14388129962E+04  0.91135519576E+03 0.  0.
        4    1    3    3  502    0  0.78007793142E+02 -0.48358726961E+02  0.12613497392E+04  0.12646851623E+04  0.12699999809E+01 0. -1.
       -4    1    3    3    0  502 -0.78007793142E+02  0.48358726961E+02 -0.14796995435E+03  0.17412783395E+03  0.12699999809E+01 0.  1.
</event>
<event>
 5   0  0.2414128E-02  0.8733187E+03  0.7818609E-02  0.9459563E-01
       -2   -1    0    0    0  501  0.00000000000E+00  0.00000000000E+00  0.27040296669E+03  0.27040296670E+03  0.25500000920E-02 0. -1.
        2   -1    0    0  501    0  0.00000000000E+00  0.00000000000E+00 -0.70513785274E+03  0.70513785275E+03  0.25500000920E-02 0.  1.
    10030    2    1    2    0    0  0.00000000000E+00  0.00000000000E+00 -0.43473488605E+03  0.97554081945E+03  0.87331865276E+03 0.  0.
        3    1    3    3  502    0  0.13719496079E+03 -0.30799185377E+03 -0.52731601392E+03  0.62589426263E+03  0.10100000352E+00 0.  1.
       -3    1    3    3    0  502 -0.13719496079E+03  0.30799185377E+03  0.92581127869E+02  0.34964655682E+03  0.10100000352E+00 0. -1.
</event>
<event>
 5   0  0.1560728E-02  0.8987793E+03  0.7818609E-02  0.9427109E-01
       -1   -1    0    0    0  501  0.00000000000E+00  0.00000000000E+00  0.19754873800E+03  0.19754873807E+03  0.50400001928E-02 0.  1.
        1   -1    0    0  501    0  0.00000000000E+00  0.00000000000E+00 -0.10222848254E+04  0.10222848254E+04  0.50400001928E-02 0. -1.
    10030    2    1    2    0    0  0.00000000000E+00  0.00000000000E+00 -0.82473608736E+03  0.12198335634E+04  0.89877934373E+03 0.  0.
        4    1    3    3  502    0  0.38698108194E+03 -0.38855271788E+01 -0.72239508208E+03  0.81952774365E+03  0.12699999809E+01 0. -1.
       -4    1    3    3    0  502 -0.38698108194E+03  0.38855271788E+01 -0.10234100528E+03  0.40030581979E+03  0.12699999809E+01 0.  1.
</event>
<event>
 5   0  0.2414128E-02  0.8971448E+03  0.7818609E-02  0.9429158E-01
       -2   -1    0    0    0  501  0.00000000000E+00  0.00000000000E+00  0.14196841002E+03  0.14196841004E+03  0.25500000920E-02 0.  1.
        2   -1    0    0  501    0  0.00000000000E+00  0.00000000000E+00 -0.14173376916E+04  0.14173376916E+04  0.25500000920E-02 0. -1.
    10030    2    1    2    0    0  0.00000000000E+00  0.00000000000E+00 -0.12753692816E+04  0.15593061016E+04  0.89714475657E+03 0.  0.
        3    1    3    3  502    0  0.18287975895E+03  0.34832356825E+02 -0.13470218415E+04  0.13598257797E+04  0.10100000352E+00 0. -1.
       -3    1    3    3    0  502 -0.18287975895E+03 -0.34832356825E+02  0.71652559927E+02  0.19948032199E+03  0.10100000352E+00 0.  1.
</event>
<event>
 5   0  0.2705111E-02  0.9158692E+03  0.7818609E-02  0.9405959E-01
       -2   -1    0    0    0  501  0.00000000000E+00  0.00000000000E+00  0.36314476295E+03  0.36314476296E+03  0.25500000920E-02 0.  1.
        2   -1    0    0  501    0  0.00000000000E+00  0.00000000000E+00 -0.57746691798E+03  0.57746691799E+03  0.25500000920E-02 0. -1.
    10030    2    1    2    0    0  0.00000000000E+00  0.00000000000E+00 -0.21432215503E+03  0.94061168095E+03  0.91586917635E+03 0.  0.
        4    1    3    3  502    0  0.34567769821E+03 -0.19559070014E+03 -0.34125227698E+03  0.52364446188E+03  0.12699999809E+01 0. -1.
       -4    1    3    3    0  502 -0.34567769821E+03  0.19559070014E+03  0.12693012194E+03  0.41696721907E+03  0.12699999809E+01 0.  1.
</event>
<event>
 5   0  0.2628383E-02  0.9033775E+03  0.7818609E-02  0.9421369E-01
        2   -1    0    0  501    0  0.00000000000E+00  0.00000000000E+00  0.67892127636E+03  0.67892127637E+03  0.25500000920E-02 0. -1.
       -2   -1    0    0    0  501  0.00000000000E+00  0.00000000000E+00 -0.30051015881E+03  0.30051015882E+03  0.25500000920E-02 0.  1.
    10030    2    1    2    0    0  0.00000000000E+00  0.00000000000E+00  0.37841111755E+03  0.97943143519E+03  0.90337753035E+03 0.  0.
        2    1    3    3  502    0 -0.15099379213E+03 -0.33743271430E+03 -0.92188388134E+02  0.38099693025E+03  0.25500000920E-02 0.  1.
       -2    1    3    3    0  502  0.15099379213E+03  0.33743271430E+03  0.47059950569E+03  0.59843450494E+03  0.25500000920E-02 0. -1.
</event>
<event>
 5   0  0.2628383E-02  0.8371126E+03  0.7818609E-02  0.9507799E-01
       -2   -1    0    0    0  501  0.00000000000E+00  0.00000000000E+00  0.23790713152E+03  0.23790713153E+03  0.25500000920E-02 0.  1.
        2   -1    0    0  501    0  0.00000000000E+00  0.00000000000E+00 -0.73637722260E+03  0.73637722260E+03  0.25500000920E-02 0. -1.
    10030    2    1    2    0    0  0.00000000000E+00  0.00000000000E+00 -0.49847009108E+03  0.97428435413E+03  0.83711263938E+03 0.  0.
        2    1    3    3  502    0 -0.22300360656E+03 -0.35317828695E+03 -0.21792125317E+03  0.47112119831E+03  0.25500000920E-02 0. -1.
       -2    1    3    3    0  502  0.22300360656E+03  0.35317828695E+03 -0.28054883791E+03  0.50316315582E+03  0.25500000920E-02 0.  1.
</event>
<event>
 5   0  0.1459111E-02  0.8832254E+03  0.7818609E-02  0.9446797E-01
        1   -1    0    0  501    0  0.00000000000E+00  0.00000000000E+00  0.39464664359E+03  0.39464664362E+03  0.50400001928E-02 0. -1.
       -1   -1    0    0    0  501  0.00000000000E+00  0.00000000000E+00 -0.49416812339E+03  0.49416812342E+03  0.50400001928E-02 0.  1.
    10030    2    1    2    0    0  0.00000000000E+00  0.00000000000E+00 -0.99521479807E+02  0.88881476704E+03  0.88322543281E+03 0.  0.
        2    1    3    3  502    0  0.10626758683E+03  0.23171257761E+03 -0.41265098266E+03  0.48504056751E+03  0.25500000920E-02 0.  1.
       -2    1    3    3    0  502 -0.10626758683E+03 -0.23171257761E+03  0.31312950286E+03  0.40377419952E+03  0.25500000920E-02 0. -1.
</event>
<event>
 5   0  0.2628383E-02  0.9112308E+03  0.7818609E-02  0.9411650E-01
       -2   -1    0    0    0  501  0.00000000000E+00  0.00000000000E+00  0.10471825877E+03  0.10471825880E+03  0.25500000920E-02 0. -1.
        2   -1    0    0  501    0  0.00000000000E+00  0.00000000000E+00 -0.19823226790E+04  0.19823226790E+04  0.25500000920E-02 0.  1.
    10030    2    1    2    0    0  0.00000000000E+00  0.00000000000E+00 -0.18776044202E+04  0.20870409378E+04  0.91123077056E+03 0.  0.
        2    1    3    3  502    0  0.37597696767E+03 -0.21238416871E+03 -0.60595410167E+03  0.74407398064E+03  0.25500000920E-02 0. -1.
       -2    1    3    3    0  502 -0.37597696767E+03  0.21238416871E+03 -0.12716503186E+04  0.13429669572E+04  0.25500000920E-02 0.  1.
</event>
<event>
 5   0  0.2803717E-02  0.8799194E+03  0.7818609E-02  0.9451037E-01
        2   -1    0    0  501    0  0.00000000000E+00  0.00000000000E+00  0.94718254548E+03  0.94718254548E+03  0.25500000920E-02 0. -1.
       -2   -1    0    0    0  501  0.00000000000E+00  0.00000000000E+00 -0.20435822062E+03  0.20435822063E+03  0.25500000920E-02 0.  1.
    10030    2    1    2    0    0  0.00000000000E+00  0.00000000000E+00  0.74282432486E+03  0.11515407661E+04  0.87991940450E+03 0.  0.
        5    1    3    3  502    0  0.25389760287E+03  0.18622715860E+03 -0.30672580130E+02  0.31639760511E+03  0.46999998093E+01 0.  1.
       -5    1    3    3    0  502 -0.25389760287E+03 -0.18622715860E+03  0.77349690499E+03  0.83514316100E+03  0.46999998093E+01 0. -1.
</event>
<event>
 5   0  0.2803717E-02  0.8667753E+03  0.7818609E-02  0.9468094E-01
       -2   -1    0    0    0  501  0.00000000000E+00  0.00000000000E+00  0.98112485379E+02  0.98112485412E+02  0.25500000920E-02 0.  1.
        2   -1    0    0  501    0  0.00000000000E+00  0.00000000000E+00 -0.19143829017E+04  0.19143829017E+04  0.25500000920E-02 0. -1.
    10030    2    1    2    0    0  0.00000000000E+00  0.00000000000E+00 -0.18162704163E+04  0.20124953871E+04  0.86677532150E+03 0.  0.
        5    1    3    3  502    0  0.73928961769E+02  0.41213439329E+02  0.78675374101E+02  0.11565441391E+03  0.46999998093E+01 0.  1.
       -5    1    3    3    0  502 -0.73928961769E+02 -0.41213439329E+02 -0.18949457904E+04  0.18968409732E+04  0.46999998093E+01 0. -1.
</event>
<event>
 5   0  0.2414128E-02  0.9088465E+03  0.7818609E-02  0.9414590E-01
        2   -1    0    0  501    0  0.00000000000E+00  0.00000000000E+00  0.12939034958E+04  0.12939034958E+04  0.25500000920E-02 0. -1.
       -2   -1    0    0    0  501  0.00000000000E+00  0.00000000000E+00 -0.15959498564E+03  0.15959498566E+03  0.25500000920E-02 0.  1.
    10030    2    1    2    0    0  0.00000000000E+00  0.00000000000E+00  0.11343085102E+04  0.14534984815E+04  0.90884654338E+03 0.  0.
        3    1    3    3  502    0  0.23215555383E+03 -0.22552422203E+03  0.10772791946E+04  0.11248501452E+04  0.10100000352E+00 0. -1.
       -3    1    3    3    0  502 -0.23215555383E+03  0.22552422203E+03  0.57029315584E+02  0.32864833627E+03  0.10100000352E+00 0.  1.
</event>
<event>
 5   0  0.1497410E-02  0.9000057E+03  0.7818609E-02  0.9425574E-01
        1   -1    0    0  501    0  0.00000000000E+00  0.00000000000E+00  0.83875100996E+03  0.83875100997E+03  0.50400001928E-02 0.  1.
       -1   -1    0    0    0  501  0.00000000000E+00  0.00000000000E+00 -0.24143346475E+03  0.24143346480E+03  0.50400001928E-02 0. -1.
    10030    2    1    2    0    0  0.00000000000E+00  0.00000000000E+00  0.59731754521E+03  0.10801844748E+04  0.90000569428E+03 0.  0.
        3    1    3    3  502    0  0.26600629159E+03  0.31616697151E+03  0.51262286815E+03  0.65840953531E+03  0.10100000352E+00 0.  1.
       -3    1    3    3    0  502 -0.26600629159E+03 -0.31616697151E+03  0.84694677061E+02  0.42177493947E+03  0.10100000352E+00 0. -1.
</event>
<event>
 5   0  0.1559275E-02  0.8880274E+03  0.7818609E-02  0.9440673E-01
        1   -1    0    0  501    0  0.00000000000E+00  0.00000000000E+00  0.26914034905E+03  0.26914034909E+03  0.50400001928E-02 0.  1.
       -1   -1    0    0    0  501  0.00000000000E+00  0.00000000000E+00 -0.73251055865E+03  0.73251055866E+03  0.50400001928E-02 0. -1.
    10030    2    1    2    0    0  0.00000000000E+00  0.00000000000E+00 -0.46337020960E+03  0.10016509078E+04  0.88802735874E+03 0.  0.
        1    1    3    3  502    0 -0.30971742390E+03  0.29558694518E+03 -0.98933320111E+02  0.43941361686E+03  0.50400001928E-02 0.  1.
       -1    1    3    3    0  502  0.30971742390E+03 -0.29558694518E+03 -0.36443688949E+03  0.56223729090E+03  0.50400001928E-02 0. -1.
</event>
<event>
 5   0  0.2414128E-02  0.8870984E+03  0.7818609E-02  0.9441854E-01
       -2   -1    0    0    0  501  0.00000000000E+00  0.00000000000E+00  0.18632037917E+03  0.18632037919E+03  0.25500000920E-02 0.  1.
        2   -1    0    0  501    0  0.00000000000E+00  0.00000000000E+00 -0.10559011582E+04  0.10559011582E+04  0.25500000920E-02 0. -1.
    10030    2    1    2    0    0  0.00000000000E+00  0.00000000000E+00 -0.86958077906E+03  0.12422215374E+04  0.88709842562E+03 0.  0.
        3    1    3    3  502    0 -0.38701482767E+03 -0.21441266678E+03 -0.39089476278E+03  0.59038292174E+03  0.10100000352E+00 0.  1.
       -3    1    3    3    0  502  0.38701482767E+03  0.21441266678E+03 -0.47868601628E+03  0.65183861568E+03  0.10100000352E+00 0. -1.
</event>
<event>
 5   0  0.1040163E-02  0.9100076E+03  0.7818609E-02  0.9413157E-01
        4   -1    0    0  501    0  0.00000000000E+00  0.00000000000E+00  0.98986866684E+03  0.98986948155E+03  0.12699999809E+01 0.  1.
       -4   -1    0    0    0  501  0.00000000000E+00  0.00000000000E+00 -0.20914457054E+03  0.20914842645E+03  0.12699999809E+01 0. -1.
    10030    2    1    2    0    0  0.00000000000E+00  0.00000000000E+00  0.78072409630E+03  0.11990179080E+04  0.91000759841E+03 0.  0.
        1    1    3    3  502    0 -0.13610081466E+03  0.17180718649E+03  0.91572795966E+03  0.94159377505E+03  0.50400001928E-02 0.  1.
       -1    1    3    3    0  502  0.13610081466E+03 -0.17180718649E+03 -0.13500386336E+03  0.25742413295E+03  0.50400001928E-02 0. -1.
</event>
<event>
 5   0  0.2705111E-02  0.9266347E+03  0.7818609E-02  0.9392886E-01
       -2   -1    0    0    0  501  0.00000000000E+00  0.00000000000E+00  0.90646079467E+02  0.90646079503E+02  0.25500000920E-02 0.  1.
        2   -1    0    0  501    0  0.00000000000E+00  0.00000000000E+00 -0.23681437328E+04  0.23681437328E+04  0.25500000920E-02 0. -1.
    10030    2    1    2    0    0  0.00000000000E+00  0.00000000000E+00 -0.22774976533E+04  0.24587898123E+04  0.92663465300E+03 0.  0.
        4    1    3    3  502    0  0.13101872992E+02 -0.46003000207E+03 -0.12807045845E+04  0.13608839435E+04  0.12699999809E+01 0.  1.
       -4    1    3    3    0  502 -0.13101872992E+02  0.46003000207E+03 -0.99679306876E+03  0.10979058688E+04  0.12699999809E+01 0. -1.
</event>
<event>
 5   0  0.1040163E-02  0.8088137E+03  0.7818609E-02  0.9547347E-01
       -3   -1    0    0    0  501  0.00000000000E+00  0.00000000000E+00  0.45706467104E+03  0.45706468219E+03  0.10100000352E+00 0.  1.
        3   -1    0    0  501    0  0.00000000000E+00  0.00000000000E+00 -0.35781563711E+03  0.35781565136E+03  0.10100000352E+00 0. -1.
    10030    2    1    2    0    0  0.00000000000E+00  0.00000000000E+00  0.99249033926E+02  0.81488033356E+03  0.80881369133E+03 0.  0.
        2    1    3    3  502    0  0.16626724546E+03  0.30606033257E+03 -0.15740932655E+03  0.38222430610E+03  0.25500000920E-02 0. -1.
       -2    1    3    3    0  502 -0.16626724546E+03 -0.30606033257E+03  0.25665836048E+03  0.43265602746E+03  0.25500000920E-02 0.  1.
</event>
<event>
 5   0  0.1560728E-02  0.9490921E+03  0.7818609E-02  0.9366212E-01
        1   -1    0    0  501    0  0.00000000000E+00  0.00000000000E+00  0.10122705593E+04  0.10122705593E+04  0.50400001928E-02 0. -1.
       -1   -1    0    0    0  501  0.00000000000E+00  0.00000000000E+00 -0.22246418251E+03  0.22246418257E+03  0.50400001928E-02 0.  1.
    10030    2    1    2    0    0  0.00000000000E+00  0.00000000000E+00  0.78980637678E+03  0.12347347419E+04  0.94909207666E+03 0.  0.
        4    1    3    3  502    0 -0.25428336849E+03  0.10140172537E+03  0.89918411667E+03  0.93993405618E+03  0.12699999809E+01 0. -1.
       -4    1    3    3    0  502  0.25428336849E+03 -0.10140172537E+03 -0.10937773989E+03  0.29480068569E+03  0.12699999809E+01 0.  1.
</event>
<event>
 5   0  0.2705111E-02  0.9121954E+03  0.7818609E-02  0.9410464E-01
        2   -1    0    0  501    0  0.00000000000E+00  0.00000000000E+00  0.72957284227E+03  0.72957284228E+03  0.25500000920E-02 0. -1.
       -2   -1    0    0    0  501  0.00000000000E+00  0.00000000000E+00 -0.28513276196E+03  0.28513276197E+03  0.25500000920E-02 0.  1.
    10030    2    1    2    0    0  0.00000000000E+00  0.00000000000E+00  0.44444008031E+03  0.10147056042E+04  0.91219541673E+03 0.  0.
        4    1    3    3  502    0 -0.41849138308E+03 -0.90000929647E+02  0.47083986630E+02  0.43064337885E+03  0.12699999809E+01 0.  1.
       -4    1    3    3    0  502  0.41849138308E+03  0.90000929647E+02  0.39735609368E+03  0.58406222540E+03  0.12699999809E+01 0. -1.
</event>
<event>
 5   0  0.2679861E-02  0.8889078E+03  0.7818609E-02  0.9439554E-01
        2   -1    0    0  501    0  0.00000000000E+00  0.00000000000E+00  0.16349315319E+04  0.16349315319E+04  0.25500000920E-02 0. -1.
       -2   -1    0    0    0  501  0.00000000000E+00  0.00000000000E+00 -0.12082418610E+03  0.12082418612E+03  0.25500000920E-02 0.  1.
    10030    2    1    2    0    0  0.00000000000E+00  0.00000000000E+00  0.15141073458E+04  0.17557557180E+04  0.88890780555E+03 0.  0.
        1    1    3    3  502    0 -0.21622446704E+03 -0.86803427526E+02  0.94751188188E+01  0.23319012217E+03  0.50400001928E-02 0.  1.
       -1    1    3    3    0  502  0.21622446704E+03  0.86803427526E+02  0.15046322270E+04  0.15225655959E+04  0.50400001928E-02 0. -1.
</event>
<event>
 5   0  0.2628383E-02  0.9311933E+03  0.7818609E-02  0.9387407E-01
       -2   -1    0    0    0  501  0.00000000000E+00  0.00000000000E+00  0.46149910496E+03  0.46149910497E+03  0.25500000920E-02 0.  1.
        2   -1    0    0  501    0  0.00000000000E+00  0.00000000000E+00 -0.46973059586E+03  0.46973059587E+03  0.25500000920E-02 0. -1.
    10030    2    1    2    0    0  0.00000000000E+00  0.00000000000E+00 -0.82314908972E+01  0.93122970083E+03  0.93119331949E+03 0.  0.
        2    1    3    3  502    0 -0.22616046731E+03 -0.32054197777E+03  0.24666193880E+03  0.46339813179E+03  0.25500000920E-02 0.  1.
       -2    1    3    3    0  502  0.22616046731E+03  0.32054197777E+03 -0.25489342970E+03  0.46783156904E+03  0.25500000920E-02 0. -1.
</event>
<event>
 5   0  0.1497410E-02  0.8824986E+03  0.7818609E-02  0.9447727E-01
       -1   -1    0    0    0  501  0.00000000000E+00  0.00000000000E+00  0.12654129446E+03  0.12654129456E+03  0.50400001928E-02 0. -1.
        1   -1    0    0  501    0  0.00000000000E+00  0.00000000000E+00 -0.15386357265E+04  0.15386357265E+04  0.50400001928E-02 0.  1.
    10030    2    1    2    0    0  0.00000000000E+00  0.00000000000E+00 -0.14120944321E+04  0.16651770211E+04  0.88249862690E+03 0.  0.
        3    1    3    3  502    0  0.32796320335E+03 -0.27797998223E+03 -0.51860576764E+03  0.67363542491E+03  0.10100000352E+00 0. -1.
       -3    1    3    3    0  502 -0.32796320335E+03  0.27797998223E+03 -0.89348866442E+03  0.99154159616E+03  0.10100000352E+00 0.  1.
</event>
<event>
 5   0  0.1537870E-02  0.8543239E+03  0.7818609E-02  0.9484552E-01
       -1   -1    0    0    0  501  0.00000000000E+00  0.00000000000E+00  0.21160989155E+03  0.21160989161E+03  0.50400001928E-02 0. -1.
        1   -1    0    0  501    0  0.00000000000E+00  0.00000000000E+00 -0.86228165477E+03  0.86228165478E+03  0.50400001928E-02 0.  1.
    10030    2    1    2    0    0  0.00000000000E+00  0.00000000000E+00 -0.65067176321E+03  0.10738915464E+04  0.85432389055E+03 0.  0.
        5    1    3    3  502    0  0.27737763904E+03 -0.16824100848E+03  0.23926422436E+02  0.32532745852E+03  0.46999998093E+01 0. -1.
       -5    1    3    3    0  502 -0.27737763904E+03  0.16824100848E+03 -0.67459818565E+03  0.74856408788E+03  0.46999998093E+01 0.  1.
</event>
<event>
 5   0  0.1560728E-02  0.8670772E+03  0.7818609E-02  0.9467699E-01
        1   -1    0    0  501    0  0.00000000000E+00  0.00000000000E+00  0.90323295246E+03  0.90323295247E+03  0.50400001928E-02 0. -1.
       -1   -1    0    0    0  501  0.00000000000E+00  0.00000000000E+00 -0.20809218245E+03  0.20809218251E+03  0.50400001928E-02 0.  1.
    10030    2    1    2    0    0  0.00000000000E+00  0.00000000000E+00  0.69514077001E+03  0.11113251350E+04  0.86707719697E+03 0.  0.
        4    1    3    3  502    0  0.18958652953E+03 -0.54797127054E+02  0.84232361718E+03  0.86513378519E+03  0.12699999809E+01 0. -1.
       -4    1    3    3    0  502 -0.18958652953E+03  0.54797127054E+02 -0.14718284717E+03  0.24619134979E+03  0.12699999809E+01 0.  1.
</event>
<event>
 5   0  0.1459111E-02  0.8921141E+03  0.7818609E-02  0.9435493E-01
       -1   -1    0    0    0  501  0.00000000000E+00  0.00000000000E+00  0.25355618835E+03  0.25355618840E+03  0.50400001928E-02 0.  1.
        1   -1    0    0  501    0  0.00000000000E+00  0.00000000000E+00 -0.78470528722E+03  0.78470528724E+03  0.50400001928E-02 0. -1.
    10030    2    1    2    0    0  0.00000000000E+00  0.00000000000E+00 -0.53114909887E+03  0.10382614756E+04  0.89211407709E+03 0.  0.
        2    1    3    3  502    0  0.24823381591E+03 -0.72939747688E+02  0.15730545012E+03  0.30279570472E+03  0.25500000920E-02 0.  1.
       -2    1    3    3    0  502 -0.24823381591E+03  0.72939747688E+02 -0.68845454899E+03  0.73546577092E+03  0.25500000920E-02 0. -1.
</event>
<event>
 5   0  0.2628383E-02  0.9285700E+03  0.7818609E-02  0.9390556E-01
        2   -1    0    0  501    0  0.00000000000E+00  0.00000000000E+00  0.12478102849E+04  0.12478102849E+04  0.25500000920E-02 0.  1.
       -2   -1    0    0    0  501  0.00000000000E+00  0.00000000000E+00 -0.17275105650E+03  0.17275105652E+03  0.25500000920E-02 0. -1.
    10030    2    1    2    0    0  0.00000000000E+00  0.00000000000E+00  0.10750592284E+04  0.14205613414E+04  0.92856996512E+03 0.  0.
        2    1    3    3  502    0  0.25695080357E+03 -0.36963707988E+03  0.71132118868E+03  0.84180349236E+03  0.25500000920E-02 0.  1.
       -2    1    3    3    0  502 -0.25695080357E+03  0.36963707988E+03  0.36373803968E+03  0.57875784901E+03  0.25500000920E-02 0. -1.
</event>
<event>
 5   0  0.2803717E-02  0.9084558E+03  0.7818609E-02  0.9415073E-01
       -2   -1    0    0    0  501  0.00000000000E+00  0.00000000000E+00  0.27786252234E+03  0.27786252235E+03  0.25500000920E-02 0. -1.
        2   -1    0    0  501    0  0.00000000000E+00  0.00000000000E+00 -0.74253623992E+03  0.74253623992E+03  0.25500000920E-02 0.  1.
    10030    2    1    2    0    0  0.00000000000E+00  0.00000000000E+00 -0.46467371758E+03  0.10203987623E+04  0.90845581633E+03 0.  0.
        5    1    3    3  502    0  0.51709438437E+01  0.41085549156E+03 -0.44976669483E+03  0.60921354497E+03  0.46999998093E+01 0. -1.
       -5    1    3    3    0  502 -0.51709438437E+01 -0.41085549156E+03 -0.14907022757E+02  0.41118521730E+03  0.46999998093E+01 0.  1.
</event>
<event>
 5   0  0.1559275E-02  0.8993581E+03  0.7818609E-02  0.9426384E-01
        1   -1    0    0  501    0  0.00000000000E+00  0.00000000000E+00  0.69715572795E+03  0.69715572797E+03  0.50400001928E-02 0. -1.
       -1   -1    0    0    0  501  0.00000000000E+00  0.00000000000E+00 -0.29005175508E+03  0.29005175513E+03  0.50400001928E-02 0.  1.
    10030    2    1    2    0    0  0.00000000000E+00  0.00000000000E+00  0.40710397286E+03  0.98720748310E+03  0.89935808773E+03 0.  0.
        1    1    3    3  502    0 -0.11102198105E+03 -0.15650835221E+03 -0.24285509106E+03  0.30951468441E+03  0.50400001928E-02 0.  1.
       -1    1    3    3    0  502  0.11102198105E+03  0.15650835221E+03  0.64995906393E+03  0.67769279869E+03  0.50400001928E-02 0. -1.
</event>
<event>
 5   0  0.2679861E-02  0.8989612E+03  0.7818609E-02  0.9426881E-01
        2   -1    0    0  501    0  0.00000000000E+00  0.00000000000E+00  0.16630224909E+03  0.16630224911E+03  0.25500000920E-02 0. -1.
       -2   -1    0    0    0  501  0.00000000000E+00  0.00000000000E+00 -0.12148531581E+04  0.12148531581E+04  0.25500000920E-02 0.  1.
    10030    2    1    2    0    0  0.00000000000E+00  0.00000000000E+00 -0.10485509090E+04  0.13811554072E+04  0.89896120611E+03 0.  0.
        1    1    3    3  502    0 -0.85780836783E+02  0.42278402494E+03 -0.33037270079E+03  0.54336986037E+03  0.50400001928E-02 0. -1.
       -1    1    3    3    0  502  0.85780836783E+02 -0.42278402494E+03 -0.71817820823E+03  0.83778554685E+03  0.50400001928E-02 0.  1.
</event>
<event>
 5   0  0.1560728E-02  0.9201383E+03  0.7818609E-02  0.9400752E-01
        1   -1    0    0  501    0  0.00000000000E+00  0.00000000000E+00  0.76276555949E+03  0.76276555951E+03  0.50400001928E-02 0. -1.
       -1   -1    0    0    0  501  0.00000000000E+00  0.00000000000E+00 -0.27749501849E+03  0.27749501854E+03  0.50400001928E-02 0.  1.
    10030    2    1    2    0    0  0.00000000000E+00  0.00000000000E+00  0.48527054100E+03  0.10402605780E+04  0.92013834409E+03 0.  0.
        4    1    3    3  502    0  0.32058834318E+03 -0.23220729792E+03  0.50768770202E+03  0.64377444084E+03  0.12699999809E+01 0. -1.
       -4    1    3    3    0  502 -0.32058834318E+03  0.23220729792E+03 -0.22417161017E+02  0.39648613721E+03  0.12699999809E+01 0.  1.
</event>
<event>
 5   0  0.2803717E-02  0.7976286E+03  0.7818609E-02  0.9563456E-01
        2   -1    0    0  501    0  0.00000000000E+00  0.00000000000E+00  0.17652707595E+04  0.17652707595E+04  0.25500000920E-02 0.  1.
       -2   -1    0    0    0  501  0.00000000000E+00  0.00000000000E+00 -0.90101114632E+02  0.90101114668E+02  0.25500000920E-02 0. -1.
    10030    2    1    2    0    0  0.00000000000E+00  0.00000000000E+00  0.16751696448E+04  0.18553718741E+04  0.79762864314E+03 0.  0.
        5    1    3    3  502    0 -0.32546015412E+03  0.18896122960E+03  0.11444208032E+04  0.12047205995E+04  0.46999998093E+01 0.  1.
       -5    1    3    3    0  502  0.32546015412E+03 -0.18896122960E+03  0.53074884165E+03  0.65065127459E+03  0.46999998093E+01 0. -1.
</event>
<event>
 5   0  0.2679861E-02  0.8543448E+03  0.7818609E-02  0.9484524E-01
        2   -1    0    0  501    0  0.00000000000E+00  0.00000000000E+00  0.27334851398E+03  0.27334851399E+03  0.25500000920E-02 0.  1.
       -2   -1    0    0    0  501  0.00000000000E+00  0.00000000000E+00 -0.66755899071E+03  0.66755899072E+03  0.25500000920E-02 0. -1.
    10030    2    1    2    0    0  0.00000000000E+00  0.00000000000E+00 -0.39421047674E+03  0.94090750471E+03  0.85434479717E+03 0.  0.
        1    1    3    3  502    0  0.30191932040E+03  0.23056057215E+03  0.18041068479E+02  0.38031425642E+03  0.50400001928E-02 0. -1.
       -1    1    3    3    0  502 -0.30191932040E+03 -0.23056057215E+03 -0.41225154522E+03  0.56059324828E+03  0.50400001928E-02 0.  1.
</event>
<event>
 5   0  0.2803717E-02  0.8933257E+03  0.7818609E-02  0.9433963E-01
       -2   -1    0    0    0  501  0.00000000000E+00  0.00000000000E+00  0.17055681788E+03  0.17055681790E+03  0.25500000920E-02 0. -1.
        2   -1    0    0  501    0  0.00000000000E+00  0.00000000000E+00 -0.11697433447E+04  0.11697433447E+04  0.25500000920E-02 0.  1.
    10030    2    1    2    0    0  0.00000000000E+00  0.00000000000E+00 -0.99918652685E+03  0.13403001626E+04  0.89332570237E+03 0.  0.
        5    1    3    3  502    0 -0.23407344078E+03  0.27519530012E+03 -0.10559016898E+03  0.37642290402E+03  0.46999998093E+01 0. -1.
       -5    1    3    3    0  502  0.23407344078E+03 -0.27519530012E+03 -0.89359635787E+03  0.96387725862E+03  0.46999998093E+01 0.  1.
</event>
<event>
 5   0  0.2803717E-02  0.8771654E+03  0.7818609E-02  0.9454585E-01
        2   -1    0    0  501    0  0.00000000000E+00  0.00000000000E+00  0.43857648764E+03  0.43857648764E+03  0.25500000920E-02 0. -1.
       -2   -1    0    0    0  501  0.00000000000E+00  0.00000000000E+00 -0.43858892504E+03  0.43858892505E+03  0.25500000920E-02 0.  1.
    10030    2    1    2    0    0  0.00000000000E+00  0.00000000000E+00 -0.12437403824E-01  0.87716541269E+03  0.87716541260E+03 0.  0.
        5    1    3    3  502    0  0.40883141334E+03  0.10381528486E+03  0.12004361416E+03  0.43858100415E+03  0.46999998093E+01 0.  1.
       -5    1    3    3    0  502 -0.40883141334E+03 -0.10381528486E+03 -0.12005605156E+03  0.43858440854E+03  0.46999998093E+01 0. -1.
</event>
<event>
 5   0  0.1040163E-02  0.8987333E+03  0.7818609E-02  0.9427166E-01
        4   -1    0    0  501    0  0.00000000000E+00  0.00000000000E+00  0.52672856725E+03  0.52673009830E+03  0.12699999809E+01 0. -1.
       -4   -1    0    0    0  501  0.00000000000E+00  0.00000000000E+00 -0.38336396268E+03  0.38336606629E+03  0.12699999809E+01 0.  1.
    10030    2    1    2    0    0  0.00000000000E+00  0.00000000000E+00  0.14336460456E+03  0.91009616459E+03  0.89873334141E+03 0.  0.
        4    1    3    3  502    0 -0.48817939639E+01  0.17986482862E+03  0.48865723041E+03  0.52073283959E+03  0.12699999809E+01 0. -1.
       -4    1    3    3    0  502  0.48817939639E+01 -0.17986482862E+03 -0.34529262585E+03  0.38936332500E+03  0.12699999809E+01 0.  1.
</event>
<event>
 5   0  0.2679861E-02  0.8936911E+03  0.7818609E-02  0.9433502E-01
        2   -1    0    0  501    0  0.00000000000E+00  0.00000000000E+00  0.73601445800E+03  0.73601445800E+03  0.25500000920E-02 0. -1.
       -2   -1    0    0    0  501  0.00000000000E+00  0.00000000000E+00 -0.27128670695E+03  0.27128670696E+03  0.25500000920E-02 0.  1.
    10030    2    1    2    0    0  0.00000000000E+00  0.00000000000E+00  0.46472775105E+03  0.10073011650E+04  0.89369108440E+03 0.  0.
        1    1    3    3  502    0  0.10835687112E+03  0.10327511602E+03  0.70691407004E+03  0.72258872365E+03  0.50400001928E-02 0. -1.
       -1    1    3    3    0  502 -0.10835687112E+03 -0.10327511602E+03 -0.24218631898E+03  0.28471244131E+03  0.50400001928E-02 0.  1.
</event>
<event>
 5   0  0.1459111E-02  0.9000837E+03  0.7818609E-02  0.9425477E-01
        1   -1    0    0  501    0  0.00000000000E+00  0.00000000000E+00  0.47086853295E+03  0.47086853298E+03  0.50400001928E-02 0. -1.
       -1   -1    0    0    0  501  0.00000000000E+00  0.00000000000E+00 -0.43013635693E+03  0.43013635696E+03  0.50400001928E-02 0.  1.
    10030    2    1    2    0    0  0.00000000000E+00  0.00000000000E+00  0.40732176023E+02  0.90100488994E+03  0.90008371918E+03 0.  0.
        2    1    3    3  502    0 -0.39770683508E+03  0.16611153575E+03  0.15001275296E+03  0.45636344621E+03  0.25500000920E-02 0. -1.
       -2    1    3    3    0  502  0.39770683508E+03 -0.16611153575E+03 -0.10928057694E+03  0.44464144373E+03  0.25500000920E-02 0.  1.
</event>
<event>
 5   0  0.2705111E-02  0.9282707E+03  0.7818609E-02  0.9390916E-01
        2   -1    0    0  501    0  0.00000000000E+00  0.00000000000E+00  0.13901141318E+04  0.13901141318E+04  0.25500000920E-02 0.  1.
       -2   -1    0    0    0  501  0.00000000000E+00  0.00000000000E+00 -0.15496685487E+03  0.15496685489E+03  0.25500000920E-02 0. -1.
    10030    2    1    2    0    0  0.00000000000E+00  0.00000000000E+00  0.12351472770E+04  0.15450809867E+04  0.92827068237E+03 0.  0.
        4    1    3    3  502    0 -0.34162921901E+03 -0.31273240041E+03  0.56742011154E+03  0.73244745438E+03  0.12699999809E+01 0. -1.
       -4    1    3    3    0  502  0.34162921901E+03  0.31273240041E+03  0.66772716543E+03  0.81263353235E+03  0.12699999809E+01 0.  1.
</event>
<event>
 5   0  0.1497410E-02  0.9014281E+03  0.7818609E-02  0.9423798E-01
        1   -1    0    0  501    0  0.00000000000E+00  0.00000000000E+00  0.82273132400E+03  0.82273132401E+03  0.50400001928E-02 0. -1.
       -1   -1    0    0    0  501  0.00000000000E+00  0.00000000000E+00 -0.24691311889E+03  0.24691311894E+03  0.50400001928E-02 0.  1.
    10030    2    1    2    0    0  0.00000000000E+00  0.00000000000E+00  0.57581820511E+03  0.10696444430E+04  0.90142810530E+03 0.  0.
        3    1    3    3  502    0  0.32509219727E+02  0.31691564560E+03  0.66623292037E+03  0.73848404869E+03  0.10100000352E+00 0. -1.
       -3    1    3    3    0  502 -0.32509219727E+02 -0.31691564560E+03 -0.90414715259E+02  0.33116039426E+03  0.10100000352E+00 0.  1.
</event>
<event>
 5   0  0.2414128E-02  0.8966433E+03  0.7818609E-02  0.9429787E-01
       -2   -1    0    0    0  501  0.00000000000E+00  0.00000000000E+00  0.20444871007E+03  0.20444871009E+03  0.25500000920E-02 0.  1.
        2   -1    0    0  501    0  0.00000000000E+00  0.00000000000E+00 -0.98309406613E+03  0.98309406613E+03  0.25500000920E-02 0. -1.
    10030    2    1    2    0    0  0.00000000000E+00  0.00000000000E+00 -0.77864535605E+03  0.11875427762E+04  0.89664332644E+03 0.  0.
        3    1    3    3  502    0  0.36114414633E+03  0.24743097902E+03 -0.51735569407E+03  0.67771978590E+03  0.10100000352E+00 0. -1.
       -3    1    3    3    0  502 -0.36114414633E+03 -0.24743097902E+03 -0.26128966198E+03  0.50982299033E+03  0.10100000352E+00 0.  1.
</event>
<event>
 5   0  0.1560728E-02  0.8933849E+03  0.7818609E-02  0.9433889E-01
        1   -1    0    0  501    0  0.00000000000E+00  0.00000000000E+00  0.95982149769E+03  0.95982149770E+03  0.50400001928E-02 0.  1.
       -1   -1    0    0    0  501  0.00000000000E+00  0.00000000000E+00 -0.20788673845E+03  0.20788673851E+03  0.50400001928E-02 0. -1.
    10030    2    1    2    0    0  0.00000000000E+00  0.00000000000E+00  0.75193475924E+03  0.11677082362E+04  0.89338493538E+03 0.  0.
        4    1    3    3  502    0 -0.22734373998E+03 -0.16746691458E+03  0.82837313657E+03  0.87517655926E+03  0.12699999809E+01 0.  1.
       -4    1    3    3    0  502  0.22734373998E+03  0.16746691458E+03 -0.76438377337E+02  0.29253167695E+03  0.12699999809E+01 0. -1.
</event>
<event>
 5   0  0.2679861E-02  0.8765778E+03  0.7818609E-02  0.9455343E-01
        2   -1    0    0  501    0  0.00000000000E+00  0.00000000000E+00  0.10236648002E+04  0.10236648002E+04  0.25500000920E-02 0.  1.
       -2   -1    0    0    0  501  0.00000000000E+00  0.00000000000E+00 -0.18765631829E+03  0.18765631831E+03  0.25500000920E-02 0. -1.
    10030    2    1    2    0    0  0.00000000000E+00  0.00000000000E+00  0.83600848193E+03  0.12113211185E+04  0.87657781761E+03 0.  0.
        1    1    3    3  502    0 -0.26504462864E+03  0.33136238469E+03  0.56968027446E+03  0.71034167855E+03  0.50400001928E-02 0.  1.
       -1    1    3    3    0  502  0.26504462864E+03 -0.33136238469E+03  0.26632820747E+03  0.50097943997E+03  0.50400001928E-02 0. -1.
</event>
<event>
 5   0  0.1537870E-02  0.9057180E+03  0.7818609E-02  0.9418462E-01
        1   -1    0    0  501    0  0.00000000000E+00  0.00000000000E+00  0.13115072301E+04  0.13115072301E+04  0.50400001928E-02 0.  1.
       -1   -1    0    0    0  501  0.00000000000E+00  0.00000000000E+00 -0.15637066046E+03  0.15637066054E+03  0.50400001928E-02 0. -1.
    10030    2    1    2    0    0  0.00000000000E+00  0.00000000000E+00  0.11551365696E+04  0.14678778907E+04  0.90571795132E+03 0.  0.
        5    1    3    3  502    0 -0.31244308811E+03  0.35754230394E+02  0.11056214386E+04  0.11494868002E+04  0.46999998093E+01 0.  1.
       -5    1    3    3    0  502  0.31244308811E+03 -0.35754230394E+02  0.49515131055E+02  0.31839109048E+03  0.46999998093E+01 0. -1.
</event>
<event>
 5   0  0.1560728E-02  0.9088883E+03  0.7818609E-02  0.9414538E-01
       -1   -1    0    0    0  501  0.00000000000E+00  0.00000000000E+00  0.28142606518E+03  0.28142606522E+03  0.50400001928E-02 0. -1.
        1   -1    0    0  501    0  0.00000000000E+00  0.00000000000E+00 -0.73383219165E+03  0.73383219167E+03  0.50400001928E-02 0.  1.
    10030    2    1    2    0    0  0.00000000000E+00  0.00000000000E+00 -0.45240612647E+03  0.10152582569E+04  0.90888834568E+03 0.  0.
        4    1    3    3  502    0  0.57653987357E+02  0.45076891043E+03 -0.22492922316E+03  0.50706149647E+03  0.12699999809E+01 0. -1.
       -4    1    3    3    0  502 -0.57653987357E+02 -0.45076891043E+03 -0.22747690331E+03  0.50819676043E+03  0.12699999809E+01 0.  1.
</event>
<event>
 5   0  0.2414128E-02  0.1055082E+04  0.7818609E-02  0.9250113E-01
        2   -1    0    0  501    0  0.00000000000E+00  0.00000000000E+00  0.12751904095E+04  0.12751904095E+04  0.25500000920E-02 0. -1.
       -2   -1    0    0    0  501  0.00000000000E+00  0.00000000000E+00 -0.21824143459E+03  0.21824143461E+03  0.25500000920E-02 0.  1.
    10030    2    1    2    0    0  0.00000000000E+00  0.00000000000E+00  0.10569489749E+04  0.14934318441E+04  0.10550817681E+04 0.  0.
        3    1    3    3  502    0  0.41153123278E+02  0.50587733002E+03  0.32485436777E+03  0.60260751990E+03  0.10100000352E+00 0.  1.
       -3    1    3    3    0  502 -0.41153123278E+02 -0.50587733002E+03  0.73209460712E+03  0.89082432419E+03  0.10100000352E+00 0. -1.
</event>
<event>
 5   0  0.1537870E-02  0.9679664E+03  0.7818609E-02  0.9344394E-01
       -1   -1    0    0    0  501  0.00000000000E+00  0.00000000000E+00  0.10776008372E+04  0.10776008372E+04  0.50400001928E-02 0. -1.
        1   -1    0    0  501    0  0.00000000000E+00  0.00000000000E+00 -0.21737154540E+03  0.21737154545E+03  0.50400001928E-02 0.  1.
    10030    2    1    2    0    0  0.00000000000E+00  0.00000000000E+00  0.86022929176E+03  0.12949723826E+04  0.96796644433E+03 0.  0.
        5    1    3    3  502    0  0.23017510870E+02  0.92096108635E+02 -0.20476345482E+03  0.22574689690E+03  0.46999998093E+01 0.  1.
       -5    1    3    3    0  502 -0.23017510870E+02 -0.92096108635E+02  0.10649927466E+04  0.10692254857E+04  0.46999998093E+01 0. -1.
</event>
<event>
 5   0  0.1497410E-02  0.8620113E+03  0.7818609E-02  0.9474356E-01
        1   -1    0    0  501    0  0.00000000000E+00  0.00000000000E+00  0.31675172445E+03  0.31675172449E+03  0.50400001928E-02 0.  1.
       -1   -1    0    0    0  501  0.00000000000E+00  0.00000000000E+00 -0.58647153018E+03  0.58647153020E+03  0.50400001928E-02 0. -1.
    10030    2    1    2    0    0  0.00000000000E+00  0.00000000000E+00 -0.26971980573E+03  0.90322325470E+03  0.86201129588E+03 0.  0.
        3    1    3    3  502    0 -0.29941042640E+03  0.21173817038E+03 -0.37215153497E+03  0.52247146469E+03  0.10100000352E+00 0. -1.
       -3    1    3    3    0  502  0.29941042640E+03 -0.21173817038E+03  0.10243172925E+03  0.38075179000E+03  0.10100000352E+00 0.  1.
</event>
<event>
 5   0  0.1459111E-02  0.8958984E+03  0.7818609E-02  0.9430723E-01
        1   -1    0    0  501    0  0.00000000000E+00  0.00000000000E+00  0.27121896533E+03  0.27121896538E+03  0.50400001928E-02 0. -1.
       -1   -1    0    0    0  501  0.00000000000E+00  0.00000000000E+00 -0.73983937636E+03  0.73983937638E+03  0.50400001928E-02 0.  1.
    10030    2    1    2    0    0  0.00000000000E+00  0.00000000000E+00 -0.46862041102E+03  0.10110583418E+04  0.89589836522E+03 0.  0.
        2    1    3    3  502    0 -0.93204125675E+02 -0.43595827711E+02 -0.72632169902E+03  0.73357400152E+03  0.25500000920E-02 0.  1.
       -2    1    3    3    0  502  0.93204125675E+02  0.43595827711E+02  0.25770128799E+03  0.27748434024E+03  0.25500000920E-02 0. -1.
</event>
<event>
 5   0  0.2628383E-02  0.8628303E+03  0.7818609E-02  0.9473277E-01
        2   -1    0    0  501    0  0.00000000000E+00  0.00000000000E+00  0.11459314703E+04  0.11459314703E+04  0.25500000920E-02 0. -1.
       -2   -1    0    0    0  501  0.00000000000E+00  0.00000000000E+00 -0.16241722658E+03  0.16241722660E+03  0.25500000920E-02 0.  1.
    10030    2    1    2    0    0  0.00000000000E+00  0.00000000000E+00  0.98351424374E+03  0.13083486969E+04  0.86283025279E+03 0.  0.
        2    1    3    3  502    0  0.24523485316E+02  0.40607181398E+03  0.27399760924E+03  0.49047977462E+03  0.25500000920E-02 0.  1.
       -2    1    3    3    0  502 -0.24523485316E+02 -0.40607181398E+03  0.70951663451E+03  0.81786892231E+03  0.25500000920E-02 0. -1.
</event>
<event>
 5   0  0.1459111E-02  0.9030031E+03  0.7818609E-02  0.9421835E-01
       -1   -1    0    0    0  501  0.00000000000E+00  0.00000000000E+00  0.44977912429E+03  0.44977912432E+03  0.50400001928E-02 0. -1.
        1   -1    0    0  501    0  0.00000000000E+00  0.00000000000E+00 -0.45323056069E+03  0.45323056072E+03  0.50400001928E-02 0.  1.
    10030    2    1    2    0    0  0.00000000000E+00  0.00000000000E+00 -0.34514363979E+01  0.90300968503E+03  0.90300308906E+03 0.  0.
        2    1    3    3  502    0  0.30412581074E+02  0.19075176971E+03 -0.40982486668E+03  0.45306465774E+03  0.25500000920E-02 0.  1.
       -2    1    3    3    0  502 -0.30412581074E+02 -0.19075176971E+03  0.40637343029E+03  0.44994502729E+03  0.25500000920E-02 0. -1.
</event>
<event>
 5   0  0.1459111E-02  0.9295252E+03  0.7818609E-02  0.9389408E-01
       -1   -1    0    0    0  501  0.00000000000E+00  0.00000000000E+00  0.27751701369E+03  0.27751701374E+03  0.50400001928E-02 0.  1.
        1   -1    0    0  501    0  0.00000000000E+00  0.00000000000E+00 -0.77834609586E+03  0.77834609588E+03  0.50400001928E-02 0. -1.
    10030    2    1    2    0    0  0.00000000000E+00  0.00000000000E+00 -0.50082908217E+03  0.10558631096E+04  0.92952522112E+03 0.  0.
        2    1    3    3  502    0  0.92472461625E+01 -0.46061884463E+03 -0.31996615370E+03  0.56092207223E+03  0.25500000920E-02 0.  1.
       -2    1    3    3    0  502 -0.92472461625E+01  0.46061884463E+03 -0.18086292847E+03  0.49494103739E+03  0.25500000920E-02 0. -1.
</event>
<event>
 5   0  0.1497410E-02  0.9035918E+03  0.7818609E-02  0.9421103E-01
        1   -1    0    0  501    0  0.00000000000E+00  0.00000000000E+00  0.43898007353E+03  0.43898007356E+03  0.50400001928E-02 0. -1.
       -1   -1    0    0    0  501  0.00000000000E+00  0.00000000000E+00 -0.46498592898E+03  0.46498592901E+03  0.50400001928E-02 0.  1.
    10030    2    1    2    0    0  0.00000000000E+00  0.00000000000E+00 -0.26005855452E+02  0.90396600257E+03  0.90359184884E+03 0.  0.
        3    1    3    3  502    0 -0.48538077128E+02  0.43251358545E+03 -0.13427853632E+03  0.45547193332E+03  0.10100000352E+00 0. -1.
       -3    1    3    3    0  502  0.48538077128E+02 -0.43251358545E+03  0.10827268087E+03  0.44849406925E+03  0.10100000352E+00 0.  1.
</event>
<event>
 5   0  0.2679861E-02  0.8633629E+03  0.7818609E-02  0.9472575E-01
       -2   -1    0    0    0  501  0.00000000000E+00  0.00000000000E+00  0.12194522310E+03  0.12194522313E+03  0.25500000920E-02 0.  1.
        2   -1    0    0  501    0  0.00000000000E+00  0.00000000000E+00 -0.15281359867E+04  0.15281359867E+04  0.25500000920E-02 0. -1.
    10030    2    1    2    0    0  0.00000000000E+00  0.00000000000E+00 -0.14061907636E+04  0.16500812098E+04  0.86336292219E+03 0.  0.
        1    1    3    3  502    0  0.16349162191E+03 -0.25014731374E+03 -0.12984833611E+04  0.13324271943E+04  0.50400001928E-02 0. -1.
       -1    1    3    3    0  502 -0.16349162191E+03  0.25014731374E+03 -0.10770740249E+03  0.31765401554E+03  0.50400001928E-02 0.  1.
</event>
<event>
 5   0  0.1040163E-02  0.9028730E+03  0.7818609E-02  0.9421997E-01
       -3   -1    0    0    0  501  0.00000000000E+00  0.00000000000E+00  0.14014930338E+04  0.14014930374E+04  0.10100000352E+00 0. -1.
        3   -1    0    0  501    0  0.00000000000E+00  0.00000000000E+00 -0.14541269608E+03  0.14541273115E+03  0.10100000352E+00 0.  1.
    10030    2    1    2    0    0  0.00000000000E+00  0.00000000000E+00  0.12560803377E+04  0.15469057686E+04  0.90287299332E+03 0.  0.
        1    1    3    3  502    0 -0.26536807472E+03 -0.16691938384E+03  0.71509132241E+02  0.32155225362E+03  0.50400001928E-02 0.  1.
       -1    1    3    3    0  502  0.26536807472E+03  0.16691938384E+03  0.11845712054E+04  0.12253535149E+04  0.50400001928E-02 0. -1.
</event>
<event>
 5   0  0.2705111E-02  0.8477641E+03  0.7818609E-02  0.9493343E-01
       -2   -1    0    0    0  501  0.00000000000E+00  0.00000000000E+00  0.42207466057E+03  0.42207466057E+03  0.25500000920E-02 0.  1.
        2   -1    0    0  501    0  0.00000000000E+00  0.00000000000E+00 -0.42569716722E+03  0.42569716723E+03  0.25500000920E-02 0. -1.
    10030    2    1    2    0    0  0.00000000000E+00  0.00000000000E+00 -0.36225066565E+01  0.84777182780E+03  0.84776408833E+03 0.  0.
        4    1    3    3  502    0 -0.17374246476E+03  0.37436264433E+02 -0.38663479778E+03  0.42553025476E+03  0.12699999809E+01 0. -1.
       -4    1    3    3    0  502  0.17374246476E+03 -0.37436264433E+02  0.38301229113E+03  0.42224157305E+03  0.12699999809E+01 0.  1.
</event>
<event>
 5   0  0.1559275E-02  0.8794117E+03  0.7818609E-02  0.9451690E-01
        1   -1    0    0  501    0  0.00000000000E+00  0.00000000000E+00  0.81519981383E+03  0.81519981385E+03  0.50400001928E-02 0. -1.
       -1   -1    0    0    0  501  0.00000000000E+00  0.00000000000E+00 -0.23717034726E+03  0.23717034731E+03  0.50400001928E-02 0.  1.
    10030    2    1    2    0    0  0.00000000000E+00  0.00000000000E+00  0.57802946657E+03  0.10523701612E+04  0.87941167372E+03 0.  0.
        1    1    3    3  502    0 -0.33027314394E+03 -0.27305066513E+03  0.40689913365E+03  0.59093478517E+03  0.50400001928E-02 0. -1.
       -1    1    3    3    0  502  0.33027314394E+03  0.27305066513E+03  0.17113033293E+03  0.46143537599E+03  0.50400001928E-02 0.  1.
</event>
<event>
 5   0  0.2679861E-02  0.9030276E+03  0.7818609E-02  0.9421805E-01
       -2   -1    0    0    0  501  0.00000000000E+00  0.00000000000E+00  0.10882198661E+03  0.10882198664E+03  0.25500000920E-02 0.  1.
        2   -1    0    0  501    0  0.00000000000E+00  0.00000000000E+00 -0.18733779154E+04  0.18733779154E+04  0.25500000920E-02 0. -1.
    10030    2    1    2    0    0  0.00000000000E+00  0.00000000000E+00 -0.17645559288E+04  0.19821999020E+04  0.90302758864E+03 0.  0.
        1    1    3    3  502    0  0.59301137523E+01  0.27501512423E+03 -0.16682082856E+04  0.16907357478E+04  0.50400001928E-02 0. -1.
       -1    1    3    3    0  502 -0.59301137523E+01 -0.27501512423E+03 -0.96347643141E+02  0.29146415417E+03  0.50400001928E-02 0.  1.
</event>
<event>
 5   0  0.1040163E-02  0.9110509E+03  0.7818609E-02  0.9411872E-01
       -3   -1    0    0    0  501  0.00000000000E+00  0.00000000000E+00  0.99912045527E+03  0.99912046038E+03  0.10100000352E+00 0.  1.
        3   -1    0    0  501    0  0.00000000000E+00  0.00000000000E+00 -0.20768609197E+03  0.20768611652E+03  0.10100000352E+00 0. -1.
    10030    2    1    2    0    0  0.00000000000E+00  0.00000000000E+00  0.79143436331E+03  0.12068065769E+04  0.91105091111E+03 0.  0.
        3    1    3    3  502    0 -0.43716966266E+03 -0.61434565813E+02  0.24695742343E+03  0.50584533112E+03  0.10100000352E+00 0.  1.
       -3    1    3    3    0  502  0.43716966266E+03  0.61434565813E+02  0.54447693988E+03  0.70096124579E+03  0.10100000352E+00 0. -1.
</event>
<event>
 5   0  0.2705111E-02  0.8706415E+03  0.7818609E-02  0.9463044E-01
       -2   -1    0    0    0  501  0.00000000000E+00  0.00000000000E+00  0.11169567799E+03  0.11169567802E+03  0.25500000920E-02 0. -1.
        2   -1    0    0  501    0  0.00000000000E+00  0.00000000000E+00 -0.16966112668E+04  0.16966112668E+04  0.25500000920E-02 0.  1.
    10030    2    1    2    0    0  0.00000000000E+00  0.00000000000E+00 -0.15849155888E+04  0.18083069449E+04  0.87064147792E+03 0.  0.
        4    1    3    3  502    0  0.39650403078E+03  0.17202104033E+03 -0.68461763826E+03  0.80963547863E+03  0.12699999809E+01 0.  1.
       -4    1    3    3    0  502 -0.39650403078E+03 -0.17202104033E+03 -0.90029795058E+03  0.99867146623E+03  0.12699999809E+01 0. -1.
</event>
<event>
 5   0  0.2803717E-02  0.8850362E+03  0.7818609E-02  0.9444483E-01
        2   -1    0    0  501    0  0.00000000000E+00  0.00000000000E+00  0.69433417704E+03  0.69433417704E+03  0.25500000920E-02 0.  1.
       -2   -1    0    0    0  501  0.00000000000E+00  0.00000000000E+00 -0.28202884958E+03  0.28202884960E+03  0.25500000920E-02 0. -1.
    10030    2    1    2    0    0  0.00000000000E+00  0.00000000000E+00  0.41230532745E+03  0.97636302664E+03  0.88503620081E+03 0.  0.
        5    1    3    3  502    0  0.35102733429E+03 -0.20659799553E+03  0.15402038743E+02  0.40763002094E+03  0.46999998093E+01 0. -1.
       -5    1    3    3    0  502 -0.35102733429E+03  0.20659799553E+03  0.39690328871E+03  0.56873300569E+03  0.46999998093E+01 0.  1.
</event>
<event>
 5   0  0.2679861E-02  0.8960447E+03  0.7818609E-02  0.9430539E-01
        2   -1    0    0  501    0  0.00000000000E+00  0.00000000000E+00  0.10792729055E+04  0.10792729055E+04  0.25500000920E-02 0. -1.
       -2   -1    0    0    0  501  0.00000000000E+00  0.00000000000E+00 -0.18598078594E+03  0.18598078596E+03  0.25500000920E-02 0.  1.
    10030    2    1    2    0    0  0.00000000000E+00  0.00000000000E+00  0.89329211958E+03  0.12652536915E+04  0.89604469358E+03 0.  0.
        1    1    3    3  502    0  0.15255272028E+03 -0.22474150198E+02 -0.14733015708E+03  0.21326883294E+03  0.50400001928E-02 0.  1.
       -1    1    3    3    0  502 -0.15255272028E+03  0.22474150198E+02  0.10406222767E+04  0.10519848585E+04  0.50400001928E-02 0. -1.
</event>
<event>
 5   0  0.2803717E-02  0.9045918E+03  0.7818609E-02  0.9419860E-01
       -2   -1    0    0    0  501  0.00000000000E+00  0.00000000000E+00  0.21687089835E+03  0.21687089837E+03  0.25500000920E-02 0.  1.
        2   -1    0    0  501    0  0.00000000000E+00  0.00000000000E+00 -0.94328730343E+03  0.94328730343E+03  0.25500000920E-02 0. -1.
    10030    2    1    2    0    0  0.00000000000E+00  0.00000000000E+00 -0.72641640508E+03  0.11601582018E+04  0.90459176408E+03 0.  0.
        5    1    3    3  502    0  0.29006596049E+03  0.33966722176E+03 -0.45423462129E+03  0.63707398640E+03  0.46999998093E+01 0. -1.
       -5    1    3    3    0  502 -0.29006596049E+03 -0.33966722176E+03 -0.27218178379E+03  0.52308421540E+03  0.46999998093E+01 0.  1.
</event>
<event>
 5   0  0.2679861E-02  0.9005167E+03  0.7818609E-02  0.9424936E-01
        2   -1    0    0  501    0  0.00000000000E+00  0.00000000000E+00  0.81360115896E+03  0.81360115896E+03  0.25500000920E-02 0. -1.
       -2   -1    0    0    0  501  0.00000000000E+00  0.00000000000E+00 -0.24917931675E+03  0.24917931676E+03  0.25500000920E-02 0.  1.
    10030    2    1    2    0    0  0.00000000000E+00  0.00000000000E+00  0.56442184221E+03  0.10627804757E+04  0.90051669813E+03 0.  0.
        1    1    3    3  502    0  0.36040753616E+03 -0.26637122642E+03  0.33345559905E+03  0.55860528009E+03  0.50400001928E-02 0.  1.
       -1    1    3    3    0  502 -0.36040753616E+03  0.26637122642E+03  0.23096624316E+03  0.50417519563E+03  0.50400001928E-02 0. -1.
</event>
<event>
 5   0  0.1560728E-02  0.8766845E+03  0.7818609E-02  0.9455206E-01
       -1   -1    0    0    0  501  0.00000000000E+00  0.00000000000E+00  0.93873489638E+03  0.93873489639E+03  0.50400001928E-02 0. -1.
        1   -1    0    0  501    0  0.00000000000E+00  0.00000000000E+00 -0.20468391911E+03  0.20468391918E+03  0.50400001928E-02 0.  1.
    10030    2    1    2    0    0  0.00000000000E+00  0.00000000000E+00  0.73405097726E+03  0.11434188156E+04  0.87668452169E+03 0.  0.
        4    1    3    3  502    0 -0.34062340527E+03  0.24571043920E+03  0.20337207781E+03  0.46664733909E+03  0.12699999809E+01 0. -1.
       -4    1    3    3    0  502  0.34062340527E+03 -0.24571043920E+03  0.53067889945E+03  0.67677147647E+03  0.12699999809E+01 0.  1.
</event>
<event>
 5   0  0.1497410E-02  0.9080289E+03  0.7818609E-02  0.9415600E-01
        1   -1    0    0  501    0  0.00000000000E+00  0.00000000000E+00  0.87767647430E+03  0.87767647432E+03  0.50400001928E-02 0.  1.
       -1   -1    0    0    0  501  0.00000000000E+00  0.00000000000E+00 -0.23485773256E+03  0.23485773262E+03  0.50400001928E-02 0. -1.
    10030    2    1    2    0    0  0.00000000000E+00  0.00000000000E+00  0.64281874174E+03  0.11125342069E+04  0.90802886896E+03 0.  0.
        3    1    3    3  502    0  0.36075332587E+02 -0.58413325717E+02 -0.22846086899E+03  0.23855382014E+03  0.10100000352E+00 0. -1.
       -3    1    3    3    0  502 -0.36075332587E+02  0.58413325717E+02  0.87127961072E+03  0.87398038680E+03  0.10100000352E+00 0.  1.
</event>
<event>
 5   0  0.2679861E-02  0.8902338E+03  0.7818609E-02  0.9437873E-01
        2   -1    0    0  501    0  0.00000000000E+00  0.00000000000E+00  0.13175032049E+04  0.13175032049E+04  0.25500000920E-02 0. -1.
       -2   -1    0    0    0  501  0.00000000000E+00  0.00000000000E+00 -0.15038222600E+03  0.15038222602E+03  0.25500000920E-02 0.  1.
    10030    2    1    2    0    0  0.00000000000E+00  0.00000000000E+00  0.11671209789E+04  0.14678854309E+04  0.89023382260E+03 0.  0.
        1    1    3    3  502    0 -0.37893166556E+03 -0.22289878760E+03  0.46865867862E+03  0.64258387293E+03  0.50400001928E-02 0.  1.
       -1    1    3    3    0  502  0.37893166556E+03  0.22289878760E+03  0.69846230023E+03  0.82530155795E+03  0.50400001928E-02 0. -1.
</event>
<event>
 5   0  0.1459111E-02  0.6932283E+03  0.7818609E-02  0.9728883E-01
        1   -1    0    0  501    0  0.00000000000E+00  0.00000000000E+00  0.20405555715E+03  0.20405555721E+03  0.50400001928E-02 0. -1.
       -1   -1    0    0    0  501  0.00000000000E+00  0.00000000000E+00 -0.58876787501E+03  0.58876787503E+03  0.50400001928E-02 0.  1.
    10030    2    1    2    0    0  0.00000000000E+00  0.00000000000E+00 -0.38471231786E+03  0.79282343224E+03  0.69322826486E+03 0.  0.
        2    1    3    3  502    0 -0.18335157164E+03  0.27174109867E+03 -0.32114123819E+03  0.45890382260E+03  0.25500000920E-02 0.  1.
       -2    1    3    3    0  502  0.18335157164E+03 -0.27174109867E+03 -0.63571079676E+02  0.33391960964E+03  0.25500000920E-02 0. -1.
</event>
<event>
 5   0  0.2628383E-02  0.9088170E+03  0.7818609E-02  0.9414626E-01
        2   -1    0    0  501    0  0.00000000000E+00  0.00000000000E+00  0.92593091805E+03  0.92593091806E+03  0.25500000920E-02 0. -1.
       -2   -1    0    0    0  501  0.00000000000E+00  0.00000000000E+00 -0.22300483975E+03  0.22300483976E+03  0.25500000920E-02 0.  1.
    10030    2    1    2    0    0  0.00000000000E+00  0.00000000000E+00  0.70292607830E+03  0.11489357578E+04  0.90881698049E+03 0.  0.
        2    1    3    3  502    0  0.72971960703E+02 -0.23578072372E+03  0.83380460198E+03  0.86956746203E+03  0.25500000920E-02 0. -1.
       -2    1    3    3    0  502 -0.72971960703E+02  0.23578072372E+03 -0.13087852367E+03  0.27936829579E+03  0.25500000920E-02 0.  1.
</event>
<event>
 5   0  0.1560728E-02  0.8382315E+03  0.7818609E-02  0.9506270E-01
        1   -1    0    0  501    0  0.00000000000E+00  0.00000000000E+00  0.27757800212E+03  0.27757800217E+03  0.50400001928E-02 0.  1.
       -1   -1    0    0    0  501  0.00000000000E+00  0.00000000000E+00 -0.63282396636E+03  0.63282396638E+03  0.50400001928E-02 0. -1.
    10030    2    1    2    0    0  0.00000000000E+00  0.00000000000E+00 -0.35524596424E+03  0.91040196855E+03  0.83823150098E+03 0.  0.
        4    1    3    3  502    0  0.36116513570E+03  0.16437596584E+03 -0.31113625546E+02  0.39803188816E+03  0.12699999809E+01 0.  1.
       -4    1    3    3    0  502 -0.36116513570E+03 -0.16437596584E+03 -0.32413233869E+03  0.51237008039E+03  0.12699999809E+01 0. -1.
</event>
<event>
 5   0  0.2803717E-02  0.9140000E+03  0.7818609E-02  0.9408248E-01
        2   -1    0    0  501    0  0.00000000000E+00  0.00000000000E+00  0.42949062369E+03  0.42949062370E+03  0.25500000920E-02 0.  1.
       -2   -1    0    0    0  501  0.00000000000E+00  0.00000000000E+00 -0.48627134006E+03  0.48627134006E+03  0.25500000920E-02 0. -1.
    10030    2    1    2    0    0  0.00000000000E+00  0.00000000000E+00 -0.56780716363E+02  0.91576196376E+03  0.91399995871E+03 0.  0.
        5    1    3    3  502    0  0.42915455015E+03 -0.53112887435E+02 -0.17643272342E+03  0.46706017023E+03  0.46999998093E+01 0. -1.
       -5    1    3    3    0  502 -0.42915455015E+03  0.53112887435E+02  0.11965200706E+03  0.44870179353E+03  0.46999998093E+01 0.  1.
</event>
<event>
 5   0  0.1560728E-02  0.8943670E+03  0.7818609E-02  0.9432650E-01
       -1   -1    0    0    0  501  0.00000000000E+00  0.00000000000E+00  0.26957842112E+03  0.26957842116E+03  0.50400001928E-02 0. -1.
        1   -1    0    0  501    0  0.00000000000E+00  0.00000000000E+00 -0.74179927723E+03  0.74179927724E+03  0.50400001928E-02 0.  1.
    10030    2    1    2    0    0  0.00000000000E+00  0.00000000000E+00 -0.47222085611E+03  0.10113776984E+04  0.89436698949E+03 0.  0.
        4    1    3    3  502    0  0.41191147959E+03 -0.92470500608E+02 -0.40288248847E+03  0.58355614375E+03  0.12699999809E+01 0. -1.
       -4    1    3    3    0  502 -0.41191147959E+03  0.92470500608E+02 -0.69338367644E+02  0.42782155465E+03  0.12699999809E+01 0.  1.
</event>
<event>
 5   0  0.2679861E-02  0.9086551E+03  0.7818609E-02  0.9414826E-01
        2   -1    0    0  501    0  0.00000000000E+00  0.00000000000E+00  0.10054650762E+04  0.10054650762E+04  0.25500000920E-02 0. -1.
       -2   -1    0    0    0  501  0.00000000000E+00  0.00000000000E+00 -0.20529159858E+03  0.20529159860E+03  0.25500000920E-02 0.  1.
    10030    2    1    2    0    0  0.00000000000E+00  0.00000000000E+00  0.80017347762E+03  0.12107566748E+04  0.90865512230E+03 0.  0.
        1    1    3    3  502    0  0.96470748681E+02  0.88576844118E+00 -0.19148561875E+03  0.21441579268E+03  0.50400001928E-02 0.  1.
       -1    1    3    3    0  502 -0.96470748681E+02 -0.88576844118E+00  0.99165909637E+03  0.99634088212E+03  0.50400001928E-02 0. -1.
</event>
<event>
 5   0  0.1459111E-02  0.9034382E+03  0.7818609E-02  0.9421294E-01
        1   -1    0    0  501    0  0.00000000000E+00  0.00000000000E+00  0.11822307352E+04  0.11822307352E+04  0.50400001928E-02 0. -1.
       -1   -1    0    0    0  501  0.00000000000E+00  0.00000000000E+00 -0.17259757764E+03  0.17259757771E+03  0.50400001928E-02 0.  1.
    10030    2    1    2    0    0  0.00000000000E+00  0.00000000000E+00  0.10096331575E+04  0.13548283129E+04  0.90343823510E+03 0.  0.
        2    1    3    3  502    0 -0.15536169499E+03 -0.27611823494E+03  0.21962670978E+02  0.31758604324E+03  0.25500000920E-02 0.  1.
       -2    1    3    3    0  502  0.15536169499E+03  0.27611823494E+03  0.98767048657E+03  0.10372422697E+04  0.25500000920E-02 0. -1.
</event>
<event>
 5   0  0.1459111E-02  0.9055708E+03  0.7818609E-02  0.9418644E-01
        1   -1    0    0  501    0  0.00000000000E+00  0.00000000000E+00  0.50230204010E+03  0.50230204012E+03  0.50400001928E-02 0.  1.
       -1   -1    0    0    0  501  0.00000000000E+00  0.00000000000E+00 -0.40815005624E+03  0.40815005628E+03  0.50400001928E-02 0. -1.
    10030    2    1    2    0    0  0.00000000000E+00  0.00000000000E+00  0.94151983854E+02  0.91045209640E+03  0.90557077237E+03 0.  0.
        2    1    3    3  502    0  0.26852573234E+03  0.22290494074E+03 -0.24296112553E+03  0.42523263053E+03  0.25500000920E-02 0. -1.
       -2    1    3    3    0  502 -0.26852573234E+03 -0.22290494074E+03  0.33711310939E+03  0.48521946588E+03  0.25500000920E-02 0.  1.
</event>
<event>
 5   0  0.1497410E-02  0.8985352E+03  0.7818609E-02  0.9427414E-01
       -1   -1    0    0    0  501  0.00000000000E+00  0.00000000000E+00  0.25042899401E+03  0.25042899406E+03  0.50400001928E-02 0. -1.
        1   -1    0    0  501    0  0.00000000000E+00  0.00000000000E+00 -0.80598249422E+03  0.80598249424E+03  0.50400001928E-02 0.  1.
    10030    2    1    2    0    0  0.00000000000E+00  0.00000000000E+00 -0.55555350021E+03  0.10564114883E+04  0.89853521968E+03 0.  0.
        3    1    3    3  502    0  0.63605365416E+02 -0.18898915414E+03 -0.75110362091E+03  0.77712238576E+03  0.10100000352E+00 0.  1.
       -3    1    3    3    0  502 -0.63605365416E+02  0.18898915414E+03  0.19555012070E+03  0.27928910254E+03  0.10100000352E+00 0. -1.
</event>
<event>
 5   0  0.1537870E-02  0.8903834E+03  0.7818609E-02  0.9437683E-01
       -1   -1    0    0    0  501  0.00000000000E+00  0.00000000000E+00  0.59683542196E+03  0.59683542198E+03  0.50400001928E-02 0.  1.
        1   -1    0    0  501    0  0.00000000000E+00  0.00000000000E+00 -0.33207755836E+03  0.33207755840E+03  0.50400001928E-02 0. -1.
    10030    2    1    2    0    0  0.00000000000E+00  0.00000000000E+00  0.26475786360E+03  0.92891298038E+03  0.89038339988E+03 0.  0.
        5    1    3    3  502    0  0.30159035660E+03 -0.98825184345E+02 -0.19330009299E+03  0.37163177502E+03  0.46999998093E+01 0. -1.
       -5    1    3    3    0  502 -0.30159035660E+03  0.98825184345E+02  0.45805795659E+03  0.55728120536E+03  0.46999998093E+01 0.  1.
</event>
<event>
 5   0  0.1560728E-02  0.8747861E+03  0.7818609E-02  0.9457661E-01
        1   -1    0    0  501    0  0.00000000000E+00  0.00000000000E+00  0.51032828919E+03  0.51032828921E+03  0.50400001928E-02 0. -1.
       -1   -1    0    0    0  501  0.00000000000E+00  0.00000000000E+00 -0.37488157099E+03  0.37488157103E+03  0.50400001928E-02 0.  1.
    10030    2    1    2    0    0  0.00000000000E+00  0.00000000000E+00  0.13544671819E+03  0.88520986024E+03  0.87478607853E+03 0.  0.
        4    1    3    3  502    0 -0.22949747218E+03  0.21843580740E+02 -0.30841110404E+03  0.38505227405E+03  0.12699999809E+01 0.  1.
       -4    1    3    3    0  502  0.22949747218E+03 -0.21843580740E+02  0.44385782224E+03  0.50015758618E+03  0.12699999809E+01 0. -1.
</event>
<event>
 5   0  0.2705111E-02  0.8857822E+03  0.7818609E-02  0.9443531E-01
        2   -1    0    0  501    0  0.00000000000E+00  0.00000000000E+00  0.16966253158E+04  0.16966253158E+04  0.25500000920E-02 0. -1.
       -2   -1    0    0    0  501  0.00000000000E+00  0.00000000000E+00 -0.11561334980E+03  0.11561334983E+03  0.25500000920E-02 0.  1.
    10030    2    1    2    0    0  0.00000000000E+00  0.00000000000E+00  0.15810119660E+04  0.18122386657E+04  0.88578222186E+03 0.  0.
        4    1    3    3  502    0  0.21962297466E+03 -0.46608743422E+02  0.15715656609E+04  0.15875222409E+04  0.12699999809E+01 0. -1.
       -4    1    3    3    0  502 -0.21962297466E+03  0.46608743422E+02  0.94463051062E+01  0.22471642472E+03  0.12699999809E+01 0.  1.
</event>
<event>
 5   0  0.2679861E-02  0.8329572E+03  0.7818609E-02  0.9513501E-01
        2   -1    0    0  501    0  0.00000000000E+00  0.00000000000E+00  0.68818437973E+03  0.68818437973E+03  0.25500000920E-02 0.  1.
       -2   -1    0    0    0  501  0.00000000000E+00  0.00000000000E+00 -0.25204642692E+03  0.25204642693E+03  0.25500000920E-02 0. -1.
    10030    2    1    2    0    0  0.00000000000E+00  0.00000000000E+00  0.43613795281E+03  0.94023080666E+03  0.83295717532E+03 0.  0.
        1    1    3    3  502    0  0.41576051471E+03 -0.63543332038E+01  0.19142313966E+03  0.45775539491E+03  0.50400001928E-02 0. -1.
       -1    1    3    3    0  502 -0.41576051471E+03  0.63543332038E+01  0.24471481316E+03  0.48247541175E+03  0.50400001928E-02 0.  1.
</event>
<event>
 5   0  0.2803717E-02  0.1099550E+04  0.7818609E-02  0.9205630E-01
        2   -1    0    0  501    0  0.00000000000E+00  0.00000000000E+00  0.31835969314E+03  0.31835969315E+03  0.25500000920E-02 0. -1.
       -2   -1    0    0    0  501  0.00000000000E+00  0.00000000000E+00 -0.94940651766E+03  0.94940651766E+03  0.25500000920E-02 0.  1.
    10030    2    1    2    0    0  0.00000000000E+00  0.00000000000E+00 -0.63104682452E+03  0.12677662108E+04  0.10995503947E+04 0.  0.
        5    1    3    3  502    0 -0.10973770842E+03 -0.30139502096E+02 -0.93565403904E+03  0.94256104577E+03  0.46999998093E+01 0.  1.
       -5    1    3    3    0  502  0.10973770842E+03  0.30139502096E+02  0.30460721452E+03  0.32520516505E+03  0.46999998093E+01 0. -1.
</event>
<event>
 5   0  0.2628383E-02  0.9131767E+03  0.7818609E-02  0.9409258E-01
        2   -1    0    0  501    0  0.00000000000E+00  0.00000000000E+00  0.20562834527E+04  0.20562834527E+04  0.25500000920E-02 0. -1.
       -2   -1    0    0    0  501  0.00000000000E+00  0.00000000000E+00 -0.10138335665E+03  0.10138335669E+03  0.25500000920E-02 0.  1.
    10030    2    1    2    0    0  0.00000000000E+00  0.00000000000E+00  0.19549000961E+04  0.21576668094E+04  0.91317669420E+03 0.  0.
        2    1    3    3  502    0 -0.25325829595E+03  0.15540003709E+03  0.15831999911E+03  0.33668109261E+03  0.25500000920E-02 0.  1.
       -2    1    3    3    0  502  0.25325829595E+03 -0.15540003709E+03  0.17965800970E+04  0.18209857168E+04  0.25500000920E-02 0. -1.
</event>
<event>
 5   0  0.1459111E-02  0.9138065E+03  0.7818609E-02  0.9408485E-01
        1   -1    0    0  501    0  0.00000000000E+00  0.00000000000E+00  0.45838710876E+03  0.45838710878E+03  0.50400001928E-02 0.  1.
       -1   -1    0    0    0  501  0.00000000000E+00  0.00000000000E+00 -0.45542423765E+03  0.45542423767E+03  0.50400001928E-02 0. -1.
    10030    2    1    2    0    0  0.00000000000E+00  0.00000000000E+00  0.29628711088E+01  0.91381134646E+03  0.91380654315E+03 0.  0.
        2    1    3    3  502    0  0.26165377074E+03  0.15452224349E+03  0.34268812365E+03  0.45801197536E+03  0.25500000920E-02 0.  1.
       -2    1    3    3    0  502 -0.26165377074E+03 -0.15452224349E+03 -0.33972525254E+03  0.45579937110E+03  0.25500000920E-02 0. -1.
</event>
<event>
 5   0  0.1559275E-02  0.9814807E+03  0.7818609E-02  0.9329093E-01
       -1   -1    0    0    0  501  0.00000000000E+00  0.00000000000E+00  0.40675021260E+03  0.40675021263E+03  0.50400001928E-02 0.  1.
        1   -1    0    0  501    0  0.00000000000E+00  0.00000000000E+00 -0.59207367824E+03  0.59207367826E+03  0.50400001928E-02 0. -1.
    10030    2    1    2    0    0  0.00000000000E+00  0.00000000000E+00 -0.18532346564E+03  0.99882389089E+03  0.98148070694E+03 0.  0.
        1    1    3    3  502    0  0.29170893399E+03  0.27786150299E+02 -0.49326717926E+03  0.57374095416E+03  0.50400001928E-02 0. -1.
       -1    1    3    3    0  502 -0.29170893399E+03 -0.27786150299E+02  0.30794371362E+03  0.42508293673E+03  0.50400001928E-02 0.  1.
</event>
<event>
 5   0  0.2803717E-02  0.8684587E+03  0.7818609E-02  0.9465892E-01
       -2   -1    0    0    0  501  0.00000000000E+00  0.00000000000E+00  0.34971643067E+03  0.34971643068E+03  0.25500000920E-02 0.  1.
        2   -1    0    0  501    0  0.00000000000E+00  0.00000000000E+00 -0.53916573027E+03  0.53916573028E+03  0.25500000920E-02 0. -1.
    10030    2    1    2    0    0  0.00000000000E+00  0.00000000000E+00 -0.18944929960E+03  0.88888216096E+03  0.86845866853E+03 0.  0.
        5    1    3    3  502    0 -0.12423533304E+03  0.29026142861E+03  0.21035707961E+03  0.37941837838E+03  0.46999998093E+01 0.  1.
       -5    1    3    3    0  502  0.12423533304E+03 -0.29026142861E+03 -0.39980637920E+03  0.50946378258E+03  0.46999998093E+01 0. -1.
</event>
<event>
 5   0  0.2679861E-02  0.8879793E+03  0.7818609E-02  0.9440734E-01
       -2   -1    0    0    0  501  0.00000000000E+00  0.00000000000E+00  0.40352275013E+03  0.40352275013E+03  0.25500000920E-02 0. -1.
        2   -1    0    0  501    0  0.00000000000E+00  0.00000000000E+00 -0.48851469770E+03  0.48851469771E+03  0.25500000920E-02 0.  1.
    10030    2    1    2    0    0  0.00000000000E+00  0.00000000000E+00 -0.84991947576E+02  0.89203744784E+03  0.88797926620E+03 0.  0.
        1    1    3    3  502    0 -0.52075110022E+02 -0.24792943886E+02  0.39974346394E+03  0.40388283467E+03  0.50400001928E-02 0. -1.
       -1    1    3    3    0  502  0.52075110022E+02  0.24792943886E+02 -0.48473541152E+03  0.48815461317E+03  0.50400001928E-02 0.  1.
</event>
<event>
 5   0  0.1537870E-02  0.8697413E+03  0.7818609E-02  0.9464217E-01
       -1   -1    0    0    0  501  0.00000000000E+00  0.00000000000E+00  0.99305140396E+03  0.99305140397E+03  0.50400001928E-02 0.  1.
        1   -1    0    0  501    0  0.00000000000E+00  0.00000000000E+00 -0.19043575719E+03  0.19043575725E+03  0.50400001928E-02 0. -1.
    10030    2    1    2    0    0  0.00000000000E+00  0.00000000000E+00  0.80261564677E+03  0.11834871612E+04  0.86974133186E+03 0.  0.
        5    1    3    3  502    0 -0.38093874397E+03 -0.19462514847E+03  0.29505604556E+03  0.51968590041E+03  0.46999998093E+01 0.  1.
       -5    1    3    3    0  502  0.38093874397E+03  0.19462514847E+03  0.50755960121E+03  0.66380126081E+03  0.46999998093E+01 0. -1.
</event>
<event>
 5   0  0.1559275E-02  0.8784086E+03  0.7818609E-02  0.9452982E-01
       -1   -1    0    0    0  501  0.00000000000E+00  0.00000000000E+00  0.26583731761E+03  0.26583731766E+03  0.50400001928E-02 0. -1.
        1   -1    0    0  501    0  0.00000000000E+00  0.00000000000E+00 -0.72563324459E+03  0.72563324461E+03  0.50400001928E-02 0.  1.
    10030    2    1    2    0    0  0.00000000000E+00  0.00000000000E+00 -0.45979592698E+03  0.99147056227E+03  0.87840855038E+03 0.  0.
        1    1    3    3  502    0  0.23894465856E+03  0.30952418556E+03 -0.45564219049E+03  0.60042449740E+03  0.50400001928E-02 0.  1.
       -1    1    3    3    0  502 -0.23894465856E+03 -0.30952418556E+03 -0.41537364840E+01  0.39104606487E+03  0.50400001928E-02 0. -1.
</event>
<event>
 5   0  0.2803717E-02  0.9063556E+03  0.7818609E-02  0.9417671E-01
        2   -1    0    0  501    0  0.00000000000E+00  0.00000000000E+00  0.88760946949E+03  0.88760946949E+03  0.25500000920E-02 0. -1.
       -2   -1    0    0    0  501  0.00000000000E+00  0.00000000000E+00 -0.23137443246E+03  0.23137443248E+03  0.25500000920E-02 0.  1.
    10030    2    1    2    0    0  0.00000000000E+00  0.00000000000E+00  0.65623503702E+03  0.11189839020E+04  0.90635564159E+03 0.  0.
        5    1    3    3  502    0  0.14909142060E+03  0.39655105662E+03  0.12955435193E+03  0.44304335262E+03  0.46999998093E+01 0.  1.
       -5    1    3    3    0  502 -0.14909142060E+03 -0.39655105662E+03  0.52668068509E+03  0.67594054934E+03  0.46999998093E+01 0. -1.
</event>
<event>
 5   0  0.1497410E-02  0.9614121E+03  0.7818609E-02  0.9351910E-01
        1   -1    0    0  501    0  0.00000000000E+00  0.00000000000E+00  0.16836472160E+03  0.16836472168E+03  0.50400001928E-02 0.  1.
       -1   -1    0    0    0  501  0.00000000000E+00  0.00000000000E+00 -0.13724866214E+04  0.13724866215E+04  0.50400001928E-02 0. -1.
    10030    2    1    2    0    0  0.00000000000E+00  0.00000000000E+00 -0.12041218998E+04  0.15408513431E+04  0.96141214469E+03 0.  0.
        3    1    3    3  502    0 -0.22010855709E+03 -0.41998063124E+03 -0.47538904694E+03  0.67143597138E+03  0.10100000352E+00 0.  1.
       -3    1    3    3    0  502  0.22010855709E+03  0.41998063124E+03 -0.72873285291E+03  0.86941537175E+03  0.10100000352E+00 0. -1.
</event>
<event>
 5   0  0.2414128E-02  0.4572365E+03  0.7818609E-02  0.1025586E+00
        2   -1    0    0  501    0  0.00000000000E+00  0.00000000000E+00  0.12014042021E+03  0.12014042024E+03  0.25500000920E-02 0.  1.
       -2   -1    0    0    0  501  0.00000000000E+00  0.00000000000E+00 -0.43504352278E+03  0.43504352279E+03  0.25500000920E-02 0. -1.
    10030    2    1    2    0    0  0.00000000000E+00  0.00000000000E+00 -0.31490310257E+03  0.55518394302E+03  0.45723653242E+03 0.  0.
        3    1    3    3  502    0  0.50756506556E+02  0.35702296654E+02 -0.42462164730E+03  0.42913218301E+03  0.10100000352E+00 0. -1.
       -3    1    3    3    0  502 -0.50756506556E+02 -0.35702296654E+02  0.10971854473E+03  0.12605176001E+03  0.10100000352E+00 0.  1.
</event>
<event>
 5   0  0.1459111E-02  0.8950339E+03  0.7818609E-02  0.9431811E-01
        1   -1    0    0  501    0  0.00000000000E+00  0.00000000000E+00  0.66531207039E+03  0.66531207040E+03  0.50400001928E-02 0.  1.
       -1   -1    0    0    0  501  0.00000000000E+00  0.00000000000E+00 -0.30101876491E+03  0.30101876495E+03  0.50400001928E-02 0. -1.
    10030    2    1    2    0    0  0.00000000000E+00  0.00000000000E+00  0.36429330548E+03  0.96633083536E+03  0.89503389374E+03 0.  0.
        2    1    3    3  502    0  0.19890678647E+03  0.22046484659E+03  0.54363517107E+03  0.61944156909E+03  0.25500000920E-02 0.  1.
       -2    1    3    3    0  502 -0.19890678647E+03 -0.22046484659E+03 -0.17934186559E+03  0.34688926627E+03  0.25500000920E-02 0. -1.
</event>
<event>
 5   0  0.2679861E-02  0.9224875E+03  0.7818609E-02  0.9397899E-01
       -2   -1    0    0    0  501  0.00000000000E+00  0.00000000000E+00  0.34233912058E+03  0.34233912059E+03  0.25500000920E-02 0. -1.
        2   -1    0    0  501    0  0.00000000000E+00  0.00000000000E+00 -0.62144746846E+03  0.62144746847E+03  0.25500000920E-02 0.  1.
    10030    2    1    2    0    0  0.00000000000E+00  0.00000000000E+00 -0.27910834788E+03  0.96378658906E+03  0.92248746300E+03 0.  0.
        1    1    3    3  502    0 -0.32986210048E+01 -0.25451433810E+03 -0.54142703547E+03  0.59827390380E+03  0.50400001928E-02 0.  1.
       -1    1    3    3    0  502  0.32986210048E+01  0.25451433810E+03  0.26231868759E+03  0.36551268526E+03  0.50400001928E-02 0. -1.
</event>
<event>
 5   0  0.1459111E-02  0.9046957E+03  0.7818609E-02  0.9419731E-01
       -1   -1    0    0    0  501  0.00000000000E+00  0.00000000000E+00  0.24930217372E+03  0.24930217377E+03  0.50400001928E-02 0. -1.
        1   -1    0    0  501    0  0.00000000000E+00  0.00000000000E+00 -0.82076536290E+03  0.82076536292E+03  0.50400001928E-02 0.  1.
    10030    2    1    2    0    0  0.00000000000E+00  0.00000000000E+00 -0.57146318918E+03  0.10700675367E+04  0.90469572591E+03 0.  0.
        2    1    3    3  502    0  0.36620827681E+03  0.20203815320E+03 -0.48953839084E+03  0.64387557297E+03  0.25500000920E-02 0.  1.
       -2    1    3    3    0  502 -0.36620827681E+03 -0.20203815320E+03 -0.81924798343E+02  0.42619196372E+03  0.25500000920E-02 0. -1.
</event>
<event>
 5   0  0.1040163E-02  0.9310376E+03  0.7818609E-02  0.9387593E-01
        3   -1    0    0  501    0  0.00000000000E+00  0.00000000000E+00  0.23221767657E+03  0.23221769854E+03  0.10100000352E+00 0.  1.
       -3   -1    0    0    0  501  0.00000000000E+00  0.00000000000E+00 -0.93320951047E+03  0.93320951594E+03  0.10100000352E+00 0. -1.
    10030    2    1    2    0    0  0.00000000000E+00  0.00000000000E+00 -0.70099183390E+03  0.11654272145E+04  0.93103761527E+03 0.  0.
        5    1    3    3  502    0 -0.30098259863E+03  0.19664223087E+03 -0.72061430564E+03  0.80533580520E+03  0.46999998093E+01 0. -1.
       -5    1    3    3    0  502  0.30098259863E+03 -0.19664223087E+03  0.19622471742E+02  0.36009140928E+03  0.46999998093E+01 0.  1.
</event>
<event>
 5   0  0.2705111E-02  0.8813951E+03  0.7818609E-02  0.9449142E-01
       -2   -1    0    0    0  501  0.00000000000E+00  0.00000000000E+00  0.16515705475E+03  0.16515705477E+03  0.25500000920E-02 0. -1.
        2   -1    0    0  501    0  0.00000000000E+00  0.00000000000E+00 -0.11759372957E+04  0.11759372957E+04  0.25500000920E-02 0.  1.
    10030    2    1    2    0    0  0.00000000000E+00  0.00000000000E+00 -0.10107802409E+04  0.13410943504E+04  0.88139512215E+03 0.  0.
        4    1    3    3  502    0 -0.32367254267E+03 -0.21467638757E+03 -0.18854453877E+03  0.43174126773E+03  0.12699999809E+01 0. -1.
       -4    1    3    3    0  502  0.32367254267E+03  0.21467638757E+03 -0.82223570213E+03  0.90935308270E+03  0.12699999809E+01 0.  1.
</event>
<event>
 5   0  0.1459111E-02  0.6924871E+03  0.7818609E-02  0.9730167E-01
       -1   -1    0    0    0  501  0.00000000000E+00  0.00000000000E+00  0.17750141828E+03  0.17750141835E+03  0.50400001928E-02 0.  1.
        1   -1    0    0  501    0  0.00000000000E+00  0.00000000000E+00 -0.67540087007E+03  0.67540087009E+03  0.50400001928E-02 0. -1.
    10030    2    1    2    0    0  0.00000000000E+00  0.00000000000E+00 -0.49789945179E+03  0.85290228844E+03  0.69248714756E+03 0.  0.
        2    1    3    3  502    0 -0.30397587448E+03 -0.16129557072E+03 -0.20177542980E+03  0.39891216762E+03  0.25500000920E-02 0. -1.
       -2    1    3    3    0  502  0.30397587448E+03  0.16129557072E+03 -0.29612402198E+03  0.45399012082E+03  0.25500000920E-02 0.  1.
</event>
<event>
 5   0  0.1040163E-02  0.9073321E+03  0.7818609E-02  0.9416462E-01
       -4   -1    0    0    0  501  0.00000000000E+00  0.00000000000E+00  0.23652580515E+03  0.23652921469E+03  0.12699999809E+01 0. -1.
        4   -1    0    0  501    0  0.00000000000E+00  0.00000000000E+00 -0.87013972677E+03  0.87014065357E+03  0.12699999809E+01 0.  1.
    10030    2    1    2    0    0  0.00000000000E+00  0.00000000000E+00 -0.63361392161E+03  0.11066698683E+04  0.90733213085E+03 0.  0.
        4    1    3    3  502    0 -0.12133739165E+03  0.13987724564E+03  0.18833427730E+03  0.26412084236E+03  0.12699999809E+01 0. -1.
       -4    1    3    3    0  502  0.12133739165E+03 -0.13987724564E+03 -0.82194819892E+03  0.84254902591E+03  0.12699999809E+01 0.  1.
</event>
<event>
 5   0  0.1497410E-02  0.8092775E+03  0.7818609E-02  0.9546685E-01
        1   -1    0    0  501    0  0.00000000000E+00  0.00000000000E+00  0.22921133391E+03  0.22921133397E+03  0.50400001928E-02 0.  1.
       -1   -1    0    0    0  501  0.00000000000E+00  0.00000000000E+00 -0.71432990243E+03  0.71432990245E+03  0.50400001928E-02 0. -1.
    10030    2    1    2    0    0  0.00000000000E+00  0.00000000000E+00 -0.48511856852E+03  0.94354123641E+03  0.80927747979E+03 0.  0.
        3    1    3    3  502    0  0.29705137205E+02  0.29169748859E+03  0.82564722727E+02  0.30460919826E+03  0.10100000352E+00 0.  1.
       -3    1    3    3    0  502 -0.29705137205E+02 -0.29169748859E+03 -0.56768329124E+03  0.63893203815E+03  0.10100000352E+00 0. -1.
</event>
<event>
 5   0  0.1459111E-02  0.8400163E+03  0.7818609E-02  0.9503836E-01
        1   -1    0    0  501    0  0.00000000000E+00  0.00000000000E+00  0.91115864161E+03  0.91115864162E+03  0.50400001928E-02 0.  1.
       -1   -1    0    0    0  501  0.00000000000E+00  0.00000000000E+00 -0.19360719002E+03  0.19360719009E+03  0.50400001928E-02 0. -1.
    10030    2    1    2    0    0  0.00000000000E+00  0.00000000000E+00  0.71755145159E+03  0.11047658317E+04  0.84001634344E+03 0.  0.
        2    1    3    3  502    0  0.33224522618E+03  0.25647523827E+03  0.33838309121E+03  0.53913778813E+03  0.25500000920E-02 0.  1.
       -2    1    3    3    0  502 -0.33224522618E+03 -0.25647523827E+03  0.37916836038E+03  0.56562804358E+03  0.25500000920E-02 0. -1.
</event>
<event>
 5   0  0.1559275E-02  0.8641889E+03  0.7818609E-02  0.9471488E-01
       -1   -1    0    0    0  501  0.00000000000E+00  0.00000000000E+00  0.36852254584E+03  0.36852254587E+03  0.50400001928E-02 0. -1.
        1   -1    0    0  501    0  0.00000000000E+00  0.00000000000E+00 -0.50663284407E+03  0.50663284409E+03  0.50400001928E-02 0.  1.
    10030    2    1    2    0    0  0.00000000000E+00  0.00000000000E+00 -0.13811029823E+03  0.87515538997E+03  0.86418892733E+03 0.  0.
        1    1    3    3  502    0  0.91129796103E+02  0.26901257341E+03 -0.39881475227E+03  0.48961782141E+03  0.50400001928E-02 0.  1.
       -1    1    3    3    0  502 -0.91129796103E+02 -0.26901257341E+03  0.26070445404E+03  0.38553756856E+03  0.50400001928E-02 0. -1.
</event>
<event>
 5   0  0.1497410E-02  0.8579999E+03  0.7818609E-02  0.9479662E-01
       -1   -1    0    0    0  501  0.00000000000E+00  0.00000000000E+00  0.16109905052E+03  0.16109905060E+03  0.50400001928E-02 0.  1.
        1   -1    0    0  501    0  0.00000000000E+00  0.00000000000E+00 -0.11424086790E+04  0.11424086790E+04  0.50400001928E-02 0. -1.
    10030    2    1    2    0    0  0.00000000000E+00  0.00000000000E+00 -0.98130962851E+03  0.13035077296E+04  0.85799989174E+03 0.  0.
        3    1    3    3  502    0 -0.14065218992E+03  0.35872065638E+03 -0.77721341884E+03  0.86748155973E+03  0.10100000352E+00 0. -1.
       -3    1    3    3    0  502  0.14065218992E+03 -0.35872065638E+03 -0.20409620967E+03  0.43602616991E+03  0.10100000352E+00 0.  1.
</event>
<event>
 5   0  0.1537870E-02  0.8700000E+03  0.7818609E-02  0.9463880E-01
        1   -1    0    0  501    0  0.00000000000E+00  0.00000000000E+00  0.35196722630E+03  0.35196722633E+03  0.50400001928E-02 0.  1.
       -1   -1    0    0    0  501  0.00000000000E+00  0.00000000000E+00 -0.53762112447E+03  0.53762112450E+03  0.50400001928E-02 0. -1.
    10030    2    1    2    0    0  0.00000000000E+00  0.00000000000E+00 -0.18565389818E+03  0.88958835083E+03  0.87000003679E+03 0.  0.
        5    1    3    3  502    0 -0.35672571229E+03  0.13919307159E+03  0.11815584899E+03  0.40076282218E+03  0.46999998093E+01 0.  1.
       -5    1    3    3    0  502  0.35672571229E+03 -0.13919307159E+03 -0.30380974717E+03  0.48882552865E+03  0.46999998093E+01 0. -1.
</event>
<event>
 5   0  0.1537870E-02  0.9084342E+03  0.7818609E-02  0.9415099E-01
        1   -1    0    0  501    0  0.00000000000E+00  0.00000000000E+00  0.10220561125E+04  0.10220561125E+04  0.50400001928E-02 0. -1.
       -1   -1    0    0    0  501  0.00000000000E+00  0.00000000000E+00 -0.20186090393E+03  0.20186090399E+03  0.50400001928E-02 0.  1.
    10030    2    1    2    0    0  0.00000000000E+00  0.00000000000E+00  0.82019520855E+03  0.12239170165E+04  0.90843419304E+03 0.  0.
        5    1    3    3  502    0  0.19833393647E+03  0.18047412605E+03 -0.83794396154E+02  0.28098194133E+03  0.46999998093E+01 0.  1.
       -5    1    3    3    0  502 -0.19833393647E+03 -0.18047412605E+03  0.90398960470E+03  0.94293507515E+03  0.46999998093E+01 0. -1.
</event>
<event>
 5   0  0.2705111E-02  0.8890239E+03  0.7818609E-02  0.9439407E-01
       -2   -1    0    0    0  501  0.00000000000E+00  0.00000000000E+00  0.31863433648E+03  0.31863433649E+03  0.25500000920E-02 0.  1.
        2   -1    0    0  501    0  0.00000000000E+00  0.00000000000E+00 -0.62011794051E+03  0.62011794052E+03  0.25500000920E-02 0. -1.
    10030    2    1    2    0    0  0.00000000000E+00  0.00000000000E+00 -0.30148360403E+03  0.93875227701E+03  0.88902388837E+03 0.  0.
        4    1    3    3  502    0 -0.23134092639E+03 -0.15183234127E+03  0.21659275751E+03  0.35140534940E+03  0.12699999809E+01 0.  1.
       -4    1    3    3    0  502  0.23134092639E+03  0.15183234127E+03 -0.51807636154E+03  0.58734692761E+03  0.12699999809E+01 0. -1.
</event>
<event>
 5   0  0.1560728E-02  0.8992882E+03  0.7818609E-02  0.9426472E-01
        1   -1    0    0  501    0  0.00000000000E+00  0.00000000000E+00  0.85446164885E+03  0.85446164887E+03  0.50400001928E-02 0.  1.
       -1   -1    0    0    0  501  0.00000000000E+00  0.00000000000E+00 -0.23661662270E+03  0.23661662275E+03  0.50400001928E-02 0. -1.
    10030    2    1    2    0    0  0.00000000000E+00  0.00000000000E+00  0.61784502615E+03  0.10910782716E+04  0.89928822880E+03 0.  0.
        4    1    3    3  502    0 -0.28958964490E+03  0.15410243034E+03  0.68202679877E+03  0.75681694525E+03  0.12699999809E+01 0.  1.
       -4    1    3    3    0  502  0.28958964490E+03 -0.15410243034E+03 -0.64181772619E+02  0.33426132637E+03  0.12699999809E+01 0. -1.
</event>
<event>
 5   0  0.2414128E-02  0.8610266E+03  0.7818609E-02  0.9475656E-01
        2   -1    0    0  501    0  0.00000000000E+00  0.00000000000E+00  0.17300007151E+04  0.17300007151E+04  0.25500000920E-02 0.  1.
       -2   -1    0    0    0  501  0.00000000000E+00  0.00000000000E+00 -0.10713388340E+03  0.10713388343E+03  0.25500000920E-02 0. -1.
    10030    2    1    2    0    0  0.00000000000E+00  0.00000000000E+00  0.16228668317E+04  0.18371345985E+04  0.86102658476E+03 0.  0.
        3    1    3    3  502    0  0.17837620611E+03  0.35354818081E+02  0.16440341612E+04  0.16540605695E+04  0.10100000352E+00 0.  1.
       -3    1    3    3    0  502 -0.17837620611E+03 -0.35354818081E+02 -0.21167329520E+02  0.18307402904E+03  0.10100000352E+00 0. -1.
</event>
<event>
 5   0  0.2679861E-02  0.9046824E+03  0.7818609E-02  0.9419747E-01
        2   -1    0    0  501    0  0.00000000000E+00  0.00000000000E+00  0.10191412519E+04  0.10191412519E+04  0.25500000920E-02 0.  1.
       -2   -1    0    0    0  501  0.00000000000E+00  0.00000000000E+00 -0.20076956340E+03  0.20076956342E+03  0.25500000920E-02 0. -1.
    10030    2    1    2    0    0  0.00000000000E+00  0.00000000000E+00  0.81837168850E+03  0.12199108153E+04  0.90468236238E+03 0.  0.
        1    1    3    3  502    0 -0.74610766968E+02 -0.15827306539E+03  0.97165778149E+03  0.98728717916E+03  0.50400001928E-02 0.  1.
       -1    1    3    3    0  502  0.74610766968E+02  0.15827306539E+03 -0.15328609299E+03  0.23262363617E+03  0.50400001928E-02 0. -1.
</event>
<event>
 5   0  0.1459111E-02  0.1034674E+04  0.7818609E-02  0.9271311E-01
       -1   -1    0    0    0  501  0.00000000000E+00  0.00000000000E+00  0.65991516824E+03  0.65991516826E+03  0.50400001928E-02 0. -1.
        1   -1    0    0  501    0  0.00000000000E+00  0.00000000000E+00 -0.40556392427E+03  0.40556392431E+03  0.50400001928E-02 0.  1.
    10030    2    1    2    0    0  0.00000000000E+00  0.00000000000E+00  0.25435124397E+03  0.10654790926E+04  0.10346744132E+04 0.  0.
        2    1    3    3  502    0 -0.13007809901E+02 -0.45233533085E+03 -0.13101056746E+03  0.47110532097E+03  0.25500000920E-02 0.  1.
       -2    1    3    3    0  502  0.13007809901E+02  0.45233533085E+03  0.38536181143E+03  0.59437377160E+03  0.25500000920E-02 0. -1.
</event>
<event>
 5   0  0.2679861E-02  0.8767342E+03  0.7818609E-02  0.9455141E-01
        2   -1    0    0  501    0  0.00000000000E+00  0.00000000000E+00  0.12194920132E+04  0.12194920133E+04  0.25500000920E-02 0.  1.
       -2   -1    0    0    0  501  0.00000000000E+00  0.00000000000E+00 -0.15757849741E+03  0.15757849743E+03  0.25500000920E-02 0. -1.
    10030    2    1    2    0    0  0.00000000000E+00  0.00000000000E+00  0.10619135158E+04  0.13770705107E+04  0.87673421073E+03 0.  0.
        1    1    3    3  502    0  0.25343723554E+03  0.80313888761E+00 -0.30843977454E+02  0.25530849645E+03  0.50400001928E-02 0. -1.
       -1    1    3    3    0  502 -0.25343723554E+03 -0.80313888761E+00  0.10927574933E+04  0.11217620142E+04  0.50400001928E-02 0.  1.
</event>
<event>
 5   0  0.2414128E-02  0.9232653E+03  0.7818609E-02  0.9396957E-01
       -2   -1    0    0    0  501  0.00000000000E+00  0.00000000000E+00  0.15565095501E+03  0.15565095503E+03  0.25500000920E-02 0.  1.
        2   -1    0    0  501    0  0.00000000000E+00  0.00000000000E+00 -0.13691190488E+04  0.13691190488E+04  0.25500000920E-02 0. -1.
    10030    2    1    2    0    0  0.00000000000E+00  0.00000000000E+00 -0.12134680938E+04  0.15247700039E+04  0.92326526523E+03 0.  0.
        3    1    3    3  502    0  0.25366861864E+03 -0.30871722069E+03 -0.98855001007E+03  0.10662481996E+04  0.10100000352E+00 0. -1.
       -3    1    3    3    0  502 -0.25366861864E+03  0.30871722069E+03 -0.22491808374E+03  0.45852180431E+03  0.10100000352E+00 0.  1.
</event>
<event>
 5   0  0.1459111E-02  0.9482546E+03  0.7818609E-02  0.9367193E-01
        1   -1    0    0  501    0  0.00000000000E+00  0.00000000000E+00  0.44563456892E+03  0.44563456895E+03  0.50400001928E-02 0.  1.
       -1   -1    0    0    0  501  0.00000000000E+00  0.00000000000E+00 -0.50444174815E+03  0.50444174818E+03  0.50400001928E-02 0. -1.
    10030    2    1    2    0    0  0.00000000000E+00  0.00000000000E+00 -0.58807179232E+02  0.95007631712E+03  0.94825456710E+03 0.  0.
        2    1    3    3  502    0  0.74256069838E+02 -0.87842621659E+02  0.43144354135E+03  0.44651295554E+03  0.25500000920E-02 0.  1.
       -2    1    3    3    0  502 -0.74256069838E+02  0.87842621659E+02 -0.49025072058E+03  0.50356336158E+03  0.25500000920E-02 0. -1.
</event>
<event>
 5   0  0.2414128E-02  0.9086960E+03  0.7818609E-02  0.9414776E-01
       -2   -1    0    0    0  501  0.00000000000E+00  0.00000000000E+00  0.48546374694E+03  0.48546374694E+03  0.25500000920E-02 0. -1.
        2   -1    0    0  501    0  0.00000000000E+00  0.00000000000E+00 -0.42522658080E+03  0.42522658081E+03  0.25500000920E-02 0.  1.
    10030    2    1    2    0    0  0.00000000000E+00  0.00000000000E+00  0.60237166137E+02  0.91069032775E+03  0.90869596504E+03 0.  0.
        3    1    3    3  502    0 -0.19066615885E+03 -0.34747717253E+03  0.25272792023E+03  0.47006954956E+03  0.10100000352E+00 0. -1.
       -3    1    3    3    0  502  0.19066615885E+03  0.34747717253E+03 -0.19249075409E+03  0.44062077819E+03  0.10100000352E+00 0.  1.
</event>
<event>
 5   0  0.1560728E-02  0.9502942E+03  0.7818609E-02  0.9364807E-01
        1   -1    0    0  501    0  0.00000000000E+00  0.00000000000E+00  0.73993199345E+03  0.73993199346E+03  0.50400001928E-02 0.  1.
       -1   -1    0    0    0  501  0.00000000000E+00  0.00000000000E+00 -0.30511557244E+03  0.30511557249E+03  0.50400001928E-02 0. -1.
    10030    2    1    2    0    0  0.00000000000E+00  0.00000000000E+00  0.43481642100E+03  0.10450475659E+04  0.95029421503E+03 0.  0.
        4    1    3    3  502    0 -0.19051546007E+03  0.31654795507E+03 -0.11115364923E+03  0.38581795581E+03  0.12699999809E+01 0. -1.
       -4    1    3    3    0  502  0.19051546007E+03 -0.31654795507E+03  0.54597007024E+03  0.65922961014E+03  0.12699999809E+01 0.  1.
</event>
<event>
 5   0  0.1040163E-02  0.9134826E+03  0.7818609E-02  0.9408883E-01
        4   -1    0    0  501    0  0.00000000000E+00  0.00000000000E+00  0.46312882393E+03  0.46313056523E+03  0.12699999809E+01 0. -1.
       -4   -1    0    0    0  501  0.00000000000E+00  0.00000000000E+00 -0.45043834226E+03  0.45044013263E+03  0.12699999809E+01 0.  1.
    10030    2    1    2    0    0  0.00000000000E+00  0.00000000000E+00  0.12690481664E+02  0.91357069786E+03  0.91348255137E+03 0.  0.
        3    1    3    3  502    0 -0.36460334416E+03 -0.27492113153E+03  0.16111201289E+02  0.45692100865E+03  0.10100000352E+00 0.  1.
       -3    1    3    3    0  502  0.36460334416E+03  0.27492113153E+03 -0.34207196249E+01  0.45664968921E+03  0.10100000352E+00 0. -1.
</event>
<event>
 5   0  0.1560728E-02  0.9282765E+03  0.7818609E-02  0.9390909E-01
       -1   -1    0    0    0  501  0.00000000000E+00  0.00000000000E+00  0.27742137232E+03  0.27742137237E+03  0.50400001928E-02 0. -1.
        1   -1    0    0  501    0  0.00000000000E+00  0.00000000000E+00 -0.77652379892E+03  0.77652379894E+03  0.50400001928E-02 0.  1.
    10030    2    1    2    0    0  0.00000000000E+00  0.00000000000E+00 -0.49910242660E+03  0.10539451713E+04  0.92827646307E+03 0.  0.
        4    1    3    3  502    0 -0.45981592154E+03  0.63050407322E+02 -0.24491843658E+03  0.52477870483E+03  0.12699999809E+01 0.  1.
       -4    1    3    3    0  502  0.45981592154E+03 -0.63050407322E+02 -0.25418399002E+03  0.52916646648E+03  0.12699999809E+01 0. -1.
</event>
<event>
 5   0  0.2679861E-02  0.9099227E+03  0.7818609E-02  0.9413262E-01
        2   -1    0    0  501    0  0.00000000000E+00  0.00000000000E+00  0.30337804152E+04  0.30337804152E+04  0.25500000920E-02 0.  1.
       -2   -1    0    0    0  501  0.00000000000E+00  0.00000000000E+00 -0.68228354274E+02  0.68228354322E+02  0.25500000920E-02 0. -1.
    10030    2    1    2    0    0  0.00000000000E+00  0.00000000000E+00  0.29655520610E+04  0.31020087696E+04  0.90992273306E+03 0.  0.
        1    1    3    3  502    0  0.23595890591E+03 -0.84304622737E+02  0.18819235462E+03  0.31336917056E+03  0.50400001928E-02 0. -1.
       -1    1    3    3    0  502 -0.23595890591E+03  0.84304622737E+02  0.27773597063E+04  0.27886395990E+04  0.50400001928E-02 0.  1.
</event>
<event>
 5   0  0.1559275E-02  0.7649227E+03  0.7818609E-02  0.9612226E-01
        1   -1    0    0  501    0  0.00000000000E+00  0.00000000000E+00  0.20193551936E+03  0.20193551942E+03  0.50400001928E-02 0. -1.
       -1   -1    0    0    0  501  0.00000000000E+00  0.00000000000E+00 -0.72437320700E+03  0.72437320702E+03  0.50400001928E-02 0.  1.
    10030    2    1    2    0    0  0.00000000000E+00  0.00000000000E+00 -0.52243768764E+03  0.92630872644E+03  0.76492268839E+03 0.  0.
        1    1    3    3  502    0 -0.28950461582E+03  0.59813500534E+02 -0.55508164725E+03  0.62889284665E+03  0.50400001928E-02 0.  1.
       -1    1    3    3    0  502  0.28950461582E+03 -0.59813500534E+02  0.32643959610E+02  0.29741587979E+03  0.50400001928E-02 0. -1.
</event>
<event>
 5   0  0.1459111E-02  0.8990123E+03  0.7818609E-02  0.9426817E-01
        1   -1    0    0  501    0  0.00000000000E+00  0.00000000000E+00  0.30271072320E+03  0.30271072325E+03  0.50400001928E-02 0. -1.
       -1   -1    0    0    0  501  0.00000000000E+00  0.00000000000E+00 -0.66748800591E+03  0.66748800593E+03  0.50400001928E-02 0.  1.
    10030    2    1    2    0    0  0.00000000000E+00  0.00000000000E+00 -0.36477728271E+03  0.97019872918E+03  0.89901229586E+03 0.  0.
        2    1    3    3  502    0 -0.25135912270E+03  0.34120296206E+03 -0.34410378895E+03  0.54590135323E+03  0.25500000920E-02 0.  1.
       -2    1    3    3    0  502  0.25135912270E+03 -0.34120296206E+03 -0.20673493760E+02  0.42429737595E+03  0.25500000920E-02 0. -1.
</event>
<event>
 5   0  0.2628383E-02  0.7796195E+03  0.7818609E-02  0.9589995E-01
        2   -1    0    0  501    0  0.00000000000E+00  0.00000000000E+00  0.77063164369E+03  0.77063164369E+03  0.25500000920E-02 0.  1.
       -2   -1    0    0    0  501  0.00000000000E+00  0.00000000000E+00 -0.19717804593E+03  0.19717804595E+03  0.25500000920E-02 0. -1.
    10030    2    1    2    0    0  0.00000000000E+00  0.00000000000E+00  0.57345359776E+03  0.96780968964E+03  0.77961950116E+03 0.  0.
        2    1    3    3  502    0  0.25352647730E+03 -0.24319181291E+03  0.77032614232E+02  0.35965532975E+03  0.25500000920E-02 0. -1.
       -2    1    3    3    0  502 -0.25352647730E+03  0.24319181291E+03  0.49642098353E+03  0.60815435989E+03  0.25500000920E-02 0.  1.
</event>
<event>
 5   0  0.2628383E-02  0.8847710E+03  0.7818609E-02  0.9444821E-01
        2   -1    0    0  501    0  0.00000000000E+00  0.00000000000E+00  0.34658498623E+03  0.34658498624E+03  0.25500000920E-02 0. -1.
       -2   -1    0    0    0  501  0.00000000000E+00  0.00000000000E+00 -0.56466644425E+03  0.56466644425E+03  0.25500000920E-02 0.  1.
    10030    2    1    2    0    0  0.00000000000E+00  0.00000000000E+00 -0.21808145801E+03  0.91125143050E+03  0.88477095751E+03 0.  0.
        2    1    3    3  502    0  0.94243635788E+01 -0.34716295787E+03 -0.39127510413E+03  0.52317028305E+03  0.25500000920E-02 0.  1.
       -2    1    3    3    0  502 -0.94243635788E+01  0.34716295787E+03  0.17319364611E+03  0.38808114745E+03  0.25500000920E-02 0. -1.
</event>
<event>
 5   0  0.2803717E-02  0.1058195E+04  0.7818609E-02  0.9246924E-01
       -2   -1    0    0    0  501  0.00000000000E+00  0.00000000000E+00  0.44733232643E+03  0.44733232644E+03  0.25500000920E-02 0.  1.
        2   -1    0    0  501    0  0.00000000000E+00  0.00000000000E+00 -0.62580745169E+03  0.62580745170E+03  0.25500000920E-02 0. -1.
    10030    2    1    2    0    0  0.00000000000E+00  0.00000000000E+00 -0.17847512526E+03  0.10731397781E+04  0.10581945063E+04 0.  0.
        5    1    3    3  502    0  0.14709728911E+03  0.23020178290E+03  0.37025248098E+03  0.46015156523E+03  0.46999998093E+01 0.  1.
       -5    1    3    3    0  502 -0.14709728911E+03 -0.23020178290E+03 -0.54872760624E+03  0.61298821291E+03  0.46999998093E+01 0. -1.
</event>
<event>
 5   0  0.2679861E-02  0.8351211E+03  0.7818609E-02  0.9510527E-01
       -2   -1    0    0    0  501  0.00000000000E+00  0.00000000000E+00  0.23420629880E+03  0.23420629882E+03  0.25500000920E-02 0.  1.
        2   -1    0    0  501    0  0.00000000000E+00  0.00000000000E+00 -0.74445823447E+03  0.74445823448E+03  0.25500000920E-02 0. -1.
    10030    2    1    2    0    0  0.00000000000E+00  0.00000000000E+00 -0.51025193567E+03  0.97866453330E+03  0.83512108755E+03 0.  0.
        1    1    3    3  502    0 -0.24176498253E+03 -0.19710963167E+03  0.70173102810E+02  0.31972922616E+03  0.50400001928E-02 0.  1.
       -1    1    3    3    0  502  0.24176498253E+03  0.19710963167E+03 -0.58042503848E+03  0.65893530714E+03  0.50400001928E-02 0. -1.
</event>
<event>
 5   0  0.1559275E-02  0.8967246E+03  0.7818609E-02  0.9429685E-01
        1   -1    0    0  501    0  0.00000000000E+00  0.00000000000E+00  0.14975423213E+04  0.14975423214E+04  0.50400001928E-02 0. -1.
       -1   -1    0    0    0  501  0.00000000000E+00  0.00000000000E+00 -0.13423911107E+03  0.13423911116E+03  0.50400001928E-02 0.  1.
    10030    2    1    2    0    0  0.00000000000E+00  0.00000000000E+00  0.13633032103E+04  0.16317814325E+04  0.89672459560E+03 0.  0.
        1    1    3    3  502    0  0.33039178399E+02 -0.25852036727E+03  0.17757086913E+02  0.26122726075E+03  0.50400001928E-02 0.  1.
       -1    1    3    3    0  502 -0.33039178399E+02  0.25852036727E+03  0.13455461234E+04  0.13705541718E+04  0.50400001928E-02 0. -1.
</event>
<event>
 5   0  0.2705111E-02  0.8797827E+03  0.7818609E-02  0.9451213E-01
        2   -1    0    0  501    0  0.00000000000E+00  0.00000000000E+00  0.58705515315E+03  0.58705515316E+03  0.25500000920E-02 0.  1.
       -2   -1    0    0    0  501  0.00000000000E+00  0.00000000000E+00 -0.32961878164E+03  0.32961878165E+03  0.25500000920E-02 0. -1.
    10030    2    1    2    0    0  0.00000000000E+00  0.00000000000E+00  0.25743637151E+03  0.91667393481E+03  0.87978271033E+03 0.  0.
        4    1    3    3  502    0 -0.24391321164E+03  0.30666759777E+03  0.33701114634E+03  0.51683343158E+03  0.12699999809E+01 0.  1.
       -4    1    3    3    0  502  0.24391321164E+03 -0.30666759777E+03 -0.79574774830E+02  0.39984050324E+03  0.12699999809E+01 0. -1.
</event>
<event>
 5   0  0.2803717E-02  0.8704209E+03  0.7818609E-02  0.9463331E-01
        2   -1    0    0  501    0  0.00000000000E+00  0.00000000000E+00  0.15089893533E+04  0.15089893533E+04  0.25500000920E-02 0. -1.
       -2   -1    0    0    0  501  0.00000000000E+00  0.00000000000E+00 -0.12551987145E+03  0.12551987148E+03  0.25500000920E-02 0.  1.
    10030    2    1    2    0    0  0.00000000000E+00  0.00000000000E+00  0.13834694818E+04  0.16345092247E+04  0.87042093189E+03 0.  0.
        5    1    3    3  502    0 -0.26910042058E+03 -0.28464863295E+03  0.10477629554E+04  0.11186014399E+04  0.46999998093E+01 0. -1.
       -5    1    3    3    0  502  0.26910042058E+03  0.28464863295E+03  0.33570652637E+03  0.51590778482E+03  0.46999998093E+01 0.  1.
</event>
<event>
 5   0  0.2414128E-02  0.9059479E+03  0.7818609E-02  0.9418177E-01
       -2   -1    0    0    0  501  0.00000000000E+00  0.00000000000E+00  0.10567678366E+03  0.10567678369E+03  0.25500000920E-02 0. -1.
        2   -1    0    0  501    0  0.00000000000E+00  0.00000000000E+00 -0.19416317490E+04  0.19416317490E+04  0.25500000920E-02 0.  1.
    10030    2    1    2    0    0  0.00000000000E+00  0.00000000000E+00 -0.18359549653E+04  0.20473085327E+04  0.90594789766E+03 0.  0.
        3    1    3    3  502    0  0.22080901368E+03  0.23523555133E+03 -0.16365003986E+04  0.16680005846E+04  0.10100000352E+00 0.  1.
       -3    1    3    3    0  502 -0.22080901368E+03 -0.23523555133E+03 -0.19945456666E+03  0.37930794810E+03  0.10100000352E+00 0. -1.
</event>
<event>
 5   0  0.1559275E-02  0.1093696E+04  0.7818609E-02  0.9211358E-01
       -1   -1    0    0    0  501  0.00000000000E+00  0.00000000000E+00  0.55849188683E+03  0.55849188686E+03  0.50400001928E-02 0. -1.
        1   -1    0    0  501    0  0.00000000000E+00  0.00000000000E+00 -0.53544644218E+03  0.53544644221E+03  0.50400001928E-02 0.  1.
    10030    2    1    2    0    0  0.00000000000E+00  0.00000000000E+00  0.23045444649E+02  0.10939383291E+04  0.10936955588E+04 0.  0.
        1    1    3    3  502    0 -0.39967727433E+03 -0.37017396269E+03  0.59196784447E+02  0.54797348985E+03  0.50400001928E-02 0. -1.
       -1    1    3    3    0  502  0.39967727433E+03  0.37017396269E+03 -0.36151339798E+02  0.54596483922E+03  0.50400001928E-02 0.  1.
</event>
<event>
 5   0  0.1040163E-02  0.8944950E+03  0.7818609E-02  0.9432489E-01
        4   -1    0    0  501    0  0.00000000000E+00  0.00000000000E+00  0.52157627275E+03  0.52157781893E+03  0.12699999809E+01 0.  1.
       -4   -1    0    0    0  501  0.00000000000E+00  0.00000000000E+00 -0.38350798726E+03  0.38351009007E+03  0.12699999809E+01 0. -1.
    10030    2    1    2    0    0  0.00000000000E+00  0.00000000000E+00  0.13806828550E+03  0.90508790901E+03  0.89449498130E+03 0.  0.
        4    1    3    3  502    0  0.18738114920E+03 -0.31511620819E+03  0.32822933890E+03  0.49208335834E+03  0.12699999809E+01 0.  1.
       -4    1    3    3    0  502 -0.18738114920E+03  0.31511620819E+03 -0.19016105340E+03  0.41300455067E+03  0.12699999809E+01 0. -1.
</event>
<event>
 5   0  0.1459111E-02  0.9054418E+03  0.7818609E-02  0.9418804E-01
       -1   -1    0    0    0  501  0.00000000000E+00  0.00000000000E+00  0.33383775328E+03  0.33383775332E+03  0.50400001928E-02 0.  1.
        1   -1    0    0  501    0  0.00000000000E+00  0.00000000000E+00 -0.61393954001E+03  0.61393954003E+03  0.50400001928E-02 0. -1.
    10030    2    1    2    0    0  0.00000000000E+00  0.00000000000E+00 -0.28010178673E+03  0.94777729335E+03  0.90544176337E+03 0.  0.
        2    1    3    3  502    0 -0.15785547419E+03  0.29383092429E+03 -0.46047002000E+03  0.56858385672E+03  0.25500000920E-02 0. -1.
       -2    1    3    3    0  502  0.15785547419E+03 -0.29383092429E+03  0.18036823327E+03  0.37919343663E+03  0.25500000920E-02 0.  1.
</event>
<event>
 5   0  0.2628383E-02  0.8825375E+03  0.7818609E-02  0.9447678E-01
        2   -1    0    0  501    0  0.00000000000E+00  0.00000000000E+00  0.10230105807E+04  0.10230105807E+04  0.25500000920E-02 0.  1.
       -2   -1    0    0    0  501  0.00000000000E+00  0.00000000000E+00 -0.19033832995E+03  0.19033832996E+03  0.25500000920E-02 0. -1.
    10030    2    1    2    0    0  0.00000000000E+00  0.00000000000E+00  0.83267225071E+03  0.12133489106E+04  0.88253753564E+03 0.  0.
        2    1    3    3  502    0  0.34080856497E+03  0.27455231002E+02  0.79984992230E+03  0.86986445258E+03  0.25500000920E-02 0.  1.
       -2    1    3    3    0  502 -0.34080856497E+03 -0.27455231002E+02  0.32822328417E+02  0.34348445804E+03  0.25500000920E-02 0. -1.
</event>
<event>
 5   0  0.2705111E-02  0.9161005E+03  0.7818609E-02  0.9405676E-01
       -2   -1    0    0    0  501  0.00000000000E+00  0.00000000000E+00  0.20787454319E+03  0.20787454321E+03  0.25500000920E-02 0.  1.
        2   -1    0    0  501    0  0.00000000000E+00  0.00000000000E+00 -0.10093108188E+04  0.10093108188E+04  0.25500000920E-02 0. -1.
    10030    2    1    2    0    0  0.00000000000E+00  0.00000000000E+00 -0.80143627564E+03  0.12171853620E+04  0.91610048667E+03 0.  0.
        4    1    3    3  502    0 -0.16868505505E+03 -0.35670193576E+01  0.16508018971E+03  0.23605180228E+03  0.12699999809E+01 0.  1.
       -4    1    3    3    0  502  0.16868505505E+03  0.35670193576E+01 -0.96651646535E+03  0.98113355977E+03  0.12699999809E+01 0. -1.
</event>
<event>
 5   0  0.2803717E-02  0.8273592E+03  0.7818609E-02  0.9521239E-01
       -2   -1    0    0    0  501  0.00000000000E+00  0.00000000000E+00  0.10471951815E+03  0.10471951818E+03  0.25500000920E-02 0. -1.
        2   -1    0    0  501    0  0.00000000000E+00  0.00000000000E+00 -0.16341826970E+04  0.16341826970E+04  0.25500000920E-02 0.  1.
    10030    2    1    2    0    0  0.00000000000E+00  0.00000000000E+00 -0.15294631788E+04  0.17389022151E+04  0.82735923184E+03 0.  0.
        5    1    3    3  502    0 -0.22590393828E+03 -0.33193379532E+03 -0.97381188202E+03  0.10533490900E+04  0.46999998093E+01 0.  1.
       -5    1    3    3    0  502  0.22590393828E+03  0.33193379532E+03 -0.55565129679E+03  0.68555312516E+03  0.46999998093E+01 0. -1.
</event>
<event>
 5   0  0.1560728E-02  0.8765942E+03  0.7818609E-02  0.9455322E-01
       -1   -1    0    0    0  501  0.00000000000E+00  0.00000000000E+00  0.19368683089E+03  0.19368683096E+03  0.50400001928E-02 0. -1.
        1   -1    0    0  501    0  0.00000000000E+00  0.00000000000E+00 -0.99182969334E+03  0.99182969335E+03  0.50400001928E-02 0.  1.
    10030    2    1    2    0    0  0.00000000000E+00  0.00000000000E+00 -0.79814286244E+03  0.11855165243E+04  0.87659420517E+03 0.  0.
        4    1    3    3  502    0  0.34506784429E+03  0.45008609169E+02 -0.75944582617E+03  0.83537845786E+03  0.12699999809E+01 0.  1.
       -4    1    3    3    0  502 -0.34506784429E+03 -0.45008609169E+02 -0.38697036272E+02  0.35013806645E+03  0.12699999809E+01 0. -1.
</event>
<event>
 5   0  0.1560728E-02  0.9209769E+03  0.7818609E-02  0.9399733E-01
       -1   -1    0    0    0  501  0.00000000000E+00  0.00000000000E+00  0.41289655196E+03  0.41289655199E+03  0.50400001928E-02 0.  1.
        1   -1    0    0  501    0  0.00000000000E+00  0.00000000000E+00 -0.51356594652E+03  0.51356594655E+03  0.50400001928E-02 0. -1.
    10030    2    1    2    0    0  0.00000000000E+00  0.00000000000E+00 -0.10066939456E+03  0.92646249853E+03  0.92097689123E+03 0.  0.
        4    1    3    3  502    0  0.25364691513E+03 -0.38431897433E+03 -0.53541799403E+02  0.46357973291E+03  0.12699999809E+01 0.  1.
       -4    1    3    3    0  502 -0.25364691513E+03  0.38431897433E+03 -0.47127595160E+02  0.46288276562E+03  0.12699999809E+01 0. -1.
</event>
<event>
 5   0  0.2628383E-02  0.8848034E+03  0.7818609E-02  0.9444780E-01
       -2   -1    0    0    0  501  0.00000000000E+00  0.00000000000E+00  0.40314022734E+03  0.40314022735E+03  0.25500000920E-02 0. -1.
        2   -1    0    0  501    0  0.00000000000E+00  0.00000000000E+00 -0.48548680485E+03  0.48548680486E+03  0.25500000920E-02 0.  1.
    10030    2    1    2    0    0  0.00000000000E+00  0.00000000000E+00 -0.82346577510E+02  0.88862703221E+03  0.88480339260E+03 0.  0.
        2    1    3    3  502    0  0.10468010690E+03  0.84086528217E+02 -0.46452878523E+03  0.48354468390E+03  0.25500000920E-02 0.  1.
       -2    1    3    3    0  502 -0.10468010690E+03 -0.84086528217E+02  0.38218220773E+03  0.40508234831E+03  0.25500000920E-02 0. -1.
</event>
<event>
 5   0  0.2679861E-02  0.8928696E+03  0.7818609E-02  0.9434539E-01
        2   -1    0    0  501    0  0.00000000000E+00  0.00000000000E+00  0.10907070596E+04  0.10907070596E+04  0.25500000920E-02 0. -1.
       -2   -1    0    0    0  501  0.00000000000E+00  0.00000000000E+00 -0.18272918456E+03  0.18272918457E+03  0.25500000920E-02 0.  1.
    10030    2    1    2    0    0  0.00000000000E+00  0.00000000000E+00  0.90797787505E+03  0.12734362442E+04  0.89286955734E+03 0.  0.
        1    1    3    3  502    0  0.75634432022E+02  0.29119711894E+03 -0.16423778148E+02  0.30130726825E+03  0.50400001928E-02 0.  1.
       -1    1    3    3    0  502 -0.75634432022E+02 -0.29119711894E+03  0.92440165320E+03  0.97212897593E+03  0.50400001928E-02 0. -1.
</event>
<event>
 5   0  0.2679861E-02  0.9128641E+03  0.7818609E-02  0.9409642E-01
        2   -1    0    0  501    0  0.00000000000E+00  0.00000000000E+00  0.53650411619E+03  0.53650411620E+03  0.25500000920E-02 0. -1.
       -2   -1    0    0    0  501  0.00000000000E+00  0.00000000000E+00 -0.38831052816E+03  0.38831052817E+03  0.25500000920E-02 0.  1.
    10030    2    1    2    0    0  0.00000000000E+00  0.00000000000E+00  0.14819358803E+03  0.92481464437E+03  0.91286405719E+03 0.  0.
        1    1    3    3  502    0  0.12184865069E+02 -0.89580895679E+02 -0.37914919551E+03  0.38977855289E+03  0.50400001928E-02 0.  1.
       -1    1    3    3    0  502 -0.12184865069E+02  0.89580895679E+02  0.52734278354E+03  0.53503609148E+03  0.50400001928E-02 0. -1.
</event>
<event>
 5   0  0.1459111E-02  0.8619493E+03  0.7818609E-02  0.9474438E-01
       -1   -1    0    0    0  501  0.00000000000E+00  0.00000000000E+00  0.25595513433E+03  0.25595513438E+03  0.50400001928E-02 0. -1.
        1   -1    0    0  501    0  0.00000000000E+00  0.00000000000E+00 -0.72567081014E+03  0.72567081016E+03  0.50400001928E-02 0.  1.
    10030    2    1    2    0    0  0.00000000000E+00  0.00000000000E+00 -0.46971567581E+03  0.98162594454E+03  0.86194934821E+03 0.  0.
        2    1    3    3  502    0  0.19476639425E+03 -0.27845659177E+03  0.67026405359E+02  0.34635900573E+03  0.25500000920E-02 0. -1.
       -2    1    3    3    0  502 -0.19476639425E+03  0.27845659177E+03 -0.53674208117E+03  0.63526693880E+03  0.25500000920E-02 0.  1.
</event>
<event>
 5   0  0.2803717E-02  0.8980388E+03  0.7818609E-02  0.9428036E-01
        2   -1    0    0  501    0  0.00000000000E+00  0.00000000000E+00  0.94216411874E+03  0.94216411874E+03  0.25500000920E-02 0.  1.
       -2   -1    0    0    0  501  0.00000000000E+00  0.00000000000E+00 -0.21399500357E+03  0.21399500358E+03  0.25500000920E-02 0. -1.
    10030    2    1    2    0    0  0.00000000000E+00  0.00000000000E+00  0.72816911517E+03  0.11561591223E+04  0.89803878304E+03 0.  0.
        5    1    3    3  502    0  0.22781235792E+02  0.78670465070E+02  0.93243394736E+03  0.93603588765E+03  0.46999998093E+01 0.  1.
       -5    1    3    3    0  502 -0.22781235792E+02 -0.78670465070E+02 -0.20426483219E+03  0.22012323468E+03  0.46999998093E+01 0. -1.
</event>
<event>
 5   0  0.1560728E-02  0.8667983E+03  0.7818609E-02  0.9468064E-01
        1   -1    0    0  501    0  0.00000000000E+00  0.00000000000E+00  0.59468746586E+03  0.59468746588E+03  0.50400001928E-02 0.  1.
       -1   -1    0    0    0  501  0.00000000000E+00  0.00000000000E+00 -0.31585468569E+03  0.31585468573E+03  0.50400001928E-02 0. -1.
    10030    2    1    2    0    0  0.00000000000E+00  0.00000000000E+00  0.27883278017E+03  0.91054215161E+03  0.86679829866E+03 0.  0.
        4    1    3    3  502    0  0.40341195003E+03  0.76855031079E+01  0.30561904086E+03  0.50616684939E+03  0.12699999809E+01 0. -1.
       -4    1    3    3    0  502 -0.40341195003E+03 -0.76855031079E+01 -0.26786260686E+02  0.40437530222E+03  0.12699999809E+01 0.  1.
</event>
<event>
 5   0  0.1559275E-02  0.8628677E+03  0.7818609E-02  0.9473227E-01
        1   -1    0    0  501    0  0.00000000000E+00  0.00000000000E+00  0.39731480355E+03  0.39731480359E+03  0.50400001928E-02 0.  1.
       -1   -1    0    0    0  501  0.00000000000E+00  0.00000000000E+00 -0.46848282084E+03  0.46848282086E+03  0.50400001928E-02 0. -1.
    10030    2    1    2    0    0  0.00000000000E+00  0.00000000000E+00 -0.71168017282E+02  0.86579762445E+03  0.86286768384E+03 0.  0.
        1    1    3    3  502    0 -0.48986517787E+02  0.35638221832E+03  0.20339945014E+03  0.41325452302E+03  0.50400001928E-02 0.  1.
       -1    1    3    3    0  502  0.48986517787E+02 -0.35638221832E+03 -0.27456746742E+03  0.45254310143E+03  0.50400001928E-02 0. -1.
</event>
<event>
 5   0  0.1559275E-02  0.8810058E+03  0.7818609E-02  0.9449642E-01
       -1   -1    0    0    0  501  0.00000000000E+00  0.00000000000E+00  0.14520383008E+03  0.14520383016E+03  0.50400001928E-02 0. -1.
        1   -1    0    0  501    0  0.00000000000E+00  0.00000000000E+00 -0.13363476772E+04  0.13363476772E+04  0.50400001928E-02 0.  1.
    10030    2    1    2    0    0  0.00000000000E+00  0.00000000000E+00 -0.11911438471E+04  0.14815515074E+04  0.88100579139E+03 0.  0.
        1    1    3    3  502    0 -0.39997561128E+03  0.15342156006E+02 -0.90486434734E+03  0.98944194295E+03  0.50400001928E-02 0.  1.
       -1    1    3    3    0  502  0.39997561128E+03 -0.15342156006E+02 -0.28627949981E+03  0.49210956443E+03  0.50400001928E-02 0. -1.
</event>
<event>
 5   0  0.1040163E-02  0.8958708E+03  0.7818609E-02  0.9430758E-01
       -4   -1    0    0    0  501  0.00000000000E+00  0.00000000000E+00  0.23947097508E+03  0.23947434269E+03  0.12699999809E+01 0. -1.
        4   -1    0    0  501    0  0.00000000000E+00  0.00000000000E+00 -0.83786269581E+03  0.83786365832E+03  0.12699999809E+01 0.  1.
    10030    2    1    2    0    0  0.00000000000E+00  0.00000000000E+00 -0.59839172073E+03  0.10773380010E+04  0.89587081489E+03 0.  0.
        5    1    3    3  502    0  0.67811655787E+02 -0.25682172087E+03  0.13450690631E+03  0.29777510778E+03  0.46999998093E+01 0. -1.
       -5    1    3    3    0  502 -0.67811655787E+02  0.25682172087E+03 -0.73289862705E+03  0.77956289323E+03  0.46999998093E+01 0.  1.
</event>
<event>
 5   0  0.1040163E-02  0.8703596E+03  0.7818609E-02  0.9463411E-01
        3   -1    0    0  501    0  0.00000000000E+00  0.00000000000E+00  0.48696923713E+03  0.48696924761E+03  0.10100000352E+00 0.  1.
       -3   -1    0    0    0  501  0.00000000000E+00  0.00000000000E+00 -0.38889819794E+03  0.38889821106E+03  0.10100000352E+00 0. -1.
    10030    2    1    2    0    0  0.00000000000E+00  0.00000000000E+00  0.98071039191E+02  0.87586745867E+03  0.87035962477E+03 0.  0.
        4    1    3    3  502    0  0.38718203563E+03 -0.32877809519E+02  0.24620646790E+03  0.46001099640E+03  0.12699999809E+01 0.  1.
       -4    1    3    3    0  502 -0.38718203563E+03  0.32877809519E+02 -0.14813542871E+03  0.41585646227E+03  0.12699999809E+01 0. -1.
</event>
<event>
 5   0  0.1559275E-02  0.9031897E+03  0.7818609E-02  0.9421603E-01
       -1   -1    0    0    0  501  0.00000000000E+00  0.00000000000E+00  0.34950500509E+03  0.34950500512E+03  0.50400001928E-02 0. -1.
        1   -1    0    0  501    0  0.00000000000E+00  0.00000000000E+00 -0.58350500431E+03  0.58350500433E+03  0.50400001928E-02 0.  1.
    10030    2    1    2    0    0  0.00000000000E+00  0.00000000000E+00 -0.23399999923E+03  0.93301000946E+03  0.90318972432E+03 0.  0.
        1    1    3    3  502    0  0.28706207371E+03 -0.25425093674E+03 -0.36339070127E+03  0.52830008025E+03  0.50400001928E-02 0.  1.
       -1    1    3    3    0  502 -0.28706207371E+03  0.25425093674E+03  0.12939070205E+03  0.40470992921E+03  0.50400001928E-02 0. -1.
</event>
<event>
 5   0  0.2414128E-02  0.9063656E+03  0.7818609E-02  0.9417659E-01
        2   -1    0    0  501    0  0.00000000000E+00  0.00000000000E+00  0.71322309578E+03  0.71322309578E+03  0.25500000920E-02 0. -1.
       -2   -1    0    0    0  501  0.00000000000E+00  0.00000000000E+00 -0.28795290352E+03  0.28795290353E+03  0.25500000920E-02 0.  1.
    10030    2    1    2    0    0  0.00000000000E+00  0.00000000000E+00  0.42527019226E+03  0.10011759993E+04  0.90636562445E+03 0.  0.
        3    1    3    3  502    0 -0.43739815913E+03 -0.10677780866E+03  0.15570772531E+03  0.47640692266E+03  0.10100000352E+00 0. -1.
       -3    1    3    3    0  502  0.43739815913E+03  0.10677780866E+03  0.26956246695E+03  0.52476907666E+03  0.10100000352E+00 0.  1.
</event>
<event>
 5   0  0.1559275E-02  0.8949019E+03  0.7818609E-02  0.9431977E-01
        1   -1    0    0  501    0  0.00000000000E+00  0.00000000000E+00  0.58019607629E+03  0.58019607631E+03  0.50400001928E-02 0.  1.
       -1   -1    0    0    0  501  0.00000000000E+00  0.00000000000E+00 -0.34507708872E+03  0.34507708875E+03  0.50400001928E-02 0. -1.
    10030    2    1    2    0    0  0.00000000000E+00  0.00000000000E+00  0.23511898757E+03  0.92527316506E+03  0.89490194528E+03 0.  0.
        1    1    3    3  502    0  0.38517590721E+03 -0.18188775059E+03  0.25920802284E+03  0.49863055707E+03  0.50400001928E-02 0.  1.
       -1    1    3    3    0  502 -0.38517590721E+03  0.18188775059E+03 -0.24089035269E+02  0.42664260800E+03  0.50400001928E-02 0. -1.
</event>
<event>
 5   0  0.2705111E-02  0.9162412E+03  0.7818609E-02  0.9405504E-01
        2   -1    0    0  501    0  0.00000000000E+00  0.00000000000E+00  0.82291073948E+03  0.82291073948E+03  0.25500000920E-02 0. -1.
       -2   -1    0    0    0  501  0.00000000000E+00  0.00000000000E+00 -0.25503917014E+03  0.25503917016E+03  0.25500000920E-02 0.  1.
    10030    2    1    2    0    0  0.00000000000E+00  0.00000000000E+00  0.56787156933E+03  0.10779499096E+04  0.91624117372E+03 0.  0.
        4    1    3    3  502    0 -0.14204532851E+03 -0.42941746755E+03  0.36955835948E+03  0.58408152749E+03  0.12699999809E+01 0. -1.
       -4    1    3    3    0  502  0.14204532851E+03  0.42941746755E+03  0.19831320985E+03  0.49386838215E+03  0.12699999809E+01 0.  1.
</event>
<event>
 5   0  0.2414128E-02  0.8960617E+03  0.7818609E-02  0.9430518E-01
        2   -1    0    0  501    0  0.00000000000E+00  0.00000000000E+00  0.11353993627E+04  0.11353993627E+04  0.25500000920E-02 0.  1.
       -2   -1    0    0    0  501  0.00000000000E+00  0.00000000000E+00 -0.17679386143E+03  0.17679386144E+03  0.25500000920E-02 0. -1.
    10030    2    1    2    0    0  0.00000000000E+00  0.00000000000E+00  0.95860550129E+03  0.13121932242E+04  0.89606168897E+03 0.  0.
        3    1    3    3  502    0 -0.30122775612E+03  0.20867131531E+03  0.10181179377E+03  0.38032555849E+03  0.10100000352E+00 0. -1.
       -3    1    3    3    0  502  0.30122775612E+03 -0.20867131531E+03  0.85679370751E+03  0.93186766567E+03  0.10100000352E+00 0.  1.
</event>
<event>
 5   0  0.2628383E-02  0.9376973E+03  0.7818609E-02  0.9379647E-01
       -2   -1    0    0    0  501  0.00000000000E+00  0.00000000000E+00  0.52410223999E+03  0.52410223999E+03  0.25500000920E-02 0.  1.
        2   -1    0    0  501    0  0.00000000000E+00  0.00000000000E+00 -0.41942020759E+03  0.41942020760E+03  0.25500000920E-02 0. -1.
    10030    2    1    2    0    0  0.00000000000E+00  0.00000000000E+00  0.10468203240E+03  0.94352244759E+03  0.93769732920E+03 0.  0.
        2    1    3    3  502    0 -0.30963981954E+03 -0.34178220000E+03 -0.32606058568E+02  0.46233650639E+03  0.25500000920E-02 0.  1.
       -2    1    3    3    0  502  0.30963981954E+03  0.34178220000E+03  0.13728809097E+03  0.48118594120E+03  0.25500000920E-02 0. -1.
</event>
<event>
 5   0  0.1537870E-02  0.8772868E+03  0.7818609E-02  0.9454428E-01
       -1   -1    0    0    0  501  0.00000000000E+00  0.00000000000E+00  0.21521886146E+03  0.21521886152E+03  0.50400001928E-02 0. -1.
        1   -1    0    0  501    0  0.00000000000E+00  0.00000000000E+00 -0.89401107892E+03  0.89401107894E+03  0.50400001928E-02 0.  1.
    10030    2    1    2    0    0  0.00000000000E+00  0.00000000000E+00 -0.67879221746E+03  0.11092299405E+04  0.87728683241E+03 0.  0.
        5    1    3    3  502    0  0.27853252024E+03 -0.22284872869E+03 -0.16682482674E+02  0.35713067068E+03  0.46999998093E+01 0. -1.
       -5    1    3    3    0  502 -0.27853252024E+03  0.22284872869E+03 -0.66210973479E+03  0.75209926978E+03  0.46999998093E+01 0.  1.
</event>
<event>
 5   0  0.1559275E-02  0.9989712E+03  0.7818609E-02  0.9309674E-01
        1   -1    0    0  501    0  0.00000000000E+00  0.00000000000E+00  0.45724410460E+03  0.45724410463E+03  0.50400001928E-02 0. -1.
       -1   -1    0    0    0  501  0.00000000000E+00  0.00000000000E+00 -0.54562947046E+03  0.54562947049E+03  0.50400001928E-02 0.  1.
    10030    2    1    2    0    0  0.00000000000E+00  0.00000000000E+00 -0.88385365862E+02  0.10028735751E+04  0.99897118815E+03 0.  0.
        1    1    3    3  502    0  0.28808241567E+03 -0.25532270559E+03  0.27533465064E+03  0.47327616893E+03  0.50400001928E-02 0. -1.
       -1    1    3    3    0  502 -0.28808241567E+03  0.25532270559E+03 -0.36372001650E+03  0.52959740618E+03  0.50400001928E-02 0.  1.
</event>
<event>
 5   0  0.2705111E-02  0.9482566E+03  0.7818609E-02  0.9367191E-01
        2   -1    0    0  501    0  0.00000000000E+00  0.00000000000E+00  0.61596444237E+03  0.61596444238E+03  0.25500000920E-02 0. -1.
       -2   -1    0    0    0  501  0.00000000000E+00  0.00000000000E+00 -0.36495227889E+03  0.36495227890E+03  0.25500000920E-02 0.  1.
    10030    2    1    2    0    0  0.00000000000E+00  0.00000000000E+00  0.25101216348E+03  0.98091672128E+03  0.94825656226E+03 0.  0.
        4    1    3    3  502    0  0.10569857092E+03  0.42964910159E+03  0.30174262011E+03  0.53555649570E+03  0.12699999809E+01 0.  1.
       -4    1    3    3    0  502 -0.10569857092E+03 -0.42964910159E+03 -0.50730456628E+02  0.44536022558E+03  0.12699999809E+01 0. -1.
</event>
<event>
 5   0  0.2705111E-02  0.8993421E+03  0.7818609E-02  0.9426404E-01
        2   -1    0    0  501    0  0.00000000000E+00  0.00000000000E+00  0.47596365004E+03  0.47596365005E+03  0.25500000920E-02 0.  1.
       -2   -1    0    0    0  501  0.00000000000E+00  0.00000000000E+00 -0.42483085132E+03  0.42483085133E+03  0.25500000920E-02 0. -1.
    10030    2    1    2    0    0  0.00000000000E+00  0.00000000000E+00  0.51132798718E+02  0.90079450137E+03  0.89934207652E+03 0.  0.
        4    1    3    3  502    0 -0.55096671070E+02  0.14544119250E+03 -0.39703162417E+03  0.42640884973E+03  0.12699999809E+01 0. -1.
       -4    1    3    3    0  502  0.55096671070E+02 -0.14544119250E+03  0.44816442289E+03  0.47438565164E+03  0.12699999809E+01 0.  1.
</event>
<event>
 5   0  0.2803717E-02  0.9032397E+03  0.7818609E-02  0.9421541E-01
       -2   -1    0    0    0  501  0.00000000000E+00  0.00000000000E+00  0.19412895730E+03  0.19412895732E+03  0.25500000920E-02 0. -1.
        2   -1    0    0  501    0  0.00000000000E+00  0.00000000000E+00 -0.10506442646E+04  0.10506442646E+04  0.25500000920E-02 0.  1.
    10030    2    1    2    0    0  0.00000000000E+00  0.00000000000E+00 -0.85651530733E+03  0.12447732220E+04  0.90323967052E+03 0.  0.
        5    1    3    3  502    0  0.28383185352E+03 -0.18286982855E+03 -0.84154794301E+03  0.90676729410E+03  0.46999998093E+01 0.  1.
       -5    1    3    3    0  502 -0.28383185352E+03  0.18286982855E+03 -0.14967364321E+02  0.33800592785E+03  0.46999998093E+01 0. -1.
</event>
<event>
 5   0  0.2414128E-02  0.8937036E+03  0.7818609E-02  0.9433487E-01
        2   -1    0    0  501    0  0.00000000000E+00  0.00000000000E+00  0.56059387869E+03  0.56059387870E+03  0.25500000920E-02 0.  1.
       -2   -1    0    0    0  501  0.00000000000E+00  0.00000000000E+00 -0.35618750055E+03  0.35618750056E+03  0.25500000920E-02 0. -1.
    10030    2    1    2    0    0  0.00000000000E+00  0.00000000000E+00  0.20440637814E+03  0.91678137926E+03  0.89370360295E+03 0.  0.
        3    1    3    3  502    0  0.18048364601E+03  0.38977301526E+03 -0.24182040461E+02  0.43021172832E+03  0.10100000352E+00 0. -1.
       -3    1    3    3    0  502 -0.18048364601E+03 -0.38977301526E+03  0.22858841860E+03  0.48656965094E+03  0.10100000352E+00 0.  1.
</event>
<event>
 5   0  0.1040163E-02  0.8975989E+03  0.7818609E-02  0.9428588E-01
       -3   -1    0    0    0  501  0.00000000000E+00  0.00000000000E+00  0.11231168544E+04  0.11231168589E+04  0.10100000352E+00 0.  1.
        3   -1    0    0  501    0  0.00000000000E+00  0.00000000000E+00 -0.17934103069E+03  0.17934105913E+03  0.10100000352E+00 0. -1.
    10030    2    1    2    0    0  0.00000000000E+00  0.00000000000E+00  0.94377582368E+03  0.13024579181E+04  0.89759892097E+03 0.  0.
        3    1    3    3  502    0 -0.40686919310E+03 -0.17553274326E+03  0.57517411532E+03  0.72607131701E+03  0.10100000352E+00 0.  1.
       -3    1    3    3    0  502  0.40686919310E+03  0.17553274326E+03  0.36860170836E+03  0.57638660104E+03  0.10100000352E+00 0. -1.
</event>
<event>
 5   0  0.2705111E-02  0.9052571E+03  0.7818609E-02  0.9419034E-01
        2   -1    0    0  501    0  0.00000000000E+00  0.00000000000E+00  0.74905665964E+03  0.74905665964E+03  0.25500000920E-02 0.  1.
       -2   -1    0    0    0  501  0.00000000000E+00  0.00000000000E+00 -0.27350747947E+03  0.27350747948E+03  0.25500000920E-02 0. -1.
    10030    2    1    2    0    0  0.00000000000E+00  0.00000000000E+00  0.47554918017E+03  0.10225641391E+04  0.90525708826E+03 0.  0.
        4    1    3    3  502    0 -0.34160320568E+03  0.27327737982E+03  0.10653989566E+03  0.45025063988E+03  0.12699999809E+01 0. -1.
       -4    1    3    3    0  502  0.34160320568E+03 -0.27327737982E+03  0.36900928451E+03  0.57231349924E+03  0.12699999809E+01 0.  1.
</event>
<event>
 5   0  0.1040163E-02  0.6278236E+03  0.7818609E-02  0.9849305E-01
       -3   -1    0    0    0  501  0.00000000000E+00  0.00000000000E+00  0.47347642793E+03  0.47347643870E+03  0.10100000352E+00 0. -1.
        3   -1    0    0  501    0  0.00000000000E+00  0.00000000000E+00 -0.20812147759E+03  0.20812150210E+03  0.10100000352E+00 0.  1.
    10030    2    1    2    0    0  0.00000000000E+00  0.00000000000E+00  0.26535495034E+03  0.68159794080E+03  0.62782362430E+03 0.  0.
        1    1    3    3  502    0 -0.10241823160E+03 -0.61975123990E+02  0.44772277569E+03  0.46345020666E+03  0.50400001928E-02 0. -1.
       -1    1    3    3    0  502  0.10241823160E+03  0.61975123990E+02 -0.18236782536E+03  0.21814773413E+03  0.50400001928E-02 0.  1.
</event>
<event>
 5   0  0.1537870E-02  0.8972185E+03  0.7818609E-02  0.9429065E-01
       -1   -1    0    0    0  501  0.00000000000E+00  0.00000000000E+00  0.86030641300E+03  0.86030641302E+03  0.50400001928E-02 0. -1.
        1   -1    0    0  501    0  0.00000000000E+00  0.00000000000E+00 -0.23392856303E+03  0.23392856308E+03  0.50400001928E-02 0.  1.
    10030    2    1    2    0    0  0.00000000000E+00  0.00000000000E+00  0.62637784998E+03  0.10942349761E+04  0.89721846391E+03 0.  0.
        5    1    3    3  502    0  0.16678638787E+03 -0.36027024516E+03  0.58485765256E+02  0.40131661250E+03  0.46999998093E+01 0.  1.
       -5    1    3    3    0  502 -0.16678638787E+03  0.36027024516E+03  0.56789208472E+03  0.69291836360E+03  0.46999998093E+01 0. -1.
</event>
<event>
 5   0  0.1459111E-02  0.8911029E+03  0.7818609E-02  0.9436772E-01
        1   -1    0    0  501    0  0.00000000000E+00  0.00000000000E+00  0.13825117594E+04  0.13825117595E+04  0.50400001928E-02 0.  1.
       -1   -1    0    0    0  501  0.00000000000E+00  0.00000000000E+00 -0.14359089231E+03  0.14359089240E+03  0.50400001928E-02 0. -1.
    10030    2    1    2    0    0  0.00000000000E+00  0.00000000000E+00  0.12389208671E+04  0.15261026519E+04  0.89110290595E+03 0.  0.
        2    1    3    3  502    0 -0.15286026855E+03  0.30933545466E+03  0.13669737939E+03  0.37113455613E+03  0.25500000920E-02 0. -1.
       -2    1    3    3    0  502  0.15286026855E+03 -0.30933545466E+03  0.11022234877E+04  0.11549680957E+04  0.25500000920E-02 0.  1.
</event>
<event>
 5   0  0.1040163E-02  0.9208854E+03  0.7818609E-02  0.9399844E-01
       -3   -1    0    0    0  501  0.00000000000E+00  0.00000000000E+00  0.16998309119E+04  0.16998309149E+04  0.10100000352E+00 0.  1.
        3   -1    0    0  501    0  0.00000000000E+00  0.00000000000E+00 -0.12472265987E+03  0.12472270077E+03  0.10100000352E+00 0. -1.
    10030    2    1    2    0    0  0.00000000000E+00  0.00000000000E+00  0.15751082520E+04  0.18245536157E+04  0.92088538420E+03 0.  0.
        4    1    3    3  502    0  0.24321520500E+03 -0.19585487618E+03  0.11714380671E+03  0.33352219239E+03  0.12699999809E+01 0. -1.
       -4    1    3    3    0  502 -0.24321520500E+03  0.19585487618E+03  0.14579644453E+04  0.14910314233E+04  0.12699999809E+01 0.  1.
</event>
<event>
 5   0  0.2705111E-02  0.9656317E+03  0.7818609E-02  0.9347064E-01
       -2   -1    0    0    0  501  0.00000000000E+00  0.00000000000E+00  0.87506984683E+03  0.87506984683E+03  0.25500000920E-02 0.  1.
        2   -1    0    0  501    0  0.00000000000E+00  0.00000000000E+00 -0.26639149685E+03  0.26639149686E+03  0.25500000920E-02 0. -1.
    10030    2    1    2    0    0  0.00000000000E+00  0.00000000000E+00  0.60867834998E+03  0.11414613437E+04  0.96563174421E+03 0.  0.
        4    1    3    3  502    0 -0.33833799416E+03  0.32678571385E+03  0.17567040275E+03  0.50211871542E+03  0.12699999809E+01 0. -1.
       -4    1    3    3    0  502  0.33833799416E+03 -0.32678571385E+03  0.43300794722E+03  0.63934262828E+03  0.12699999809E+01 0.  1.
</event>
<event>
 5   0  0.2414128E-02  0.9420766E+03  0.7818609E-02  0.9374460E-01
       -2   -1    0    0    0  501  0.00000000000E+00  0.00000000000E+00  0.11892917190E+03  0.11892917193E+03  0.25500000920E-02 0.  1.
        2   -1    0    0  501    0  0.00000000000E+00  0.00000000000E+00 -0.18656236215E+04  0.18656236215E+04  0.25500000920E-02 0. -1.
    10030    2    1    2    0    0  0.00000000000E+00  0.00000000000E+00 -0.17466944496E+04  0.19845527935E+04  0.94207658376E+03 0.  0.
        3    1    3    3  502    0 -0.72692575266E+02  0.39048148311E+03 -0.33993463983E+03  0.52279591496E+03  0.10100000352E+00 0.  1.
       -3    1    3    3    0  502  0.72692575266E+02 -0.39048148311E+03 -0.14067598098E+04  0.14617568785E+04  0.10100000352E+00 0. -1.
</event>
<event>
 5   0  0.1537870E-02  0.9031483E+03  0.7818609E-02  0.9421654E-01
       -1   -1    0    0    0  501  0.00000000000E+00  0.00000000000E+00  0.21157430133E+03  0.21157430139E+03  0.50400001928E-02 0.  1.
        1   -1    0    0  501    0  0.00000000000E+00  0.00000000000E+00 -0.96381842858E+03  0.96381842859E+03  0.50400001928E-02 0. -1.
    10030    2    1    2    0    0  0.00000000000E+00  0.00000000000E+00 -0.75224412725E+03  0.11753927300E+04  0.90314829497E+03 0.  0.
        5    1    3    3  502    0  0.29243019166E+03 -0.28055388142E+03 -0.63533801915E+03  0.75359298428E+03  0.46999998093E+01 0. -1.
       -5    1    3    3    0  502 -0.29243019166E+03  0.28055388142E+03 -0.11690610810E+03  0.42179974571E+03  0.46999998093E+01 0.  1.
</event>
<event>
 5   0  0.2628383E-02  0.9044913E+03  0.7818609E-02  0.9419984E-01
       -2   -1    0    0    0  501  0.00000000000E+00  0.00000000000E+00  0.59357142788E+03  0.59357142789E+03  0.25500000920E-02 0.  1.
        2   -1    0    0  501    0  0.00000000000E+00  0.00000000000E+00 -0.34456869053E+03  0.34456869054E+03  0.25500000920E-02 0. -1.
    10030    2    1    2    0    0  0.00000000000E+00  0.00000000000E+00  0.24900273735E+03  0.93814011843E+03  0.90449130377E+03 0.  0.
        2    1    3    3  502    0 -0.38100706310E+03 -0.98476604191E+02 -0.10663904103E+03  0.40772038064E+03  0.25500000920E-02 0. -1.
       -2    1    3    3    0  502  0.38100706310E+03  0.98476604191E+02  0.35564177838E+03  0.53041973779E+03  0.25500000920E-02 0.  1.
</event>
<event>
 5   0  0.1040163E-02  0.8009334E+03  0.7818609E-02  0.9558667E-01
        3   -1    0    0  501    0  0.00000000000E+00  0.00000000000E+00  0.65698141661E+03  0.65698142438E+03  0.10100000352E+00 0.  1.
       -3   -1    0    0    0  501  0.00000000000E+00  0.00000000000E+00 -0.24410669082E+03  0.24410671172E+03  0.10100000352E+00 0. -1.
    10030    2    1    2    0    0  0.00000000000E+00  0.00000000000E+00  0.41287472579E+03  0.90108813609E+03  0.80093338663E+03 0.  0.
        3    1    3    3  502    0 -0.11098519215E+03 -0.52847722993E+02 -0.22235627231E+03  0.25407266035E+03  0.10100000352E+00 0. -1.
       -3    1    3    3    0  502  0.11098519215E+03  0.52847722993E+02  0.63523099810E+03  0.64701547574E+03  0.10100000352E+00 0.  1.
</event>
<event>
 5   0  0.2705111E-02  0.8681375E+03  0.7818609E-02  0.9466312E-01
        2   -1    0    0  501    0  0.00000000000E+00  0.00000000000E+00  0.17178338814E+03  0.17178338816E+03  0.25500000920E-02 0. -1.
       -2   -1    0    0    0  501  0.00000000000E+00  0.00000000000E+00 -0.10968212304E+04  0.10968212304E+04  0.25500000920E-02 0.  1.
    10030    2    1    2    0    0  0.00000000000E+00  0.00000000000E+00 -0.92503784223E+03  0.12686046185E+04  0.86813747103E+03 0.  0.
        4    1    3    3  502    0  0.14003476023E+03  0.33089833901E+03 -0.10663859529E+03  0.37480241159E+03  0.12699999809E+01 0. -1.
       -4    1    3    3    0  502 -0.14003476023E+03 -0.33089833901E+03 -0.81839924694E+03  0.89380220693E+03  0.12699999809E+01 0.  1.
</event>
<event>
 5   0  0.1559275E-02  0.6839397E+03  0.7818609E-02  0.9745099E-01
        1   -1    0    0  501    0  0.00000000000E+00  0.00000000000E+00  0.11969999786E+04  0.11969999786E+04  0.50400001928E-02 0.  1.
       -1   -1    0    0    0  501  0.00000000000E+00  0.00000000000E+00 -0.97697065803E+02  0.97697065933E+02  0.50400001928E-02 0. -1.
    10030    2    1    2    0    0  0.00000000000E+00  0.00000000000E+00  0.10993029128E+04  0.12946970445E+04  0.68393972179E+03 0.  0.
        1    1    3    3  502    0  0.22831719716E+03  0.18257278496E+03  0.88552844802E+03  0.93253535944E+03  0.50400001928E-02 0. -1.
       -1    1    3    3    0  502 -0.22831719716E+03 -0.18257278496E+03  0.21377446474E+03  0.36216168506E+03  0.50400001928E-02 0.  1.
</event>
<event>
 5   0  0.2628383E-02  0.9040120E+03  0.7818609E-02  0.9420580E-01
        2   -1    0    0  501    0  0.00000000000E+00  0.00000000000E+00  0.13755963604E+04  0.13755963604E+04  0.25500000920E-02 0. -1.
       -2   -1    0    0    0  501  0.00000000000E+00  0.00000000000E+00 -0.14852426913E+03  0.14852426915E+03  0.25500000920E-02 0.  1.
    10030    2    1    2    0    0  0.00000000000E+00  0.00000000000E+00  0.12270720913E+04  0.15241206296E+04  0.90401204431E+03 0.  0.
        2    1    3    3  502    0  0.85211536403E+02  0.26861963712E+03  0.12093522506E+04  0.12417529470E+04  0.25500000920E-02 0. -1.
       -2    1    3    3    0  502 -0.85211536403E+02 -0.26861963712E+03  0.17719840677E+02  0.28236768254E+03  0.25500000920E-02 0.  1.
</event>
<event>
 5   0  0.1537870E-02  0.8932794E+03  0.7818609E-02  0.9434022E-01
       -1   -1    0    0    0  501  0.00000000000E+00  0.00000000000E+00  0.14248502782E+04  0.14248502782E+04  0.50400001928E-02 0. -1.
        1   -1    0    0  501    0  0.00000000000E+00  0.00000000000E+00 -0.14000560818E+03  0.14000560828E+03  0.50400001928E-02 0.  1.
    10030    2    1    2    0    0  0.00000000000E+00  0.00000000000E+00  0.12848446701E+04  0.15648558865E+04  0.89327941845E+03 0.  0.
        5    1    3    3  502    0  0.42827242704E+03  0.73732699086E+01  0.42088031947E+03  0.60052807610E+03  0.46999998093E+01 0.  1.
       -5    1    3    3    0  502 -0.42827242704E+03 -0.73732699086E+01  0.86396435059E+03  0.96432781042E+03  0.46999998093E+01 0. -1.
</event>
<event>
 5   0  0.1040163E-02  0.9221045E+03  0.7818609E-02  0.9398364E-01
       -3   -1    0    0    0  501  0.00000000000E+00  0.00000000000E+00  0.26233599301E+03  0.26233601246E+03  0.10100000352E+00 0.  1.
        3   -1    0    0  501    0  0.00000000000E+00  0.00000000000E+00 -0.81029354162E+03  0.81029354791E+03  0.10100000352E+00 0. -1.
    10030    2    1    2    0    0  0.00000000000E+00  0.00000000000E+00 -0.54795754860E+03  0.10726295604E+04  0.92210449446E+03 0.  0.
        2    1    3    3  502    0 -0.30462263475E+03 -0.19901105070E+03  0.55382387969E+02  0.36805917569E+03  0.25500000920E-02 0.  1.
       -2    1    3    3    0  502  0.30462263475E+03  0.19901105070E+03 -0.60333993657E+03  0.70457038468E+03  0.25500000920E-02 0. -1.
</event>
<event>
 5   0  0.1559275E-02  0.9058199E+03  0.7818609E-02  0.9418335E-01
       -1   -1    0    0    0  501  0.00000000000E+00  0.00000000000E+00  0.44893487797E+03  0.44893487800E+03  0.50400001928E-02 0.  1.
        1   -1    0    0  501    0  0.00000000000E+00  0.00000000000E+00 -0.45692023273E+03  0.45692023275E+03  0.50400001928E-02 0. -1.
    10030    2    1    2    0    0  0.00000000000E+00  0.00000000000E+00 -0.79853547594E+01  0.90585511075E+03  0.90581991355E+03 0.  0.
        1    1    3    3  502    0 -0.32780331577E+03 -0.49973424861E+01 -0.31649072589E+03  0.45568230914E+03  0.50400001928E-02 0. -1.
       -1    1    3    3    0  502  0.32780331577E+03  0.49973424861E+01  0.30850537114E+03  0.45017280161E+03  0.50400001928E-02 0.  1.
</event>
<event>
 5   0  0.2803717E-02  0.8931104E+03  0.7818609E-02  0.9434235E-01
        2   -1    0    0  501    0  0.00000000000E+00  0.00000000000E+00  0.12269669247E+04  0.12269669247E+04  0.25500000920E-02 0. -1.
       -2   -1    0    0    0  501  0.00000000000E+00  0.00000000000E+00 -0.16252398641E+03  0.16252398643E+03  0.25500000920E-02 0.  1.
    10030    2    1    2    0    0  0.00000000000E+00  0.00000000000E+00  0.10644429383E+04  0.13894909111E+04  0.89311042050E+03 0.  0.
        5    1    3    3  502    0 -0.85347598492E+02  0.37795646870E+03  0.87750194105E+03  0.95925338224E+03  0.46999998093E+01 0. -1.
       -5    1    3    3    0  502  0.85347598492E+02 -0.37795646870E+03  0.18694099723E+03  0.43023752887E+03  0.46999998093E+01 0.  1.
</event>
<event>
 5   0  0.1537870E-02  0.9176538E+03  0.7818609E-02  0.9403778E-01
       -1   -1    0    0    0  501  0.00000000000E+00  0.00000000000E+00  0.51404199384E+03  0.51404199387E+03  0.50400001928E-02 0.  1.
        1   -1    0    0  501    0  0.00000000000E+00  0.00000000000E+00 -0.40954269696E+03  0.40954269699E+03  0.50400001928E-02 0. -1.
    10030    2    1    2    0    0  0.00000000000E+00  0.00000000000E+00  0.10449929688E+03  0.92358469086E+03  0.91765384440E+03 0.  0.
        5    1    3    3  502    0 -0.18525270596E+02 -0.11430882195E+03  0.49906751529E+03  0.51234770151E+03  0.46999998093E+01 0.  1.
       -5    1    3    3    0  502  0.18525270596E+02  0.11430882195E+03 -0.39456821841E+03  0.41123698935E+03  0.46999998093E+01 0. -1.
</event>
<event>
 5   0  0.2414128E-02  0.8831486E+03  0.7818609E-02  0.9446895E-01
       -2   -1    0    0    0  501  0.00000000000E+00  0.00000000000E+00  0.60171923810E+03  0.60171923811E+03  0.25500000920E-02 0.  1.
        2   -1    0    0  501    0  0.00000000000E+00  0.00000000000E+00 -0.32405120735E+03  0.32405120736E+03  0.25500000920E-02 0. -1.
    10030    2    1    2    0    0  0.00000000000E+00  0.00000000000E+00  0.27766803075E+03  0.92577044547E+03  0.88314856191E+03 0.  0.
        3    1    3    3  502    0  0.83829569247E+02  0.32261817461E+03 -0.16476017418E+03  0.37182765963E+03  0.10100000352E+00 0. -1.
       -3    1    3    3    0  502 -0.83829569247E+02 -0.32261817461E+03  0.44242820493E+03  0.55394278584E+03  0.10100000352E+00 0.  1.
</event>
<event>
 5   0  0.1559275E-02  0.9098737E+03  0.7818609E-02  0.9413322E-01
        1   -1    0    0  501    0  0.00000000000E+00  0.00000000000E+00  0.82959056591E+03  0.82959056592E+03  0.50400001928E-02 0. -1.
       -1   -1    0    0    0  501  0.00000000000E+00  0.00000000000E+00 -0.24948152779E+03  0.24948152784E+03  0.50400001928E-02 0.  1.
    10030    2    1    2    0    0  0.00000000000E+00  0.00000000000E+00  0.58010903811E+03  0.10790720938E+04  0.90987366565E+03 0.  0.
        1    1    3    3  502    0  0.30616021238E+03  0.29196076102E+03  0.48847620017E+03  0.64620752067E+03  0.50400001928E-02 0.  1.
       -1    1    3    3    0  502 -0.30616021238E+03 -0.29196076102E+03  0.91632837947E+02  0.43286457309E+03  0.50400001928E-02 0. -1.
</event>
<event>
 5   0  0.1497410E-02  0.1068273E+04  0.7818609E-02  0.9236679E-01
        1   -1    0    0  501    0  0.00000000000E+00  0.00000000000E+00  0.79505031480E+03  0.79505031481E+03  0.50400001928E-02 0. -1.
       -1   -1    0    0    0  501  0.00000000000E+00  0.00000000000E+00 -0.35884776090E+03  0.35884776093E+03  0.50400001928E-02 0.  1.
    10030    2    1    2    0    0  0.00000000000E+00  0.00000000000E+00  0.43620255390E+03  0.11538980757E+04  0.10682734206E+04 0.  0.
        3    1    3    3  502    0  0.42860383635E+03  0.28644214865E+03  0.36913602203E+03  0.63404397799E+03  0.10100000352E+00 0. -1.
       -3    1    3    3    0  502 -0.42860383635E+03 -0.28644214865E+03  0.67066531866E+02  0.51985409776E+03  0.10100000352E+00 0.  1.
</event>
<event>
 5   0  0.2414128E-02  0.8958839E+03  0.7818609E-02  0.9430741E-01
       -2   -1    0    0    0  501  0.00000000000E+00  0.00000000000E+00  0.13664195189E+03  0.13664195191E+03  0.25500000920E-02 0. -1.
        2   -1    0    0  501    0  0.00000000000E+00  0.00000000000E+00 -0.14684507004E+04  0.14684507005E+04  0.25500000920E-02 0.  1.
    10030    2    1    2    0    0  0.00000000000E+00  0.00000000000E+00 -0.13318087486E+04  0.16050926524E+04  0.89588385404E+03 0.  0.
        3    1    3    3  502    0 -0.41691170813E+03 -0.47886248097E+02 -0.94658768933E+03  0.10354403551E+04  0.10100000352E+00 0. -1.
       -3    1    3    3    0  502  0.41691170813E+03  0.47886248097E+02 -0.38522105923E+03  0.56965229729E+03  0.10100000352E+00 0.  1.
</event>
<event>
 5   0  0.2803717E-02  0.9746659E+03  0.7818609E-02  0.9336776E-01
       -2   -1    0    0    0  501  0.00000000000E+00  0.00000000000E+00  0.10689845093E+03  0.10689845096E+03  0.25500000920E-02 0.  1.
        2   -1    0    0  501    0  0.00000000000E+00  0.00000000000E+00 -0.22216729189E+04  0.22216729189E+04  0.25500000920E-02 0. -1.
    10030    2    1    2    0    0  0.00000000000E+00  0.00000000000E+00 -0.21147744679E+04  0.23285713698E+04  0.97466587820E+03 0.  0.
        5    1    3    3  502    0 -0.22267270684E+03 -0.21751067708E+03 -0.19531465853E+04  0.19778012294E+04  0.46999998093E+01 0. -1.
       -5    1    3    3    0  502  0.22267270684E+03  0.21751067708E+03 -0.16162788260E+03  0.35077014047E+03  0.46999998093E+01 0.  1.
</event>
<event>
 5   0  0.2803717E-02  0.6752132E+03  0.7818609E-02  0.9760586E-01
       -2   -1    0    0    0  501  0.00000000000E+00  0.00000000000E+00  0.76303905734E+02  0.76303905777E+02  0.25500000920E-02 0.  1.
        2   -1    0    0  501    0  0.00000000000E+00  0.00000000000E+00 -0.14937403469E+04  0.14937403469E+04  0.25500000920E-02 0. -1.
    10030    2    1    2    0    0  0.00000000000E+00  0.00000000000E+00 -0.14174364412E+04  0.15700442527E+04  0.67521321864E+03 0.  0.
        5    1    3    3  502    0  0.31037758867E+03  0.13217273993E+03 -0.73740966141E+03  0.81092476807E+03  0.46999998093E+01 0. -1.
       -5    1    3    3    0  502 -0.31037758867E+03 -0.13217273993E+03 -0.68002677975E+03  0.75911948460E+03  0.46999998093E+01 0.  1.
</event>
<event>
 5   0  0.1560728E-02  0.9063648E+03  0.7818609E-02  0.9417660E-01
        1   -1    0    0  501    0  0.00000000000E+00  0.00000000000E+00  0.92510314558E+03  0.92510314559E+03  0.50400001928E-02 0. -1.
       -1   -1    0    0    0  501  0.00000000000E+00  0.00000000000E+00 -0.22200148871E+03  0.22200148877E+03  0.50400001928E-02 0.  1.
    10030    2    1    2    0    0  0.00000000000E+00  0.00000000000E+00  0.70310165687E+03  0.11471046344E+04  0.90636477331E+03 0.  0.
        4    1    3    3  502    0  0.11994574913E+03  0.21338444585E+03  0.83423270996E+03  0.86940538976E+03  0.12699999809E+01 0. -1.
       -4    1    3    3    0  502 -0.11994574913E+03 -0.21338444585E+03 -0.13113105310E+03  0.27769924460E+03  0.12699999809E+01 0.  1.
</event>
<event>
 5   0  0.1537870E-02  0.8820355E+03  0.7818609E-02  0.9448321E-01
        1   -1    0    0  501    0  0.00000000000E+00  0.00000000000E+00  0.73240029524E+03  0.73240029525E+03  0.50400001928E-02 0. -1.
       -1   -1    0    0    0  501  0.00000000000E+00  0.00000000000E+00 -0.26556061049E+03  0.26556061053E+03  0.50400001928E-02 0.  1.
    10030    2    1    2    0    0  0.00000000000E+00  0.00000000000E+00  0.46683968475E+03  0.99796090579E+03  0.88203553116E+03 0.  0.
        5    1    3    3  502    0  0.37428465868E+03  0.57114473078E+01  0.49719811583E+03  0.62237423046E+03  0.46999998093E+01 0. -1.
       -5    1    3    3    0  502 -0.37428465868E+03 -0.57114473078E+01 -0.30358431084E+02  0.37558667533E+03  0.46999998093E+01 0.  1.
</event>
<event>
 5   0  0.1459111E-02  0.9030429E+03  0.7818609E-02  0.9421786E-01
       -1   -1    0    0    0  501  0.00000000000E+00  0.00000000000E+00  0.76424187307E+03  0.76424187308E+03  0.50400001928E-02 0. -1.
        1   -1    0    0  501    0  0.00000000000E+00  0.00000000000E+00 -0.26676323098E+03  0.26676323102E+03  0.50400001928E-02 0.  1.
    10030    2    1    2    0    0  0.00000000000E+00  0.00000000000E+00  0.49747864209E+03  0.10310051041E+04  0.90304292553E+03 0.  0.
        2    1    3    3  502    0  0.43822817345E+03 -0.10872421336E+03  0.25170439492E+03  0.51693325392E+03  0.25500000920E-02 0. -1.
       -2    1    3    3    0  502 -0.43822817345E+03  0.10872421336E+03  0.24577424717E+03  0.51407185019E+03  0.25500000920E-02 0.  1.
</event>
<event>
 5   0  0.1559275E-02  0.8710403E+03  0.7818609E-02  0.9462525E-01
        1   -1    0    0  501    0  0.00000000000E+00  0.00000000000E+00  0.49192686786E+03  0.49192686789E+03  0.50400001928E-02 0. -1.
       -1   -1    0    0    0  501  0.00000000000E+00  0.00000000000E+00 -0.38558129448E+03  0.38558129452E+03  0.50400001928E-02 0.  1.
    10030    2    1    2    0    0  0.00000000000E+00  0.00000000000E+00  0.10634557338E+03  0.87750816241E+03  0.87104029419E+03 0.  0.
        1    1    3    3  502    0  0.32893967996E+03 -0.16029833361E+03  0.29110639629E+03  0.46758935274E+03  0.50400001928E-02 0. -1.
       -1    1    3    3    0  502 -0.32893967996E+03  0.16029833361E+03 -0.18476082291E+03  0.40991880966E+03  0.50400001928E-02 0.  1.
</event>
<event>
 5   0  0.1040163E-02  0.8795253E+03  0.7818609E-02  0.9451544E-01
        3   -1    0    0  501    0  0.00000000000E+00  0.00000000000E+00  0.73718326331E+03  0.73718327023E+03  0.10100000352E+00 0.  1.
       -3   -1    0    0    0  501  0.00000000000E+00  0.00000000000E+00 -0.26233801249E+03  0.26233803193E+03  0.10100000352E+00 0. -1.
    10030    2    1    2    0    0  0.00000000000E+00  0.00000000000E+00  0.47484525082E+03  0.99952130216E+03  0.87952533860E+03 0.  0.
        4    1    3    3  502    0  0.29583673685E+03  0.97084506005E+02 -0.11550295987E+03  0.33209535200E+03  0.12699999809E+01 0. -1.
       -4    1    3    3    0  502 -0.29583673685E+03 -0.97084506005E+02  0.59034821069E+03  0.66742595016E+03  0.12699999809E+01 0.  1.
</event>
<event>
 5   0  0.1560728E-02  0.9528668E+03  0.7818609E-02  0.9361806E-01
       -1   -1    0    0    0  501  0.00000000000E+00  0.00000000000E+00  0.25592315061E+03  0.25592315065E+03  0.50400001928E-02 0. -1.
        1   -1    0    0  501    0  0.00000000000E+00  0.00000000000E+00 -0.88694121477E+03  0.88694121478E+03  0.50400001928E-02 0.  1.
    10030    2    1    2    0    0  0.00000000000E+00  0.00000000000E+00 -0.63101806416E+03  0.11428643654E+04  0.95286681151E+03 0.  0.
        4    1    3    3  502    0  0.40286051126E+03  0.25427449506E+03 -0.30840653839E+03  0.56751063091E+03  0.12699999809E+01 0.  1.
       -4    1    3    3    0  502 -0.40286051126E+03 -0.25427449506E+03 -0.32261152577E+03  0.57535373453E+03  0.12699999809E+01 0. -1.
</event>
<event>
 5   0  0.2414128E-02  0.8520043E+03  0.7818609E-02  0.9487651E-01
       -2   -1    0    0    0  501  0.00000000000E+00  0.00000000000E+00  0.11535889812E+03  0.11535889815E+03  0.25500000920E-02 0. -1.
        2   -1    0    0  501    0  0.00000000000E+00  0.00000000000E+00 -0.15731586174E+04  0.15731586174E+04  0.25500000920E-02 0.  1.
    10030    2    1    2    0    0  0.00000000000E+00  0.00000000000E+00 -0.14577997193E+04  0.16885175155E+04  0.85200433026E+03 0.  0.
        3    1    3    3  502    0  0.27912720287E+03  0.55173381145E+02 -0.13572384893E+04  0.13867416574E+04  0.10100000352E+00 0.  1.
       -3    1    3    3    0  502 -0.27912720287E+03 -0.55173381145E+02 -0.10056122996E+03  0.30177585812E+03  0.10100000352E+00 0. -1.
</event>
<event>
 5   0  0.2803717E-02  0.8490026E+03  0.7818609E-02  0.9491677E-01
        2   -1    0    0  501    0  0.00000000000E+00  0.00000000000E+00  0.33605140747E+03  0.33605140748E+03  0.25500000920E-02 0.  1.
       -2   -1    0    0    0  501  0.00000000000E+00  0.00000000000E+00 -0.53623150253E+03  0.53623150254E+03  0.25500000920E-02 0. -1.
    10030    2    1    2    0    0  0.00000000000E+00  0.00000000000E+00 -0.20018009507E+03  0.87228291002E+03  0.84900259401E+03 0.  0.
        5    1    3    3  502    0 -0.16277746233E+03  0.39054395202E+03 -0.13505528353E+03  0.44416562261E+03  0.46999998093E+01 0.  1.
       -5    1    3    3    0  502  0.16277746233E+03 -0.39054395202E+03 -0.65124811533E+02  0.42811728741E+03  0.46999998093E+01 0. -1.
</event>
<event>
 5   0  0.2803717E-02  0.9014204E+03  0.7818609E-02  0.9423808E-01
        2   -1    0    0  501    0  0.00000000000E+00  0.00000000000E+00  0.65687122651E+03  0.65687122652E+03  0.25500000920E-02 0. -1.
       -2   -1    0    0    0  501  0.00000000000E+00  0.00000000000E+00 -0.30925343603E+03  0.30925343604E+03  0.25500000920E-02 0.  1.
    10030    2    1    2    0    0  0.00000000000E+00  0.00000000000E+00  0.34761779049E+03  0.96612466255E+03  0.90142039878E+03 0.  0.
        5    1    3    3  502    0  0.31937522744E+03 -0.29036485182E+03  0.31274946028E+03  0.53305402914E+03  0.46999998093E+01 0. -1.
       -5    1    3    3    0  502 -0.31937522744E+03  0.29036485182E+03  0.34868330204E+02  0.43307063341E+03  0.46999998093E+01 0.  1.
</event>
<event>
 5   0  0.1559275E-02  0.6953297E+03  0.7818609E-02  0.9725252E-01
       -1   -1    0    0    0  501  0.00000000000E+00  0.00000000000E+00  0.84288857056E+02  0.84288857207E+02  0.50400001928E-02 0.  1.
        1   -1    0    0  501    0  0.00000000000E+00  0.00000000000E+00 -0.14340075718E+04  0.14340075718E+04  0.50400001928E-02 0. -1.
    10030    2    1    2    0    0  0.00000000000E+00  0.00000000000E+00 -0.13497187147E+04  0.15182964290E+04  0.69532973288E+03 0.  0.
        1    1    3    3  502    0 -0.27056745213E+03  0.16800682660E+02 -0.19955501952E+03  0.33661731229E+03  0.50400001928E-02 0.  1.
       -1    1    3    3    0  502  0.27056745213E+03 -0.16800682660E+02 -0.11501636952E+04  0.11816791167E+04  0.50400001928E-02 0. -1.
</event>
<event>
 5   0  0.2679861E-02  0.8657229E+03  0.7818609E-02  0.9469474E-01
       -2   -1    0    0    0  501  0.00000000000E+00  0.00000000000E+00  0.18469352947E+03  0.18469352949E+03  0.25500000920E-02 0. -1.
        2   -1    0    0  501    0  0.00000000000E+00  0.00000000000E+00 -0.10144861763E+04  0.10144861763E+04  0.25500000920E-02 0.  1.
    10030    2    1    2    0    0  0.00000000000E+00  0.00000000000E+00 -0.82979264686E+03  0.11991797058E+04  0.86572289451E+03 0.  0.
        1    1    3    3  502    0 -0.27879068440E+03 -0.24519585834E+03 -0.72315282888E+03  0.81289314710E+03  0.50400001928E-02 0.  1.
       -1    1    3    3    0  502  0.27879068440E+03  0.24519585834E+03 -0.10663981798E+03  0.38628655873E+03  0.50400001928E-02 0. -1.
</event>
<event>
 5   0  0.2679861E-02  0.9296713E+03  0.7818609E-02  0.9389232E-01
        2   -1    0    0  501    0  0.00000000000E+00  0.00000000000E+00  0.33405966374E+03  0.33405966375E+03  0.25500000920E-02 0.  1.
       -2   -1    0    0    0  501  0.00000000000E+00  0.00000000000E+00 -0.64680714122E+03  0.64680714123E+03  0.25500000920E-02 0. -1.
    10030    2    1    2    0    0  0.00000000000E+00  0.00000000000E+00 -0.31274747748E+03  0.98086680498E+03  0.92967128838E+03 0.  0.
        1    1    3    3  502    0 -0.10372238389E+03 -0.26621787648E+02  0.32086849635E+03  0.33826564188E+03  0.50400001928E-02 0.  1.
       -1    1    3    3    0  502  0.10372238389E+03  0.26621787648E+02 -0.63361597383E+03  0.64260116310E+03  0.50400001928E-02 0. -1.
</event>
<event>
 5   0  0.1559275E-02  0.9621540E+03  0.7818609E-02  0.9351056E-01
       -1   -1    0    0    0  501  0.00000000000E+00  0.00000000000E+00  0.15694585388E+03  0.15694585396E+03  0.50400001928E-02 0. -1.
        1   -1    0    0  501    0  0.00000000000E+00  0.00000000000E+00 -0.14746174251E+04  0.14746174251E+04  0.50400001928E-02 0.  1.
    10030    2    1    2    0    0  0.00000000000E+00  0.00000000000E+00 -0.13176715712E+04  0.16315632791E+04  0.96215402301E+03 0.  0.
        1    1    3    3  502    0 -0.24727788959E+03 -0.32065649176E+03 -0.10992980681E+04  0.11715046662E+04  0.50400001928E-02 0. -1.
       -1    1    3    3    0  502  0.24727788959E+03  0.32065649176E+03 -0.21837350316E+03  0.46005861289E+03  0.50400001928E-02 0.  1.
</event>
<event>
 5   0  0.2705111E-02  0.8293668E+03  0.7818609E-02  0.9518456E-01
       -2   -1    0    0    0  501  0.00000000000E+00  0.00000000000E+00  0.10906908480E+03  0.10906908483E+03  0.25500000920E-02 0.  1.
        2   -1    0    0  501    0  0.00000000000E+00  0.00000000000E+00 -0.15766365275E+04  0.15766365275E+04  0.25500000920E-02 0. -1.
    10030    2    1    2    0    0  0.00000000000E+00  0.00000000000E+00 -0.14675674427E+04  0.16857056123E+04  0.82936675396E+03 0.  0.
        4    1    3    3  502    0  0.10990810578E+03  0.39263260284E+03 -0.58005552309E+03  0.70901775387E+03  0.12699999809E+01 0.  1.
       -4    1    3    3    0  502 -0.10990810578E+03 -0.39263260284E+03 -0.88751191959E+03  0.97668785845E+03  0.12699999809E+01 0. -1.
</event>
<event>
 5   0  0.1459111E-02  0.9005002E+03  0.7818609E-02  0.9424956E-01
       -1   -1    0    0    0  501  0.00000000000E+00  0.00000000000E+00  0.53971797005E+03  0.53971797007E+03  0.50400001928E-02 0. -1.
        1   -1    0    0  501    0  0.00000000000E+00  0.00000000000E+00 -0.37561308365E+03  0.37561308368E+03  0.50400001928E-02 0.  1.
    10030    2    1    2    0    0  0.00000000000E+00  0.00000000000E+00  0.16410488640E+03  0.91533105375E+03  0.90050015226E+03 0.  0.
        2    1    3    3  502    0  0.20572466594E+03 -0.18592295761E+03 -0.27852236893E+03  0.39301996685E+03  0.25500000920E-02 0.  1.
       -2    1    3    3    0  502 -0.20572466594E+03  0.18592295761E+03  0.44262725533E+03  0.52231108691E+03  0.25500000920E-02 0. -1.
</event>
<event>
 5   0  0.2628383E-02  0.9119032E+03  0.7818609E-02  0.9410823E-01
        2   -1    0    0  501    0  0.00000000000E+00  0.00000000000E+00  0.56164400877E+03  0.56164400877E+03  0.25500000920E-02 0.  1.
       -2   -1    0    0    0  501  0.00000000000E+00  0.00000000000E+00 -0.37014884257E+03  0.37014884258E+03  0.25500000920E-02 0. -1.
    10030    2    1    2    0    0  0.00000000000E+00  0.00000000000E+00  0.19149516620E+03  0.93179285135E+03  0.91190324001E+03 0.  0.
        2    1    3    3  502    0  0.21636608702E+02  0.45530503172E+03  0.84504640656E+02  0.46358585941E+03  0.25500000920E-02 0.  1.
       -2    1    3    3    0  502 -0.21636608702E+02 -0.45530503172E+03  0.10699052554E+03  0.46820699194E+03  0.25500000920E-02 0. -1.
</event>
<event>
 5   0  0.1559275E-02  0.8851486E+03  0.7818609E-02  0.9444339E-01
        1   -1    0    0  501    0  0.00000000000E+00  0.00000000000E+00  0.78854276088E+03  0.78854276089E+03  0.50400001928E-02 0.  1.
       -1   -1    0    0    0  501  0.00000000000E+00  0.00000000000E+00 -0.24839746947E+03  0.24839746952E+03  0.50400001928E-02 0. -1.
    10030    2    1    2    0    0  0.00000000000E+00  0.00000000000E+00  0.54014529141E+03  0.10369402304E+04  0.88514863476E+03 0.  0.
        1    1    3    3  502    0  0.48796764360E+02 -0.31891481080E+03  0.62498538786E+03  0.70334523232E+03  0.50400001928E-02 0.  1.
       -1    1    3    3    0  502 -0.48796764360E+02  0.31891481080E+03 -0.84840096450E+02  0.33359499809E+03  0.50400001928E-02 0. -1.
</event>
<event>
 5   0  0.2628383E-02  0.9121233E+03  0.7818609E-02  0.9410552E-01
        2   -1    0    0  501    0  0.00000000000E+00  0.00000000000E+00  0.92605155192E+03  0.92605155192E+03  0.25500000920E-02 0.  1.
       -2   -1    0    0    0  501  0.00000000000E+00  0.00000000000E+00 -0.22460111710E+03  0.22460111712E+03  0.25500000920E-02 0. -1.
    10030    2    1    2    0    0  0.00000000000E+00  0.00000000000E+00  0.70145043481E+03  0.11506526690E+04  0.91212326594E+03 0.  0.
        2    1    3    3  502    0  0.26727972123E+03 -0.27468478703E+03  0.66255568094E+03  0.76542159099E+03  0.25500000920E-02 0.  1.
       -2    1    3    3    0  502 -0.26727972123E+03  0.27468478703E+03  0.38894753873E+02  0.38523107804E+03  0.25500000920E-02 0. -1.
</event>
<event>
 5   0  0.2803717E-02  0.8950476E+03  0.7818609E-02  0.9431793E-01
       -2   -1    0    0    0  501  0.00000000000E+00  0.00000000000E+00  0.13349274264E+03  0.13349274266E+03  0.25500000920E-02 0.  1.
        2   -1    0    0  501    0  0.00000000000E+00  0.00000000000E+00 -0.15002878803E+04  0.15002878803E+04  0.25500000920E-02 0. -1.
    10030    2    1    2    0    0  0.00000000000E+00  0.00000000000E+00 -0.13667951376E+04  0.16337806229E+04  0.89504758288E+03 0.  0.
        5    1    3    3  502    0  0.17231535706E+03 -0.30023933997E+03 -0.16575793767E+03  0.38384114871E+03  0.46999998093E+01 0.  1.
       -5    1    3    3    0  502 -0.17231535706E+03  0.30023933997E+03 -0.12010372000E+04  0.12499394742E+04  0.46999998093E+01 0. -1.
</event>
<event>
 5   0  0.2803717E-02  0.8676587E+03  0.7818609E-02  0.9466938E-01
       -2   -1    0    0    0  501  0.00000000000E+00  0.00000000000E+00  0.42773684453E+03  0.42773684454E+03  0.25500000920E-02 0.  1.
        2   -1    0    0  501    0  0.00000000000E+00  0.00000000000E+00 -0.44000867925E+03  0.44000867925E+03  0.25500000920E-02 0. -1.
    10030    2    1    2    0    0  0.00000000000E+00  0.00000000000E+00 -0.12271834716E+02  0.86774552379E+03  0.86765874405E+03 0.  0.
        5    1    3    3  502    0  0.34067906269E+03  0.40250275528E+02  0.25941563934E+03  0.43011727745E+03  0.46999998093E+01 0.  1.
       -5    1    3    3    0  502 -0.34067906269E+03 -0.40250275528E+02 -0.27168747405E+03  0.43762824633E+03  0.46999998093E+01 0. -1.
</event>
<event>
 5   0  0.2803717E-02  0.9248438E+03  0.7818609E-02  0.9395047E-01
        2   -1    0    0  501    0  0.00000000000E+00  0.00000000000E+00  0.20432804813E+04  0.20432804813E+04  0.25500000920E-02 0.  1.
       -2   -1    0    0    0  501  0.00000000000E+00  0.00000000000E+00 -0.10465229983E+03  0.10465229986E+03  0.25500000920E-02 0. -1.
    10030    2    1    2    0    0  0.00000000000E+00  0.00000000000E+00  0.19386281815E+04  0.21479327812E+04  0.92484377405E+03 0.  0.
        5    1    3    3  502    0 -0.32141357361E+02 -0.35403254065E+03  0.16560771062E+04  0.16938080110E+04  0.46999998093E+01 0.  1.
       -5    1    3    3    0  502  0.32141357361E+02  0.35403254065E+03  0.28255107534E+03  0.45412477015E+03  0.46999998093E+01 0. -1.
</event>
<event>
 5   0  0.1559275E-02  0.8825460E+03  0.7818609E-02  0.9447667E-01
        1   -1    0    0  501    0  0.00000000000E+00  0.00000000000E+00  0.22330153679E+03  0.22330153685E+03  0.50400001928E-02 0. -1.
       -1   -1    0    0    0  501  0.00000000000E+00  0.00000000000E+00 -0.87201299832E+03  0.87201299833E+03  0.50400001928E-02 0.  1.
    10030    2    1    2    0    0  0.00000000000E+00  0.00000000000E+00 -0.64871146153E+03  0.10953145352E+04  0.88254595952E+03 0.  0.
        1    1    3    3  502    0  0.39345210985E+03  0.16913674059E+03 -0.45634348689E+03  0.62582839326E+03  0.50400001928E-02 0. -1.
       -1    1    3    3    0  502 -0.39345210985E+03 -0.16913674059E+03 -0.19236797464E+03  0.46948614192E+03  0.50400001928E-02 0.  1.
</event>
<event>
 5   0  0.1040163E-02  0.9307058E+03  0.7818609E-02  0.9387991E-01
        3   -1    0    0  501    0  0.00000000000E+00  0.00000000000E+00  0.10789610413E+04  0.10789610460E+04  0.10100000352E+00 0.  1.
       -3   -1    0    0    0  501  0.00000000000E+00  0.00000000000E+00 -0.20070539641E+03  0.20070542183E+03  0.10100000352E+00 0. -1.
    10030    2    1    2    0    0  0.00000000000E+00  0.00000000000E+00  0.87825564488E+03  0.12796664679E+04  0.93070580270E+03 0.  0.
        5    1    3    3  502    0  0.34351152828E+03  0.57739013150E+02  0.14902475699E+02  0.34868056654E+03  0.46999998093E+01 0. -1.
       -5    1    3    3    0  502 -0.34351152828E+03 -0.57739013150E+02  0.86335316918E+03  0.93098590131E+03  0.46999998093E+01 0.  1.
</event>
<event>
 5   0  0.1559275E-02  0.7291771E+03  0.7818609E-02  0.9668597E-01
        1   -1    0    0  501    0  0.00000000000E+00  0.00000000000E+00  0.30205857338E+03  0.30205857343E+03  0.50400001928E-02 0.  1.
       -1   -1    0    0    0  501  0.00000000000E+00  0.00000000000E+00 -0.44006305436E+03  0.44006305439E+03  0.50400001928E-02 0. -1.
    10030    2    1    2    0    0  0.00000000000E+00  0.00000000000E+00 -0.13800448097E+03  0.74212162781E+03  0.72917712094E+03 0.  0.
        1    1    3    3  502    0  0.22202396941E+03 -0.12823199187E+03 -0.33280772030E+03  0.42011791850E+03  0.50400001928E-02 0. -1.
       -1    1    3    3    0  502 -0.22202396941E+03  0.12823199187E+03  0.19480323933E+03  0.32200370931E+03  0.50400001928E-02 0.  1.
</event>
<event>
 5   0  0.1497410E-02  0.7149488E+03  0.7818609E-02  0.9692004E-01
       -1   -1    0    0    0  501  0.00000000000E+00  0.00000000000E+00  0.67452157324E+03  0.67452157326E+03  0.50400001928E-02 0. -1.
        1   -1    0    0  501    0  0.00000000000E+00  0.00000000000E+00 -0.18944975436E+03  0.18944975443E+03  0.50400001928E-02 0.  1.
    10030    2    1    2    0    0  0.00000000000E+00  0.00000000000E+00  0.48507181888E+03  0.86397132769E+03  0.71494879928E+03 0.  0.
        3    1    3    3  502    0 -0.23087454581E+02  0.25088871370E+03 -0.63916351464E+02  0.25992977399E+03  0.10100000352E+00 0.  1.
       -3    1    3    3    0  502  0.23087454581E+02 -0.25088871370E+03  0.54898817034E+03  0.60404155370E+03  0.10100000352E+00 0. -1.
</event>
<event>
 5   0  0.2679861E-02  0.9043604E+03  0.7818609E-02  0.9420147E-01
        2   -1    0    0  501    0  0.00000000000E+00  0.00000000000E+00  0.82846651225E+03  0.82846651225E+03  0.25500000920E-02 0.  1.
       -2   -1    0    0    0  501  0.00000000000E+00  0.00000000000E+00 -0.24680167696E+03  0.24680167697E+03  0.25500000920E-02 0. -1.
    10030    2    1    2    0    0  0.00000000000E+00  0.00000000000E+00  0.58166483529E+03  0.10752681892E+04  0.90436038068E+03 0.  0.
        1    1    3    3  502    0  0.41735027265E+03 -0.14711033839E+03  0.18028763627E+03  0.47783504848E+03  0.50400001928E-02 0.  1.
       -1    1    3    3    0  502 -0.41735027265E+03  0.14711033839E+03  0.40137719903E+03  0.59743314075E+03  0.50400001928E-02 0. -1.
</event>
<event>
 5   0  0.1497410E-02  0.8958011E+03  0.7818609E-02  0.9430846E-01
        1   -1    0    0  501    0  0.00000000000E+00  0.00000000000E+00  0.24091003692E+03  0.24091003697E+03  0.50400001928E-02 0. -1.
       -1   -1    0    0    0  501  0.00000000000E+00  0.00000000000E+00 -0.83273775076E+03  0.83273775078E+03  0.50400001928E-02 0.  1.
    10030    2    1    2    0    0  0.00000000000E+00  0.00000000000E+00 -0.59182771385E+03  0.10736477877E+04  0.89580105451E+03 0.  0.
        3    1    3    3  502    0  0.32132980926E+03 -0.13050644196E+03 -0.63560905121E+03  0.72407434280E+03  0.10100000352E+00 0.  1.
       -3    1    3    3    0  502 -0.32132980926E+03  0.13050644196E+03  0.43781337359E+02  0.34957344495E+03  0.10100000352E+00 0. -1.
</event>
<event>
 5   0  0.2679861E-02  0.9015104E+03  0.7818609E-02  0.9423695E-01
        2   -1    0    0  501    0  0.00000000000E+00  0.00000000000E+00  0.13156442377E+04  0.13156442377E+04  0.25500000920E-02 0.  1.
       -2   -1    0    0    0  501  0.00000000000E+00  0.00000000000E+00 -0.15443402174E+03  0.15443402176E+03  0.25500000920E-02 0. -1.
    10030    2    1    2    0    0  0.00000000000E+00  0.00000000000E+00  0.11612102160E+04  0.14700782595E+04  0.90151035674E+03 0.  0.
        1    1    3    3  502    0  0.33387250796E+03 -0.22494758542E+03  0.24998237360E+03  0.47388126666E+03  0.50400001928E-02 0. -1.
       -1    1    3    3    0  502 -0.33387250796E+03  0.22494758542E+03  0.91122784238E+03  0.99619699282E+03  0.50400001928E-02 0.  1.
</event>
<event>
 5   0  0.2414128E-02  0.8926806E+03  0.7818609E-02  0.9434778E-01
        2   -1    0    0  501    0  0.00000000000E+00  0.00000000000E+00  0.19278001976E+04  0.19278001976E+04  0.25500000920E-02 0.  1.
       -2   -1    0    0    0  501  0.00000000000E+00  0.00000000000E+00 -0.10334040697E+03  0.10334040700E+03  0.25500000920E-02 0. -1.
    10030    2    1    2    0    0  0.00000000000E+00  0.00000000000E+00  0.18244597906E+04  0.20311406046E+04  0.89268058568E+03 0.  0.
        3    1    3    3  502    0  0.41895458642E+03  0.78664155563E+02  0.61115797443E+03  0.74513426627E+03  0.10100000352E+00 0. -1.
       -3    1    3    3    0  502 -0.41895458642E+03 -0.78664155563E+02  0.12133018161E+04  0.12860063383E+04  0.10100000352E+00 0.  1.
</event>
<event>
 5   0  0.2628383E-02  0.9023361E+03  0.7818609E-02  0.9422666E-01
        2   -1    0    0  501    0  0.00000000000E+00  0.00000000000E+00  0.18234206250E+04  0.18234206250E+04  0.25500000920E-02 0. -1.
       -2   -1    0    0    0  501  0.00000000000E+00  0.00000000000E+00 -0.11163229577E+03  0.11163229580E+03  0.25500000920E-02 0.  1.
    10030    2    1    2    0    0  0.00000000000E+00  0.00000000000E+00  0.17117883292E+04  0.19350529208E+04  0.90233614701E+03 0.  0.
        2    1    3    3  502    0 -0.64161571091E+02  0.62071867518E+02  0.18042909005E+04  0.18064980701E+04  0.25500000920E-02 0. -1.
       -2    1    3    3    0  502  0.64161571091E+02 -0.62071867518E+02 -0.92502571216E+02  0.12855485067E+03  0.25500000920E-02 0.  1.
</event>
<event>
 5   0  0.1459111E-02  0.8946445E+03  0.7818609E-02  0.9432301E-01
       -1   -1    0    0    0  501  0.00000000000E+00  0.00000000000E+00  0.39518508817E+03  0.39518508820E+03  0.50400001928E-02 0.  1.
        1   -1    0    0  501    0  0.00000000000E+00  0.00000000000E+00 -0.50633794936E+03  0.50633794938E+03  0.50400001928E-02 0. -1.
    10030    2    1    2    0    0  0.00000000000E+00  0.00000000000E+00 -0.11115286119E+03  0.90152303759E+03  0.89464452647E+03 0.  0.
        2    1    3    3  502    0 -0.29755449826E+02  0.89155333505E+02  0.38512247143E+03  0.39642575382E+03  0.25500000920E-02 0.  1.
       -2    1    3    3    0  502  0.29755449826E+02 -0.89155333505E+02 -0.49627533262E+03  0.50509728376E+03  0.25500000920E-02 0. -1.
</event>
<event>
 5   0  0.2803717E-02  0.8929840E+03  0.7818609E-02  0.9434395E-01
       -2   -1    0    0    0  501  0.00000000000E+00  0.00000000000E+00  0.31461907909E+03  0.31461907910E+03  0.25500000920E-02 0. -1.
        2   -1    0    0  501    0  0.00000000000E+00  0.00000000000E+00 -0.63363956917E+03  0.63363956917E+03  0.25500000920E-02 0.  1.
    10030    2    1    2    0    0  0.00000000000E+00  0.00000000000E+00 -0.31902049008E+03  0.94825864827E+03  0.89298398134E+03 0.  0.
        5    1    3    3  502    0 -0.13911821362E+03  0.13074989259E+03 -0.58808029542E+03  0.61831216682E+03  0.46999998093E+01 0.  1.
       -5    1    3    3    0  502  0.13911821362E+03 -0.13074989259E+03  0.26905980534E+03  0.32994648145E+03  0.46999998093E+01 0. -1.
</event>
<event>
 5   0  0.1537870E-02  0.8731885E+03  0.7818609E-02  0.9459732E-01
       -1   -1    0    0    0  501  0.00000000000E+00  0.00000000000E+00  0.43744493063E+03  0.43744493065E+03  0.50400001928E-02 0.  1.
        1   -1    0    0  501    0  0.00000000000E+00  0.00000000000E+00 -0.43574518742E+03  0.43574518745E+03  0.50400001928E-02 0. -1.
    10030    2    1    2    0    0  0.00000000000E+00  0.00000000000E+00  0.16997432056E+01  0.87319011810E+03  0.87318846375E+03 0.  0.
        5    1    3    3  502    0 -0.80470518562E+02  0.42217857418E+03  0.77545391292E+02  0.43674435379E+03  0.46999998093E+01 0.  1.
       -5    1    3    3    0  502  0.80470518562E+02 -0.42217857418E+03 -0.75845648087E+02  0.43644576432E+03  0.46999998093E+01 0. -1.
</event>
<event>
 5   0  0.2803717E-02  0.7417648E+03  0.7818609E-02  0.9648359E-01
       -2   -1    0    0    0  501  0.00000000000E+00  0.00000000000E+00  0.55774409573E+03  0.55774409573E+03  0.25500000920E-02 0.  1.
        2   -1    0    0  501    0  0.00000000000E+00  0.00000000000E+00 -0.24662519897E+03  0.24662519899E+03  0.25500000920E-02 0. -1.
    10030    2    1    2    0    0  0.00000000000E+00  0.00000000000E+00  0.31111889675E+03  0.80436929472E+03  0.74176478372E+03 0.  0.
        5    1    3    3  502    0  0.28832504199E+03  0.61343662276E+02  0.39957891544E+03  0.49656799575E+03  0.46999998093E+01 0.  1.
       -5    1    3    3    0  502 -0.28832504199E+03 -0.61343662276E+02 -0.88460018684E+02  0.30780129897E+03  0.46999998093E+01 0. -1.
</event>
<event>
 5   0  0.2679861E-02  0.8498305E+03  0.7818609E-02  0.9490564E-01
        2   -1    0    0  501    0  0.00000000000E+00  0.00000000000E+00  0.66363108333E+03  0.66363108334E+03  0.25500000920E-02 0. -1.
       -2   -1    0    0    0  501  0.00000000000E+00  0.00000000000E+00 -0.27206828799E+03  0.27206828800E+03  0.25500000920E-02 0.  1.
    10030    2    1    2    0    0  0.00000000000E+00  0.00000000000E+00  0.39156279534E+03  0.93569937134E+03  0.84983050712E+03 0.  0.
        1    1    3    3  502    0 -0.25717144519E+03  0.30911724601E+03  0.34699884579E+03  0.53112976099E+03  0.50400001928E-02 0. -1.
       -1    1    3    3    0  502  0.25717144519E+03 -0.30911724601E+03  0.44563949552E+02  0.40456961036E+03  0.50400001928E-02 0.  1.
</event>
<event>
 5   0  0.2705111E-02  0.8710226E+03  0.7818609E-02  0.9462548E-01
       -2   -1    0    0    0  501  0.00000000000E+00  0.00000000000E+00  0.19013727557E+03  0.19013727559E+03  0.25500000920E-02 0. -1.
        2   -1    0    0  501    0  0.00000000000E+00  0.00000000000E+00 -0.99754282666E+03  0.99754282666E+03  0.25500000920E-02 0.  1.
    10030    2    1    2    0    0  0.00000000000E+00  0.00000000000E+00 -0.80740555109E+03  0.11876801023E+04  0.87102256077E+03 0.  0.
        4    1    3    3  502    0  0.18771657507E+03  0.36569298581E+03 -0.20752448384E+03  0.46047464286E+03  0.12699999809E+01 0. -1.
       -4    1    3    3    0  502 -0.18771657507E+03 -0.36569298581E+03 -0.59988106724E+03  0.72720545939E+03  0.12699999809E+01 0.  1.
</event>
<event>
 5   0  0.1459111E-02  0.9307714E+03  0.7818609E-02  0.9387913E-01
       -1   -1    0    0    0  501  0.00000000000E+00  0.00000000000E+00  0.11511033020E+03  0.11511033031E+03  0.50400001928E-02 0.  1.
        1   -1    0    0  501    0  0.00000000000E+00  0.00000000000E+00 -0.18815325390E+04  0.18815325390E+04  0.50400001928E-02 0. -1.
    10030    2    1    2    0    0  0.00000000000E+00  0.00000000000E+00 -0.17664222088E+04  0.19966428693E+04  0.93077136175E+03 0.  0.
        2    1    3    3  502    0 -0.44573794532E+03  0.50253715797E+02 -0.61721198698E+03  0.76299304632E+03  0.25500000920E-02 0.  1.
       -2    1    3    3    0  502  0.44573794532E+03 -0.50253715797E+02 -0.11492102218E+04  0.12336498230E+04  0.25500000920E-02 0. -1.
</event>
<event>
 5   0  0.1459111E-02  0.8929126E+03  0.7818609E-02  0.9434485E-01
        1   -1    0    0  501    0  0.00000000000E+00  0.00000000000E+00  0.20134749169E+04  0.20134749169E+04  0.50400001928E-02 0.  1.
       -1   -1    0    0    0  501  0.00000000000E+00  0.00000000000E+00 -0.98994651713E+02  0.98994651841E+02  0.50400001928E-02 0. -1.
    10030    2    1    2    0    0  0.00000000000E+00  0.00000000000E+00  0.19144802652E+04  0.21124695688E+04  0.89291264584E+03 0.  0.
        2    1    3    3  502    0 -0.26965450304E+02  0.15596090996E+03  0.19448733274E+04  0.19513029495E+04  0.25500000920E-02 0.  1.
       -2    1    3    3    0  502  0.26965450304E+02 -0.15596090996E+03 -0.30393062181E+02  0.16116661932E+03  0.25500000920E-02 0. -1.
</event>
<event>
 5   0  0.2803717E-02  0.9012200E+03  0.7818609E-02  0.9424058E-01
       -2   -1    0    0    0  501  0.00000000000E+00  0.00000000000E+00  0.47869549031E+03  0.47869549032E+03  0.25500000920E-02 0.  1.
        2   -1    0    0  501    0  0.00000000000E+00  0.00000000000E+00 -0.42417230907E+03  0.42417230907E+03  0.25500000920E-02 0. -1.
    10030    2    1    2    0    0  0.00000000000E+00  0.00000000000E+00  0.54523181248E+02  0.90286779940E+03  0.90121999861E+03 0.  0.
        5    1    3    3  502    0  0.21457037385E+03 -0.35524935215E+03 -0.14851500383E+03  0.44081894685E+03  0.46999998093E+01 0. -1.
       -5    1    3    3    0  502 -0.21457037385E+03  0.35524935215E+03  0.20303818508E+03  0.46204885255E+03  0.46999998093E+01 0.  1.
</event>
<event>
 5   0  0.2414128E-02  0.8951742E+03  0.7818609E-02  0.9431634E-01
        2   -1    0    0  501    0  0.00000000000E+00  0.00000000000E+00  0.64321214359E+03  0.64321214360E+03  0.25500000920E-02 0.  1.
       -2   -1    0    0    0  501  0.00000000000E+00  0.00000000000E+00 -0.31145899597E+03  0.31145899598E+03  0.25500000920E-02 0. -1.
    10030    2    1    2    0    0  0.00000000000E+00  0.00000000000E+00  0.33175314763E+03  0.95467113958E+03  0.89517419187E+03 0.  0.
        3    1    3    3  502    0 -0.11711468575E+03 -0.10045813689E+03 -0.28219893857E+03  0.32162701692E+03  0.10100000352E+00 0. -1.
       -3    1    3    3    0  502  0.11711468575E+03  0.10045813689E+03  0.61395208619E+03  0.63304412266E+03  0.10100000352E+00 0.  1.
</event>
<event>
 5   0  0.1459111E-02  0.7235319E+03  0.7818609E-02  0.9677815E-01
        1   -1    0    0  501    0  0.00000000000E+00  0.00000000000E+00  0.97331502290E+03  0.97331502291E+03  0.50400001928E-02 0.  1.
       -1   -1    0    0    0  501  0.00000000000E+00  0.00000000000E+00 -0.13446273952E+03  0.13446273962E+03  0.50400001928E-02 0. -1.
    10030    2    1    2    0    0  0.00000000000E+00  0.00000000000E+00  0.83885228338E+03  0.11077777625E+04  0.72353190519E+03 0.  0.
        2    1    3    3  502    0 -0.32370782771E+03  0.15399660987E+03  0.34484417361E+03  0.49741252261E+03  0.25500000920E-02 0. -1.
       -2    1    3    3    0  502  0.32370782771E+03 -0.15399660987E+03  0.49400810977E+03  0.61036523992E+03  0.25500000920E-02 0.  1.
</event>
<event>
 5   0  0.2705111E-02  0.5398734E+03  0.7818609E-02  0.1003865E+00
        2   -1    0    0  501    0  0.00000000000E+00  0.00000000000E+00  0.63695661086E+03  0.63695661087E+03  0.25500000920E-02 0.  1.
       -2   -1    0    0    0  501  0.00000000000E+00  0.00000000000E+00 -0.11439683565E+03  0.11439683567E+03  0.25500000920E-02 0. -1.
    10030    2    1    2    0    0  0.00000000000E+00  0.00000000000E+00  0.52255977522E+03  0.75135344654E+03  0.53987339530E+03 0.  0.
        4    1    3    3  502    0 -0.16738308354E+03  0.66151594078E+02  0.54125842590E+03  0.57039935709E+03  0.12699999809E+01 0.  1.
       -4    1    3    3    0  502  0.16738308354E+03 -0.66151594078E+02 -0.18698650687E+02  0.18095408945E+03  0.12699999809E+01 0. -1.
</event>
<event>
 5   0  0.1459111E-02  0.9454240E+03  0.7818609E-02  0.9370515E-01
       -1   -1    0    0    0  501  0.00000000000E+00  0.00000000000E+00  0.47468414314E+03  0.47468414316E+03  0.50400001928E-02 0. -1.
        1   -1    0    0  501    0  0.00000000000E+00  0.00000000000E+00 -0.47074803274E+03  0.47074803277E+03  0.50400001928E-02 0.  1.
    10030    2    1    2    0    0  0.00000000000E+00  0.00000000000E+00  0.39361103903E+01  0.94543217593E+03  0.94542398231E+03 0.  0.
        2    1    3    3  502    0  0.25434225588E+03 -0.15836541760E+03 -0.36366749449E+03  0.47119384034E+03  0.25500000920E-02 0.  1.
       -2    1    3    3    0  502 -0.25434225588E+03  0.15836541760E+03  0.36760360488E+03  0.47423833559E+03  0.25500000920E-02 0. -1.
</event>
<event>
 5   0  0.1040163E-02  0.8875925E+03  0.7818609E-02  0.9441226E-01
        3   -1    0    0  501    0  0.00000000000E+00  0.00000000000E+00  0.21812784288E+03  0.21812786626E+03  0.10100000352E+00 0.  1.
       -3   -1    0    0    0  501  0.00000000000E+00  0.00000000000E+00 -0.90293416943E+03  0.90293417508E+03  0.10100000352E+00 0. -1.
    10030    2    1    2    0    0  0.00000000000E+00  0.00000000000E+00 -0.68480632656E+03  0.11210620413E+04  0.88759247160E+03 0.  0.
        3    1    3    3  502    0  0.20626701523E+03 -0.14205539625E+03 -0.80514594661E+03  0.84319975256E+03  0.10100000352E+00 0. -1.
       -3    1    3    3    0  502 -0.20626701523E+03  0.14205539625E+03  0.12033962005E+03  0.27786228878E+03  0.10100000352E+00 0.  1.
</event>
<event>
 5   0  0.1497410E-02  0.8844676E+03  0.7818609E-02  0.9445209E-01
        1   -1    0    0  501    0  0.00000000000E+00  0.00000000000E+00  0.55714347622E+03  0.55714347625E+03  0.50400001928E-02 0.  1.
       -1   -1    0    0    0  501  0.00000000000E+00  0.00000000000E+00 -0.35102404286E+03  0.35102404289E+03  0.50400001928E-02 0. -1.
    10030    2    1    2    0    0  0.00000000000E+00  0.00000000000E+00  0.20611943337E+03  0.90816751914E+03  0.88446764893E+03 0.  0.
        3    1    3    3  502    0 -0.39146299482E+03  0.18313259599E+02 -0.10735096154E+03  0.40632855048E+03  0.10100000352E+00 0. -1.
       -3    1    3    3    0  502  0.39146299482E+03 -0.18313259599E+02  0.31347039490E+03  0.50183896866E+03  0.10100000352E+00 0.  1.
</event>
<event>
 5   0  0.2679861E-02  0.8868734E+03  0.7818609E-02  0.9442141E-01
       -2   -1    0    0    0  501  0.00000000000E+00  0.00000000000E+00  0.26524381239E+03  0.26524381240E+03  0.25500000920E-02 0. -1.
        2   -1    0    0  501    0  0.00000000000E+00  0.00000000000E+00 -0.74134103240E+03  0.74134103240E+03  0.25500000920E-02 0.  1.
    10030    2    1    2    0    0  0.00000000000E+00  0.00000000000E+00 -0.47609722001E+03  0.10065848448E+04  0.88687343341E+03 0.  0.
        1    1    3    3  502    0  0.28471248729E+03 -0.33167693907E+03 -0.15337770971E+03  0.46324455117E+03  0.50400001928E-02 0. -1.
       -1    1    3    3    0  502 -0.28471248729E+03  0.33167693907E+03 -0.32271951031E+03  0.54334029363E+03  0.50400001928E-02 0.  1.
</event>
<event>
 5   0  0.1459111E-02  0.8320226E+03  0.7818609E-02  0.9514788E-01
       -1   -1    0    0    0  501  0.00000000000E+00  0.00000000000E+00  0.18381262939E+03  0.18381262945E+03  0.50400001928E-02 0. -1.
        1   -1    0    0  501    0  0.00000000000E+00  0.00000000000E+00 -0.94153155258E+03  0.94153155259E+03  0.50400001928E-02 0.  1.
    10030    2    1    2    0    0  0.00000000000E+00  0.00000000000E+00 -0.75771892319E+03  0.11253441820E+04  0.83202257271E+03 0.  0.
        2    1    3    3  502    0 -0.32819547715E+03 -0.79911980217E-01 -0.33092574469E+02  0.32985966122E+03  0.25500000920E-02 0. -1.
       -2    1    3    3    0  502  0.32819547715E+03  0.79911980217E-01 -0.72462634872E+03  0.79548452083E+03  0.25500000920E-02 0.  1.
</event>
<event>
 5   0  0.2679861E-02  0.8890880E+03  0.7818609E-02  0.9439326E-01
        2   -1    0    0  501    0  0.00000000000E+00  0.00000000000E+00  0.81288169491E+03  0.81288169491E+03  0.25500000920E-02 0. -1.
       -2   -1    0    0    0  501  0.00000000000E+00  0.00000000000E+00 -0.24310963214E+03  0.24310963215E+03  0.25500000920E-02 0.  1.
    10030    2    1    2    0    0  0.00000000000E+00  0.00000000000E+00  0.56977206277E+03  0.10559913271E+04  0.88908800426E+03 0.  0.
        1    1    3    3  502    0 -0.11324125498E+03  0.12761267162E+03 -0.20267553441E+03  0.26492630685E+03  0.50400001928E-02 0.  1.
       -1    1    3    3    0  502  0.11324125498E+03 -0.12761267162E+03  0.77244759718E+03  0.79106502021E+03  0.50400001928E-02 0. -1.
</event>
<event>
 5   0  0.1040163E-02  0.9595710E+03  0.7818609E-02  0.9354033E-01
       -3   -1    0    0    0  501  0.00000000000E+00  0.00000000000E+00  0.19569857001E+03  0.19569859607E+03  0.10100000352E+00 0.  1.
        3   -1    0    0  501    0  0.00000000000E+00  0.00000000000E+00 -0.11762687845E+04  0.11762687888E+04  0.10100000352E+00 0. -1.
    10030    2    1    2    0    0  0.00000000000E+00  0.00000000000E+00 -0.98057021449E+03  0.13719673849E+04  0.95957102901E+03 0.  0.
        5    1    3    3  502    0 -0.12660822358E+03  0.31981097871E+03 -0.96848619724E+03  0.10277627686E+04  0.46999998093E+01 0. -1.
       -5    1    3    3    0  502  0.12660822358E+03 -0.31981097871E+03 -0.12084017247E+02  0.34420461626E+03  0.46999998093E+01 0.  1.
</event>
<event>
 5   0  0.2414128E-02  0.9198424E+03  0.7818609E-02  0.9401112E-01
        2   -1    0    0  501    0  0.00000000000E+00  0.00000000000E+00  0.83013337043E+03  0.83013337044E+03  0.25500000920E-02 0. -1.
       -2   -1    0    0    0  501  0.00000000000E+00  0.00000000000E+00 -0.25481149547E+03  0.25481149549E+03  0.25500000920E-02 0.  1.
    10030    2    1    2    0    0  0.00000000000E+00  0.00000000000E+00  0.57532187496E+03  0.10849448659E+04  0.91984243340E+03 0.  0.
        3    1    3    3  502    0 -0.22952860719E+03 -0.34304817175E+03  0.52696105679E+03  0.66936790724E+03  0.10100000352E+00 0. -1.
       -3    1    3    3    0  502  0.22952860719E+03  0.34304817175E+03  0.48360818167E+02  0.41557695869E+03  0.10100000352E+00 0.  1.
</event>
<event>
 5   0  0.1559275E-02  0.8561606E+03  0.7818609E-02  0.9482106E-01
        1   -1    0    0  501    0  0.00000000000E+00  0.00000000000E+00  0.94034360008E+03  0.94034360010E+03  0.50400001928E-02 0. -1.
       -1   -1    0    0    0  501  0.00000000000E+00  0.00000000000E+00 -0.19487847986E+03  0.19487847993E+03  0.50400001928E-02 0.  1.
    10030    2    1    2    0    0  0.00000000000E+00  0.00000000000E+00  0.74546512022E+03  0.11352220800E+04  0.85616057227E+03 0.  0.
        1    1    3    3  502    0  0.64021553873E+02 -0.24360167657E+03  0.83169391426E+03  0.86899672222E+03  0.50400001928E-02 0. -1.
       -1    1    3    3    0  502 -0.64021553873E+02  0.24360167657E+03 -0.86228794043E+02  0.26622535780E+03  0.50400001928E-02 0.  1.
</event>
<event>
 5   0  0.1559275E-02  0.9176758E+03  0.7818609E-02  0.9403752E-01
       -1   -1    0    0    0  501  0.00000000000E+00  0.00000000000E+00  0.36364518241E+03  0.36364518245E+03  0.50400001928E-02 0. -1.
        1   -1    0    0  501    0  0.00000000000E+00  0.00000000000E+00 -0.57894950043E+03  0.57894950046E+03  0.50400001928E-02 0.  1.
    10030    2    1    2    0    0  0.00000000000E+00  0.00000000000E+00 -0.21530431802E+03  0.94259468290E+03  0.91767575258E+03 0.  0.
        1    1    3    3  502    0  0.21754904435E+03 -0.36477468246E+03 -0.28598710933E+03  0.51203201305E+03  0.50400001928E-02 0.  1.
       -1    1    3    3    0  502 -0.21754904435E+03  0.36477468246E+03  0.70682791306E+02  0.43056266985E+03  0.50400001928E-02 0. -1.
</event>
<event>
 5   0  0.2679861E-02  0.8253701E+03  0.7818609E-02  0.9524004E-01
        2   -1    0    0  501    0  0.00000000000E+00  0.00000000000E+00  0.47221407717E+03  0.47221407718E+03  0.25500000920E-02 0.  1.
       -2   -1    0    0    0  501  0.00000000000E+00  0.00000000000E+00 -0.36066045496E+03  0.36066045497E+03  0.25500000920E-02 0. -1.
    10030    2    1    2    0    0  0.00000000000E+00  0.00000000000E+00  0.11155362221E+03  0.83287453215E+03  0.82537008407E+03 0.  0.
        1    1    3    3  502    0 -0.38067923292E+03  0.15078391277E+03  0.10778645766E+03  0.42340333868E+03  0.50400001928E-02 0. -1.
       -1    1    3    3    0  502  0.38067923292E+03 -0.15078391277E+03  0.37671645515E+01  0.40947119347E+03  0.50400001928E-02 0.  1.
</event>
<event>
 5   0  0.1459111E-02  0.8547053E+03  0.7818609E-02  0.9484043E-01
       -1   -1    0    0    0  501  0.00000000000E+00  0.00000000000E+00  0.28181476877E+03  0.28181476882E+03  0.50400001928E-02 0. -1.
        1   -1    0    0  501    0  0.00000000000E+00  0.00000000000E+00 -0.64805087653E+03  0.64805087655E+03  0.50400001928E-02 0.  1.
    10030    2    1    2    0    0  0.00000000000E+00  0.00000000000E+00 -0.36623610776E+03  0.92986564537E+03  0.85470534795E+03 0.  0.
        2    1    3    3  502    0  0.96230412923E+02  0.12994134126E+02 -0.63588966591E+03  0.64326107228E+03  0.25500000920E-02 0.  1.
       -2    1    3    3    0  502 -0.96230412923E+02 -0.12994134126E+02  0.26965355815E+03  0.28660457310E+03  0.25500000920E-02 0. -1.
</event>
<event>
 5   0  0.1559275E-02  0.9026520E+03  0.7818609E-02  0.9422272E-01
        1   -1    0    0  501    0  0.00000000000E+00  0.00000000000E+00  0.10058756499E+04  0.10058756499E+04  0.50400001928E-02 0. -1.
       -1   -1    0    0    0  501  0.00000000000E+00  0.00000000000E+00 -0.20250529895E+03  0.20250529901E+03  0.50400001928E-02 0.  1.
    10030    2    1    2    0    0  0.00000000000E+00  0.00000000000E+00  0.80337035094E+03  0.12083809489E+04  0.90265197995E+03 0.  0.
        1    1    3    3  502    0 -0.51244120663E+02 -0.21249836279E+03  0.93028325281E+03  0.95561940362E+03  0.50400001928E-02 0. -1.
       -1    1    3    3    0  502  0.51244120663E+02  0.21249836279E+03 -0.12691290187E+03  0.25276154529E+03  0.50400001928E-02 0.  1.
</event>
<event>
 5   0  0.2414128E-02  0.9148327E+03  0.7818609E-02  0.9407227E-01
       -2   -1    0    0    0  501  0.00000000000E+00  0.00000000000E+00  0.22815049540E+03  0.22815049541E+03  0.25500000920E-02 0.  1.
        2   -1    0    0  501    0  0.00000000000E+00  0.00000000000E+00 -0.91706896901E+03  0.91706896901E+03  0.25500000920E-02 0. -1.
    10030    2    1    2    0    0  0.00000000000E+00  0.00000000000E+00 -0.68891847361E+03  0.11452194644E+04  0.91483274887E+03 0.  0.
        3    1    3    3  502    0  0.13265162767E+03  0.10396802238E+02  0.20338861017E+03  0.24304626055E+03  0.10100000352E+00 0.  1.
       -3    1    3    3    0  502 -0.13265162767E+03 -0.10396802238E+02 -0.89230708378E+03  0.90217320387E+03  0.10100000352E+00 0. -1.
</event>
<event>
 5   0  0.1560728E-02  0.9370547E+03  0.7818609E-02  0.9380411E-01
        1   -1    0    0  501    0  0.00000000000E+00  0.00000000000E+00  0.47223192974E+03  0.47223192977E+03  0.50400001928E-02 0.  1.
       -1   -1    0    0    0  501  0.00000000000E+00  0.00000000000E+00 -0.46485180122E+03  0.46485180124E+03  0.50400001928E-02 0. -1.
    10030    2    1    2    0    0  0.00000000000E+00  0.00000000000E+00  0.73801285232E+01  0.93708373101E+03  0.93705466897E+03 0.  0.
        4    1    3    3  502    0 -0.23894342081E+02 -0.43512804596E+03  0.17576775288E+03  0.46989708641E+03  0.12699999809E+01 0.  1.
       -4    1    3    3    0  502  0.23894342081E+02  0.43512804596E+03 -0.16838762436E+03  0.46718664461E+03  0.12699999809E+01 0. -1.
</event>
<event>
 5   0  0.1560728E-02  0.9041999E+03  0.7818609E-02  0.9420347E-01
       -1   -1    0    0    0  501  0.00000000000E+00  0.00000000000E+00  0.15543854023E+03  0.15543854031E+03  0.50400001928E-02 0.  1.
        1   -1    0    0  501    0  0.00000000000E+00  0.00000000000E+00 -0.13149528206E+04  0.13149528206E+04  0.50400001928E-02 0. -1.
    10030    2    1    2    0    0  0.00000000000E+00  0.00000000000E+00 -0.11595142803E+04  0.14703913609E+04  0.90419986057E+03 0.  0.
        4    1    3    3  502    0 -0.43982910308E+03  0.70097044691E+01 -0.74948821395E+03  0.86904140961E+03  0.12699999809E+01 0. -1.
       -4    1    3    3    0  502  0.43982910308E+03 -0.70097044691E+01 -0.41002606637E+03  0.60134995126E+03  0.12699999809E+01 0.  1.
</event>
<event>
 5   0  0.1560728E-02  0.9115578E+03  0.7818609E-02  0.9411248E-01
       -1   -1    0    0    0  501  0.00000000000E+00  0.00000000000E+00  0.12290612634E+03  0.12290612644E+03  0.50400001928E-02 0. -1.
        1   -1    0    0  501    0  0.00000000000E+00  0.00000000000E+00 -0.16901877076E+04  0.16901877076E+04  0.50400001928E-02 0.  1.
    10030    2    1    2    0    0  0.00000000000E+00  0.00000000000E+00 -0.15672815813E+04  0.18130938341E+04  0.91155784025E+03 0.  0.
        4    1    3    3  502    0  0.35963748039E+03  0.16121716557E+03 -0.32832473756E+03  0.51296085423E+03  0.12699999809E+01 0. -1.
       -4    1    3    3    0  502 -0.35963748039E+03 -0.16121716557E+03 -0.12389568437E+04  0.13001329798E+04  0.12699999809E+01 0.  1.
</event>
<event>
 5   0  0.2628383E-02  0.5653849E+03  0.7818609E-02  0.9979943E-01
        2   -1    0    0  501    0  0.00000000000E+00  0.00000000000E+00  0.24008458770E+04  0.24008458770E+04  0.25500000920E-02 0.  1.
       -2   -1    0    0    0  501  0.00000000000E+00  0.00000000000E+00 -0.33286198166E+02  0.33286198264E+02  0.25500000920E-02 0. -1.
    10030    2    1    2    0    0  0.00000000000E+00  0.00000000000E+00  0.23675596788E+04  0.24341320753E+04  0.56538493701E+03 0.  0.
        2    1    3    3  502    0 -0.12759976201E+03  0.61806740896E+02  0.22367077535E+04  0.22411968560E+04  0.25500000920E-02 0.  1.
       -2    1    3    3    0  502  0.12759976201E+03 -0.61806740896E+02  0.13085192531E+03  0.19293521930E+03  0.25500000920E-02 0. -1.
</event>
<event>
 5   0  0.2705111E-02  0.8645761E+03  0.7818609E-02  0.9470980E-01
        2   -1    0    0  501    0  0.00000000000E+00  0.00000000000E+00  0.96042255656E+03  0.96042255657E+03  0.25500000920E-02 0.  1.
       -2   -1    0    0    0  501  0.00000000000E+00  0.00000000000E+00 -0.19457367292E+03  0.19457367293E+03  0.25500000920E-02 0. -1.
    10030    2    1    2    0    0  0.00000000000E+00  0.00000000000E+00  0.76584888365E+03  0.11549962295E+04  0.86457606812E+03 0.  0.
        4    1    3    3  502    0 -0.33723359893E+03 -0.15764304430E+03  0.67650122367E+03  0.77216147806E+03  0.12699999809E+01 0.  1.
       -4    1    3    3    0  502  0.33723359893E+03  0.15764304430E+03  0.89347659972E+02  0.38283475144E+03  0.12699999809E+01 0. -1.
</event>
<event>
 5   0  0.2414128E-02  0.7377721E+03  0.7818609E-02  0.9654732E-01
       -2   -1    0    0    0  501  0.00000000000E+00  0.00000000000E+00  0.11546999175E+03  0.11546999178E+03  0.25500000920E-02 0.  1.
        2   -1    0    0  501    0  0.00000000000E+00  0.00000000000E+00 -0.11784612337E+04  0.11784612337E+04  0.25500000920E-02 0. -1.
    10030    2    1    2    0    0  0.00000000000E+00  0.00000000000E+00 -0.10629912419E+04  0.12939312255E+04  0.73777207579E+03 0.  0.
        3    1    3    3  502    0  0.29175568959E+03  0.87307965274E+02 -0.89658360072E+03  0.94689293296E+03  0.10100000352E+00 0. -1.
       -3    1    3    3    0  502 -0.29175568959E+03 -0.87307965274E+02 -0.16640764120E+03  0.34703829250E+03  0.10100000352E+00 0.  1.
</event>
<event>
 5   0  0.1497410E-02  0.8510490E+03  0.7818609E-02  0.9488930E-01
        1   -1    0    0  501    0  0.00000000000E+00  0.00000000000E+00  0.36359935426E+03  0.36359935430E+03  0.50400001928E-02 0. -1.
       -1   -1    0    0    0  501  0.00000000000E+00  0.00000000000E+00 -0.49799622502E+03  0.49799622505E+03  0.50400001928E-02 0.  1.
    10030    2    1    2    0    0  0.00000000000E+00  0.00000000000E+00 -0.13439687076E+03  0.86159557935E+03  0.85104901356E+03 0.  0.
        3    1    3    3  502    0  0.28277287875E+03  0.18642085245E+03  0.19359405218E+03  0.39011780583E+03  0.10100000352E+00 0. -1.
       -3    1    3    3    0  502 -0.28277287875E+03 -0.18642085245E+03 -0.32799092294E+03  0.47147777351E+03  0.10100000352E+00 0.  1.
</event>
<event>
 5   0  0.2414128E-02  0.9070089E+03  0.7818609E-02  0.9416862E-01
        2   -1    0    0  501    0  0.00000000000E+00  0.00000000000E+00  0.13955072127E+04  0.13955072127E+04  0.25500000920E-02 0.  1.
       -2   -1    0    0    0  501  0.00000000000E+00  0.00000000000E+00 -0.14737745132E+03  0.14737745134E+03  0.25500000920E-02 0. -1.
    10030    2    1    2    0    0  0.00000000000E+00  0.00000000000E+00  0.12481297613E+04  0.15428846640E+04  0.90700892237E+03 0.  0.
        3    1    3    3  502    0 -0.34228736079E+03 -0.15525788885E+02  0.11868822364E+03  0.36261355753E+03  0.10100000352E+00 0. -1.
       -3    1    3    3    0  502  0.34228736079E+03  0.15525788885E+02  0.11294415377E+04  0.11802711065E+04  0.10100000352E+00 0.  1.
</event>
<event>
 5   0  0.1040163E-02  0.5070882E+03  0.7818609E-02  0.1011945E+00
       -3   -1    0    0    0  501  0.00000000000E+00  0.00000000000E+00  0.50021581505E+03  0.50021582525E+03  0.10100000352E+00 0. -1.
        3   -1    0    0  501    0  0.00000000000E+00  0.00000000000E+00 -0.12851372162E+03  0.12851376131E+03  0.10100000352E+00 0.  1.
    10030    2    1    2    0    0  0.00000000000E+00  0.00000000000E+00  0.37170209343E+03  0.62872958655E+03  0.50708820411E+03 0.  0.
        4    1    3    3  502    0 -0.22008931084E+03 -0.97463007874E+02  0.28461180923E+03  0.37275171026E+03  0.12699999809E+01 0. -1.
       -4    1    3    3    0  502  0.22008931084E+03  0.97463007874E+02  0.87090284204E+02  0.25597787629E+03  0.12699999809E+01 0.  1.
</event>
<event>
 5   0  0.2628383E-02  0.8693223E+03  0.7818609E-02  0.9464764E-01
        2   -1    0    0  501    0  0.00000000000E+00  0.00000000000E+00  0.17825019633E+04  0.17825019633E+04  0.25500000920E-02 0. -1.
       -2   -1    0    0    0  501  0.00000000000E+00  0.00000000000E+00 -0.10599164047E+03  0.10599164050E+03  0.25500000920E-02 0.  1.
    10030    2    1    2    0    0  0.00000000000E+00  0.00000000000E+00  0.16765103228E+04  0.18884936038E+04  0.86932228144E+03 0.  0.
        2    1    3    3  502    0 -0.23352311547E+03 -0.29269347357E+03  0.35871710924E+03  0.51853686407E+03  0.25500000920E-02 0.  1.
       -2    1    3    3    0  502  0.23352311547E+03  0.29269347357E+03  0.13177932136E+04  0.13699567397E+04  0.25500000920E-02 0. -1.
</event>
<event>
 5   0  0.1497410E-02  0.9077573E+03  0.7818609E-02  0.9415936E-01
        1   -1    0    0  501    0  0.00000000000E+00  0.00000000000E+00  0.87071004139E+03  0.87071004141E+03  0.50400001928E-02 0. -1.
       -1   -1    0    0    0  501  0.00000000000E+00  0.00000000000E+00 -0.23659522864E+03  0.23659522869E+03  0.50400001928E-02 0.  1.
    10030    2    1    2    0    0  0.00000000000E+00  0.00000000000E+00  0.63411481276E+03  0.11073052701E+04  0.90775732739E+03 0.  0.
        3    1    3    3  502    0  0.37138087959E+03  0.25906432488E+03  0.27911027341E+03  0.53192164562E+03  0.10100000352E+00 0. -1.
       -3    1    3    3    0  502 -0.37138087959E+03 -0.25906432488E+03  0.35500453935E+03  0.57538362448E+03  0.10100000352E+00 0.  1.
</event>
<event>
 5   0  0.2803717E-02  0.9075227E+03  0.7818609E-02  0.9416226E-01
       -2   -1    0    0    0  501  0.00000000000E+00  0.00000000000E+00  0.26172220508E+03  0.26172220510E+03  0.25500000920E-02 0.  1.
        2   -1    0    0  501    0  0.00000000000E+00  0.00000000000E+00 -0.78670955772E+03  0.78670955772E+03  0.25500000920E-02 0. -1.
    10030    2    1    2    0    0  0.00000000000E+00  0.00000000000E+00 -0.52498735264E+03  0.10484317628E+04  0.90752269440E+03 0.  0.
        5    1    3    3  502    0 -0.22738708643E+03 -0.41267059100E+02  0.18860758304E+03  0.29833331631E+03  0.46999998093E+01 0.  1.
       -5    1    3    3    0  502  0.22738708643E+03  0.41267059100E+02 -0.71359493567E+03  0.75009844651E+03  0.46999998093E+01 0. -1.
</event>
<event>
 5   0  0.1537870E-02  0.9151427E+03  0.7818609E-02  0.9406848E-01
        1   -1    0    0  501    0  0.00000000000E+00  0.00000000000E+00  0.16560122586E+04  0.16560122586E+04  0.50400001928E-02 0.  1.
       -1   -1    0    0    0  501  0.00000000000E+00  0.00000000000E+00 -0.12643115265E+03  0.12643115276E+03  0.50400001928E-02 0. -1.
    10030    2    1    2    0    0  0.00000000000E+00  0.00000000000E+00  0.15295811060E+04  0.17824434114E+04  0.91514269656E+03 0.  0.
        5    1    3    3  502    0 -0.33882172569E+03  0.30168297607E+03  0.88062137419E+03  0.99062044928E+03  0.46999998093E+01 0. -1.
       -5    1    3    3    0  502  0.33882172569E+03 -0.30168297607E+03  0.64895973179E+03  0.79182296212E+03  0.46999998093E+01 0.  1.
</event>
<event>
 5   0  0.2803717E-02  0.9033879E+03  0.7818609E-02  0.9421356E-01
        2   -1    0    0  501    0  0.00000000000E+00  0.00000000000E+00  0.45194710016E+03  0.45194710017E+03  0.25500000920E-02 0. -1.
       -2   -1    0    0    0  501  0.00000000000E+00  0.00000000000E+00 -0.45144098300E+03  0.45144098301E+03  0.25500000920E-02 0.  1.
    10030    2    1    2    0    0  0.00000000000E+00  0.00000000000E+00  0.50611715597E+00  0.90338808318E+03  0.90338794140E+03 0.  0.
        5    1    3    3  502    0  0.75482659112E+02 -0.16093861523E+03  0.41547172095E+03  0.45192666508E+03  0.46999998093E+01 0. -1.
       -5    1    3    3    0  502 -0.75482659112E+02  0.16093861523E+03 -0.41496560380E+03  0.45146141810E+03  0.46999998093E+01 0.  1.
</event>
<event>
 5   0  0.2679861E-02  0.9487715E+03  0.7818609E-02  0.9366588E-01
        2   -1    0    0  501    0  0.00000000000E+00  0.00000000000E+00  0.26946749911E+03  0.26946749913E+03  0.25500000920E-02 0. -1.
       -2   -1    0    0    0  501  0.00000000000E+00  0.00000000000E+00 -0.83513542723E+03  0.83513542723E+03  0.25500000920E-02 0.  1.
    10030    2    1    2    0    0  0.00000000000E+00  0.00000000000E+00 -0.56566792811E+03  0.11046029264E+04  0.94877153205E+03 0.  0.
        1    1    3    3  502    0  0.15358836120E+03  0.36201441402E+03  0.26070945416E+02  0.39411104384E+03  0.50400001928E-02 0. -1.
       -1    1    3    3    0  502 -0.15358836120E+03 -0.36201441402E+03 -0.59173887353E+03  0.71049188252E+03  0.50400001928E-02 0.  1.
</event>
<event>
 5   0  0.2705111E-02  0.1014934E+04  0.7818609E-02  0.9292315E-01
        2   -1    0    0  501    0  0.00000000000E+00  0.00000000000E+00  0.51068697613E+03  0.51068697613E+03  0.25500000920E-02 0.  1.
       -2   -1    0    0    0  501  0.00000000000E+00  0.00000000000E+00 -0.50426744238E+03  0.50426744238E+03  0.25500000920E-02 0. -1.
    10030    2    1    2    0    0  0.00000000000E+00  0.00000000000E+00  0.64195337504E+01  0.10149544185E+04  0.10149341167E+04 0.  0.
        4    1    3    3  502    0 -0.43811511824E+03 -0.16707576824E+03 -0.19086119946E+03  0.50624972052E+03  0.12699999809E+01 0. -1.
       -4    1    3    3    0  502  0.43811511824E+03  0.16707576824E+03  0.19728073321E+03  0.50870469800E+03  0.12699999809E+01 0.  1.
</event>
<event>
 5   0  0.1497410E-02  0.8393302E+03  0.7818609E-02  0.9504771E-01
       -1   -1    0    0    0  501  0.00000000000E+00  0.00000000000E+00  0.24965816199E+03  0.24965816204E+03  0.50400001928E-02 0. -1.
        1   -1    0    0  501    0  0.00000000000E+00  0.00000000000E+00 -0.70543974020E+03  0.70543974022E+03  0.50400001928E-02 0.  1.
    10030    2    1    2    0    0  0.00000000000E+00  0.00000000000E+00 -0.45578157821E+03  0.95509790227E+03  0.83933018287E+03 0.  0.
        3    1    3    3  502    0 -0.13456205230E+03  0.33911498322E+03 -0.46389199148E+03  0.59017091399E+03  0.10100000352E+00 0.  1.
       -3    1    3    3    0  502  0.13456205230E+03 -0.33911498322E+03  0.81104132677E+01  0.36492698827E+03  0.10100000352E+00 0. -1.
</event>
<event>
 5   0  0.1560728E-02  0.9067438E+03  0.7818609E-02  0.9417190E-01
        1   -1    0    0  501    0  0.00000000000E+00  0.00000000000E+00  0.17243968104E+03  0.17243968111E+03  0.50400001928E-02 0. -1.
       -1   -1    0    0    0  501  0.00000000000E+00  0.00000000000E+00 -0.11919883322E+04  0.11919883322E+04  0.50400001928E-02 0.  1.
    10030    2    1    2    0    0  0.00000000000E+00  0.00000000000E+00 -0.10195486512E+04  0.13644280133E+04  0.90674381799E+03 0.  0.
        4    1    3    3  502    0 -0.13942720221E+03 -0.23316676243E+02  0.13842595658E+03  0.19785593360E+03  0.12699999809E+01 0. -1.
       -4    1    3    3    0  502  0.13942720221E+03  0.23316676243E+02 -0.11579746078E+04  0.11665720797E+04  0.12699999809E+01 0.  1.
</event>
<event>
 5   0  0.2679861E-02  0.8712200E+03  0.7818609E-02  0.9462291E-01
       -2   -1    0    0    0  501  0.00000000000E+00  0.00000000000E+00  0.23326256250E+03  0.23326256252E+03  0.25500000920E-02 0.  1.
        2   -1    0    0  501    0  0.00000000000E+00  0.00000000000E+00 -0.81348700581E+03  0.81348700581E+03  0.25500000920E-02 0. -1.
    10030    2    1    2    0    0  0.00000000000E+00  0.00000000000E+00 -0.58022444331E+03  0.10467495683E+04  0.87121998036E+03 0.  0.
        1    1    3    3  502    0  0.10399285769E+03 -0.41937124893E+03 -0.22354890373E+03  0.48647802752E+03  0.50400001928E-02 0.  1.
       -1    1    3    3    0  502 -0.10399285769E+03  0.41937124893E+03 -0.35667553958E+03  0.56027154081E+03  0.50400001928E-02 0. -1.
</event>
<event>
 5   0  0.1560728E-02  0.8914693E+03  0.7818609E-02  0.9436308E-01
       -1   -1    0    0    0  501  0.00000000000E+00  0.00000000000E+00  0.27065713890E+03  0.27065713895E+03  0.50400001928E-02 0. -1.
        1   -1    0    0  501    0  0.00000000000E+00  0.00000000000E+00 -0.73406300455E+03  0.73406300456E+03  0.50400001928E-02 0.  1.
    10030    2    1    2    0    0  0.00000000000E+00  0.00000000000E+00 -0.46340586565E+03  0.10047201435E+04  0.89146933231E+03 0.  0.
        4    1    3    3  502    0  0.13185380348E+03  0.42564758752E+03 -0.21953898437E+03  0.49674970841E+03  0.12699999809E+01 0. -1.
       -4    1    3    3    0  502 -0.13185380348E+03 -0.42564758752E+03 -0.24386688128E+03  0.50797043510E+03  0.12699999809E+01 0.  1.
</event>
<event>
 5   0  0.2705111E-02  0.9125337E+03  0.7818609E-02  0.9410048E-01
       -2   -1    0    0    0  501  0.00000000000E+00  0.00000000000E+00  0.15138410854E+03  0.15138410856E+03  0.25500000920E-02 0.  1.
        2   -1    0    0  501    0  0.00000000000E+00  0.00000000000E+00 -0.13751735876E+04  0.13751735876E+04  0.25500000920E-02 0. -1.
    10030    2    1    2    0    0  0.00000000000E+00  0.00000000000E+00 -0.12237894790E+04  0.15265576961E+04  0.91253367643E+03 0.  0.
        4    1    3    3  502    0 -0.42139508142E+03  0.16931257183E+03 -0.68552519851E+03  0.82230588732E+03  0.12699999809E+01 0.  1.
       -4    1    3    3    0  502  0.42139508142E+03 -0.16931257183E+03 -0.53826428051E+03  0.70425180880E+03  0.12699999809E+01 0. -1.
</event>
<event>
 5   0  0.2414128E-02  0.9959743E+03  0.7818609E-02  0.9312971E-01
       -2   -1    0    0    0  501  0.00000000000E+00  0.00000000000E+00  0.35902906825E+03  0.35902906826E+03  0.25500000920E-02 0.  1.
        2   -1    0    0  501    0  0.00000000000E+00  0.00000000000E+00 -0.69072741162E+03  0.69072741163E+03  0.25500000920E-02 0. -1.
    10030    2    1    2    0    0  0.00000000000E+00  0.00000000000E+00 -0.33169834337E+03  0.10497564799E+04  0.99597433505E+03 0.  0.
        3    1    3    3  502    0  0.20168919095E+03 -0.36998328235E+03  0.11385825535E+03  0.43649727545E+03  0.10100000352E+00 0. -1.
       -3    1    3    3    0  502 -0.20168919095E+03  0.36998328235E+03 -0.44555659873E+03  0.61325920444E+03  0.10100000352E+00 0.  1.
</event>
<event>
 5   0  0.2803717E-02  0.8981180E+03  0.7818609E-02  0.9427937E-01
        2   -1    0    0  501    0  0.00000000000E+00  0.00000000000E+00  0.16507189967E+04  0.16507189967E+04  0.25500000920E-02 0.  1.
       -2   -1    0    0    0  501  0.00000000000E+00  0.00000000000E+00 -0.12216130135E+03  0.12216130137E+03  0.25500000920E-02 0. -1.
    10030    2    1    2    0    0  0.00000000000E+00  0.00000000000E+00  0.15285576953E+04  0.17728802981E+04  0.89811798961E+03 0.  0.
        5    1    3    3  502    0 -0.24909828207E+03 -0.65707905733E+02  0.38276899731E+02  0.26048933579E+03  0.46999998093E+01 0. -1.
       -5    1    3    3    0  502  0.24909828207E+03  0.65707905733E+02  0.14902807956E+04  0.15123909623E+04  0.46999998093E+01 0.  1.
</event>
<event>
 5   0  0.1459111E-02  0.8917994E+03  0.7818609E-02  0.9435891E-01
       -1   -1    0    0    0  501  0.00000000000E+00  0.00000000000E+00  0.26879972457E+03  0.26879972462E+03  0.50400001928E-02 0.  1.
        1   -1    0    0  501    0  0.00000000000E+00  0.00000000000E+00 -0.73968291080E+03  0.73968291081E+03  0.50400001928E-02 0. -1.
    10030    2    1    2    0    0  0.00000000000E+00  0.00000000000E+00 -0.47088318623E+03  0.10084826354E+04  0.89179944544E+03 0.  0.
        2    1    3    3  502    0 -0.25384065902E+03 -0.36649307954E+03 -0.22569369869E+03  0.49968980694E+03  0.25500000920E-02 0. -1.
       -2    1    3    3    0  502  0.25384065902E+03  0.36649307954E+03 -0.24518948754E+03  0.50879282849E+03  0.25500000920E-02 0.  1.
</event>
<event>
 5   0  0.1560728E-02  0.8914197E+03  0.7818609E-02  0.9436371E-01
       -1   -1    0    0    0  501  0.00000000000E+00  0.00000000000E+00  0.16917553372E+03  0.16917553380E+03  0.50400001928E-02 0. -1.
        1   -1    0    0  501    0  0.00000000000E+00  0.00000000000E+00 -0.11742670337E+04  0.11742670337E+04  0.50400001928E-02 0.  1.
    10030    2    1    2    0    0  0.00000000000E+00  0.00000000000E+00 -0.10050915000E+04  0.13434425675E+04  0.89141965925E+03 0.  0.
        4    1    3    3  502    0  0.23802925929E+03 -0.20528966842E+03 -0.26312917936E+02  0.31542948306E+03  0.12699999809E+01 0. -1.
       -4    1    3    3    0  502 -0.23802925929E+03  0.20528966842E+03 -0.97877858206E+03  0.10280130845E+04  0.12699999809E+01 0.  1.
</event>
<event>
 5   0  0.1040163E-02  0.8534106E+03  0.7818609E-02  0.9485771E-01
       -3   -1    0    0    0  501  0.00000000000E+00  0.00000000000E+00  0.36296852297E+03  0.36296853702E+03  0.10100000352E+00 0.  1.
        3   -1    0    0  501    0  0.00000000000E+00  0.00000000000E+00 -0.50163416946E+03  0.50163417963E+03  0.10100000352E+00 0. -1.
    10030    2    1    2    0    0  0.00000000000E+00  0.00000000000E+00 -0.13866564649E+03  0.86460271665E+03  0.85341062574E+03 0.  0.
        4    1    3    3  502    0 -0.77657979602E+02 -0.40302686067E+03  0.48878148026E+02  0.41334259214E+03  0.12699999809E+01 0.  1.
       -4    1    3    3    0  502  0.77657979602E+02  0.40302686067E+03 -0.18754379452E+03  0.45126012452E+03  0.12699999809E+01 0. -1.
</event>
<event>
 5   0  0.1559275E-02  0.8933385E+03  0.7818609E-02  0.9433947E-01
       -1   -1    0    0    0  501  0.00000000000E+00  0.00000000000E+00  0.53427467300E+03  0.53427467302E+03  0.50400001928E-02 0.  1.
        1   -1    0    0  501    0  0.00000000000E+00  0.00000000000E+00 -0.37342852761E+03  0.37342852764E+03  0.50400001928E-02 0. -1.
    10030    2    1    2    0    0  0.00000000000E+00  0.00000000000E+00  0.16084614539E+03  0.90770320066E+03  0.89333846778E+03 0.  0.
        1    1    3    3  502    0 -0.15443031804E+03  0.25431389833E+03 -0.25808422842E+03  0.39386768210E+03  0.50400001928E-02 0. -1.
       -1    1    3    3    0  502  0.15443031804E+03 -0.25431389833E+03  0.41893037381E+03  0.51383551857E+03  0.50400001928E-02 0.  1.
</event>
<event>
 5   0  0.2803717E-02  0.8736206E+03  0.7818609E-02  0.9459171E-01
       -2   -1    0    0    0  501  0.00000000000E+00  0.00000000000E+00  0.39177375785E+03  0.39177375786E+03  0.25500000920E-02 0. -1.
        2   -1    0    0  501    0  0.00000000000E+00  0.00000000000E+00 -0.48702398880E+03  0.48702398881E+03  0.25500000920E-02 0.  1.
    10030    2    1    2    0    0  0.00000000000E+00  0.00000000000E+00 -0.95250230953E+02  0.87879774666E+03  0.87362055438E+03 0.  0.
        5    1    3    3  502    0  0.29295001357E+03 -0.32371766564E+03 -0.60674686561E+02  0.44081327689E+03  0.46999998093E+01 0. -1.
       -5    1    3    3    0  502 -0.29295001357E+03  0.32371766564E+03 -0.34575544392E+02  0.43798446977E+03  0.46999998093E+01 0.  1.
</event>
<event>
 5   0  0.2705111E-02  0.8643626E+03  0.7818609E-02  0.9471260E-01
       -2   -1    0    0    0  501  0.00000000000E+00  0.00000000000E+00  0.32555955547E+03  0.32555955548E+03  0.25500000920E-02 0.  1.
        2   -1    0    0  501    0  0.00000000000E+00  0.00000000000E+00 -0.57372200632E+03  0.57372200633E+03  0.25500000920E-02 0. -1.
    10030    2    1    2    0    0  0.00000000000E+00  0.00000000000E+00 -0.24816245085E+03  0.89928156181E+03  0.86436261222E+03 0.  0.
        4    1    3    3  502    0  0.35272834430E+03  0.34178070535E+02  0.13328578053E+03  0.37861872321E+03  0.12699999809E+01 0.  1.
       -4    1    3    3    0  502 -0.35272834430E+03 -0.34178070535E+02 -0.38144823138E+03  0.52066283860E+03  0.12699999809E+01 0. -1.
</event>
<event>
 5   0  0.2679861E-02  0.8749153E+03  0.7818609E-02  0.9457493E-01
        2   -1    0    0  501    0  0.00000000000E+00  0.00000000000E+00  0.51489560365E+03  0.51489560366E+03  0.25500000920E-02 0.  1.
       -2   -1    0    0    0  501  0.00000000000E+00  0.00000000000E+00 -0.37166604791E+03  0.37166604792E+03  0.25500000920E-02 0. -1.
    10030    2    1    2    0    0  0.00000000000E+00  0.00000000000E+00  0.14322955574E+03  0.88656165158E+03  0.87491534243E+03 0.  0.
        1    1    3    3  502    0  0.21752392579E+03  0.37941037919E+03  0.81764088844E+02  0.44492051018E+03  0.50400001928E-02 0.  1.
       -1    1    3    3    0  502 -0.21752392579E+03 -0.37941037919E+03  0.61465466895E+02  0.44164114140E+03  0.50400001928E-02 0. -1.
</event>
<event>
 5   0  0.2679861E-02  0.9631406E+03  0.7818609E-02  0.9349922E-01
       -2   -1    0    0    0  501  0.00000000000E+00  0.00000000000E+00  0.93551343415E+02  0.93551343449E+02  0.25500000920E-02 0.  1.
        2   -1    0    0  501    0  0.00000000000E+00  0.00000000000E+00 -0.24789588460E+04  0.24789588460E+04  0.25500000920E-02 0. -1.
    10030    2    1    2    0    0  0.00000000000E+00  0.00000000000E+00 -0.23854075026E+04  0.25725101894E+04  0.96314055123E+03 0.  0.
        1    1    3    3  502    0  0.37405266850E+03  0.28791098502E+03 -0.93788523118E+03  0.10499699239E+04  0.50400001928E-02 0. -1.
       -1    1    3    3    0  502 -0.37405266850E+03 -0.28791098502E+03 -0.14475222714E+04  0.15225402656E+04  0.50400001928E-02 0.  1.
</event>
<event>
 5   0  0.1459111E-02  0.5581226E+03  0.7818609E-02  0.9996312E-01
       -1   -1    0    0    0  501  0.00000000000E+00  0.00000000000E+00  0.26461232818E+03  0.26461232823E+03  0.50400001928E-02 0. -1.
        1   -1    0    0  501    0  0.00000000000E+00  0.00000000000E+00 -0.29429919599E+03  0.29429919603E+03  0.50400001928E-02 0.  1.
    10030    2    1    2    0    0  0.00000000000E+00  0.00000000000E+00 -0.29686867809E+02  0.55891152426E+03  0.55812255091E+03 0.  0.
        2    1    3    3  502    0  0.19618204591E+03 -0.19628744111E+03  0.14507395867E+02  0.27789677799E+03  0.25500000920E-02 0. -1.
       -2    1    3    3    0  502 -0.19618204591E+03  0.19628744111E+03 -0.44194263676E+02  0.28101474627E+03  0.25500000920E-02 0.  1.
</event>
<event>
 5   0  0.1537870E-02  0.8892080E+03  0.7818609E-02  0.9439173E-01
        1   -1    0    0  501    0  0.00000000000E+00  0.00000000000E+00  0.90279133250E+03  0.90279133252E+03  0.50400001928E-02 0. -1.
       -1   -1    0    0    0  501  0.00000000000E+00  0.00000000000E+00 -0.21895724507E+03  0.21895724513E+03  0.50400001928E-02 0.  1.
    10030    2    1    2    0    0  0.00000000000E+00  0.00000000000E+00  0.68383408743E+03  0.11217485776E+04  0.88920796911E+03 0.  0.
        5    1    3    3  502    0  0.37107282146E+03  0.22904875027E+03  0.45111088526E+03  0.62744042715E+03  0.46999998093E+01 0.  1.
       -5    1    3    3    0  502 -0.37107282146E+03 -0.22904875027E+03  0.23272320217E+03  0.49430815050E+03  0.46999998093E+01 0. -1.
</event>
<event>
 5   0  0.2803717E-02  0.9005190E+03  0.7818609E-02  0.9424933E-01
        2   -1    0    0  501    0  0.00000000000E+00  0.00000000000E+00  0.55715081757E+03  0.55715081758E+03  0.25500000920E-02 0.  1.
       -2   -1    0    0    0  501  0.00000000000E+00  0.00000000000E+00 -0.36387567185E+03  0.36387567186E+03  0.25500000920E-02 0. -1.
    10030    2    1    2    0    0  0.00000000000E+00  0.00000000000E+00  0.19327514573E+03  0.92102648944E+03  0.90051902383E+03 0.  0.
        5    1    3    3  502    0 -0.83661968248E+02  0.41090611901E+03  0.26428617077E+03  0.49569389105E+03  0.46999998093E+01 0.  1.
       -5    1    3    3    0  502  0.83661968248E+02 -0.41090611901E+03 -0.71011025045E+02  0.42533259838E+03  0.46999998093E+01 0. -1.
</event>
<event>
 5   0  0.1560728E-02  0.9091606E+03  0.7818609E-02  0.9414202E-01
        1   -1    0    0  501    0  0.00000000000E+00  0.00000000000E+00  0.66809117582E+03  0.66809117584E+03  0.50400001928E-02 0. -1.
       -1   -1    0    0    0  501  0.00000000000E+00  0.00000000000E+00 -0.30930395020E+03  0.30930395024E+03  0.50400001928E-02 0.  1.
    10030    2    1    2    0    0  0.00000000000E+00  0.00000000000E+00  0.35878722562E+03  0.97739512609E+03  0.90916057945E+03 0.  0.
        4    1    3    3  502    0  0.18140840836E+03 -0.64456509652E+02  0.62209847747E+03  0.65120793978E+03  0.12699999809E+01 0. -1.
       -4    1    3    3    0  502 -0.18140840836E+03  0.64456509652E+02 -0.26331125185E+03  0.32618718631E+03  0.12699999809E+01 0.  1.
</event>
<event>
 5   0  0.2628383E-02  0.8928149E+03  0.7818609E-02  0.9434608E-01
       -2   -1    0    0    0  501  0.00000000000E+00  0.00000000000E+00  0.65575560836E+03  0.65575560837E+03  0.25500000920E-02 0.  1.
        2   -1    0    0  501    0  0.00000000000E+00  0.00000000000E+00 -0.30389308172E+03  0.30389308173E+03  0.25500000920E-02 0. -1.
    10030    2    1    2    0    0  0.00000000000E+00  0.00000000000E+00  0.35186252664E+03  0.95964869010E+03  0.89281485805E+03 0.  0.
        2    1    3    3  502    0 -0.19552189060E+02 -0.28982718706E+03 -0.18840816043E+03  0.34623651075E+03  0.25500000920E-02 0. -1.
       -2    1    3    3    0  502  0.19552189060E+02  0.28982718706E+03  0.54027068707E+03  0.61341217935E+03  0.25500000920E-02 0.  1.
</event>
<event>
 5   0  0.1559275E-02  0.8882955E+03  0.7818609E-02  0.9440332E-01
       -1   -1    0    0    0  501  0.00000000000E+00  0.00000000000E+00  0.92510894686E+02  0.92510894823E+02  0.50400001928E-02 0. -1.
        1   -1    0    0  501    0  0.00000000000E+00  0.00000000000E+00 -0.21323676602E+04  0.21323676602E+04  0.50400001928E-02 0.  1.
    10030    2    1    2    0    0  0.00000000000E+00  0.00000000000E+00 -0.20398567655E+04  0.22248785550E+04  0.88829553686E+03 0.  0.
        1    1    3    3  502    0  0.38834709823E+03 -0.70474182354E+02 -0.50976922283E+03  0.64470515715E+03  0.50400001928E-02 0. -1.
       -1    1    3    3    0  502 -0.38834709823E+03  0.70474182354E+02 -0.15300875427E+04  0.15801733979E+04  0.50400001928E-02 0.  1.
</event>
<event>
 5   0  0.2414128E-02  0.8808327E+03  0.7818609E-02  0.9449864E-01
       -2   -1    0    0    0  501  0.00000000000E+00  0.00000000000E+00  0.52715604138E+03  0.52715604139E+03  0.25500000920E-02 0.  1.
        2   -1    0    0  501    0  0.00000000000E+00  0.00000000000E+00 -0.36794900513E+03  0.36794900514E+03  0.25500000920E-02 0. -1.
    10030    2    1    2    0    0  0.00000000000E+00  0.00000000000E+00  0.15920703625E+03  0.89510504653E+03  0.88083265376E+03 0.  0.
        3    1    3    3  502    0 -0.11162804120E+02  0.35685192601E+03 -0.18244815312E+03  0.40094294366E+03  0.10100000352E+00 0. -1.
       -3    1    3    3    0  502  0.11162804120E+02 -0.35685192601E+03  0.34165518937E+03  0.49416210287E+03  0.10100000352E+00 0.  1.
</event>
<event>
 5   0  0.2803717E-02  0.8899492E+03  0.7818609E-02  0.9438233E-01
       -2   -1    0    0    0  501  0.00000000000E+00  0.00000000000E+00  0.23419672599E+03  0.23419672600E+03  0.25500000920E-02 0.  1.
        2   -1    0    0  501    0  0.00000000000E+00  0.00000000000E+00 -0.84545321442E+03  0.84545321442E+03  0.25500000920E-02 0. -1.
    10030    2    1    2    0    0  0.00000000000E+00  0.00000000000E+00 -0.61125648843E+03  0.10796499404E+04  0.88994915541E+03 0.  0.
        5    1    3    3  502    0  0.22561477077E+03 -0.38157203918E+03 -0.35231578595E+03  0.56625767006E+03  0.46999998093E+01 0. -1.
       -5    1    3    3    0  502 -0.22561477077E+03  0.38157203918E+03 -0.25894070248E+03  0.51339227037E+03  0.46999998093E+01 0.  1.
</event>
<event>
 5   0  0.1559275E-02  0.8979384E+03  0.7818609E-02  0.9428162E-01
       -1   -1    0    0    0  501  0.00000000000E+00  0.00000000000E+00  0.36087265641E+03  0.36087265644E+03  0.50400001928E-02 0. -1.
        1   -1    0    0  501    0  0.00000000000E+00  0.00000000000E+00 -0.55857197190E+03  0.55857197192E+03  0.50400001928E-02 0.  1.
    10030    2    1    2    0    0  0.00000000000E+00  0.00000000000E+00 -0.19769931549E+03  0.91944462836E+03  0.89793841953E+03 0.  0.
        1    1    3    3  502    0  0.63290505454E+02  0.23207219722E+03  0.28932105070E+03  0.37625770850E+03  0.50400001928E-02 0. -1.
       -1    1    3    3    0  502 -0.63290505454E+02 -0.23207219722E+03 -0.48702036619E+03  0.54318691986E+03  0.50400001928E-02 0.  1.
</event>
<event>
 5   0  0.1560728E-02  0.8934761E+03  0.7818609E-02  0.9433774E-01
       -1   -1    0    0    0  501  0.00000000000E+00  0.00000000000E+00  0.52683913823E+03  0.52683913825E+03  0.50400001928E-02 0. -1.
        1   -1    0    0  501    0  0.00000000000E+00  0.00000000000E+00 -0.37881562664E+03  0.37881562667E+03  0.50400001928E-02 0.  1.
    10030    2    1    2    0    0  0.00000000000E+00  0.00000000000E+00  0.14802351159E+03  0.90565476493E+03  0.89347612909E+03 0.  0.
        4    1    3    3  502    0 -0.17578491469E+03  0.28663691524E+03 -0.22412702479E+03  0.40409849486E+03  0.12699999809E+01 0.  1.
       -4    1    3    3    0  502  0.17578491469E+03 -0.28663691524E+03  0.37215053638E+03  0.50155627006E+03  0.12699999809E+01 0. -1.
</event>
<event>
 5   0  0.1537870E-02  0.9237914E+03  0.7818609E-02  0.9396320E-01
        1   -1    0    0  501    0  0.00000000000E+00  0.00000000000E+00  0.32824975724E+03  0.32824975728E+03  0.50400001928E-02 0.  1.
       -1   -1    0    0    0  501  0.00000000000E+00  0.00000000000E+00 -0.64995521083E+03  0.64995521085E+03  0.50400001928E-02 0. -1.
    10030    2    1    2    0    0  0.00000000000E+00  0.00000000000E+00 -0.32170545359E+03  0.97820496812E+03  0.92379140546E+03 0.  0.
        5    1    3    3  502    0  0.20401924377E+03 -0.36662578102E+03 -0.36532575885E+03  0.55634819602E+03  0.46999998093E+01 0. -1.
       -5    1    3    3    0  502 -0.20401924377E+03  0.36662578102E+03  0.43620305264E+02  0.42185677210E+03  0.46999998093E+01 0.  1.
</event>
<event>
 5   0  0.1537870E-02  0.8752513E+03  0.7818609E-02  0.9457058E-01
        1   -1    0    0  501    0  0.00000000000E+00  0.00000000000E+00  0.28126810735E+03  0.28126810740E+03  0.50400001928E-02 0.  1.
       -1   -1    0    0    0  501  0.00000000000E+00  0.00000000000E+00 -0.68090268222E+03  0.68090268224E+03  0.50400001928E-02 0. -1.
    10030    2    1    2    0    0  0.00000000000E+00  0.00000000000E+00 -0.39963457487E+03  0.96217078964E+03  0.87525129820E+03 0.  0.
        5    1    3    3  502    0  0.36964653973E+02  0.43514532574E+03 -0.16918861239E+03  0.46836387213E+03  0.46999998093E+01 0.  1.
       -5    1    3    3    0  502 -0.36964653973E+02 -0.43514532574E+03 -0.23044596247E+03  0.49380691750E+03  0.46999998093E+01 0. -1.
</event>
<event>
 5   0  0.2803717E-02  0.9275138E+03  0.7818609E-02  0.9391827E-01
        2   -1    0    0  501    0  0.00000000000E+00  0.00000000000E+00  0.13142317407E+04  0.13142317407E+04  0.25500000920E-02 0. -1.
       -2   -1    0    0    0  501  0.00000000000E+00  0.00000000000E+00 -0.16364729430E+03  0.16364729432E+03  0.25500000920E-02 0.  1.
    10030    2    1    2    0    0  0.00000000000E+00  0.00000000000E+00  0.11505844464E+04  0.14778790350E+04  0.92751381328E+03 0.  0.
        5    1    3    3  502    0 -0.38218005973E+02  0.26788218439E+03  0.11753565427E+04  0.12061121727E+04  0.46999998093E+01 0. -1.
       -5    1    3    3    0  502  0.38218005973E+02 -0.26788218439E+03 -0.24772096304E+02  0.27176686230E+03  0.46999998093E+01 0.  1.
</event>
<event>
 5   0  0.2803717E-02  0.9033308E+03  0.7818609E-02  0.9421427E-01
        2   -1    0    0  501    0  0.00000000000E+00  0.00000000000E+00  0.13119013082E+04  0.13119013082E+04  0.25500000920E-02 0.  1.
       -2   -1    0    0    0  501  0.00000000000E+00  0.00000000000E+00 -0.15550074871E+03  0.15550074873E+03  0.25500000920E-02 0. -1.
    10030    2    1    2    0    0  0.00000000000E+00  0.00000000000E+00  0.11564005595E+04  0.14674020570E+04  0.90333080471E+03 0.  0.
        5    1    3    3  502    0  0.73184592153E+02  0.24183855277E+03 -0.29906377467E+02  0.25447662279E+03  0.46999998093E+01 0. -1.
       -5    1    3    3    0  502 -0.73184592153E+02 -0.24183855277E+03  0.11863069370E+04  0.12129254342E+04  0.46999998093E+01 0.  1.
</event>
<event>
 5   0  0.2414128E-02  0.9120642E+03  0.7818609E-02  0.9410625E-01
        2   -1    0    0  501    0  0.00000000000E+00  0.00000000000E+00  0.24150092564E+04  0.24150092564E+04  0.25500000920E-02 0. -1.
       -2   -1    0    0    0  501  0.00000000000E+00  0.00000000000E+00 -0.86113646585E+02  0.86113646623E+02  0.25500000920E-02 0.  1.
    10030    2    1    2    0    0  0.00000000000E+00  0.00000000000E+00  0.23288956098E+04  0.25011229031E+04  0.91206415050E+03 0.  0.
        3    1    3    3  502    0 -0.16826480793E+03  0.56360247134E+00  0.21282865083E+01  0.16827924126E+03  0.10100000352E+00 0.  1.
       -3    1    3    3    0  502  0.16826480793E+03 -0.56360247134E+00  0.23267673233E+04  0.23328436618E+04  0.10100000352E+00 0. -1.
</event>
<event>
 5   0  0.2803717E-02  0.9157520E+03  0.7818609E-02  0.9406102E-01
        2   -1    0    0  501    0  0.00000000000E+00  0.00000000000E+00  0.18492964832E+04  0.18492964832E+04  0.25500000920E-02 0.  1.
       -2   -1    0    0    0  501  0.00000000000E+00  0.00000000000E+00 -0.11336767709E+03  0.11336767712E+03  0.25500000920E-02 0. -1.
    10030    2    1    2    0    0  0.00000000000E+00  0.00000000000E+00  0.17359288061E+04  0.19626641603E+04  0.91575203321E+03 0.  0.
        5    1    3    3  502    0 -0.29447006400E+03  0.30184716177E+03  0.48574813275E+03  0.64327106738E+03  0.46999998093E+01 0.  1.
       -5    1    3    3    0  502  0.29447006400E+03 -0.30184716177E+03  0.12501806734E+04  0.13193930929E+04  0.46999998093E+01 0. -1.
</event>
<event>
 5   0  0.1459111E-02  0.8869267E+03  0.7818609E-02  0.9442073E-01
        1   -1    0    0  501    0  0.00000000000E+00  0.00000000000E+00  0.51073272753E+03  0.51073272755E+03  0.50400001928E-02 0.  1.
       -1   -1    0    0    0  501  0.00000000000E+00  0.00000000000E+00 -0.38505413011E+03  0.38505413014E+03  0.50400001928E-02 0. -1.
    10030    2    1    2    0    0  0.00000000000E+00  0.00000000000E+00  0.12567859742E+03  0.89578685770E+03  0.88692670755E+03 0.  0.
        2    1    3    3  502    0 -0.39336911230E+03 -0.17603709700E+02  0.26886382645E+03  0.47679860139E+03  0.25500000920E-02 0.  1.
       -2    1    3    3    0  502  0.39336911230E+03  0.17603709700E+02 -0.14318522903E+03  0.41898825631E+03  0.25500000920E-02 0. -1.
</event>
<event>
 5   0  0.2414128E-02  0.9021285E+03  0.7818609E-02  0.9422925E-01
        2   -1    0    0  501    0  0.00000000000E+00  0.00000000000E+00  0.13396924899E+04  0.13396924899E+04  0.25500000920E-02 0.  1.
       -2   -1    0    0    0  501  0.00000000000E+00  0.00000000000E+00 -0.15186989018E+03  0.15186989020E+03  0.25500000920E-02 0. -1.
    10030    2    1    2    0    0  0.00000000000E+00  0.00000000000E+00  0.11878225997E+04  0.14915623801E+04  0.90212848605E+03 0.  0.
        3    1    3    3  502    0  0.16665269927E+03 -0.14712675634E+03 -0.55005662036E+02  0.22900881569E+03  0.10100000352E+00 0. -1.
       -3    1    3    3    0  502 -0.16665269927E+03  0.14712675634E+03  0.12428282618E+04  0.12625535644E+04  0.10100000352E+00 0.  1.
</event>
<event>
 5   0  0.2628383E-02  0.8648000E+03  0.7818609E-02  0.9470685E-01
        2   -1    0    0  501    0  0.00000000000E+00  0.00000000000E+00  0.10061056908E+04  0.10061056908E+04  0.25500000920E-02 0.  1.
       -2   -1    0    0    0  501  0.00000000000E+00  0.00000000000E+00 -0.18583510624E+03  0.18583510625E+03  0.25500000920E-02 0. -1.
    10030    2    1    2    0    0  0.00000000000E+00  0.00000000000E+00  0.82027058454E+03  0.11919407970E+04  0.86479999524E+03 0.  0.
        2    1    3    3  502    0 -0.42314719131E+03  0.12612491040E+02  0.53152720400E+03  0.67950996243E+03  0.25500000920E-02 0.  1.
       -2    1    3    3    0  502  0.42314719131E+03 -0.12612491040E+02  0.28874338054E+03  0.51243083460E+03  0.25500000920E-02 0. -1.
</event>
<event>
 5   0  0.2414128E-02  0.6665227E+03  0.7818609E-02  0.9776260E-01
        2   -1    0    0  501    0  0.00000000000E+00  0.00000000000E+00  0.83764419557E+03  0.83764419558E+03  0.25500000920E-02 0. -1.
       -2   -1    0    0    0  501  0.00000000000E+00  0.00000000000E+00 -0.13258986901E+03  0.13258986903E+03  0.25500000920E-02 0.  1.
    10030    2    1    2    0    0  0.00000000000E+00  0.00000000000E+00  0.70505432657E+03  0.97023406461E+03  0.66652272033E+03 0.  0.
        3    1    3    3  502    0 -0.10995382365E+03  0.31162964278E+03  0.41531084721E+03  0.53074097977E+03  0.10100000352E+00 0. -1.
       -3    1    3    3    0  502  0.10995382365E+03 -0.31162964278E+03  0.28974347936E+03  0.43949308484E+03  0.10100000352E+00 0.  1.
</event>
<event>
 5   0  0.1040163E-02  0.9306396E+03  0.7818609E-02  0.9388071E-01
        4   -1    0    0  501    0  0.00000000000E+00  0.00000000000E+00  0.74576527661E+03  0.74576635798E+03  0.12699999809E+01 0.  1.
       -4   -1    0    0    0  501  0.00000000000E+00  0.00000000000E+00 -0.29033332415E+03  0.29033610181E+03  0.12699999809E+01 0. -1.
    10030    2    1    2    0    0  0.00000000000E+00  0.00000000000E+00  0.45543195246E+03  0.10361024598E+04  0.93063958859E+03 0.  0.
        5    1    3    3  502    0  0.31988871269E+03 -0.17315293462E+03  0.55075176975E+03  0.66004570232E+03  0.46999998093E+01 0. -1.
       -5    1    3    3    0  502 -0.31988871269E+03  0.17315293462E+03 -0.95319817285E+02  0.37605675747E+03  0.46999998093E+01 0.  1.
</event>
<event>
 5   0  0.2628383E-02  0.9186819E+03  0.7818609E-02  0.9402525E-01
        2   -1    0    0  501    0  0.00000000000E+00  0.00000000000E+00  0.60391309502E+03  0.60391309502E+03  0.25500000920E-02 0.  1.
       -2   -1    0    0    0  501  0.00000000000E+00  0.00000000000E+00 -0.34937826061E+03  0.34937826061E+03  0.25500000920E-02 0. -1.
    10030    2    1    2    0    0  0.00000000000E+00  0.00000000000E+00  0.25453483441E+03  0.95329135564E+03  0.91868189642E+03 0.  0.
        2    1    3    3  502    0 -0.30123751903E+03  0.77979825347E+02  0.47788605321E+03  0.57026307603E+03  0.25500000920E-02 0.  1.
       -2    1    3    3    0  502  0.30123751903E+03 -0.77979825347E+02 -0.22335121880E+03  0.38302827960E+03  0.25500000920E-02 0. -1.
</event>
<event>
 5   0  0.1459111E-02  0.8977670E+03  0.7818609E-02  0.9428377E-01
        1   -1    0    0  501    0  0.00000000000E+00  0.00000000000E+00  0.79722392130E+03  0.79722392131E+03  0.50400001928E-02 0. -1.
       -1   -1    0    0    0  501  0.00000000000E+00  0.00000000000E+00 -0.25274757107E+03  0.25274757112E+03  0.50400001928E-02 0.  1.
    10030    2    1    2    0    0  0.00000000000E+00  0.00000000000E+00  0.54447635023E+03  0.10499714924E+04  0.89776702934E+03 0.  0.
        2    1    3    3  502    0  0.17339953460E+03 -0.30781085853E+03 -0.51623171714E+02  0.35704323980E+03  0.25500000920E-02 0.  1.
       -2    1    3    3    0  502 -0.17339953460E+03  0.30781085853E+03  0.59609952194E+03  0.69292825263E+03  0.25500000920E-02 0. -1.
</event>
<event>
 5   0  0.1459111E-02  0.9117604E+03  0.7818609E-02  0.9410999E-01
        1   -1    0    0  501    0  0.00000000000E+00  0.00000000000E+00  0.24622556801E+03  0.24622556806E+03  0.50400001928E-02 0.  1.
       -1   -1    0    0    0  501  0.00000000000E+00  0.00000000000E+00 -0.84405025660E+03  0.84405025661E+03  0.50400001928E-02 0. -1.
    10030    2    1    2    0    0  0.00000000000E+00  0.00000000000E+00 -0.59782468859E+03  0.10902758247E+04  0.91176039373E+03 0.  0.
        2    1    3    3  502    0 -0.30613212306E+03 -0.57604622299E+02 -0.69693614871E+03  0.76338402176E+03  0.25500000920E-02 0. -1.
       -2    1    3    3    0  502  0.30613212306E+03  0.57604622299E+02  0.99111460121E+02  0.32689180292E+03  0.25500000920E-02 0.  1.
</event>
<event>
 5   0  0.2705111E-02  0.1099020E+04  0.7818609E-02  0.9206147E-01
        2   -1    0    0  501    0  0.00000000000E+00  0.00000000000E+00  0.58687942612E+03  0.58687942612E+03  0.25500000920E-02 0.  1.
       -2   -1    0    0    0  501  0.00000000000E+00  0.00000000000E+00 -0.51452014241E+03  0.51452014242E+03  0.25500000920E-02 0. -1.
    10030    2    1    2    0    0  0.00000000000E+00  0.00000000000E+00  0.72359283704E+02  0.11013995685E+04  0.10990200834E+04 0.  0.
        4    1    3    3  502    0 -0.16529353067E+02 -0.47698071921E+03  0.30912174291E+03  0.56863141915E+03  0.12699999809E+01 0.  1.
       -4    1    3    3    0  502  0.16529353067E+02  0.47698071921E+03 -0.23676245920E+03  0.53276814938E+03  0.12699999809E+01 0. -1.
</event>
<event>
 5   0  0.1497410E-02  0.8579093E+03  0.7818609E-02  0.9479782E-01
        1   -1    0    0  501    0  0.00000000000E+00  0.00000000000E+00  0.35700609909E+03  0.35700609912E+03  0.50400001928E-02 0.  1.
       -1   -1    0    0    0  501  0.00000000000E+00  0.00000000000E+00 -0.51540319806E+03  0.51540319809E+03  0.50400001928E-02 0. -1.
    10030    2    1    2    0    0  0.00000000000E+00  0.00000000000E+00 -0.15839709897E+03  0.87240929721E+03  0.85790928477E+03 0.  0.
        3    1    3    3  502    0  0.16104940514E+02  0.27391626666E+03  0.25609008185E+03  0.37532869658E+03  0.10100000352E+00 0.  1.
       -3    1    3    3    0  502 -0.16104940514E+02 -0.27391626666E+03 -0.41448718083E+03  0.49708060063E+03  0.10100000352E+00 0. -1.
</event>
<event>
 5   0  0.1040163E-02  0.8556884E+03  0.7818609E-02  0.9482734E-01
       -4   -1    0    0    0  501  0.00000000000E+00  0.00000000000E+00  0.83040903454E+03  0.83041000569E+03  0.12699999809E+01 0. -1.
        4   -1    0    0  501    0  0.00000000000E+00  0.00000000000E+00 -0.22043140854E+03  0.22043506702E+03  0.12699999809E+01 0.  1.
    10030    2    1    2    0    0  0.00000000000E+00  0.00000000000E+00  0.60997762600E+03  0.10508450727E+04  0.85568841444E+03 0.  0.
        4    1    3    3  502    0 -0.18569433819E+03  0.68565266548E+02  0.77079078663E+03  0.79580376518E+03  0.12699999809E+01 0. -1.
       -4    1    3    3    0  502  0.18569433819E+03 -0.68565266548E+02 -0.16081316063E+03  0.25504130753E+03  0.12699999809E+01 0.  1.
</event>
<event>
 5   0  0.2414128E-02  0.8489350E+03  0.7818609E-02  0.9491767E-01
       -2   -1    0    0    0  501  0.00000000000E+00  0.00000000000E+00  0.14545134001E+04  0.14545134001E+04  0.25500000920E-02 0. -1.
        2   -1    0    0  501    0  0.00000000000E+00  0.00000000000E+00 -0.12387144411E+03  0.12387144413E+03  0.25500000920E-02 0.  1.
    10030    2    1    2    0    0  0.00000000000E+00  0.00000000000E+00  0.13306419560E+04  0.15783848442E+04  0.84893503959E+03 0.  0.
        3    1    3    3  502    0 -0.30361436347E+03 -0.16264023907E+03  0.11265473595E+04  0.11780248267E+04  0.10100000352E+00 0. -1.
       -3    1    3    3    0  502  0.30361436347E+03  0.16264023907E+03  0.20409459651E+03  0.40036001748E+03  0.10100000352E+00 0.  1.
</event>
<event>
 5   0  0.2414128E-02  0.8945374E+03  0.7818609E-02  0.9432436E-01
       -2   -1    0    0    0  501  0.00000000000E+00  0.00000000000E+00  0.14572033696E+03  0.14572033698E+03  0.25500000920E-02 0. -1.
        2   -1    0    0  501    0  0.00000000000E+00  0.00000000000E+00 -0.13728302413E+04  0.13728302413E+04  0.25500000920E-02 0.  1.
    10030    2    1    2    0    0  0.00000000000E+00  0.00000000000E+00 -0.12271099044E+04  0.15185505783E+04  0.89453738966E+03 0.  0.
        3    1    3    3  502    0 -0.41726676243E+03  0.35146012764E+02 -0.88036431079E+03  0.97487851713E+03  0.10100000352E+00 0.  1.
       -3    1    3    3    0  502  0.41726676243E+03 -0.35146012764E+02 -0.34674559356E+03  0.54367206117E+03  0.10100000352E+00 0. -1.
</event>
<event>
 5   0  0.2628383E-02  0.8960398E+03  0.7818609E-02  0.9430545E-01
        2   -1    0    0  501    0  0.00000000000E+00  0.00000000000E+00  0.25939509239E+03  0.25939509240E+03  0.25500000920E-02 0.  1.
       -2   -1    0    0    0  501  0.00000000000E+00  0.00000000000E+00 -0.77380740591E+03  0.77380740592E+03  0.25500000920E-02 0. -1.
    10030    2    1    2    0    0  0.00000000000E+00  0.00000000000E+00 -0.51441231353E+03  0.10332024983E+04  0.89603982848E+03 0.  0.
        2    1    3    3  502    0 -0.32841325819E+03 -0.29815537462E+03 -0.32985865313E+03  0.55277357627E+03  0.25500000920E-02 0. -1.
       -2    1    3    3    0  502  0.32841325819E+03  0.29815537462E+03 -0.18455366039E+03  0.48042892205E+03  0.25500000920E-02 0.  1.
</event>
<event>
 5   0  0.1559275E-02  0.9018060E+03  0.7818609E-02  0.9423327E-01
        1   -1    0    0  501    0  0.00000000000E+00  0.00000000000E+00  0.64595713078E+03  0.64595713080E+03  0.50400001928E-02 0.  1.
       -1   -1    0    0    0  501  0.00000000000E+00  0.00000000000E+00 -0.31474769021E+03  0.31474769025E+03  0.50400001928E-02 0. -1.
    10030    2    1    2    0    0  0.00000000000E+00  0.00000000000E+00  0.33120944057E+03  0.96070482105E+03  0.90180599890E+03 0.  0.
        1    1    3    3  502    0  0.33033885707E+03  0.29106623061E+02  0.49107902010E+03  0.59256186175E+03  0.50400001928E-02 0.  1.
       -1    1    3    3    0  502 -0.33033885707E+03 -0.29106623061E+02 -0.15986957953E+03  0.36814295930E+03  0.50400001928E-02 0. -1.
</event>
<event>
 5   0  0.2705111E-02  0.8511401E+03  0.7818609E-02  0.9488808E-01
       -2   -1    0    0    0  501  0.00000000000E+00  0.00000000000E+00  0.34573501498E+03  0.34573501499E+03  0.25500000920E-02 0. -1.
        2   -1    0    0  501    0  0.00000000000E+00  0.00000000000E+00 -0.52384005770E+03  0.52384005770E+03  0.25500000920E-02 0.  1.
    10030    2    1    2    0    0  0.00000000000E+00  0.00000000000E+00 -0.17810504271E+03  0.86957507270E+03  0.85114005946E+03 0.  0.
        4    1    3    3  502    0  0.21230559092E+03 -0.15017974111E+03 -0.43321767622E+03  0.50527891948E+03  0.12699999809E+01 0.  1.
       -4    1    3    3    0  502 -0.21230559092E+03  0.15017974111E+03  0.25511263351E+03  0.36429615322E+03  0.12699999809E+01 0. -1.
</event>
<event>
 5   0  0.1559275E-02  0.8815609E+03  0.7818609E-02  0.9448929E-01
       -1   -1    0    0    0  501  0.00000000000E+00  0.00000000000E+00  0.86250211248E+03  0.86250211249E+03  0.50400001928E-02 0.  1.
        1   -1    0    0  501    0  0.00000000000E+00  0.00000000000E+00 -0.22526019306E+03  0.22526019312E+03  0.50400001928E-02 0. -1.
    10030    2    1    2    0    0  0.00000000000E+00  0.00000000000E+00  0.63724191941E+03  0.10877623056E+04  0.88156087121E+03 0.  0.
        1    1    3    3  502    0 -0.24123919610E+03  0.36888459753E+03  0.32343103055E+03  0.54669902833E+03  0.50400001928E-02 0.  1.
       -1    1    3    3    0  502  0.24123919610E+03 -0.36888459753E+03  0.31381088887E+03  0.54106327728E+03  0.50400001928E-02 0. -1.
</event>
<event>
 5   0  0.2414128E-02  0.8568627E+03  0.7818609E-02  0.9481172E-01
        2   -1    0    0  501    0  0.00000000000E+00  0.00000000000E+00  0.49793237352E+03  0.49793237352E+03  0.25500000920E-02 0.  1.
       -2   -1    0    0    0  501  0.00000000000E+00  0.00000000000E+00 -0.36863120125E+03  0.36863120126E+03  0.25500000920E-02 0. -1.
    10030    2    1    2    0    0  0.00000000000E+00  0.00000000000E+00  0.12930117227E+03  0.86656357479E+03  0.85686267044E+03 0.  0.
        3    1    3    3  502    0  0.77656987421E+02 -0.26538544589E+03 -0.26630557582E+03  0.38389935204E+03  0.10100000352E+00 0. -1.
       -3    1    3    3    0  502 -0.77656987421E+02  0.26538544589E+03  0.39560674808E+03  0.48266422274E+03  0.10100000352E+00 0.  1.
</event>
<event>
 5   0  0.2414128E-02  0.9013104E+03  0.7818609E-02  0.9423945E-01
        2   -1    0    0  501    0  0.00000000000E+00  0.00000000000E+00  0.18290905033E+04  0.18290905033E+04  0.25500000920E-02 0.  1.
       -2   -1    0    0    0  501  0.00000000000E+00  0.00000000000E+00 -0.11103339245E+03  0.11103339248E+03  0.25500000920E-02 0. -1.
    10030    2    1    2    0    0  0.00000000000E+00  0.00000000000E+00  0.17180571109E+04  0.19401238958E+04  0.90131043202E+03 0.  0.
        3    1    3    3  502    0  0.27019860989E+03  0.32984323757E+03  0.54497422761E+03  0.69195431144E+03  0.10100000352E+00 0.  1.
       -3    1    3    3    0  502 -0.27019860989E+03 -0.32984323757E+03  0.11730828832E+04  0.12481695844E+04  0.10100000352E+00 0. -1.
</event>
<event>
 5   0  0.1560728E-02  0.8987349E+03  0.7818609E-02  0.9427164E-01
       -1   -1    0    0    0  501  0.00000000000E+00  0.00000000000E+00  0.50744986583E+03  0.50744986586E+03  0.50400001928E-02 0.  1.
        1   -1    0    0  501    0  0.00000000000E+00  0.00000000000E+00 -0.39793310559E+03  0.39793310562E+03  0.50400001928E-02 0. -1.
    10030    2    1    2    0    0  0.00000000000E+00  0.00000000000E+00  0.10951676025E+03  0.90538297148E+03  0.89873489098E+03 0.  0.
        4    1    3    3  502    0 -0.27646790280E+03  0.22837418478E+03 -0.21805886536E+03  0.41969101875E+03  0.12699999809E+01 0. -1.
       -4    1    3    3    0  502  0.27646790280E+03 -0.22837418478E+03  0.32757562561E+03  0.48569195273E+03  0.12699999809E+01 0.  1.
</event>
<event>
 5   0  0.1559275E-02  0.8896575E+03  0.7818609E-02  0.9438603E-01
       -1   -1    0    0    0  501  0.00000000000E+00  0.00000000000E+00  0.14739410127E+03  0.14739410135E+03  0.50400001928E-02 0.  1.
        1   -1    0    0  501    0  0.00000000000E+00  0.00000000000E+00 -0.13424731068E+04  0.13424731068E+04  0.50400001928E-02 0. -1.
    10030    2    1    2    0    0  0.00000000000E+00  0.00000000000E+00 -0.11950790056E+04  0.14898672082E+04  0.88965750068E+03 0.  0.
        1    1    3    3  502    0  0.39238115033E+03  0.85773660976E+02 -0.27736744127E+03  0.48811144788E+03  0.50400001928E-02 0. -1.
       -1    1    3    3    0  502 -0.39238115033E+03 -0.85773660976E+02 -0.91771156431E+03  0.10017557603E+04  0.50400001928E-02 0.  1.
</event>
<event>
 5   0  0.2679861E-02  0.9015219E+03  0.7818609E-02  0.9423681E-01
       -2   -1    0    0    0  501  0.00000000000E+00  0.00000000000E+00  0.26057751434E+03  0.26057751435E+03  0.25500000920E-02 0.  1.
        2   -1    0    0  501    0  0.00000000000E+00  0.00000000000E+00 -0.77975052387E+03  0.77975052387E+03  0.25500000920E-02 0. -1.
    10030    2    1    2    0    0  0.00000000000E+00  0.00000000000E+00 -0.51917300953E+03  0.10403280382E+04  0.90152194277E+03 0.  0.
        1    1    3    3  502    0  0.30691911802E+03  0.21468566237E+03  0.29818553788E+02  0.37573717518E+03  0.50400001928E-02 0.  1.
       -1    1    3    3    0  502 -0.30691911802E+03 -0.21468566237E+03 -0.54899156331E+03  0.66459086305E+03  0.50400001928E-02 0. -1.
</event>
<event>
 5   0  0.1459111E-02  0.8905396E+03  0.7818609E-02  0.9437485E-01
       -1   -1    0    0    0  501  0.00000000000E+00  0.00000000000E+00  0.11600129283E+03  0.11600129294E+03  0.50400001928E-02 0.  1.
        1   -1    0    0  501    0  0.00000000000E+00  0.00000000000E+00 -0.17091637873E+04  0.17091637874E+04  0.50400001928E-02 0. -1.
    10030    2    1    2    0    0  0.00000000000E+00  0.00000000000E+00 -0.15931624945E+04  0.18251650803E+04  0.89053963211E+03 0.  0.
        2    1    3    3  502    0  0.28262449569E+03  0.51881176550E+02 -0.14937049492E+04  0.15210926130E+04  0.25500000920E-02 0. -1.
       -2    1    3    3    0  502 -0.28262449569E+03 -0.51881176550E+02 -0.99457545334E+02  0.30407246731E+03  0.25500000920E-02 0.  1.
</event>
<event>
 5   0  0.2803717E-02  0.8870718E+03  0.7818609E-02  0.9441888E-01
       -2   -1    0    0    0  501  0.00000000000E+00  0.00000000000E+00  0.16468433494E+04  0.16468433494E+04  0.25500000920E-02 0.  1.
        2   -1    0    0  501    0  0.00000000000E+00  0.00000000000E+00 -0.11945524584E+03  0.11945524587E+03  0.25500000920E-02 0. -1.
    10030    2    1    2    0    0  0.00000000000E+00  0.00000000000E+00  0.15273881035E+04  0.17662985952E+04  0.88707176076E+03 0.  0.
        5    1    3    3  502    0 -0.38912561351E+02 -0.24397214273E+03  0.30295735386E+02  0.24895082936E+03  0.46999998093E+01 0. -1.
       -5    1    3    3    0  502  0.38912561351E+02  0.24397214273E+03  0.14970923681E+04  0.15173477659E+04  0.46999998093E+01 0.  1.
</event>
<event>
 5   0  0.1459111E-02  0.9248780E+03  0.7818609E-02  0.9395006E-01
        1   -1    0    0  501    0  0.00000000000E+00  0.00000000000E+00  0.22721591941E+04  0.22721591942E+04  0.50400001928E-02 0. -1.
       -1   -1    0    0    0  501  0.00000000000E+00  0.00000000000E+00 -0.94117451532E+02  0.94117451667E+02  0.50400001928E-02 0.  1.
    10030    2    1    2    0    0  0.00000000000E+00  0.00000000000E+00  0.21780417426E+04  0.23662766458E+04  0.92487800924E+03 0.  0.
        2    1    3    3  502    0 -0.32700429433E+03 -0.17621326399E+03  0.17937257242E+04  0.18317846207E+04  0.25500000920E-02 0. -1.
       -2    1    3    3    0  502  0.32700429433E+03  0.17621326399E+03  0.38431601843E+03  0.53449202515E+03  0.25500000920E-02 0.  1.
</event>
<event>
 5   0  0.1537870E-02  0.9543536E+03  0.7818609E-02  0.9360076E-01
        1   -1    0    0  501    0  0.00000000000E+00  0.00000000000E+00  0.14724093631E+04  0.14724093631E+04  0.50400001928E-02 0. -1.
       -1   -1    0    0    0  501  0.00000000000E+00  0.00000000000E+00 -0.15464292947E+03  0.15464292955E+03  0.50400001928E-02 0.  1.
    10030    2    1    2    0    0  0.00000000000E+00  0.00000000000E+00  0.13177664337E+04  0.16270522927E+04  0.95435359772E+03 0.  0.
        5    1    3    3  502    0  0.23703828833E+03  0.41410996265E+03  0.65686881512E+03  0.81189466162E+03  0.46999998093E+01 0.  1.
       -5    1    3    3    0  502 -0.23703828833E+03 -0.41410996265E+03  0.66089761854E+03  0.81515763107E+03  0.46999998093E+01 0. -1.
</event>
<event>
 5   0  0.1559275E-02  0.7658190E+03  0.7818609E-02  0.9610855E-01
       -1   -1    0    0    0  501  0.00000000000E+00  0.00000000000E+00  0.16400322531E+03  0.16400322539E+03  0.50400001928E-02 0. -1.
        1   -1    0    0  501    0  0.00000000000E+00  0.00000000000E+00 -0.89400486020E+03  0.89400486021E+03  0.50400001928E-02 0.  1.
    10030    2    1    2    0    0  0.00000000000E+00  0.00000000000E+00 -0.73000163488E+03  0.10580080856E+04  0.76581898792E+03 0.  0.
        1    1    3    3  502    0 -0.17304602914E+03  0.50983207081E+02  0.10161448835E+03  0.20705004195E+03  0.50400001928E-02 0. -1.
       -1    1    3    3    0  502  0.17304602914E+03 -0.50983207081E+02 -0.83161612323E+03  0.85095804365E+03  0.50400001928E-02 0.  1.
</event>
<event>
 5   0  0.2803717E-02  0.1010012E+04  0.7818609E-02  0.9297632E-01
       -2   -1    0    0    0  501  0.00000000000E+00  0.00000000000E+00  0.71003873493E+03  0.71003873493E+03  0.25500000920E-02 0.  1.
        2   -1    0    0  501    0  0.00000000000E+00  0.00000000000E+00 -0.35917888383E+03  0.35917888384E+03  0.25500000920E-02 0. -1.
    10030    2    1    2    0    0  0.00000000000E+00  0.00000000000E+00  0.35085985110E+03  0.10692176188E+04  0.10100117233E+04 0.  0.
        5    1    3    3  502    0  0.23488136682E+03  0.60027184436E+02  0.64438298907E+03  0.68849404205E+03  0.46999998093E+01 0.  1.
       -5    1    3    3    0  502 -0.23488136682E+03 -0.60027184436E+02 -0.29352313796E+03  0.38072357672E+03  0.46999998093E+01 0. -1.
</event>
<event>
 5   0  0.1459111E-02  0.8769263E+03  0.7818609E-02  0.9454893E-01
        1   -1    0    0  501    0  0.00000000000E+00  0.00000000000E+00  0.85627702384E+03  0.85627702386E+03  0.50400001928E-02 0.  1.
       -1   -1    0    0    0  501  0.00000000000E+00  0.00000000000E+00 -0.22451837897E+03  0.22451837902E+03  0.50400001928E-02 0. -1.
    10030    2    1    2    0    0  0.00000000000E+00  0.00000000000E+00  0.63175864488E+03  0.10807954029E+04  0.87692628967E+03 0.  0.
        2    1    3    3  502    0  0.35501827810E+03  0.23013811229E+03  0.17401861257E+03  0.45747568902E+03  0.25500000920E-02 0. -1.
       -2    1    3    3    0  502 -0.35501827810E+03 -0.23013811229E+03  0.45774003230E+03  0.62331971387E+03  0.25500000920E-02 0.  1.
</event>
<event>
 5   0  0.1497410E-02  0.8837363E+03  0.7818609E-02  0.9446143E-01
       -1   -1    0    0    0  501  0.00000000000E+00  0.00000000000E+00  0.25870668548E+03  0.25870668553E+03  0.50400001928E-02 0. -1.
        1   -1    0    0  501    0  0.00000000000E+00  0.00000000000E+00 -0.75470595084E+03  0.75470595085E+03  0.50400001928E-02 0.  1.
    10030    2    1    2    0    0  0.00000000000E+00  0.00000000000E+00 -0.49599926535E+03  0.10134126364E+04  0.88373632966E+03 0.  0.
        3    1    3    3  502    0  0.18796111701E+03 -0.32330105160E+03 -0.51789596468E+03  0.63880293668E+03  0.10100000352E+00 0.  1.
       -3    1    3    3    0  502 -0.18796111701E+03  0.32330105160E+03  0.21896699328E+02  0.37460969971E+03  0.10100000352E+00 0. -1.
</event>
<event>
 5   0  0.2414128E-02  0.8773330E+03  0.7818609E-02  0.9454368E-01
        2   -1    0    0  501    0  0.00000000000E+00  0.00000000000E+00  0.77246240438E+03  0.77246240438E+03  0.25500000920E-02 0.  1.
       -2   -1    0    0    0  501  0.00000000000E+00  0.00000000000E+00 -0.24911021933E+03  0.24911021934E+03  0.25500000920E-02 0. -1.
    10030    2    1    2    0    0  0.00000000000E+00  0.00000000000E+00  0.52335218505E+03  0.10215726237E+04  0.87733295615E+03 0.  0.
        3    1    3    3  502    0  0.53162451004E+02  0.19086213794E+03 -0.19404261524E+03  0.27732138148E+03  0.10100000352E+00 0. -1.
       -3    1    3    3    0  502 -0.53162451004E+02 -0.19086213794E+03  0.71739480029E+03  0.74425124224E+03  0.10100000352E+00 0.  1.
</event>
<event>
 5   0  0.2803717E-02  0.9654473E+03  0.7818609E-02  0.9347275E-01
       -2   -1    0    0    0  501  0.00000000000E+00  0.00000000000E+00  0.33442348207E+03  0.33442348208E+03  0.25500000920E-02 0. -1.
        2   -1    0    0  501    0  0.00000000000E+00  0.00000000000E+00 -0.69678750459E+03  0.69678750460E+03  0.25500000920E-02 0.  1.
    10030    2    1    2    0    0  0.00000000000E+00  0.00000000000E+00 -0.36236402252E+03  0.10312109867E+04  0.96544726123E+03 0.  0.
        5    1    3    3  502    0 -0.66170667390E+02 -0.24855843267E+03  0.25510198027E+03  0.36229678719E+03  0.46999998093E+01 0. -1.
       -5    1    3    3    0  502  0.66170667390E+02  0.24855843267E+03 -0.61746600279E+03  0.66891419949E+03  0.46999998093E+01 0.  1.
</event>
<event>
 5   0  0.2679861E-02  0.8822442E+03  0.7818609E-02  0.9448053E-01
        2   -1    0    0  501    0  0.00000000000E+00  0.00000000000E+00  0.55913184284E+03  0.55913184285E+03  0.25500000920E-02 0.  1.
       -2   -1    0    0    0  501  0.00000000000E+00  0.00000000000E+00 -0.34801936332E+03  0.34801936333E+03  0.25500000920E-02 0. -1.
    10030    2    1    2    0    0  0.00000000000E+00  0.00000000000E+00  0.21111247952E+03  0.90715120618E+03  0.88224420195E+03 0.  0.
        1    1    3    3  502    0 -0.22175232661E+02 -0.40335655854E+03  0.28776062738E+03  0.49597825856E+03  0.50400001928E-02 0.  1.
       -1    1    3    3    0  502  0.22175232661E+02  0.40335655854E+03 -0.76648147862E+02  0.41117294763E+03  0.50400001928E-02 0. -1.
</event>
<event>
 5   0  0.1560728E-02  0.8907481E+03  0.7818609E-02  0.9437221E-01
        1   -1    0    0  501    0  0.00000000000E+00  0.00000000000E+00  0.11440229556E+04  0.11440229556E+04  0.50400001928E-02 0.  1.
       -1   -1    0    0    0  501  0.00000000000E+00  0.00000000000E+00 -0.17338642189E+03  0.17338642196E+03  0.50400001928E-02 0. -1.
    10030    2    1    2    0    0  0.00000000000E+00  0.00000000000E+00  0.97063653370E+03  0.13174093776E+04  0.89074810555E+03 0.  0.
        4    1    3    3  502    0 -0.84273155048E+02  0.79122530983E+02  0.11214466527E+04  0.11273892616E+04  0.12699999809E+01 0.  1.
       -4    1    3    3    0  502  0.84273155048E+02 -0.79122530983E+02 -0.15081011897E+03  0.19002011592E+03  0.12699999809E+01 0. -1.
</event>
<event>
 5   0  0.1497410E-02  0.8937241E+03  0.7818609E-02  0.9433461E-01
       -1   -1    0    0    0  501  0.00000000000E+00  0.00000000000E+00  0.53436359418E+03  0.53436359420E+03  0.50400001928E-02 0. -1.
        1   -1    0    0  501    0  0.00000000000E+00  0.00000000000E+00 -0.37368881455E+03  0.37368881458E+03  0.50400001928E-02 0.  1.
    10030    2    1    2    0    0  0.00000000000E+00  0.00000000000E+00  0.16067477963E+03  0.90805240878E+03  0.89372411419E+03 0.  0.
        3    1    3    3  502    0 -0.28726192541E+03  0.27312491602E+03 -0.12929309558E+03  0.41693326601E+03  0.10100000352E+00 0.  1.
       -3    1    3    3    0  502  0.28726192541E+03 -0.27312491602E+03  0.28996787521E+03  0.49111914277E+03  0.10100000352E+00 0. -1.
</event>
<event>
 5   0  0.1559275E-02  0.9134115E+03  0.7818609E-02  0.9408970E-01
       -1   -1    0    0    0  501  0.00000000000E+00  0.00000000000E+00  0.28372106846E+03  0.28372106851E+03  0.50400001928E-02 0. -1.
        1   -1    0    0  501    0  0.00000000000E+00  0.00000000000E+00 -0.73515916639E+03  0.73515916641E+03  0.50400001928E-02 0.  1.
    10030    2    1    2    0    0  0.00000000000E+00  0.00000000000E+00 -0.45143809793E+03  0.10188802349E+04  0.91341150466E+03 0.  0.
        1    1    3    3  502    0 -0.29962812951E+02 -0.25524424077E+03  0.19540883175E+03  0.32284981672E+03  0.50400001928E-02 0. -1.
       -1    1    3    3    0  502  0.29962812951E+02  0.25524424077E+03 -0.64684692967E+03  0.69603041820E+03  0.50400001928E-02 0.  1.
</event>
<event>
 5   0  0.2628383E-02  0.9091547E+03  0.7818609E-02  0.9414209E-01
        2   -1    0    0  501    0  0.00000000000E+00  0.00000000000E+00  0.10778560095E+04  0.10778560095E+04  0.25500000920E-02 0. -1.
       -2   -1    0    0    0  501  0.00000000000E+00  0.00000000000E+00 -0.19171444822E+03  0.19171444824E+03  0.25500000920E-02 0.  1.
    10030    2    1    2    0    0  0.00000000000E+00  0.00000000000E+00  0.88614156132E+03  0.12695704578E+04  0.90915470662E+03 0.  0.
        2    1    3    3  502    0 -0.43710061708E+03  0.12112044535E+03  0.40086582925E+03  0.60532679174E+03  0.25500000920E-02 0.  1.
       -2    1    3    3    0  502  0.43710061708E+03 -0.12112044535E+03  0.48527573207E+03  0.66424366604E+03  0.25500000920E-02 0. -1.
</event>
<event>
 5   0  0.1559275E-02  0.9493301E+03  0.7818609E-02  0.9365934E-01
       -1   -1    0    0    0  501  0.00000000000E+00  0.00000000000E+00  0.21721644579E+03  0.21721644585E+03  0.50400001928E-02 0.  1.
        1   -1    0    0  501    0  0.00000000000E+00  0.00000000000E+00 -0.10372460193E+04  0.10372460193E+04  0.50400001928E-02 0. -1.
    10030    2    1    2    0    0  0.00000000000E+00  0.00000000000E+00 -0.82002957351E+03  0.12544624652E+04  0.94933006646E+03 0.  0.
        1    1    3    3  502    0 -0.32645091943E+02  0.47240854539E+03 -0.36676263312E+03  0.59895773212E+03  0.50400001928E-02 0.  1.
       -1    1    3    3    0  502  0.32645091943E+02 -0.47240854539E+03 -0.45326694039E+03  0.65550473306E+03  0.50400001928E-02 0. -1.
</event>
<event>
 5   0  0.1040163E-02  0.9211637E+03  0.7818609E-02  0.9399506E-01
        4   -1    0    0  501    0  0.00000000000E+00  0.00000000000E+00  0.92755428925E+03  0.92755515868E+03  0.12699999809E+01 0.  1.
       -4   -1    0    0    0  501  0.00000000000E+00  0.00000000000E+00 -0.22870153103E+03  0.22870505721E+03  0.12699999809E+01 0. -1.
    10030    2    1    2    0    0  0.00000000000E+00  0.00000000000E+00  0.69885275822E+03  0.11562602159E+04  0.92116367122E+03 0.  0.
        4    1    3    3  502    0  0.23336658794E+03 -0.33530996148E+03  0.61641098539E+03  0.73949770145E+03  0.12699999809E+01 0.  1.
       -4    1    3    3    0  502 -0.23336658794E+03  0.33530996148E+03  0.82441772827E+02  0.41676251444E+03  0.12699999809E+01 0. -1.
</event>
<event>
 5   0  0.1560728E-02  0.8784649E+03  0.7818609E-02  0.9452909E-01
        1   -1    0    0  501    0  0.00000000000E+00  0.00000000000E+00  0.50405276351E+03  0.50405276353E+03  0.50400001928E-02 0. -1.
       -1   -1    0    0    0  501  0.00000000000E+00  0.00000000000E+00 -0.38274788276E+03  0.38274788279E+03  0.50400001928E-02 0.  1.
    10030    2    1    2    0    0  0.00000000000E+00  0.00000000000E+00  0.12130488075E+03  0.88680064632E+03  0.87846486112E+03 0.  0.
        4    1    3    3  502    0 -0.14772253811E+03 -0.75834641247E+02 -0.34983945935E+03  0.38724940452E+03  0.12699999809E+01 0.  1.
       -4    1    3    3    0  502  0.14772253811E+03  0.75834641247E+02  0.47114434010E+03  0.49955124180E+03  0.12699999809E+01 0. -1.
</event>
<event>
 5   0  0.2679861E-02  0.8945200E+03  0.7818609E-02  0.9432458E-01
        2   -1    0    0  501    0  0.00000000000E+00  0.00000000000E+00  0.12853887383E+04  0.12853887383E+04  0.25500000920E-02 0.  1.
       -2   -1    0    0    0  501  0.00000000000E+00  0.00000000000E+00 -0.15562724932E+03  0.15562724934E+03  0.25500000920E-02 0. -1.
    10030    2    1    2    0    0  0.00000000000E+00  0.00000000000E+00  0.11297614890E+04  0.14410159877E+04  0.89452001358E+03 0.  0.
        1    1    3    3  502    0 -0.28161907236E+03  0.62562977566E+02  0.11154776673E+04  0.11521778744E+04  0.50400001928E-02 0.  1.
       -1    1    3    3    0  502  0.28161907236E+03 -0.62562977566E+02  0.14283821725E+02  0.28883811325E+03  0.50400001928E-02 0. -1.
</event>
<event>
 5   0  0.2414128E-02  0.9979806E+03  0.7818609E-02  0.9310762E-01
        2   -1    0    0  501    0  0.00000000000E+00  0.00000000000E+00  0.10692573843E+04  0.10692573843E+04  0.25500000920E-02 0.  1.
       -2   -1    0    0    0  501  0.00000000000E+00  0.00000000000E+00 -0.23286376029E+03  0.23286376030E+03  0.25500000920E-02 0. -1.
    10030    2    1    2    0    0  0.00000000000E+00  0.00000000000E+00  0.83639362401E+03  0.13021211446E+04  0.99798055138E+03 0.  0.
        3    1    3    3  502    0  0.49529763881E+03  0.13513085703E+02  0.49526505797E+03  0.70056394593E+03  0.10100000352E+00 0.  1.
       -3    1    3    3    0  502 -0.49529763881E+03 -0.13513085703E+02  0.34112856604E+03  0.60155719867E+03  0.10100000352E+00 0. -1.
</event>
<event>
 5   0  0.1459111E-02  0.8544269E+03  0.7818609E-02  0.9484414E-01
        1   -1    0    0  501    0  0.00000000000E+00  0.00000000000E+00  0.12616095443E+04  0.12616095443E+04  0.50400001928E-02 0.  1.
       -1   -1    0    0    0  501  0.00000000000E+00  0.00000000000E+00 -0.14466548180E+03  0.14466548189E+03  0.50400001928E-02 0. -1.
    10030    2    1    2    0    0  0.00000000000E+00  0.00000000000E+00  0.11169440625E+04  0.14062750262E+04  0.85442694864E+03 0.  0.
        2    1    3    3  502    0  0.22783732407E+03 -0.34273536819E+03  0.36984957356E+03  0.55332276830E+03  0.25500000920E-02 0.  1.
       -2    1    3    3    0  502 -0.22783732407E+03  0.34273536819E+03  0.74709448893E+03  0.85295225790E+03  0.25500000920E-02 0. -1.
</event>
<event>
 5   0  0.1537870E-02  0.9200344E+03  0.7818609E-02  0.9400878E-01
        1   -1    0    0  501    0  0.00000000000E+00  0.00000000000E+00  0.58110449740E+03  0.58110449742E+03  0.50400001928E-02 0.  1.
       -1   -1    0    0    0  501  0.00000000000E+00  0.00000000000E+00 -0.36416136025E+03  0.36416136028E+03  0.50400001928E-02 0. -1.
    10030    2    1    2    0    0  0.00000000000E+00  0.00000000000E+00  0.21694313715E+03  0.94526585770E+03  0.92003435641E+03 0.  0.
        5    1    3    3  502    0 -0.22556476969E+03 -0.19301973403E+03  0.46947297710E+03  0.55548451758E+03  0.46999998093E+01 0.  1.
       -5    1    3    3    0  502  0.22556476969E+03  0.19301973403E+03 -0.25252983994E+03  0.38978134012E+03  0.46999998093E+01 0. -1.
</event>
<event>
 5   0  0.1537870E-02  0.9266839E+03  0.7818609E-02  0.9392827E-01
       -1   -1    0    0    0  501  0.00000000000E+00  0.00000000000E+00  0.25853789859E+03  0.25853789864E+03  0.50400001928E-02 0. -1.
        1   -1    0    0  501    0  0.00000000000E+00  0.00000000000E+00 -0.83038403960E+03  0.83038403961E+03  0.50400001928E-02 0.  1.
    10030    2    1    2    0    0  0.00000000000E+00  0.00000000000E+00 -0.57184614101E+03  0.10889219383E+04  0.92668386121E+03 0.  0.
        5    1    3    3  502    0 -0.25751123975E+03  0.83208556685E+02  0.15598585608E+03  0.31239298935E+03  0.46999998093E+01 0. -1.
       -5    1    3    3    0  502  0.25751123975E+03 -0.83208556685E+02 -0.72783199708E+03  0.77652894890E+03  0.46999998093E+01 0.  1.
</event>
<event>
 5   0  0.2803717E-02  0.6738251E+03  0.7818609E-02  0.9763072E-01
        2   -1    0    0  501    0  0.00000000000E+00  0.00000000000E+00  0.66652232396E+03  0.66652232397E+03  0.25500000920E-02 0.  1.
       -2   -1    0    0    0  501  0.00000000000E+00  0.00000000000E+00 -0.17030197744E+03  0.17030197746E+03  0.25500000920E-02 0. -1.
    10030    2    1    2    0    0  0.00000000000E+00  0.00000000000E+00  0.49622034652E+03  0.83682430143E+03  0.67382511022E+03 0.  0.
        5    1    3    3  502    0  0.16948842582E+03 -0.15168155352E+03  0.55672792556E+03  0.60141640588E+03  0.46999998093E+01 0.  1.
       -5    1    3    3    0  502 -0.16948842582E+03  0.15168155352E+03 -0.60507579037E+02  0.23540789555E+03  0.46999998093E+01 0. -1.
</event>
<event>
 5   0  0.2679861E-02  0.8598822E+03  0.7818609E-02  0.9477169E-01
        2   -1    0    0  501    0  0.00000000000E+00  0.00000000000E+00  0.10240653720E+04  0.10240653720E+04  0.25500000920E-02 0. -1.
       -2   -1    0    0    0  501  0.00000000000E+00  0.00000000000E+00 -0.18050540943E+03  0.18050540945E+03  0.25500000920E-02 0.  1.
    10030    2    1    2    0    0  0.00000000000E+00  0.00000000000E+00  0.84355996254E+03  0.12045707814E+04  0.85988217626E+03 0.  0.
        1    1    3    3  502    0  0.35424220200E+03 -0.24067775854E+03  0.47486516624E+03  0.63946090363E+03  0.50400001928E-02 0.  1.
       -1    1    3    3    0  502 -0.35424220200E+03  0.24067775854E+03  0.36869479630E+03  0.56510987779E+03  0.50400001928E-02 0. -1.
</event>
<event>
 5   0  0.1537870E-02  0.4858154E+03  0.7818609E-02  0.1017549E+00
        1   -1    0    0  501    0  0.00000000000E+00  0.00000000000E+00  0.13671919080E+03  0.13671919090E+03  0.50400001928E-02 0. -1.
       -1   -1    0    0    0  501  0.00000000000E+00  0.00000000000E+00 -0.43157178467E+03  0.43157178470E+03  0.50400001928E-02 0.  1.
    10030    2    1    2    0    0  0.00000000000E+00  0.00000000000E+00 -0.29485259386E+03  0.56829097559E+03  0.48581537731E+03 0.  0.
        5    1    3    3  502    0 -0.22595536475E+03  0.88793526900E+02 -0.13985094189E+03  0.28021508387E+03  0.46999998093E+01 0. -1.
       -5    1    3    3    0  502  0.22595536475E+03 -0.88793526900E+02 -0.15500165197E+03  0.28807589172E+03  0.46999998093E+01 0.  1.
</event>
<event>
 5   0  0.1459111E-02  0.8703817E+03  0.7818609E-02  0.9463382E-01
        1   -1    0    0  501    0  0.00000000000E+00  0.00000000000E+00  0.75862459179E+03  0.75862459180E+03  0.50400001928E-02 0. -1.
       -1   -1    0    0    0  501  0.00000000000E+00  0.00000000000E+00 -0.24965057500E+03  0.24965057505E+03  0.50400001928E-02 0.  1.
    10030    2    1    2    0    0  0.00000000000E+00  0.00000000000E+00  0.50897401678E+03  0.10082751669E+04  0.87038167624E+03 0.  0.
        2    1    3    3  502    0 -0.38813146695E+03  0.19673572016E+03  0.26182145964E+03  0.50783999050E+03  0.25500000920E-02 0. -1.
       -2    1    3    3    0  502  0.38813146695E+03 -0.19673572016E+03  0.24715255715E+03  0.50043517635E+03  0.25500000920E-02 0.  1.
</event>
<event>
 5   0  0.2705111E-02  0.8869038E+03  0.7818609E-02  0.9442102E-01
       -2   -1    0    0    0  501  0.00000000000E+00  0.00000000000E+00  0.21573958055E+03  0.21573958056E+03  0.25500000920E-02 0. -1.
        2   -1    0    0  501    0  0.00000000000E+00  0.00000000000E+00 -0.91151380740E+03  0.91151380741E+03  0.25500000920E-02 0.  1.
    10030    2    1    2    0    0  0.00000000000E+00  0.00000000000E+00 -0.69577422685E+03  0.11272533880E+04  0.88690384255E+03 0.  0.
        4    1    3    3  502    0  0.32649739453E+02 -0.30327725858E+03  0.61218223468E+02  0.31111474546E+03  0.12699999809E+01 0. -1.
       -4    1    3    3    0  502 -0.32649739453E+02  0.30327725858E+03 -0.75699245032E+03  0.81613864251E+03  0.12699999809E+01 0.  1.
</event>
<event>
 5   0  0.2414128E-02  0.9017952E+03  0.7818609E-02  0.9423340E-01
       -2   -1    0    0    0  501  0.00000000000E+00  0.00000000000E+00  0.15498212814E+03  0.15498212816E+03  0.25500000920E-02 0.  1.
        2   -1    0    0  501    0  0.00000000000E+00  0.00000000000E+00 -0.13118200451E+04  0.13118200451E+04  0.25500000920E-02 0. -1.
    10030    2    1    2    0    0  0.00000000000E+00  0.00000000000E+00 -0.11568379170E+04  0.14668021733E+04  0.90179523695E+03 0.  0.
        3    1    3    3  502    0 -0.35787931839E+03  0.20554691427E+03 -0.87381106512E+03  0.96637100962E+03  0.10100000352E+00 0. -1.
       -3    1    3    3    0  502  0.35787931839E+03 -0.20554691427E+03 -0.28302685186E+03  0.50043116367E+03  0.10100000352E+00 0.  1.
</event>
<event>
 5   0  0.2803717E-02  0.8903618E+03  0.7818609E-02  0.9437711E-01
        2   -1    0    0  501    0  0.00000000000E+00  0.00000000000E+00  0.50498920703E+03  0.50498920703E+03  0.25500000920E-02 0. -1.
       -2   -1    0    0    0  501  0.00000000000E+00  0.00000000000E+00 -0.39245593978E+03  0.39245593979E+03  0.25500000920E-02 0.  1.
    10030    2    1    2    0    0  0.00000000000E+00  0.00000000000E+00  0.11253326725E+03  0.89744514682E+03  0.89036175531E+03 0.  0.
        5    1    3    3  502    0 -0.20203549642E+03  0.11211507218E+03 -0.32725458087E+03  0.40063172855E+03  0.46999998093E+01 0.  1.
       -5    1    3    3    0  502  0.20203549642E+03 -0.11211507218E+03  0.43978784812E+03  0.49681341827E+03  0.46999998093E+01 0. -1.
</event>
<event>
 5   0  0.2803717E-02  0.8779233E+03  0.7818609E-02  0.9453607E-01
        2   -1    0    0  501    0  0.00000000000E+00  0.00000000000E+00  0.24505292252E+03  0.24505292253E+03  0.25500000920E-02 0. -1.
       -2   -1    0    0    0  501  0.00000000000E+00  0.00000000000E+00 -0.78630912434E+03  0.78630912435E+03  0.25500000920E-02 0.  1.
    10030    2    1    2    0    0  0.00000000000E+00  0.00000000000E+00 -0.54125620182E+03  0.10313620469E+04  0.87792334275E+03 0.  0.
        5    1    3    3  502    0 -0.48090963215E+01 -0.23552949364E+03 -0.70571993790E+03  0.74401612249E+03  0.46999998093E+01 0.  1.
       -5    1    3    3    0  502  0.48090963215E+01  0.23552949364E+03  0.16446373608E+03  0.28734592439E+03  0.46999998093E+01 0. -1.
</event>
<event>
 5   0  0.2803717E-02  0.9332720E+03  0.7818609E-02  0.9384920E-01
        2   -1    0    0  501    0  0.00000000000E+00  0.00000000000E+00  0.73148165660E+03  0.73148165660E+03  0.25500000920E-02 0. -1.
       -2   -1    0    0    0  501  0.00000000000E+00  0.00000000000E+00 -0.29768230325E+03  0.29768230326E+03  0.25500000920E-02 0.  1.
    10030    2    1    2    0    0  0.00000000000E+00  0.00000000000E+00  0.43379935335E+03  0.10291639599E+04  0.93327197393E+03 0.  0.
        5    1    3    3  502    0  0.17277491488E+03 -0.41196583784E+03  0.68294258279E+02  0.45194382225E+03  0.46999998093E+01 0.  1.
       -5    1    3    3    0  502 -0.17277491488E+03  0.41196583784E+03  0.36550509507E+03  0.57722013762E+03  0.46999998093E+01 0. -1.
</event>
<event>
 5   0  0.1537870E-02  0.9430623E+03  0.7818609E-02  0.9373297E-01
       -1   -1    0    0    0  501  0.00000000000E+00  0.00000000000E+00  0.40950893837E+03  0.40950893840E+03  0.50400001928E-02 0. -1.
        1   -1    0    0  501    0  0.00000000000E+00  0.00000000000E+00 -0.54294692251E+03  0.54294692253E+03  0.50400001928E-02 0.  1.
    10030    2    1    2    0    0  0.00000000000E+00  0.00000000000E+00 -0.13343798414E+03  0.95245586093E+03  0.94306228395E+03 0.  0.
        5    1    3    3  502    0  0.10958903262E+03  0.35113886675E+03 -0.36463389646E+03  0.51796547014E+03  0.46999998093E+01 0.  1.
       -5    1    3    3    0  502 -0.10958903262E+03 -0.35113886675E+03  0.23119591232E+03  0.43449039079E+03  0.46999998093E+01 0. -1.
</event>
<event>
 5   0  0.2679861E-02  0.9050549E+03  0.7818609E-02  0.9419285E-01
       -2   -1    0    0    0  501  0.00000000000E+00  0.00000000000E+00  0.70591480575E+03  0.70591480575E+03  0.25500000920E-02 0. -1.
        2   -1    0    0  501    0  0.00000000000E+00  0.00000000000E+00 -0.29009320096E+03  0.29009320097E+03  0.25500000920E-02 0.  1.
    10030    2    1    2    0    0  0.00000000000E+00  0.00000000000E+00  0.41582160479E+03  0.99600800672E+03  0.90505488366E+03 0.  0.
        1    1    3    3  502    0 -0.19906504770E+03 -0.40637462334E+03  0.21200752088E+03  0.49971433505E+03  0.50400001928E-02 0.  1.
       -1    1    3    3    0  502  0.19906504770E+03  0.40637462334E+03  0.20381408391E+03  0.49629367167E+03  0.50400001928E-02 0. -1.
</event>
<event>
 5   0  0.1459111E-02  0.8902252E+03  0.7818609E-02  0.9437884E-01
        1   -1    0    0  501    0  0.00000000000E+00  0.00000000000E+00  0.80308354509E+03  0.80308354510E+03  0.50400001928E-02 0.  1.
       -1   -1    0    0    0  501  0.00000000000E+00  0.00000000000E+00 -0.24670560606E+03  0.24670560611E+03  0.50400001928E-02 0. -1.
    10030    2    1    2    0    0  0.00000000000E+00  0.00000000000E+00  0.55637793903E+03  0.10497891512E+04  0.89022516869E+03 0.  0.
        2    1    3    3  502    0 -0.35508607800E+03 -0.26350412505E+03  0.21800535951E+03  0.49299785344E+03  0.25500000920E-02 0. -1.
       -2    1    3    3    0  502  0.35508607800E+03  0.26350412505E+03  0.33837257951E+03  0.55679129778E+03  0.25500000920E-02 0.  1.
</event>
<event>
 5   0  0.1459111E-02  0.8887824E+03  0.7818609E-02  0.9439714E-01
       -1   -1    0    0    0  501  0.00000000000E+00  0.00000000000E+00  0.56792671472E+03  0.56792671475E+03  0.50400001928E-02 0.  1.
        1   -1    0    0  501    0  0.00000000000E+00  0.00000000000E+00 -0.34772714512E+03  0.34772714515E+03  0.50400001928E-02 0. -1.
    10030    2    1    2    0    0  0.00000000000E+00  0.00000000000E+00  0.22019956961E+03  0.91565385990E+03  0.88878239220E+03 0.  0.
        2    1    3    3  502    0  0.41325245427E+03 -0.21898369148E+02  0.27694174181E+03  0.49794965398E+03  0.25500000920E-02 0.  1.
       -2    1    3    3    0  502 -0.41325245427E+03  0.21898369148E+02 -0.56742172199E+02  0.41770420592E+03  0.25500000920E-02 0. -1.
</event>
<event>
 5   0  0.1497410E-02  0.8913470E+03  0.7818609E-02  0.9436463E-01
       -1   -1    0    0    0  501  0.00000000000E+00  0.00000000000E+00  0.41975532387E+03  0.41975532390E+03  0.50400001928E-02 0.  1.
        1   -1    0    0  501    0  0.00000000000E+00  0.00000000000E+00 -0.47319200715E+03  0.47319200718E+03  0.50400001928E-02 0. -1.
    10030    2    1    2    0    0  0.00000000000E+00  0.00000000000E+00 -0.53436683279E+02  0.89294733108E+03  0.89134699021E+03 0.  0.
        3    1    3    3  502    0  0.61309436386E+02 -0.29444922669E+03 -0.35619431023E+03  0.46619050926E+03  0.10100000352E+00 0. -1.
       -3    1    3    3    0  502 -0.61309436386E+02  0.29444922669E+03  0.30275762695E+03  0.42675682181E+03  0.10100000352E+00 0.  1.
</event>
<event>
 5   0  0.2679861E-02  0.9046924E+03  0.7818609E-02  0.9419735E-01
        2   -1    0    0  501    0  0.00000000000E+00  0.00000000000E+00  0.97040568077E+03  0.97040568077E+03  0.25500000920E-02 0.  1.
       -2   -1    0    0    0  501  0.00000000000E+00  0.00000000000E+00 -0.21085725093E+03  0.21085725095E+03  0.25500000920E-02 0. -1.
    10030    2    1    2    0    0  0.00000000000E+00  0.00000000000E+00  0.75954842983E+03  0.11812629317E+04  0.90469237677E+03 0.  0.
        1    1    3    3  502    0 -0.41251495384E+03  0.21100833938E+02  0.62054611878E+03  0.74544705909E+03  0.50400001928E-02 0.  1.
       -1    1    3    3    0  502  0.41251495384E+03 -0.21100833938E+02  0.13900231105E+03  0.43581587263E+03  0.50400001928E-02 0. -1.
</event>
<event>
 5   0  0.1560728E-02  0.9054449E+03  0.7818609E-02  0.9418801E-01
       -1   -1    0    0    0  501  0.00000000000E+00  0.00000000000E+00  0.29003933547E+03  0.29003933551E+03  0.50400001928E-02 0.  1.
        1   -1    0    0  501    0  0.00000000000E+00  0.00000000000E+00 -0.70665455927E+03  0.70665455929E+03  0.50400001928E-02 0. -1.
    10030    2    1    2    0    0  0.00000000000E+00  0.00000000000E+00 -0.41661522381E+03  0.99669389480E+03  0.90544490458E+03 0.  0.
        4    1    3    3  502    0  0.62682369323E+02 -0.96317172973E+02  0.27371495873E+03  0.29686287873E+03  0.12699999809E+01 0.  1.
       -4    1    3    3    0  502 -0.62682369323E+02  0.96317172973E+02 -0.69033018254E+03  0.69983101607E+03  0.12699999809E+01 0. -1.
</event>
<event>
 5   0  0.1560728E-02  0.9066701E+03  0.7818609E-02  0.9417282E-01
       -1   -1    0    0    0  501  0.00000000000E+00  0.00000000000E+00  0.28830040288E+03  0.28830040293E+03  0.50400001928E-02 0.  1.
        1   -1    0    0  501    0  0.00000000000E+00  0.00000000000E+00 -0.71284212522E+03  0.71284212524E+03  0.50400001928E-02 0. -1.
    10030    2    1    2    0    0  0.00000000000E+00  0.00000000000E+00 -0.42454172234E+03  0.10011425282E+04  0.90667010963E+03 0.  0.
        4    1    3    3  502    0  0.36862769020E+03 -0.18884164967E+03 -0.41576548319E+03  0.58686462880E+03  0.12699999809E+01 0.  1.
       -4    1    3    3    0  502 -0.36862769020E+03  0.18884164967E+03 -0.87762391508E+01  0.41427789936E+03  0.12699999809E+01 0. -1.
</event>
<event>
 5   0  0.1497410E-02  0.9089300E+03  0.7818609E-02  0.9414487E-01
        1   -1    0    0  501    0  0.00000000000E+00  0.00000000000E+00  0.10060371641E+04  0.10060371642E+04  0.50400001928E-02 0.  1.
       -1   -1    0    0    0  501  0.00000000000E+00  0.00000000000E+00 -0.20529900998E+03  0.20529901004E+03  0.50400001928E-02 0. -1.
    10030    2    1    2    0    0  0.00000000000E+00  0.00000000000E+00  0.80073815416E+03  0.12113361742E+04  0.90892999477E+03 0.  0.
        3    1    3    3  502    0  0.35149806663E+03 -0.73331238974E+02  0.29096162743E+02  0.36024291575E+03  0.10100000352E+00 0. -1.
       -3    1    3    3    0  502 -0.35149806663E+03  0.73331238974E+02  0.77164199142E+03  0.85109325845E+03  0.10100000352E+00 0.  1.
</event>
<event>
 5   0  0.2628383E-02  0.8954429E+03  0.7818609E-02  0.9431296E-01
       -2   -1    0    0    0  501  0.00000000000E+00  0.00000000000E+00  0.80882118048E+03  0.80882118048E+03  0.25500000920E-02 0.  1.
        2   -1    0    0  501    0  0.00000000000E+00  0.00000000000E+00 -0.24783539641E+03  0.24783539642E+03  0.25500000920E-02 0. -1.
    10030    2    1    2    0    0  0.00000000000E+00  0.00000000000E+00  0.56098578407E+03  0.10566565769E+04  0.89544294714E+03 0.  0.
        2    1    3    3  502    0 -0.17574398701E+03 -0.22555875321E+03 -0.12604996132E+03  0.31249206850E+03  0.25500000920E-02 0. -1.
       -2    1    3    3    0  502  0.17574398701E+03  0.22555875321E+03  0.68703574539E+03  0.74416450841E+03  0.25500000920E-02 0.  1.
</event>
<event>
 5   0  0.2705111E-02  0.9148981E+03  0.7818609E-02  0.9407147E-01
       -2   -1    0    0    0  501  0.00000000000E+00  0.00000000000E+00  0.12997007046E+03  0.12997007049E+03  0.25500000920E-02 0.  1.
        2   -1    0    0  501    0  0.00000000000E+00  0.00000000000E+00 -0.16100601381E+04  0.16100601381E+04  0.25500000920E-02 0. -1.
    10030    2    1    2    0    0  0.00000000000E+00  0.00000000000E+00 -0.14800900677E+04  0.17400302086E+04  0.91489809186E+03 0.  0.
        4    1    3    3  502    0  0.23771816446E+03 -0.15347442056E+03 -0.14236492350E+04  0.14514968415E+04  0.12699999809E+01 0. -1.
       -4    1    3    3    0  502 -0.23771816446E+03  0.15347442056E+03 -0.56440832652E+02  0.28853336717E+03  0.12699999809E+01 0.  1.
</event>
<event>
 5   0  0.2803717E-02  0.1129238E+04  0.7818609E-02  0.9177154E-01
        2   -1    0    0  501    0  0.00000000000E+00  0.00000000000E+00  0.15948046761E+04  0.15948046761E+04  0.25500000920E-02 0.  1.
       -2   -1    0    0    0  501  0.00000000000E+00  0.00000000000E+00 -0.19989582378E+03  0.19989582380E+03  0.25500000920E-02 0. -1.
    10030    2    1    2    0    0  0.00000000000E+00  0.00000000000E+00  0.13949088523E+04  0.17947004999E+04  0.11292383177E+04 0.  0.
        5    1    3    3  502    0  0.22575562313E+03 -0.20402963745E+03  0.14532990477E+04  0.14848211698E+04  0.46999998093E+01 0.  1.
       -5    1    3    3    0  502 -0.22575562313E+03  0.20402963745E+03 -0.58390195317E+02  0.30987933013E+03  0.46999998093E+01 0. -1.
</event>
<event>
 5   0  0.2414128E-02  0.8764373E+03  0.7818609E-02  0.9455525E-01
       -2   -1    0    0    0  501  0.00000000000E+00  0.00000000000E+00  0.34779419206E+03  0.34779419207E+03  0.25500000920E-02 0.  1.
        2   -1    0    0  501    0  0.00000000000E+00  0.00000000000E+00 -0.55215291387E+03  0.55215291388E+03  0.25500000920E-02 0. -1.
    10030    2    1    2    0    0  0.00000000000E+00  0.00000000000E+00 -0.20435872181E+03  0.89994710595E+03  0.87643728031E+03 0.  0.
        3    1    3    3  502    0 -0.26185990178E+02  0.43739141740E+03 -0.10855959199E+03  0.45142236687E+03  0.10100000352E+00 0. -1.
       -3    1    3    3    0  502  0.26185990178E+02 -0.43739141740E+03 -0.95799129823E+02  0.44852473908E+03  0.10100000352E+00 0.  1.
</event>
<event>
 5   0  0.2803717E-02  0.8921663E+03  0.7818609E-02  0.9435427E-01
       -2   -1    0    0    0  501  0.00000000000E+00  0.00000000000E+00  0.13467583031E+03  0.13467583034E+03  0.25500000920E-02 0. -1.
        2   -1    0    0  501    0  0.00000000000E+00  0.00000000000E+00 -0.14775492972E+04  0.14775492972E+04  0.25500000920E-02 0.  1.
    10030    2    1    2    0    0  0.00000000000E+00  0.00000000000E+00 -0.13428734669E+04  0.16122251276E+04  0.89216630390E+03 0.  0.
        5    1    3    3  502    0  0.36071764385E+03  0.99265087781E+02 -0.11103674586E+04  0.11717118927E+04  0.46999998093E+01 0. -1.
       -5    1    3    3    0  502 -0.36071764385E+03 -0.99265087781E+02 -0.23250600829E+03  0.44051323490E+03  0.46999998093E+01 0.  1.
</event>
<event>
 5   0  0.2628383E-02  0.9117883E+03  0.7818609E-02  0.9410964E-01
       -2   -1    0    0    0  501  0.00000000000E+00  0.00000000000E+00  0.45619407946E+03  0.45619407947E+03  0.25500000920E-02 0.  1.
        2   -1    0    0  501    0  0.00000000000E+00  0.00000000000E+00 -0.45559443823E+03  0.45559443824E+03  0.25500000920E-02 0. -1.
    10030    2    1    2    0    0  0.00000000000E+00  0.00000000000E+00  0.59964123192E+00  0.91178851771E+03  0.91178832053E+03 0.  0.
        2    1    3    3  502    0  0.16053018734E+03  0.33378173459E+03 -0.26551840397E+03  0.45571944247E+03  0.25500000920E-02 0. -1.
       -2    1    3    3    0  502 -0.16053018734E+03 -0.33378173459E+03  0.26611804520E+03  0.45606907523E+03  0.25500000920E-02 0.  1.
</event>
<event>
 5   0  0.1559275E-02  0.9178282E+03  0.7818609E-02  0.9403566E-01
       -1   -1    0    0    0  501  0.00000000000E+00  0.00000000000E+00  0.13182515123E+03  0.13182515132E+03  0.50400001928E-02 0. -1.
        1   -1    0    0  501    0  0.00000000000E+00  0.00000000000E+00 -0.15975869012E+04  0.15975869012E+04  0.50400001928E-02 0.  1.
    10030    2    1    2    0    0  0.00000000000E+00  0.00000000000E+00 -0.14657617500E+04  0.17294120526E+04  0.91782816462E+03 0.  0.
        1    1    3    3  502    0  0.67508108863E+02 -0.14009661252E+03  0.80662490583E+02  0.17518802189E+03  0.50400001928E-02 0. -1.
       -1    1    3    3    0  502 -0.67508108863E+02  0.14009661252E+03 -0.15464242406E+04  0.15542240307E+04  0.50400001928E-02 0.  1.
</event>
<event>
 5   0  0.1560728E-02  0.8929612E+03  0.7818609E-02  0.9434423E-01
        1   -1    0    0  501    0  0.00000000000E+00  0.00000000000E+00  0.21875310527E+04  0.21875310527E+04  0.50400001928E-02 0.  1.
       -1   -1    0    0    0  501  0.00000000000E+00  0.00000000000E+00 -0.91127810163E+02  0.91127810302E+02  0.50400001928E-02 0. -1.
    10030    2    1    2    0    0  0.00000000000E+00  0.00000000000E+00  0.20964032426E+04  0.22786588631E+04  0.89296117422E+03 0.  0.
        4    1    3    3  502    0  0.23339275496E+03 -0.18535210804E+03  0.19988346148E+03  0.35886291686E+03  0.12699999809E+01 0. -1.
       -4    1    3    3    0  502 -0.23339275496E+03  0.18535210804E+03  0.18965197811E+04  0.19197959462E+04  0.12699999809E+01 0.  1.
</event>
<event>
 5   0  0.2705111E-02  0.9158817E+03  0.7818609E-02  0.9405943E-01
       -2   -1    0    0    0  501  0.00000000000E+00  0.00000000000E+00  0.14420235659E+03  0.14420235661E+03  0.25500000920E-02 0. -1.
        2   -1    0    0  501    0  0.00000000000E+00  0.00000000000E+00 -0.14542744626E+04  0.14542744626E+04  0.25500000920E-02 0.  1.
    10030    2    1    2    0    0  0.00000000000E+00  0.00000000000E+00 -0.13100721060E+04  0.15984768192E+04  0.91588166189E+03 0.  0.
        4    1    3    3  502    0  0.43229832701E+03  0.49676329802E+02 -0.40601214430E+03  0.59514456689E+03  0.12699999809E+01 0.  1.
       -4    1    3    3    0  502 -0.43229832701E+03 -0.49676329802E+02 -0.90405996167E+03  0.10033322523E+04  0.12699999809E+01 0. -1.
</event>
<event>
 5   0  0.2705111E-02  0.9967128E+03  0.7818609E-02  0.9312157E-01
       -2   -1    0    0    0  501  0.00000000000E+00  0.00000000000E+00  0.18092425261E+03  0.18092425263E+03  0.25500000920E-02 0. -1.
        2   -1    0    0  501    0  0.00000000000E+00  0.00000000000E+00 -0.13727242971E+04  0.13727242971E+04  0.25500000920E-02 0.  1.
    10030    2    1    2    0    0  0.00000000000E+00  0.00000000000E+00 -0.11918000445E+04  0.15536485497E+04  0.99671283228E+03 0.  0.
        4    1    3    3  502    0 -0.38770832400E+03  0.34699767763E+02 -0.11083444987E+03  0.40473164759E+03  0.12699999809E+01 0. -1.
       -4    1    3    3    0  502  0.38770832400E+03 -0.34699767763E+02 -0.10809655946E+04  0.11489169021E+04  0.12699999809E+01 0.  1.
</event>
<event>
 5   0  0.1459111E-02  0.9116585E+03  0.7818609E-02  0.9411124E-01
        1   -1    0    0  501    0  0.00000000000E+00  0.00000000000E+00  0.17244917779E+04  0.17244917779E+04  0.50400001928E-02 0. -1.
       -1   -1    0    0    0  501  0.00000000000E+00  0.00000000000E+00 -0.12048785478E+03  0.12048785489E+03  0.50400001928E-02 0.  1.
    10030    2    1    2    0    0  0.00000000000E+00  0.00000000000E+00  0.16040039231E+04  0.18449796328E+04  0.91165852163E+03 0.  0.
        2    1    3    3  502    0 -0.17060508741E+03 -0.41245445983E+03  0.61481179283E+03  0.75974885185E+03  0.25500000920E-02 0. -1.
       -2    1    3    3    0  502  0.17060508741E+03  0.41245445983E+03  0.98919213030E+03  0.10852307810E+04  0.25500000920E-02 0.  1.
</event>
<event>
 5   0  0.1040163E-02  0.8823934E+03  0.7818609E-02  0.9447862E-01
       -4   -1    0    0    0  501  0.00000000000E+00  0.00000000000E+00  0.13830222131E+04  0.13830227962E+04  0.12699999809E+01 0. -1.
        4   -1    0    0  501    0  0.00000000000E+00  0.00000000000E+00 -0.14074230427E+03  0.14074803413E+03  0.12699999809E+01 0.  1.
    10030    2    1    2    0    0  0.00000000000E+00  0.00000000000E+00  0.12422799088E+04  0.15237708303E+04  0.88239343350E+03 0.  0.
        3    1    3    3  502    0 -0.34124645159E+03 -0.27299189829E+03  0.51637177240E+03  0.67647138505E+03  0.10100000352E+00 0. -1.
       -3    1    3    3    0  502  0.34124645159E+03  0.27299189829E+03  0.72590813639E+03  0.84729944526E+03  0.10100000352E+00 0.  1.
</event>
<event>
 5   0  0.2628383E-02  0.8782182E+03  0.7818609E-02  0.9453227E-01
       -2   -1    0    0    0  501  0.00000000000E+00  0.00000000000E+00  0.37163690087E+03  0.37163690088E+03  0.25500000920E-02 0. -1.
        2   -1    0    0  501    0  0.00000000000E+00  0.00000000000E+00 -0.51883119846E+03  0.51883119846E+03  0.25500000920E-02 0.  1.
    10030    2    1    2    0    0  0.00000000000E+00  0.00000000000E+00 -0.14719429759E+03  0.89046809934E+03  0.87821823865E+03 0.  0.
        2    1    3    3  502    0 -0.20390068504E+03  0.21408676404E+03  0.25559774092E+03  0.39081816369E+03  0.25500000920E-02 0. -1.
       -2    1    3    3    0  502  0.20390068504E+03 -0.21408676404E+03 -0.40279203851E+03  0.49964993565E+03  0.25500000920E-02 0.  1.
</event>
<event>
 5   0  0.2414128E-02  0.8995989E+03  0.7818609E-02  0.9426083E-01
       -2   -1    0    0    0  501  0.00000000000E+00  0.00000000000E+00  0.16263827914E+03  0.16263827916E+03  0.25500000920E-02 0. -1.
        2   -1    0    0  501    0  0.00000000000E+00  0.00000000000E+00 -0.12439848767E+04  0.12439848767E+04  0.25500000920E-02 0.  1.
    10030    2    1    2    0    0  0.00000000000E+00  0.00000000000E+00 -0.10813465975E+04  0.14066231559E+04  0.89959893205E+03 0.  0.
        3    1    3    3  502    0 -0.14510404764E+03  0.15133326697E+03 -0.11629093256E+04  0.11816577560E+04  0.10100000352E+00 0.  1.
       -3    1    3    3    0  502  0.14510404764E+03 -0.15133326697E+03  0.81562728099E+02  0.22496539989E+03  0.10100000352E+00 0. -1.
</event>
<event>
 5   0  0.1040163E-02  0.8077319E+03  0.7818609E-02  0.9548892E-01
       -3   -1    0    0    0  501  0.00000000000E+00  0.00000000000E+00  0.35392208627E+03  0.35392210069E+03  0.10100000352E+00 0. -1.
        3   -1    0    0  501    0  0.00000000000E+00  0.00000000000E+00 -0.46085761635E+03  0.46085762741E+03  0.10100000352E+00 0.  1.
    10030    2    1    2    0    0  0.00000000000E+00  0.00000000000E+00 -0.10693553007E+03  0.81477972810E+03  0.80773188481E+03 0.  0.
        5    1    3    3  502    0  0.32544836785E+03 -0.14669374931E+03  0.13699155382E+03  0.38239308576E+03  0.46999998093E+01 0. -1.
       -5    1    3    3    0  502 -0.32544836785E+03  0.14669374931E+03 -0.24392708389E+03  0.43238664234E+03  0.46999998093E+01 0.  1.
</event>
<event>
 5   0  0.1040163E-02  0.8953210E+03  0.7818609E-02  0.9431449E-01
        3   -1    0    0  501    0  0.00000000000E+00  0.00000000000E+00  0.23544924920E+03  0.23544927087E+03  0.10100000352E+00 0. -1.
       -3   -1    0    0    0  501  0.00000000000E+00  0.00000000000E+00 -0.85113847382E+03  0.85113847982E+03  0.10100000352E+00 0.  1.
    10030    2    1    2    0    0  0.00000000000E+00  0.00000000000E+00 -0.61568922462E+03  0.10865877507E+04  0.89532101428E+03 0.  0.
        4    1    3    3  502    0  0.33202101538E+03  0.29445231190E+03 -0.23647539043E+03  0.50285419539E+03  0.12699999809E+01 0. -1.
       -4    1    3    3    0  502 -0.33202101538E+03 -0.29445231190E+03 -0.37921383419E+03  0.58373355529E+03  0.12699999809E+01 0.  1.
</event>
<event>
 5   0  0.2628383E-02  0.8956886E+03  0.7818609E-02  0.9430987E-01
        2   -1    0    0  501    0  0.00000000000E+00  0.00000000000E+00  0.23008054148E+03  0.23008054149E+03  0.25500000920E-02 0. -1.
       -2   -1    0    0    0  501  0.00000000000E+00  0.00000000000E+00 -0.87171444039E+03  0.87171444040E+03  0.25500000920E-02 0.  1.
    10030    2    1    2    0    0  0.00000000000E+00  0.00000000000E+00 -0.64163389892E+03  0.11017949819E+04  0.89568862998E+03 0.  0.
        2    1    3    3  502    0 -0.18324026599E+03 -0.23325836963E+03  0.91917410472E+02  0.31054029116E+03  0.25500000920E-02 0. -1.
       -2    1    3    3    0  502  0.18324026599E+03  0.23325836963E+03 -0.73355130939E+03  0.79125469072E+03  0.25500000920E-02 0.  1.
</event>
<event>
 5   0  0.2679861E-02  0.8797754E+03  0.7818609E-02  0.9451222E-01
        2   -1    0    0  501    0  0.00000000000E+00  0.00000000000E+00  0.11738427606E+04  0.11738427606E+04  0.25500000920E-02 0.  1.
       -2   -1    0    0    0  501  0.00000000000E+00  0.00000000000E+00 -0.16484420262E+03  0.16484420264E+03  0.25500000920E-02 0. -1.
    10030    2    1    2    0    0  0.00000000000E+00  0.00000000000E+00  0.10089985580E+04  0.13386869632E+04  0.87977536654E+03 0.  0.
        1    1    3    3  502    0 -0.23326473384E+02  0.43855154164E+03  0.54267944495E+03  0.69812073386E+03  0.50400001928E-02 0.  1.
       -1    1    3    3    0  502  0.23326473384E+02 -0.43855154164E+03  0.46631911302E+03  0.64056622939E+03  0.50400001928E-02 0. -1.
</event>
<event>
 5   0  0.1497410E-02  0.8553049E+03  0.7818609E-02  0.9483244E-01
       -1   -1    0    0    0  501  0.00000000000E+00  0.00000000000E+00  0.75491655584E+03  0.75491655585E+03  0.50400001928E-02 0.  1.
        1   -1    0    0  501    0  0.00000000000E+00  0.00000000000E+00 -0.24226070546E+03  0.24226070551E+03  0.50400001928E-02 0. -1.
    10030    2    1    2    0    0  0.00000000000E+00  0.00000000000E+00  0.51265585038E+03  0.99717726136E+03  0.85530489865E+03 0.  0.
        3    1    3    3  502    0  0.38762622156E+03  0.17356516524E+03  0.19794509735E+03  0.46857360787E+03  0.10100000352E+00 0.  1.
       -3    1    3    3    0  502 -0.38762622156E+03 -0.17356516524E+03  0.31471075303E+03  0.52860365350E+03  0.10100000352E+00 0. -1.
</event>
<event>
 5   0  0.2803717E-02  0.8992376E+03  0.7818609E-02  0.9426535E-01
       -2   -1    0    0    0  501  0.00000000000E+00  0.00000000000E+00  0.38148322877E+03  0.38148322878E+03  0.25500000920E-02 0.  1.
        2   -1    0    0  501    0  0.00000000000E+00  0.00000000000E+00 -0.52992388389E+03  0.52992388390E+03  0.25500000920E-02 0. -1.
    10030    2    1    2    0    0  0.00000000000E+00  0.00000000000E+00 -0.14844065512E+03  0.91140711268E+03  0.89923761985E+03 0.  0.
        5    1    3    3  502    0  0.20374003783E+03 -0.39886501743E+03 -0.34554014161E+02  0.44924311351E+03  0.46999998093E+01 0.  1.
       -5    1    3    3    0  502 -0.20374003783E+03  0.39886501743E+03 -0.11388664096E+03  0.46216399917E+03  0.46999998093E+01 0. -1.
</event>
<event>
 5   0  0.2705111E-02  0.8991524E+03  0.7818609E-02  0.9426642E-01
       -2   -1    0    0    0  501  0.00000000000E+00  0.00000000000E+00  0.10092663065E+03  0.10092663068E+03  0.25500000920E-02 0.  1.
        2   -1    0    0  501    0  0.00000000000E+00  0.00000000000E+00 -0.20026305314E+04  0.20026305314E+04  0.25500000920E-02 0. -1.
    10030    2    1    2    0    0  0.00000000000E+00  0.00000000000E+00 -0.19017039008E+04  0.21035571621E+04  0.89915238309E+03 0.  0.
        4    1    3    3  502    0 -0.18504976973E+03  0.40605846973E+03 -0.10787824552E+04  0.11674331230E+04  0.12699999809E+01 0.  1.
       -4    1    3    3    0  502  0.18504976973E+03 -0.40605846973E+03 -0.82292144564E+03  0.93612403917E+03  0.12699999809E+01 0. -1.
</event>
<event>
 5   0  0.2628383E-02  0.6155048E+03  0.7818609E-02  0.9873751E-01
        2   -1    0    0  501    0  0.00000000000E+00  0.00000000000E+00  0.19299767221E+03  0.19299767223E+03  0.25500000920E-02 0.  1.
       -2   -1    0    0    0  501  0.00000000000E+00  0.00000000000E+00 -0.49073930679E+03  0.49073930679E+03  0.25500000920E-02 0. -1.
    10030    2    1    2    0    0  0.00000000000E+00  0.00000000000E+00 -0.29774163458E+03  0.68373697902E+03  0.61550481356E+03 0.  0.
        2    1    3    3  502    0  0.29801963864E+03  0.12303324653E+02 -0.23306507778E+03  0.37853191055E+03  0.25500000920E-02 0. -1.
       -2    1    3    3    0  502 -0.29801963864E+03 -0.12303324653E+02 -0.64676556800E+02  0.30520506847E+03  0.25500000920E-02 0.  1.
</event>
<event>
 5   0  0.1497410E-02  0.9001876E+03  0.7818609E-02  0.9425347E-01
        1   -1    0    0  501    0  0.00000000000E+00  0.00000000000E+00  0.11609640150E+04  0.11609640150E+04  0.50400001928E-02 0.  1.
       -1   -1    0    0    0  501  0.00000000000E+00  0.00000000000E+00 -0.17449674205E+03  0.17449674212E+03  0.50400001928E-02 0. -1.
    10030    2    1    2    0    0  0.00000000000E+00  0.00000000000E+00  0.98646727298E+03  0.13354607572E+04  0.90018762113E+03 0.  0.
        3    1    3    3  502    0  0.22171935941E+03  0.30022581492E+03  0.86645253853E+03  0.94341667677E+03  0.10100000352E+00 0.  1.
       -3    1    3    3    0  502 -0.22171935941E+03 -0.30022581492E+03  0.12001473445E+03  0.39204408039E+03  0.10100000352E+00 0. -1.
</event>
<event>
 5   0  0.1537870E-02  0.8870713E+03  0.7818609E-02  0.9441889E-01
       -1   -1    0    0    0  501  0.00000000000E+00  0.00000000000E+00  0.55784308553E+03  0.55784308555E+03  0.50400001928E-02 0. -1.
        1   -1    0    0  501    0  0.00000000000E+00  0.00000000000E+00 -0.35265091201E+03  0.35265091205E+03  0.50400001928E-02 0.  1.
    10030    2    1    2    0    0  0.00000000000E+00  0.00000000000E+00  0.20519217351E+03  0.91049399760E+03  0.88707130018E+03 0.  0.
        5    1    3    3  502    0  0.24772164697E+03  0.14343708226E+03 -0.24511361039E+03  0.37688590175E+03  0.46999998093E+01 0.  1.
       -5    1    3    3    0  502 -0.24772164697E+03 -0.14343708226E+03  0.45030578390E+03  0.53360809585E+03  0.46999998093E+01 0. -1.
</event>
<event>
 5   0  0.2679861E-02  0.8991974E+03  0.7818609E-02  0.9426585E-01
       -2   -1    0    0    0  501  0.00000000000E+00  0.00000000000E+00  0.43292598560E+03  0.43292598561E+03  0.25500000920E-02 0. -1.
        2   -1    0    0  501    0  0.00000000000E+00  0.00000000000E+00 -0.46691355306E+03  0.46691355306E+03  0.25500000920E-02 0.  1.
    10030    2    1    2    0    0  0.00000000000E+00  0.00000000000E+00 -0.33987567452E+02  0.89983953867E+03  0.89919744251E+03 0.  0.
        1    1    3    3  502    0 -0.33921340648E+03  0.12472574279E+03  0.25062336350E+03  0.43981168289E+03  0.50400001928E-02 0. -1.
       -1    1    3    3    0  502  0.33921340648E+03 -0.12472574279E+03 -0.28461093096E+03  0.46002785578E+03  0.50400001928E-02 0.  1.
</event>
<event>
 5   0  0.2803717E-02  0.9164500E+03  0.7818609E-02  0.9405249E-01
        2   -1    0    0  501    0  0.00000000000E+00  0.00000000000E+00  0.28685678643E+04  0.28685678643E+04  0.25500000920E-02 0.  1.
       -2   -1    0    0    0  501  0.00000000000E+00  0.00000000000E+00 -0.73196854282E+02  0.73196854327E+02  0.25500000920E-02 0. -1.
    10030    2    1    2    0    0  0.00000000000E+00  0.00000000000E+00  0.27953710100E+04  0.29417647186E+04  0.91644998560E+03 0.  0.
        5    1    3    3  502    0 -0.18768666869E+03  0.34598410261E+03  0.21506018197E+04  0.21863306159E+04  0.46999998093E+01 0.  1.
       -5    1    3    3    0  502  0.18768666869E+03 -0.34598410261E+03  0.64476919026E+03  0.75543410273E+03  0.46999998093E+01 0. -1.
</event>
<event>
 5   0  0.2803717E-02  0.9053718E+03  0.7818609E-02  0.9418891E-01
       -2   -1    0    0    0  501  0.00000000000E+00  0.00000000000E+00  0.34498782179E+03  0.34498782180E+03  0.25500000920E-02 0.  1.
        2   -1    0    0  501    0  0.00000000000E+00  0.00000000000E+00 -0.59400504235E+03  0.59400504235E+03  0.25500000920E-02 0. -1.
    10030    2    1    2    0    0  0.00000000000E+00  0.00000000000E+00 -0.24901722055E+03  0.93899286415E+03  0.90537175945E+03 0.  0.
        5    1    3    3  502    0  0.36874003915E+03 -0.24845036418E+03 -0.36470462214E+02  0.44614906090E+03  0.46999998093E+01 0.  1.
       -5    1    3    3    0  502 -0.36874003915E+03  0.24845036418E+03 -0.21254675834E+03  0.49284380326E+03  0.46999998093E+01 0. -1.
</event>
<event>
 5   0  0.1560728E-02  0.9067343E+03  0.7818609E-02  0.9417202E-01
        1   -1    0    0  501    0  0.00000000000E+00  0.00000000000E+00  0.40017628905E+03  0.40017628908E+03  0.50400001928E-02 0.  1.
       -1   -1    0    0    0  501  0.00000000000E+00  0.00000000000E+00 -0.51362804132E+03  0.51362804135E+03  0.50400001928E-02 0. -1.
    10030    2    1    2    0    0  0.00000000000E+00  0.00000000000E+00 -0.11345175227E+03  0.91380433042E+03  0.90673427982E+03 0.  0.
        4    1    3    3  502    0 -0.18966124924E+03 -0.17446211498E+03 -0.43263794750E+03  0.50357286021E+03  0.12699999809E+01 0. -1.
       -4    1    3    3    0  502  0.18966124924E+03  0.17446211498E+03  0.31918619522E+03  0.41023147021E+03  0.12699999809E+01 0.  1.
</event>
<event>
 5   0  0.1560728E-02  0.9023127E+03  0.7818609E-02  0.9422695E-01
        1   -1    0    0  501    0  0.00000000000E+00  0.00000000000E+00  0.74773567310E+03  0.74773567312E+03  0.50400001928E-02 0. -1.
       -1   -1    0    0    0  501  0.00000000000E+00  0.00000000000E+00 -0.27221120924E+03  0.27221120929E+03  0.50400001928E-02 0.  1.
    10030    2    1    2    0    0  0.00000000000E+00  0.00000000000E+00  0.47552446386E+03  0.10199468824E+04  0.90231265490E+03 0.  0.
        4    1    3    3  502    0 -0.67205837790E+01  0.43955400705E+03  0.12311171642E+03  0.45652053511E+03  0.12699999809E+01 0.  1.
       -4    1    3    3    0  502  0.67205837790E+01 -0.43955400705E+03  0.35241274744E+03  0.56342634729E+03  0.12699999809E+01 0. -1.
</event>
<event>
 5   0  0.1459111E-02  0.8469426E+03  0.7818609E-02  0.9494450E-01
        1   -1    0    0  501    0  0.00000000000E+00  0.00000000000E+00  0.16784378573E+04  0.16784378573E+04  0.50400001928E-02 0.  1.
       -1   -1    0    0    0  501  0.00000000000E+00  0.00000000000E+00 -0.10684217681E+03  0.10684217693E+03  0.50400001928E-02 0. -1.
    10030    2    1    2    0    0  0.00000000000E+00  0.00000000000E+00  0.15715956804E+04  0.17852800342E+04  0.84694262953E+03 0.  0.
        2    1    3    3  502    0 -0.88647101260E+02 -0.31766942391E+03  0.13457084060E+04  0.13855335743E+04  0.25500000920E-02 0.  1.
       -2    1    3    3    0  502  0.88647101260E+02  0.31766942391E+03  0.22588727442E+03  0.39974645990E+03  0.25500000920E-02 0. -1.
</event>
<event>
 5   0  0.2679861E-02  0.8979824E+03  0.7818609E-02  0.9428107E-01
        2   -1    0    0  501    0  0.00000000000E+00  0.00000000000E+00  0.32656581456E+03  0.32656581457E+03  0.25500000920E-02 0. -1.
       -2   -1    0    0    0  501  0.00000000000E+00  0.00000000000E+00 -0.61731225251E+03  0.61731225252E+03  0.25500000920E-02 0.  1.
    10030    2    1    2    0    0  0.00000000000E+00  0.00000000000E+00 -0.29074643795E+03  0.94387806709E+03  0.89798235749E+03 0.  0.
        1    1    3    3  502    0  0.26907529654E+03  0.60558381311E+02  0.22702869175E+03  0.35722662227E+03  0.50400001928E-02 0. -1.
       -1    1    3    3    0  502 -0.26907529654E+03 -0.60558381311E+02 -0.51777512970E+03  0.58665144482E+03  0.50400001928E-02 0.  1.
</event>
<event>
 5   0  0.2803717E-02  0.8983824E+03  0.7818609E-02  0.9427606E-01
       -2   -1    0    0    0  501  0.00000000000E+00  0.00000000000E+00  0.28428400388E+03  0.28428400390E+03  0.25500000920E-02 0. -1.
        2   -1    0    0  501    0  0.00000000000E+00  0.00000000000E+00 -0.70975763660E+03  0.70975763660E+03  0.25500000920E-02 0.  1.
    10030    2    1    2    0    0  0.00000000000E+00  0.00000000000E+00 -0.42547363271E+03  0.99404164050E+03  0.89838241908E+03 0.  0.
        5    1    3    3  502    0  0.27159292163E+03 -0.79934217171E+01  0.18301181458E+03  0.32763092672E+03  0.46999998093E+01 0. -1.
       -5    1    3    3    0  502 -0.27159292163E+03  0.79934217171E+01 -0.60848544729E+03  0.66641071378E+03  0.46999998093E+01 0.  1.
</event>
<event>
 5   0  0.2414128E-02  0.9127284E+03  0.7818609E-02  0.9409809E-01
        2   -1    0    0  501    0  0.00000000000E+00  0.00000000000E+00  0.91137541949E+03  0.91137541949E+03  0.25500000920E-02 0.  1.
       -2   -1    0    0    0  501  0.00000000000E+00  0.00000000000E+00 -0.22852084220E+03  0.22852084222E+03  0.25500000920E-02 0. -1.
    10030    2    1    2    0    0  0.00000000000E+00  0.00000000000E+00  0.68285457729E+03  0.11398962617E+04  0.91272838990E+03 0.  0.
        3    1    3    3  502    0  0.28617093903E+03  0.21543372935E+03 -0.11729602986E+02  0.35838958114E+03  0.10100000352E+00 0. -1.
       -3    1    3    3    0  502 -0.28617093903E+03 -0.21543372935E+03  0.69458418027E+03  0.78150668057E+03  0.10100000352E+00 0.  1.
</event>
<event>
 5   0  0.1560728E-02  0.8800887E+03  0.7818609E-02  0.9450820E-01
        1   -1    0    0  501    0  0.00000000000E+00  0.00000000000E+00  0.49493448715E+03  0.49493448718E+03  0.50400001928E-02 0.  1.
       -1   -1    0    0    0  501  0.00000000000E+00  0.00000000000E+00 -0.39124176370E+03  0.39124176373E+03  0.50400001928E-02 0. -1.
    10030    2    1    2    0    0  0.00000000000E+00  0.00000000000E+00  0.10369272346E+03  0.88617625090E+03  0.88008872665E+03 0.  0.
        4    1    3    3  502    0 -0.42496793832E+03 -0.53600372051E+02  0.15337375428E+03  0.45496798776E+03  0.12699999809E+01 0.  1.
       -4    1    3    3    0  502  0.42496793832E+03  0.53600372051E+02 -0.49681030820E+02  0.43120826315E+03  0.12699999809E+01 0. -1.
</event>
<event>
 5   0  0.2679861E-02  0.9136988E+03  0.7818609E-02  0.9408617E-01
        2   -1    0    0  501    0  0.00000000000E+00  0.00000000000E+00  0.29751442656E+03  0.29751442657E+03  0.25500000920E-02 0.  1.
       -2   -1    0    0    0  501  0.00000000000E+00  0.00000000000E+00 -0.70151685260E+03  0.70151685260E+03  0.25500000920E-02 0. -1.
    10030    2    1    2    0    0  0.00000000000E+00  0.00000000000E+00 -0.40400242604E+03  0.99903127917E+03  0.91369882156E+03 0.  0.
        1    1    3    3  502    0  0.34931920414E+03 -0.46077992351E+02 -0.51995905517E+03  0.62809593760E+03  0.50400001928E-02 0. -1.
       -1    1    3    3    0  502 -0.34931920414E+03  0.46077992351E+02  0.11595662913E+03  0.37093534157E+03  0.50400001928E-02 0.  1.
</event>
<event>
 5   0  0.1560728E-02  0.9131298E+03  0.7818609E-02  0.9409316E-01
        1   -1    0    0  501    0  0.00000000000E+00  0.00000000000E+00  0.26925842372E+03  0.26925842376E+03  0.50400001928E-02 0. -1.
       -1   -1    0    0    0  501  0.00000000000E+00  0.00000000000E+00 -0.77416892200E+03  0.77416892202E+03  0.50400001928E-02 0.  1.
    10030    2    1    2    0    0  0.00000000000E+00  0.00000000000E+00 -0.50491049829E+03  0.10434273458E+04  0.91312979069E+03 0.  0.
        4    1    3    3  502    0  0.34726472039E+03 -0.28262906072E+03 -0.35451970106E+03  0.57110227046E+03  0.12699999809E+01 0. -1.
       -4    1    3    3    0  502 -0.34726472039E+03  0.28262906072E+03 -0.15039079723E+03  0.47232507532E+03  0.12699999809E+01 0.  1.
</event>
<event>
 5   0  0.2414128E-02  0.9103782E+03  0.7818609E-02  0.9412700E-01
       -2   -1    0    0    0  501  0.00000000000E+00  0.00000000000E+00  0.93864305833E+02  0.93864305867E+02  0.25500000920E-02 0. -1.
        2   -1    0    0  501    0  0.00000000000E+00  0.00000000000E+00 -0.22074109258E+04  0.22074109258E+04  0.25500000920E-02 0.  1.
    10030    2    1    2    0    0  0.00000000000E+00  0.00000000000E+00 -0.21135466200E+04  0.23012752317E+04  0.91037815062E+03 0.  0.
        3    1    3    3  502    0 -0.43730997779E+03 -0.56521434375E+02 -0.77120314931E+03  0.88836309971E+03  0.10100000352E+00 0. -1.
       -3    1    3    3    0  502  0.43730997779E+03  0.56521434375E+02 -0.13423434707E+04  0.14129121320E+04  0.10100000352E+00 0.  1.
</event>
<event>
 5   0  0.2705111E-02  0.8981461E+03  0.7818609E-02  0.9427902E-01
        2   -1    0    0  501    0  0.00000000000E+00  0.00000000000E+00  0.29647608724E+03  0.29647608725E+03  0.25500000920E-02 0.  1.
       -2   -1    0    0    0  501  0.00000000000E+00  0.00000000000E+00 -0.68021202158E+03  0.68021202158E+03  0.25500000920E-02 0. -1.
    10030    2    1    2    0    0  0.00000000000E+00  0.00000000000E+00 -0.38373593434E+03  0.97668810884E+03  0.89814608758E+03 0.  0.
        4    1    3    3  502    0 -0.74057538824E+02  0.29176693202E+03  0.17051947096E+03  0.34596381972E+03  0.12699999809E+01 0.  1.
       -4    1    3    3    0  502  0.74057538824E+02 -0.29176693202E+03 -0.55425540530E+03  0.63072428912E+03  0.12699999809E+01 0. -1.
</event>
<event>
 5   0  0.1559275E-02  0.9170559E+03  0.7818609E-02  0.9404508E-01
       -1   -1    0    0    0  501  0.00000000000E+00  0.00000000000E+00  0.28440166207E+03  0.28440166212E+03  0.50400001928E-02 0.  1.
        1   -1    0    0  501    0  0.00000000000E+00  0.00000000000E+00 -0.73926394214E+03  0.73926394216E+03  0.50400001928E-02 0. -1.
    10030    2    1    2    0    0  0.00000000000E+00  0.00000000000E+00 -0.45486228007E+03  0.10236656043E+04  0.91705592825E+03 0.  0.
        1    1    3    3  502    0  0.13206113798E+03 -0.43902441244E+03 -0.23645243068E+03  0.51584138152E+03  0.50400001928E-02 0. -1.
       -1    1    3    3    0  502 -0.13206113798E+03  0.43902441244E+03 -0.21840984939E+03  0.50782422276E+03  0.50400001928E-02 0.  1.
</event>
<event>
 5   0  0.2679861E-02  0.8603957E+03  0.7818609E-02  0.9476490E-01
        2   -1    0    0  501    0  0.00000000000E+00  0.00000000000E+00  0.12697615248E+04  0.12697615248E+04  0.25500000920E-02 0. -1.
       -2   -1    0    0    0  501  0.00000000000E+00  0.00000000000E+00 -0.14575191328E+03  0.14575191330E+03  0.25500000920E-02 0.  1.
    10030    2    1    2    0    0  0.00000000000E+00  0.00000000000E+00  0.11240096116E+04  0.14155134381E+04  0.86039565706E+03 0.  0.
        1    1    3    3  502    0 -0.29873039553E+03  0.99510051051E+02  0.79742496638E+02  0.32480912129E+03  0.50400001928E-02 0.  1.
       -1    1    3    3    0  502  0.29873039553E+03 -0.99510051051E+02  0.10442671149E+04  0.10907043169E+04  0.50400001928E-02 0. -1.
</event>
<event>
 5   0  0.1497410E-02  0.8991857E+03  0.7818609E-02  0.9426600E-01
        1   -1    0    0  501    0  0.00000000000E+00  0.00000000000E+00  0.71337384637E+03  0.71337384639E+03  0.50400001928E-02 0. -1.
       -1   -1    0    0    0  501  0.00000000000E+00  0.00000000000E+00 -0.28334893504E+03  0.28334893509E+03  0.50400001928E-02 0.  1.
    10030    2    1    2    0    0  0.00000000000E+00  0.00000000000E+00  0.43002491133E+03  0.99672278147E+03  0.89918567535E+03 0.  0.
        3    1    3    3  502    0 -0.28368392428E+03 -0.26823908176E+03 -0.32117142419E+02  0.39174008592E+03  0.10100000352E+00 0.  1.
       -3    1    3    3    0  502  0.28368392428E+03  0.26823908176E+03  0.46214205375E+03  0.60498269555E+03  0.10100000352E+00 0. -1.
</event>
<event>
 5   0  0.1537870E-02  0.8910057E+03  0.7818609E-02  0.9436895E-01
       -1   -1    0    0    0  501  0.00000000000E+00  0.00000000000E+00  0.20525309820E+03  0.20525309826E+03  0.50400001928E-02 0. -1.
        1   -1    0    0  501    0  0.00000000000E+00  0.00000000000E+00 -0.96696617920E+03  0.96696617922E+03  0.50400001928E-02 0.  1.
    10030    2    1    2    0    0  0.00000000000E+00  0.00000000000E+00 -0.76171308101E+03  0.11722192775E+04  0.89100573326E+03 0.  0.
        5    1    3    3  502    0 -0.96068090604E+02 -0.54570656513E+02 -0.94862221441E+03  0.95504619274E+03  0.46999998093E+01 0.  1.
       -5    1    3    3    0  502  0.96068090604E+02  0.54570656513E+02  0.18690913341E+03  0.21717308474E+03  0.46999998093E+01 0. -1.
</event>
<event>
 5   0  0.1560728E-02  0.9133787E+03  0.7818609E-02  0.9409010E-01
       -1   -1    0    0    0  501  0.00000000000E+00  0.00000000000E+00  0.13516658031E+03  0.13516658041E+03  0.50400001928E-02 0.  1.
        1   -1    0    0  501    0  0.00000000000E+00  0.00000000000E+00 -0.15430232871E+04  0.15430232871E+04  0.50400001928E-02 0. -1.
    10030    2    1    2    0    0  0.00000000000E+00  0.00000000000E+00 -0.14078567067E+04  0.16781898675E+04  0.91337874103E+03 0.  0.
        4    1    3    3  502    0  0.33931783019E+03 -0.31723349217E+02 -0.14536221416E+03  0.37050606874E+03  0.12699999809E+01 0.  1.
       -4    1    3    3    0  502 -0.33931783019E+03  0.31723349217E+02 -0.12624944926E+04  0.13076837987E+04  0.12699999809E+01 0. -1.
</event>
<event>
 5   0  0.1497410E-02  0.8664163E+03  0.7818609E-02  0.9468565E-01
       -1   -1    0    0    0  501  0.00000000000E+00  0.00000000000E+00  0.95272136224E+03  0.95272136225E+03  0.50400001928E-02 0. -1.
        1   -1    0    0  501    0  0.00000000000E+00  0.00000000000E+00 -0.19698237569E+03  0.19698237575E+03  0.50400001928E-02 0.  1.
    10030    2    1    2    0    0  0.00000000000E+00  0.00000000000E+00  0.75573898655E+03  0.11497037380E+04  0.86641633721E+03 0.  0.
        3    1    3    3  502    0 -0.39550903025E+03 -0.17044070278E+03  0.43999469247E+03  0.61568885467E+03  0.10100000352E+00 0. -1.
       -3    1    3    3    0  502  0.39550903025E+03  0.17044070278E+03  0.31574429408E+03  0.53401488333E+03  0.10100000352E+00 0.  1.
</event>
<event>
 5   0  0.1497410E-02  0.9038722E+03  0.7818609E-02  0.9420754E-01
        1   -1    0    0  501    0  0.00000000000E+00  0.00000000000E+00  0.31430561899E+03  0.31430561903E+03  0.50400001928E-02 0.  1.
       -1   -1    0    0    0  501  0.00000000000E+00  0.00000000000E+00 -0.64983321470E+03  0.64983321472E+03  0.50400001928E-02 0. -1.
    10030    2    1    2    0    0  0.00000000000E+00  0.00000000000E+00 -0.33552759571E+03  0.96413883375E+03  0.90387218303E+03 0.  0.
        3    1    3    3  502    0 -0.43281452214E+03  0.12380727405E+03 -0.12523606436E+03  0.46726944443E+03  0.10100000352E+00 0. -1.
       -3    1    3    3    0  502  0.43281452214E+03 -0.12380727405E+03 -0.21029153135E+03  0.49686938932E+03  0.10100000352E+00 0.  1.
</event>
<event>
 5   0  0.1560728E-02  0.9290061E+03  0.7818609E-02  0.9390031E-01
        1   -1    0    0  501    0  0.00000000000E+00  0.00000000000E+00  0.33595766546E+03  0.33595766550E+03  0.50400001928E-02 0.  1.
       -1   -1    0    0    0  501  0.00000000000E+00  0.00000000000E+00 -0.64223298544E+03  0.64223298546E+03  0.50400001928E-02 0. -1.
    10030    2    1    2    0    0  0.00000000000E+00  0.00000000000E+00 -0.30627531997E+03  0.97819065096E+03  0.92900612377E+03 0.  0.
        4    1    3    3  502    0  0.13079738123E+02  0.26530576822E+03  0.24809206636E+03  0.36346872835E+03  0.12699999809E+01 0.  1.
       -4    1    3    3    0  502 -0.13079738123E+02 -0.26530576822E+03 -0.55436738633E+03  0.61472192260E+03  0.12699999809E+01 0. -1.
</event>
<event>
 5   0  0.1497410E-02  0.9069919E+03  0.7818609E-02  0.9416883E-01
        1   -1    0    0  501    0  0.00000000000E+00  0.00000000000E+00  0.79603406134E+03  0.79603406136E+03  0.50400001928E-02 0. -1.
       -1   -1    0    0    0  501  0.00000000000E+00  0.00000000000E+00 -0.25835401235E+03  0.25835401240E+03  0.50400001928E-02 0.  1.
    10030    2    1    2    0    0  0.00000000000E+00  0.00000000000E+00  0.53768004899E+03  0.10543880738E+04  0.90699193767E+03 0.  0.
        3    1    3    3  502    0  0.39553633894E+03 -0.12778064564E+03  0.58038302168E+02  0.41969672805E+03  0.10100000352E+00 0.  1.
       -3    1    3    3    0  502 -0.39553633894E+03  0.12778064564E+03  0.47964174682E+03  0.63469134571E+03  0.10100000352E+00 0. -1.
</event>
<event>
 5   0  0.1559275E-02  0.8777533E+03  0.7818609E-02  0.9453826E-01
       -1   -1    0    0    0  501  0.00000000000E+00  0.00000000000E+00  0.31996241227E+03  0.31996241231E+03  0.50400001928E-02 0. -1.
        1   -1    0    0  501    0  0.00000000000E+00  0.00000000000E+00 -0.60198548689E+03  0.60198548691E+03  0.50400001928E-02 0.  1.
    10030    2    1    2    0    0  0.00000000000E+00  0.00000000000E+00 -0.28202307461E+03  0.92194789922E+03  0.87775333338E+03 0.  0.
        1    1    3    3  502    0  0.30310738235E+03 -0.30294934835E+03 -0.41586438649E+02  0.43055989688E+03  0.50400001928E-02 0. -1.
       -1    1    3    3    0  502 -0.30310738235E+03  0.30294934835E+03 -0.24043663596E+03  0.49138800234E+03  0.50400001928E-02 0.  1.
</event>
<event>
 5   0  0.1497410E-02  0.8853671E+03  0.7818609E-02  0.9444060E-01
       -1   -1    0    0    0  501  0.00000000000E+00  0.00000000000E+00  0.28952826194E+03  0.28952826198E+03  0.50400001928E-02 0.  1.
        1   -1    0    0  501    0  0.00000000000E+00  0.00000000000E+00 -0.67685525901E+03  0.67685525903E+03  0.50400001928E-02 0. -1.
    10030    2    1    2    0    0  0.00000000000E+00  0.00000000000E+00 -0.38732699708E+03  0.96638352101E+03  0.88536710297E+03 0.  0.
        3    1    3    3  502    0  0.16482105198E+03 -0.12947699964E+02 -0.64189266682E+03  0.66284223465E+03  0.10100000352E+00 0. -1.
       -3    1    3    3    0  502 -0.16482105198E+03  0.12947699964E+02  0.25456566975E+03  0.30354128636E+03  0.10100000352E+00 0.  1.
</event>
<event>
 5   0  0.2414128E-02  0.9027981E+03  0.7818609E-02  0.9422090E-01
        2   -1    0    0  501    0  0.00000000000E+00  0.00000000000E+00  0.76303006388E+03  0.76303006389E+03  0.25500000920E-02 0. -1.
       -2   -1    0    0    0  501  0.00000000000E+00  0.00000000000E+00 -0.26704205973E+03  0.26704205975E+03  0.25500000920E-02 0.  1.
    10030    2    1    2    0    0  0.00000000000E+00  0.00000000000E+00  0.49598800415E+03  0.10300721236E+04  0.90279813892E+03 0.  0.
        3    1    3    3  502    0  0.11238698801E+03 -0.23834250879E+02 -0.25008170671E+03  0.27520860601E+03  0.10100000352E+00 0.  1.
       -3    1    3    3    0  502 -0.11238698801E+03  0.23834250879E+02  0.74606971086E+03  0.75486351763E+03  0.10100000352E+00 0. -1.
</event>
<event>
 5   0  0.2628383E-02  0.8991670E+03  0.7818609E-02  0.9426623E-01
        2   -1    0    0  501    0  0.00000000000E+00  0.00000000000E+00  0.82428739480E+03  0.82428739480E+03  0.25500000920E-02 0.  1.
       -2   -1    0    0    0  501  0.00000000000E+00  0.00000000000E+00 -0.24521217852E+03  0.24521217854E+03  0.25500000920E-02 0. -1.
    10030    2    1    2    0    0  0.00000000000E+00  0.00000000000E+00  0.57907521628E+03  0.10694995733E+04  0.89916696518E+03 0.  0.
        2    1    3    3  502    0 -0.70678342705E+02 -0.41258853365E+03  0.48462136367E+03  0.64037691429E+03  0.25500000920E-02 0.  1.
       -2    1    3    3    0  502  0.70678342705E+02  0.41258853365E+03  0.94453852609E+02  0.42912265905E+03  0.25500000920E-02 0. -1.
</event>
<event>
 5   0  0.1537870E-02  0.8905034E+03  0.7818609E-02  0.9437531E-01
       -1   -1    0    0    0  501  0.00000000000E+00  0.00000000000E+00  0.68293381567E+03  0.68293381569E+03  0.50400001928E-02 0. -1.
        1   -1    0    0  501    0  0.00000000000E+00  0.00000000000E+00 -0.29029030385E+03  0.29029030390E+03  0.50400001928E-02 0.  1.
    10030    2    1    2    0    0  0.00000000000E+00  0.00000000000E+00  0.39264351182E+03  0.97322411959E+03  0.89050337426E+03 0.  0.
        5    1    3    3  502    0  0.41706706986E+03 -0.15515954303E+03  0.18057688801E+03  0.48025985366E+03  0.46999998093E+01 0. -1.
       -5    1    3    3    0  502 -0.41706706986E+03  0.15515954303E+03  0.21206662380E+03  0.49296426593E+03  0.46999998093E+01 0.  1.
</event>
<event>
 5   0  0.2414128E-02  0.8800464E+03  0.7818609E-02  0.9450874E-01
       -2   -1    0    0    0  501  0.00000000000E+00  0.00000000000E+00  0.37293004858E+03  0.37293004859E+03  0.25500000920E-02 0.  1.
        2   -1    0    0  501    0  0.00000000000E+00  0.00000000000E+00 -0.51918695058E+03  0.51918695058E+03  0.25500000920E-02 0. -1.
    10030    2    1    2    0    0  0.00000000000E+00  0.00000000000E+00 -0.14625690199E+03  0.89211699918E+03  0.88004639584E+03 0.  0.
        3    1    3    3  502    0  0.32047801727E+03  0.19918671088E+03  0.15633638467E+03  0.40843920076E+03  0.10100000352E+00 0.  1.
       -3    1    3    3    0  502 -0.32047801727E+03 -0.19918671088E+03 -0.30259328666E+03  0.48367779842E+03  0.10100000352E+00 0. -1.
</event>
<event>
 5   0  0.2679861E-02  0.9024226E+03  0.7818609E-02  0.9422558E-01
        2   -1    0    0  501    0  0.00000000000E+00  0.00000000000E+00  0.25251508331E+03  0.25251508332E+03  0.25500000920E-02 0. -1.
       -2   -1    0    0    0  501  0.00000000000E+00  0.00000000000E+00 -0.80625536607E+03  0.80625536608E+03  0.25500000920E-02 0.  1.
    10030    2    1    2    0    0  0.00000000000E+00  0.00000000000E+00 -0.55374028276E+03  0.10587704494E+04  0.90242260818E+03 0.  0.
        1    1    3    3  502    0  0.30553086597E+03  0.31020841259E+03 -0.13798313587E+03  0.45674688298E+03  0.50400001928E-02 0. -1.
       -1    1    3    3    0  502 -0.30553086597E+03 -0.31020841259E+03 -0.41575714689E+03  0.60202356641E+03  0.50400001928E-02 0.  1.
</event>
<event>
 5   0  0.2705111E-02  0.9171181E+03  0.7818609E-02  0.9404432E-01
       -2   -1    0    0    0  501  0.00000000000E+00  0.00000000000E+00  0.12934797864E+03  0.12934797867E+03  0.25500000920E-02 0.  1.
        2   -1    0    0  501    0  0.00000000000E+00  0.00000000000E+00 -0.16256643104E+04  0.16256643104E+04  0.25500000920E-02 0. -1.
    10030    2    1    2    0    0  0.00000000000E+00  0.00000000000E+00 -0.14963163317E+04  0.17550122890E+04  0.91711807859E+03 0.  0.
        4    1    3    3  502    0  0.44305677994E+03 -0.34089056532E+02 -0.96477250099E+03  0.10621906447E+04  0.12699999809E+01 0. -1.
       -4    1    3    3    0  502 -0.44305677994E+03  0.34089056532E+02 -0.53154383074E+03  0.69282164438E+03  0.12699999809E+01 0.  1.
</event>
<event>
 5   0  0.2628383E-02  0.8949167E+03  0.7818609E-02  0.9431958E-01
        2   -1    0    0  501    0  0.00000000000E+00  0.00000000000E+00  0.38685050030E+03  0.38685050031E+03  0.25500000920E-02 0. -1.
       -2   -1    0    0    0  501  0.00000000000E+00  0.00000000000E+00 -0.51756162936E+03  0.51756162937E+03  0.25500000920E-02 0.  1.
    10030    2    1    2    0    0  0.00000000000E+00  0.00000000000E+00 -0.13071112906E+03  0.90441212968E+03  0.89491670062E+03 0.  0.
        2    1    3    3  502    0  0.12637337678E+03  0.19897673669E+03  0.31901798770E+03  0.39665406665E+03  0.25500000920E-02 0. -1.
       -2    1    3    3    0  502 -0.12637337678E+03 -0.19897673669E+03 -0.44972911676E+03  0.50775806303E+03  0.25500000920E-02 0.  1.
</event>
<event>
 5   0  0.1537870E-02  0.6306251E+03  0.7818609E-02  0.9843830E-01
        1   -1    0    0  501    0  0.00000000000E+00  0.00000000000E+00  0.84238806946E+03  0.84238806948E+03  0.50400001928E-02 0.  1.
       -1   -1    0    0    0  501  0.00000000000E+00  0.00000000000E+00 -0.11802397722E+03  0.11802397733E+03  0.50400001928E-02 0. -1.
    10030    2    1    2    0    0  0.00000000000E+00  0.00000000000E+00  0.72436409224E+03  0.96041204681E+03  0.63062505622E+03 0.  0.
        5    1    3    3  502    0  0.29569703615E+03 -0.10848274689E+03  0.38343019943E+03  0.49623185246E+03  0.46999998093E+01 0.  1.
       -5    1    3    3    0  502 -0.29569703615E+03  0.10848274689E+03  0.34093389281E+03  0.46418019435E+03  0.46999998093E+01 0. -1.
</event>
<event>
 5   0  0.2628383E-02  0.9127166E+03  0.7818609E-02  0.9409823E-01
        2   -1    0    0  501    0  0.00000000000E+00  0.00000000000E+00  0.15127354066E+04  0.15127354066E+04  0.25500000920E-02 0. -1.
       -2   -1    0    0    0  501  0.00000000000E+00  0.00000000000E+00 -0.13767303774E+03  0.13767303776E+03  0.25500000920E-02 0.  1.
    10030    2    1    2    0    0  0.00000000000E+00  0.00000000000E+00  0.13750623689E+04  0.16504084444E+04  0.91271655785E+03 0.  0.
        2    1    3    3  502    0 -0.54673134144E+02 -0.24342938097E+03  0.13784953559E+04  0.14008913096E+04  0.25500000920E-02 0. -1.
       -2    1    3    3    0  502  0.54673134144E+02  0.24342938097E+03 -0.34329870641E+01  0.24951713472E+03  0.25500000920E-02 0.  1.
</event>
<event>
 5   0  0.1537870E-02  0.8214175E+03  0.7818609E-02  0.9529523E-01
        1   -1    0    0  501    0  0.00000000000E+00  0.00000000000E+00  0.23717919779E+03  0.23717919784E+03  0.50400001928E-02 0.  1.
       -1   -1    0    0    0  501  0.00000000000E+00  0.00000000000E+00 -0.71119932386E+03  0.71119932388E+03  0.50400001928E-02 0. -1.
    10030    2    1    2    0    0  0.00000000000E+00  0.00000000000E+00 -0.47402012607E+03  0.94837852172E+03  0.82141751901E+03 0.  0.
        5    1    3    3  502    0  0.38908590476E+03  0.13133157719E+03 -0.24263915842E+03  0.47700280465E+03  0.46999998093E+01 0.  1.
       -5    1    3    3    0  502 -0.38908590476E+03 -0.13133157719E+03 -0.23138096765E+03  0.47137571707E+03  0.46999998093E+01 0. -1.
</event>
<event>
 5   0  0.1459111E-02  0.9243648E+03  0.7818609E-02  0.9395626E-01
        1   -1    0    0  501    0  0.00000000000E+00  0.00000000000E+00  0.43847584645E+03  0.43847584648E+03  0.50400001928E-02 0.  1.
       -1   -1    0    0    0  501  0.00000000000E+00  0.00000000000E+00 -0.48717070483E+03  0.48717070486E+03  0.50400001928E-02 0. -1.
    10030    2    1    2    0    0  0.00000000000E+00  0.00000000000E+00 -0.48694858385E+02  0.92564655134E+03  0.92436483532E+03 0.  0.
        2    1    3    3  502    0 -0.21289982048E+03 -0.69550640638E+02  0.38050136975E+03  0.44152567033E+03  0.25500000920E-02 0.  1.
       -2    1    3    3    0  502  0.21289982048E+03  0.69550640638E+02 -0.42919622814E+03  0.48412088101E+03  0.25500000920E-02 0. -1.
</event>
<event>
 5   0  0.1459111E-02  0.9039881E+03  0.7818609E-02  0.9420610E-01
        1   -1    0    0  501    0  0.00000000000E+00  0.00000000000E+00  0.94671192594E+03  0.94671192595E+03  0.50400001928E-02 0.  1.
       -1   -1    0    0    0  501  0.00000000000E+00  0.00000000000E+00 -0.21579809990E+03  0.21579809996E+03  0.50400001928E-02 0. -1.
    10030    2    1    2    0    0  0.00000000000E+00  0.00000000000E+00  0.73091382604E+03  0.11625100259E+04  0.90398813003E+03 0.  0.
        2    1    3    3  502    0 -0.26248813665E+03  0.59311873028E+02 -0.10155141478E+03  0.28762929270E+03  0.25500000920E-02 0. -1.
       -2    1    3    3    0  502  0.26248813665E+03 -0.59311873028E+02  0.83246524082E+03  0.87488073321E+03  0.25500000920E-02 0.  1.
</event>
<event>
 5   0  0.1459111E-02  0.8749294E+03  0.7818609E-02  0.9457475E-01
        1   -1    0    0  501    0  0.00000000000E+00  0.00000000000E+00  0.47944632770E+03  0.47944632772E+03  0.50400001928E-02 0.  1.
       -1   -1    0    0    0  501  0.00000000000E+00  0.00000000000E+00 -0.39915910034E+03  0.39915910037E+03  0.50400001928E-02 0. -1.
    10030    2    1    2    0    0  0.00000000000E+00  0.00000000000E+00  0.80287227360E+02  0.87860542809E+03  0.87492940252E+03 0.  0.
        2    1    3    3  502    0  0.49057785451E+02 -0.41265190398E+03 -0.97131521372E+02  0.42675847106E+03  0.25500000920E-02 0. -1.
       -2    1    3    3    0  502 -0.49057785451E+02  0.41265190398E+03  0.17741874873E+03  0.45184695703E+03  0.25500000920E-02 0.  1.
</event>
<event>
 5   0  0.2679861E-02  0.8716999E+03  0.7818609E-02  0.9461666E-01
       -2   -1    0    0    0  501  0.00000000000E+00  0.00000000000E+00  0.12086934242E+03  0.12086934244E+03  0.25500000920E-02 0. -1.
        2   -1    0    0  501    0  0.00000000000E+00  0.00000000000E+00 -0.15716573260E+04  0.15716573260E+04  0.25500000920E-02 0.  1.
    10030    2    1    2    0    0  0.00000000000E+00  0.00000000000E+00 -0.14507879836E+04  0.16925266684E+04  0.87169991974E+03 0.  0.
        1    1    3    3  502    0  0.25014871305E+03 -0.34888174495E+03 -0.87162838346E+03  0.97161149102E+03  0.50400001928E-02 0. -1.
       -1    1    3    3    0  502 -0.25014871305E+03  0.34888174495E+03 -0.57915960011E+03  0.72091517741E+03  0.50400001928E-02 0.  1.
</event>
<event>
 5   0  0.2705111E-02  0.9047052E+03  0.7818609E-02  0.9419719E-01
        2   -1    0    0  501    0  0.00000000000E+00  0.00000000000E+00  0.29730949301E+03  0.29730949302E+03  0.25500000920E-02 0. -1.
       -2   -1    0    0    0  501  0.00000000000E+00  0.00000000000E+00 -0.68824869951E+03  0.68824869951E+03  0.25500000920E-02 0.  1.
    10030    2    1    2    0    0  0.00000000000E+00  0.00000000000E+00 -0.39093920650E+03  0.98555819254E+03  0.90470519381E+03 0.  0.
        4    1    3    3  502    0 -0.14667928889E+03 -0.30552379611E+03 -0.52184740661E+03  0.62224266364E+03  0.12699999809E+01 0.  1.
       -4    1    3    3    0  502  0.14667928889E+03  0.30552379611E+03  0.13090820011E+03  0.36331552889E+03  0.12699999809E+01 0. -1.
</event>
<event>
 5   0  0.1040163E-02  0.9289650E+03  0.7818609E-02  0.9390081E-01
        3   -1    0    0  501    0  0.00000000000E+00  0.00000000000E+00  0.33521062036E+03  0.33521063558E+03  0.10100000352E+00 0.  1.
       -3   -1    0    0    0  501  0.00000000000E+00  0.00000000000E+00 -0.64360725194E+03  0.64360725987E+03  0.10100000352E+00 0. -1.
    10030    2    1    2    0    0  0.00000000000E+00  0.00000000000E+00 -0.30839663159E+03  0.97881789544E+03  0.92896501014E+03 0.  0.
        5    1    3    3  502    0  0.26829190196E+03 -0.24992283610E+03 -0.45459437329E+03  0.58405488003E+03  0.46999998093E+01 0. -1.
       -5    1    3    3    0  502 -0.26829190196E+03  0.24992283610E+03  0.14619774170E+03  0.39476301541E+03  0.46999998093E+01 0.  1.
</event>
<event>
 5   0  0.1497410E-02  0.9295340E+03  0.7818609E-02  0.9389397E-01
        1   -1    0    0  501    0  0.00000000000E+00  0.00000000000E+00  0.21521461287E+03  0.21521461293E+03  0.50400001928E-02 0. -1.
       -1   -1    0    0    0  501  0.00000000000E+00  0.00000000000E+00 -0.10036882712E+04  0.10036882712E+04  0.50400001928E-02 0.  1.
    10030    2    1    2    0    0  0.00000000000E+00  0.00000000000E+00 -0.78847365828E+03  0.12189028841E+04  0.92953403974E+03 0.  0.
        3    1    3    3  502    0  0.38876380303E+03 -0.25100121603E+03 -0.33753947745E+03  0.57277553547E+03  0.10100000352E+00 0. -1.
       -3    1    3    3    0  502 -0.38876380303E+03  0.25100121603E+03 -0.45093418083E+03  0.64612734862E+03  0.10100000352E+00 0.  1.
</event>
<event>
 5   0  0.2414128E-02  0.1013429E+04  0.7818609E-02  0.9293938E-01
       -2   -1    0    0    0  501  0.00000000000E+00  0.00000000000E+00  0.10276409009E+04  0.10276409009E+04  0.25500000920E-02 0.  1.
        2   -1    0    0  501    0  0.00000000000E+00  0.00000000000E+00 -0.24985325158E+03  0.24985325160E+03  0.25500000920E-02 0. -1.
    10030    2    1    2    0    0  0.00000000000E+00  0.00000000000E+00  0.77778764931E+03  0.12774941525E+04  0.10134286764E+04 0.  0.
        3    1    3    3  502    0 -0.42106363389E+03  0.32562930133E+02  0.35925139494E+02  0.42384614431E+03  0.10100000352E+00 0. -1.
       -3    1    3    3    0  502  0.42106363389E+03 -0.32562930133E+02  0.74186250981E+03  0.85364800818E+03  0.10100000352E+00 0.  1.
</event>
<event>
 5   0  0.1497410E-02  0.9297234E+03  0.7818609E-02  0.9389170E-01
       -1   -1    0    0    0  501  0.00000000000E+00  0.00000000000E+00  0.16924609947E+03  0.16924609954E+03  0.50400001928E-02 0.  1.
        1   -1    0    0  501    0  0.00000000000E+00  0.00000000000E+00 -0.12768176963E+04  0.12768176963E+04  0.50400001928E-02 0. -1.
    10030    2    1    2    0    0  0.00000000000E+00  0.00000000000E+00 -0.11075715968E+04  0.14460637958E+04  0.92972343175E+03 0.  0.
        3    1    3    3  502    0 -0.30139737711E+03 -0.47015675823E+01 -0.33652157800E+01  0.30145284630E+03  0.10100000352E+00 0.  1.
       -3    1    3    3    0  502  0.30139737711E+03  0.47015675823E+01 -0.11042063810E+04  0.11446109495E+04  0.10100000352E+00 0. -1.
</event>
<event>
 5   0  0.1459111E-02  0.8831300E+03  0.7818609E-02  0.9446919E-01
        1   -1    0    0  501    0  0.00000000000E+00  0.00000000000E+00  0.96470694494E+03  0.96470694495E+03  0.50400001928E-02 0. -1.
       -1   -1    0    0    0  501  0.00000000000E+00  0.00000000000E+00 -0.20211285086E+03  0.20211285092E+03  0.50400001928E-02 0.  1.
    10030    2    1    2    0    0  0.00000000000E+00  0.00000000000E+00  0.76259409407E+03  0.11668197959E+04  0.88313004916E+03 0.  0.
        2    1    3    3  502    0  0.35693779877E+03 -0.32044773326E+02  0.72213450660E+03  0.80616977450E+03  0.25500000920E-02 0. -1.
       -2    1    3    3    0  502 -0.35693779877E+03  0.32044773326E+02  0.40459587473E+02  0.36065002137E+03  0.25500000920E-02 0.  1.
</event>
<event>
 5   0  0.2628383E-02  0.9297726E+03  0.7818609E-02  0.9389111E-01
       -2   -1    0    0    0  501  0.00000000000E+00  0.00000000000E+00  0.20924327230E+03  0.20924327231E+03  0.25500000920E-02 0. -1.
        2   -1    0    0  501    0  0.00000000000E+00  0.00000000000E+00 -0.10328611876E+04  0.10328611876E+04  0.25500000920E-02 0.  1.
    10030    2    1    2    0    0  0.00000000000E+00  0.00000000000E+00 -0.82361791527E+03  0.12421044599E+04  0.92977256300E+03 0.  0.
        2    1    3    3  502    0 -0.34007166997E+03 -0.27677124811E+02 -0.83364021232E+03  0.90076121562E+03  0.25500000920E-02 0.  1.
       -2    1    3    3    0  502  0.34007166997E+03  0.27677124811E+02  0.10022297059E+02  0.34134324426E+03  0.25500000920E-02 0. -1.
</event>
<event>
 5   0  0.1537870E-02  0.9439833E+03  0.7818609E-02  0.9372211E-01
        1   -1    0    0  501    0  0.00000000000E+00  0.00000000000E+00  0.10508362302E+04  0.10508362302E+04  0.50400001928E-02 0. -1.
       -1   -1    0    0    0  501  0.00000000000E+00  0.00000000000E+00 -0.21199891077E+03  0.21199891083E+03  0.50400001928E-02 0.  1.
    10030    2    1    2    0    0  0.00000000000E+00  0.00000000000E+00  0.83883731941E+03  0.12628351410E+04  0.94398333935E+03 0.  0.
        5    1    3    3  502    0 -0.18636220285E+03  0.18954410744E+03 -0.10230618794E+03  0.28486222180E+03  0.46999998093E+01 0.  1.
       -5    1    3    3    0  502  0.18636220285E+03 -0.18954410744E+03  0.94114350735E+03  0.97797291923E+03  0.46999998093E+01 0. -1.
</event>
<event>
 5   0  0.1560728E-02  0.9208543E+03  0.7818609E-02  0.9399882E-01
        1   -1    0    0  501    0  0.00000000000E+00  0.00000000000E+00  0.41874403394E+03  0.41874403397E+03  0.50400001928E-02 0. -1.
       -1   -1    0    0    0  501  0.00000000000E+00  0.00000000000E+00 -0.50625949580E+03  0.50625949583E+03  0.50400001928E-02 0.  1.
    10030    2    1    2    0    0  0.00000000000E+00  0.00000000000E+00 -0.87515461862E+02  0.92500352980E+03  0.92085426322E+03 0.  0.
        4    1    3    3  502    0  0.26055785625E+02 -0.45941519219E+03 -0.59650139167E+02  0.46400536073E+03  0.12699999809E+01 0.  1.
       -4    1    3    3    0  502 -0.26055785625E+02  0.45941519219E+03 -0.27865322695E+02  0.46099816908E+03  0.12699999809E+01 0. -1.
</event>
<event>
 5   0  0.2705111E-02  0.8916776E+03  0.7818609E-02  0.9436045E-01
       -2   -1    0    0    0  501  0.00000000000E+00  0.00000000000E+00  0.44046708319E+03  0.44046708320E+03  0.25500000920E-02 0. -1.
        2   -1    0    0  501    0  0.00000000000E+00  0.00000000000E+00 -0.45127602941E+03  0.45127602941E+03  0.25500000920E-02 0.  1.
    10030    2    1    2    0    0  0.00000000000E+00  0.00000000000E+00 -0.10808946217E+02  0.89174311261E+03  0.89167760181E+03 0.  0.
        4    1    3    3  502    0 -0.26265304600E+03  0.35029354063E+03  0.78735151572E+02  0.44485168784E+03  0.12699999809E+01 0. -1.
       -4    1    3    3    0  502  0.26265304600E+03 -0.35029354063E+03 -0.89544097789E+02  0.44689142477E+03  0.12699999809E+01 0.  1.
</event>
<event>
 5   0  0.1559275E-02  0.9046839E+03  0.7818609E-02  0.9419745E-01
       -1   -1    0    0    0  501  0.00000000000E+00  0.00000000000E+00  0.25828218519E+03  0.25828218524E+03  0.50400001928E-02 0.  1.
        1   -1    0    0  501    0  0.00000000000E+00  0.00000000000E+00 -0.79220802909E+03  0.79220802911E+03  0.50400001928E-02 0. -1.
    10030    2    1    2    0    0  0.00000000000E+00  0.00000000000E+00 -0.53392584390E+03  0.10504902143E+04  0.90468385840E+03 0.  0.
        1    1    3    3  502    0 -0.15964664332E+03 -0.32053989699E+03  0.53949092190E+02  0.36213724036E+03  0.50400001928E-02 0. -1.
       -1    1    3    3    0  502  0.15964664332E+03  0.32053989699E+03 -0.58787493609E+03  0.68835297399E+03  0.50400001928E-02 0.  1.
</event>
<event>
 5   0  0.2705111E-02  0.9088217E+03  0.7818609E-02  0.9414621E-01
       -2   -1    0    0    0  501  0.00000000000E+00  0.00000000000E+00  0.12404597566E+03  0.12404597569E+03  0.25500000920E-02 0.  1.
        2   -1    0    0  501    0  0.00000000000E+00  0.00000000000E+00 -0.16646183402E+04  0.16646183402E+04  0.25500000920E-02 0. -1.
    10030    2    1    2    0    0  0.00000000000E+00  0.00000000000E+00 -0.15405723645E+04  0.17886643158E+04  0.90882166817E+03 0.  0.
        4    1    3    3  502    0  0.11235737580E+03 -0.34111006262E+03 -0.22236059479E+03  0.42240513933E+03  0.12699999809E+01 0.  1.
       -4    1    3    3    0  502 -0.11235737580E+03  0.34111006262E+03 -0.13182117697E+04  0.13662591765E+04  0.12699999809E+01 0. -1.
</event>
<event>
 5   0  0.2803717E-02  0.8701932E+03  0.7818609E-02  0.9463628E-01
        2   -1    0    0  501    0  0.00000000000E+00  0.00000000000E+00  0.59116844865E+03  0.59116844865E+03  0.25500000920E-02 0.  1.
       -2   -1    0    0    0  501  0.00000000000E+00  0.00000000000E+00 -0.32022858952E+03  0.32022858953E+03  0.25500000920E-02 0. -1.
    10030    2    1    2    0    0  0.00000000000E+00  0.00000000000E+00  0.27093985913E+03  0.91139703818E+03  0.87019317047E+03 0.  0.
        5    1    3    3  502    0  0.33712817323E+03 -0.11069508652E+03  0.39914051957E+03  0.53408243907E+03  0.46999998093E+01 0.  1.
       -5    1    3    3    0  502 -0.33712817323E+03  0.11069508652E+03 -0.12820066044E+03  0.37731459911E+03  0.46999998093E+01 0. -1.
</event>
<event>
 5   0  0.1560728E-02  0.8920146E+03  0.7818609E-02  0.9435619E-01
       -1   -1    0    0    0  501  0.00000000000E+00  0.00000000000E+00  0.23087478956E+03  0.23087478961E+03  0.50400001928E-02 0. -1.
        1   -1    0    0  501    0  0.00000000000E+00  0.00000000000E+00 -0.86160335100E+03  0.86160335102E+03  0.50400001928E-02 0.  1.
    10030    2    1    2    0    0  0.00000000000E+00  0.00000000000E+00 -0.63072856144E+03  0.10924781406E+04  0.89201455679E+03 0.  0.
        4    1    3    3  502    0 -0.18277920454E+03  0.57234150878E+02  0.17794084228E+03  0.26143554060E+03  0.12699999809E+01 0. -1.
       -4    1    3    3    0  502  0.18277920454E+03 -0.57234150878E+02 -0.80866940372E+03  0.83104260003E+03  0.12699999809E+01 0.  1.
</event>
<event>
 5   0  0.2803717E-02  0.9104277E+03  0.7818609E-02  0.9412639E-01
        2   -1    0    0  501    0  0.00000000000E+00  0.00000000000E+00  0.16000247220E+04  0.16000247220E+04  0.25500000920E-02 0. -1.
       -2   -1    0    0    0  501  0.00000000000E+00  0.00000000000E+00 -0.12951028059E+03  0.12951028061E+03  0.25500000920E-02 0.  1.
    10030    2    1    2    0    0  0.00000000000E+00  0.00000000000E+00  0.14705144414E+04  0.17295350026E+04  0.91042770325E+03 0.  0.
        5    1    3    3  502    0 -0.13547240986E+03 -0.14121831403E+03 -0.45473937679E+02  0.20096107846E+03  0.46999998093E+01 0.  1.
       -5    1    3    3    0  502  0.13547240986E+03  0.14121831403E+03  0.15159883790E+04  0.15285739241E+04  0.46999998093E+01 0. -1.
</event>
<event>
 5   0  0.1040163E-02  0.7744100E+03  0.7818609E-02  0.9597815E-01
        4   -1    0    0  501    0  0.00000000000E+00  0.00000000000E+00  0.58876801247E+03  0.58876938219E+03  0.12699999809E+01 0.  1.
       -4   -1    0    0    0  501  0.00000000000E+00  0.00000000000E+00 -0.25464323359E+03  0.25464640055E+03  0.12699999809E+01 0. -1.
    10030    2    1    2    0    0  0.00000000000E+00  0.00000000000E+00  0.33412477888E+03  0.84341578274E+03  0.77440997844E+03 0.  0.
        1    1    3    3  502    0  0.12841241763E+03  0.32040669908E+03 -0.24005394380E+02  0.34601511643E+03  0.50400001928E-02 0. -1.
       -1    1    3    3    0  502 -0.12841241763E+03 -0.32040669908E+03  0.35813017326E+03  0.49740066631E+03  0.50400001928E-02 0.  1.
</event>
<event>
 5   0  0.1040163E-02  0.9087249E+03  0.7818609E-02  0.9414740E-01
       -3   -1    0    0    0  501  0.00000000000E+00  0.00000000000E+00  0.13522122787E+04  0.13522122825E+04  0.10100000352E+00 0.  1.
        3   -1    0    0  501    0  0.00000000000E+00  0.00000000000E+00 -0.15267218614E+03  0.15267221955E+03  0.10100000352E+00 0. -1.
    10030    2    1    2    0    0  0.00000000000E+00  0.00000000000E+00  0.11995400926E+04  0.15048845021E+04  0.90872489280E+03 0.  0.
        5    1    3    3  502    0 -0.22541294471E+03 -0.28281348817E+03  0.14434805368E+03  0.38942639270E+03  0.46999998093E+01 0. -1.
       -5    1    3    3    0  502  0.22541294471E+03  0.28281348817E+03  0.10551920389E+04  0.11154581094E+04  0.46999998093E+01 0.  1.
</event>
<event>
 5   0  0.2628383E-02  0.9014258E+03  0.7818609E-02  0.9423801E-01
       -2   -1    0    0    0  501  0.00000000000E+00  0.00000000000E+00  0.11233280043E+03  0.11233280046E+03  0.25500000920E-02 0. -1.
        2   -1    0    0  501    0  0.00000000000E+00  0.00000000000E+00 -0.18083955272E+04  0.18083955272E+04  0.25500000920E-02 0.  1.
    10030    2    1    2    0    0  0.00000000000E+00  0.00000000000E+00 -0.16960627268E+04  0.19207283277E+04  0.90142583476E+03 0.  0.
        2    1    3    3  502    0 -0.75995949841E+02  0.95009355593E+02  0.76682122601E+02  0.14381345547E+03  0.25500000920E-02 0. -1.
       -2    1    3    3    0  502  0.75995949841E+02 -0.95009355593E+02 -0.17727448494E+04  0.17769148722E+04  0.25500000920E-02 0.  1.
</event>
<event>
 5   0  0.1497410E-02  0.9325129E+03  0.7818609E-02  0.9385827E-01
        1   -1    0    0  501    0  0.00000000000E+00  0.00000000000E+00  0.31516555090E+03  0.31516555094E+03  0.50400001928E-02 0.  1.
       -1   -1    0    0    0  501  0.00000000000E+00  0.00000000000E+00 -0.68978052321E+03  0.68978052323E+03  0.50400001928E-02 0. -1.
    10030    2    1    2    0    0  0.00000000000E+00  0.00000000000E+00 -0.37461497232E+03  0.10049460742E+04  0.93251286024E+03 0.  0.
        3    1    3    3  502    0  0.20078367301E+03 -0.24091327814E+03 -0.55913163557E+03  0.64107837823E+03  0.10100000352E+00 0. -1.
       -3    1    3    3    0  502 -0.20078367301E+03  0.24091327814E+03  0.18451666326E+03  0.36386769595E+03  0.10100000352E+00 0.  1.
</event>
</LesHouchesEvents>
